  20  20   1   0
  0.4028928E+02  0.8841019E-09  0.1182145E-08  0.7709862E-09  0.5000000E-15
   1.0000000000000000E-004
  CAR 
 CsPbBr3 cubic bulk                      
      8.62863221    -22.17706489  301      0.33676541      1.00000000
    -22.177  0.0000E+00  0.0000E+00
    -22.074  0.0000E+00  0.0000E+00
    -21.972  0.0000E+00  0.0000E+00
    -21.869  0.0000E+00  0.0000E+00
    -21.766  0.0000E+00  0.0000E+00
    -21.664  0.0000E+00  0.0000E+00
    -21.561  0.0000E+00  0.0000E+00
    -21.458  0.0000E+00  0.0000E+00
    -21.356  0.0000E+00  0.0000E+00
    -21.253  0.0000E+00  0.0000E+00
    -21.150  0.0000E+00  0.0000E+00
    -21.048  0.0000E+00  0.0000E+00
    -20.945  0.0000E+00  0.0000E+00
    -20.842  0.0000E+00  0.0000E+00
    -20.739  0.7791E+02  0.8000E+01
    -20.637  0.0000E+00  0.8000E+01
    -20.534  0.0000E+00  0.8000E+01
    -20.431  0.0000E+00  0.8000E+01
    -20.329  0.0000E+00  0.8000E+01
    -20.226  0.0000E+00  0.8000E+01
    -20.123  0.0000E+00  0.8000E+01
    -20.021  0.0000E+00  0.8000E+01
    -19.918  0.0000E+00  0.8000E+01
    -19.815  0.0000E+00  0.8000E+01
    -19.713  0.0000E+00  0.8000E+01
    -19.610  0.0000E+00  0.8000E+01
    -19.507  0.0000E+00  0.8000E+01
    -19.405  0.0000E+00  0.8000E+01
    -19.302  0.0000E+00  0.8000E+01
    -19.199  0.0000E+00  0.8000E+01
    -19.096  0.0000E+00  0.8000E+01
    -18.994  0.0000E+00  0.8000E+01
    -18.891  0.0000E+00  0.8000E+01
    -18.788  0.0000E+00  0.8000E+01
    -18.686  0.0000E+00  0.8000E+01
    -18.583  0.0000E+00  0.8000E+01
    -18.480  0.0000E+00  0.8000E+01
    -18.378  0.0000E+00  0.8000E+01
    -18.275  0.0000E+00  0.8000E+01
    -18.172  0.0000E+00  0.8000E+01
    -18.070  0.0000E+00  0.8000E+01
    -17.967  0.0000E+00  0.8000E+01
    -17.864  0.0000E+00  0.8000E+01
    -17.762  0.0000E+00  0.8000E+01
    -17.659  0.0000E+00  0.8000E+01
    -17.556  0.0000E+00  0.8000E+01
    -17.454  0.0000E+00  0.8000E+01
    -17.351  0.0000E+00  0.8000E+01
    -17.248  0.0000E+00  0.8000E+01
    -17.145  0.0000E+00  0.8000E+01
    -17.043  0.0000E+00  0.8000E+01
    -16.940  0.0000E+00  0.8000E+01
    -16.837  0.0000E+00  0.8000E+01
    -16.735  0.0000E+00  0.8000E+01
    -16.632  0.0000E+00  0.8000E+01
    -16.529  0.4077E+02  0.1219E+02
    -16.427  0.9115E+02  0.2692E+02
    -16.324  0.7791E+02  0.4800E+02
    -16.221  0.0000E+00  0.4800E+02
    -16.119  0.0000E+00  0.4800E+02
    -16.016  0.0000E+00  0.4800E+02
    -15.913  0.0000E+00  0.4800E+02
    -15.811  0.0000E+00  0.4800E+02
    -15.708  0.0000E+00  0.4800E+02
    -15.605  0.0000E+00  0.4800E+02
    -15.502  0.0000E+00  0.4800E+02
    -15.400  0.0000E+00  0.4800E+02
    -15.297  0.0000E+00  0.4800E+02
    -15.194  0.0000E+00  0.4800E+02
    -15.092  0.0000E+00  0.4800E+02
    -14.989  0.0000E+00  0.4800E+02
    -14.886  0.0000E+00  0.4800E+02
    -14.784  0.0000E+00  0.4800E+02
    -14.681  0.0000E+00  0.4800E+02
    -14.578  0.0000E+00  0.4800E+02
    -14.476  0.0000E+00  0.4800E+02
    -14.373  0.7705E-10  0.4800E+02
    -14.270  0.6304E+01  0.4865E+02
    -14.168  0.2314E+02  0.5115E+02
    -14.065  0.4429E+02  0.5621E+02
    -13.962  0.2685E+02  0.5965E+02
    -13.860  0.5034E+02  0.6595E+02
    -13.757  0.3847E+02  0.7139E+02
    -13.654  0.3246E+01  0.7200E+02
    -13.551  0.0000E+00  0.7200E+02
    -13.449  0.0000E+00  0.7200E+02
    -13.346  0.0000E+00  0.7200E+02
    -13.243  0.0000E+00  0.7200E+02
    -13.141  0.0000E+00  0.7200E+02
    -13.038  0.0000E+00  0.7200E+02
    -12.935  0.0000E+00  0.7200E+02
    -12.833  0.0000E+00  0.7200E+02
    -12.730  0.0000E+00  0.7200E+02
    -12.627  0.0000E+00  0.7200E+02
    -12.525  0.0000E+00  0.7200E+02
    -12.422  0.0000E+00  0.7200E+02
    -12.319  0.0000E+00  0.7200E+02
    -12.217  0.0000E+00  0.7200E+02
    -12.114  0.0000E+00  0.7200E+02
    -12.011  0.0000E+00  0.7200E+02
    -11.908  0.0000E+00  0.7200E+02
    -11.806  0.0000E+00  0.7200E+02
    -11.703  0.0000E+00  0.7200E+02
    -11.600  0.0000E+00  0.7200E+02
    -11.498  0.0000E+00  0.7200E+02
    -11.395  0.0000E+00  0.7200E+02
    -11.292  0.0000E+00  0.7200E+02
    -11.190  0.0000E+00  0.7200E+02
    -11.087  0.0000E+00  0.7200E+02
    -10.984  0.0000E+00  0.7200E+02
    -10.882  0.0000E+00  0.7200E+02
    -10.779  0.0000E+00  0.7200E+02
    -10.676  0.0000E+00  0.7200E+02
    -10.574  0.0000E+00  0.7200E+02
    -10.471  0.0000E+00  0.7200E+02
    -10.368  0.0000E+00  0.7200E+02
    -10.266  0.0000E+00  0.7200E+02
    -10.163  0.0000E+00  0.7200E+02
    -10.060  0.0000E+00  0.7200E+02
     -9.957  0.0000E+00  0.7200E+02
     -9.855  0.0000E+00  0.7200E+02
     -9.752  0.0000E+00  0.7200E+02
     -9.649  0.0000E+00  0.7200E+02
     -9.547  0.0000E+00  0.7200E+02
     -9.444  0.0000E+00  0.7200E+02
     -9.341  0.0000E+00  0.7200E+02
     -9.239  0.0000E+00  0.7200E+02
     -9.136  0.0000E+00  0.7200E+02
     -9.033  0.0000E+00  0.7200E+02
     -8.931  0.0000E+00  0.7200E+02
     -8.828  0.0000E+00  0.7200E+02
     -8.725  0.0000E+00  0.7200E+02
     -8.623  0.0000E+00  0.7200E+02
     -8.520  0.0000E+00  0.7200E+02
     -8.417  0.0000E+00  0.7200E+02
     -8.315  0.0000E+00  0.7200E+02
     -8.212  0.6840E-06  0.7200E+02
     -8.109  0.1082E+01  0.7211E+02
     -8.006  0.3858E-02  0.7211E+02
     -7.904  0.4328E+01  0.7278E+02
     -7.801  0.4328E+01  0.7322E+02
     -7.698  0.8657E+01  0.7411E+02
     -7.596  0.1407E+02  0.7556E+02
     -7.493  0.4529E+01  0.7602E+02
     -7.390  0.1034E+02  0.7728E+02
     -7.288  0.1232E+02  0.7860E+02
     -7.185  0.7166E+02  0.8614E+02
     -7.082  0.9305E+02  0.1028E+03
     -6.980  0.6461E+01  0.1034E+03
     -6.877  0.4328E+01  0.1039E+03
     -6.774  0.0000E+00  0.1039E+03
     -6.672  0.2034E-04  0.1039E+03
     -6.569  0.1082E+01  0.1040E+03
     -6.466  0.0000E+00  0.1040E+03
     -6.363  0.0000E+00  0.1040E+03
     -6.261  0.0000E+00  0.1040E+03
     -6.158  0.0000E+00  0.1040E+03
     -6.055  0.0000E+00  0.1040E+03
     -5.953  0.0000E+00  0.1040E+03
     -5.850  0.0000E+00  0.1040E+03
     -5.747  0.0000E+00  0.1040E+03
     -5.645  0.0000E+00  0.1040E+03
     -5.542  0.0000E+00  0.1040E+03
     -5.439  0.0000E+00  0.1040E+03
     -5.337  0.0000E+00  0.1040E+03
     -5.234  0.0000E+00  0.1040E+03
     -5.131  0.0000E+00  0.1040E+03
     -5.029  0.0000E+00  0.1040E+03
     -4.926  0.0000E+00  0.1040E+03
     -4.823  0.0000E+00  0.1040E+03
     -4.721  0.0000E+00  0.1040E+03
     -4.618  0.0000E+00  0.1040E+03
     -4.515  0.0000E+00  0.1040E+03
     -4.412  0.0000E+00  0.1040E+03
     -4.310  0.0000E+00  0.1040E+03
     -4.207  0.0000E+00  0.1040E+03
     -4.104  0.0000E+00  0.1040E+03
     -4.002  0.0000E+00  0.1040E+03
     -3.899  0.0000E+00  0.1040E+03
     -3.796  0.0000E+00  0.1040E+03
     -3.694  0.0000E+00  0.1040E+03
     -3.591  0.0000E+00  0.1040E+03
     -3.488  0.0000E+00  0.1040E+03
     -3.386  0.0000E+00  0.1040E+03
     -3.283  0.8449E+01  0.1049E+03
     -3.180  0.1155E+02  0.1063E+03
     -3.078  0.7527E+01  0.1072E+03
     -2.975  0.8090E+01  0.1087E+03
     -2.872  0.4641E+01  0.1094E+03
     -2.769  0.1009E+02  0.1113E+03
     -2.667  0.7067E+01  0.1132E+03
     -2.564  0.4328E+01  0.1138E+03
     -2.461  0.1971E+02  0.1158E+03
     -2.359  0.1912E+02  0.1180E+03
     -2.256  0.2187E+01  0.1182E+03
     -2.153  0.8941E+01  0.1198E+03
     -2.051  0.2179E+02  0.1230E+03
     -1.948  0.2850E+02  0.1264E+03
     -1.845  0.3251E+01  0.1269E+03
     -1.743  0.1308E+02  0.1286E+03
     -1.640  0.3831E+02  0.1339E+03
     -1.537  0.8023E+01  0.1352E+03
     -1.435  0.4472E+02  0.1414E+03
     -1.332  0.6158E+02  0.1490E+03
     -1.229  0.3436E+02  0.1539E+03
     -1.127  0.6084E+02  0.1608E+03
     -1.024  0.4434E+02  0.1662E+03
     -0.921  0.1172E+02  0.1681E+03
     -0.818  0.1730E+02  0.1700E+03
     -0.716  0.1802E+02  0.1721E+03
     -0.613  0.1186E+02  0.1733E+03
     -0.510  0.4921E+01  0.1741E+03
     -0.408  0.4328E+01  0.1747E+03
     -0.305  0.3709E-01  0.1747E+03
     -0.202  0.2182E+01  0.1750E+03
     -0.100  0.4328E+01  0.1759E+03
      0.003  0.0000E+00  0.1759E+03
      0.106  0.0000E+00  0.1759E+03
      0.208  0.0000E+00  0.1759E+03
      0.311  0.1073E+01  0.1760E+03
      0.414  0.0000E+00  0.1760E+03
      0.516  0.0000E+00  0.1760E+03
      0.619  0.0000E+00  0.1760E+03
      0.722  0.0000E+00  0.1760E+03
      0.825  0.0000E+00  0.1760E+03
      0.927  0.0000E+00  0.1760E+03
      1.030  0.0000E+00  0.1760E+03
      1.133  0.0000E+00  0.1760E+03
      1.235  0.0000E+00  0.1760E+03
      1.338  0.0000E+00  0.1760E+03
      1.441  0.0000E+00  0.1760E+03
      1.543  0.0000E+00  0.1760E+03
      1.646  0.0000E+00  0.1760E+03
      1.749  0.0000E+00  0.1760E+03
      1.851  0.0000E+00  0.1760E+03
      1.954  0.0000E+00  0.1760E+03
      2.057  0.0000E+00  0.1760E+03
      2.159  0.0000E+00  0.1760E+03
      2.262  0.0000E+00  0.1760E+03
      2.365  0.0000E+00  0.1760E+03
      2.467  0.3990E-05  0.1760E+03
      2.570  0.1082E+01  0.1761E+03
      2.673  0.3912E-04  0.1761E+03
      2.776  0.3246E+01  0.1764E+03
      2.878  0.4327E+01  0.1769E+03
      2.981  0.1082E+02  0.1780E+03
      3.084  0.3563E+01  0.1784E+03
      3.186  0.1514E+02  0.1800E+03
      3.289  0.6119E-11  0.1802E+03
      3.392  0.1138E+02  0.1814E+03
      3.494  0.9363E-03  0.1816E+03
      3.597  0.4400E+01  0.1820E+03
      3.700  0.2544E+01  0.1825E+03
      3.802  0.3413E+01  0.1832E+03
      3.905  0.1298E+02  0.1847E+03
      4.008  0.4329E+01  0.1851E+03
      4.110  0.6492E+01  0.1858E+03
      4.213  0.2164E+01  0.1860E+03
      4.316  0.2164E+01  0.1862E+03
      4.419  0.8810E+01  0.1871E+03
      4.521  0.2156E+01  0.1882E+03
      4.624  0.2237E+01  0.1891E+03
      4.727  0.1083E+02  0.1907E+03
      4.829  0.2657E+01  0.1914E+03
      4.932  0.7022E+01  0.1925E+03
      5.035  0.2164E+01  0.1932E+03
      5.137  0.6492E+01  0.1939E+03
      5.240  0.8664E+01  0.1948E+03
      5.343  0.1766E+00  0.1952E+03
      5.445  0.2164E+01  0.1960E+03
      5.548  0.2247E+01  0.1962E+03
      5.651  0.3243E+01  0.1974E+03
      5.753  0.2716E+01  0.1977E+03
      5.856  0.3388E+01  0.1989E+03
      5.959  0.4344E+01  0.1994E+03
      6.061  0.8859E+01  0.2008E+03
      6.164  0.6455E+01  0.2024E+03
      6.267  0.8173E+01  0.2035E+03
      6.370  0.1308E+02  0.2052E+03
      6.472  0.2863E+02  0.2087E+03
      6.575  0.1057E+02  0.2100E+03
      6.678  0.2008E+02  0.2134E+03
      6.780  0.1556E+02  0.2150E+03
      6.883  0.1539E+02  0.2172E+03
      6.986  0.1416E+02  0.2195E+03
      7.088  0.1177E+02  0.2213E+03
      7.191  0.1731E+02  0.2234E+03
      7.294  0.4328E+01  0.2240E+03
      7.396  0.0000E+00  0.2240E+03
      7.499  0.0000E+00  0.2240E+03
      7.602  0.0000E+00  0.2240E+03
      7.704  0.0000E+00  0.2240E+03
      7.807  0.0000E+00  0.2240E+03
      7.910  0.0000E+00  0.2240E+03
      8.013  0.0000E+00  0.2240E+03
      8.115  0.0000E+00  0.2240E+03
      8.218  0.0000E+00  0.2240E+03
      8.321  0.0000E+00  0.2240E+03
      8.423  0.0000E+00  0.2240E+03
      8.526  0.0000E+00  0.2240E+03
      8.629  0.0000E+00  0.2240E+03
      8.62863221    -22.17706489  301      0.33676541      1.00000000
    -22.177  0.0000E+00  0.0000E+00  0.0000E+00
    -22.074  0.0000E+00  0.0000E+00  0.0000E+00
    -21.972  0.0000E+00  0.0000E+00  0.0000E+00
    -21.869  0.0000E+00  0.0000E+00  0.0000E+00
    -21.766  0.0000E+00  0.0000E+00  0.0000E+00
    -21.664  0.0000E+00  0.0000E+00  0.0000E+00
    -21.561  0.0000E+00  0.0000E+00  0.0000E+00
    -21.458  0.0000E+00  0.0000E+00  0.0000E+00
    -21.356  0.0000E+00  0.0000E+00  0.0000E+00
    -21.253  0.0000E+00  0.0000E+00  0.0000E+00
    -21.150  0.0000E+00  0.0000E+00  0.0000E+00
    -21.048  0.0000E+00  0.0000E+00  0.0000E+00
    -20.945  0.0000E+00  0.0000E+00  0.0000E+00
    -20.842  0.0000E+00  0.0000E+00  0.0000E+00
    -20.739  0.1729E+02  0.1382E-04  0.1933E-05
    -20.637  0.0000E+00  0.0000E+00  0.0000E+00
    -20.534  0.0000E+00  0.0000E+00  0.0000E+00
    -20.431  0.0000E+00  0.0000E+00  0.0000E+00
    -20.329  0.0000E+00  0.0000E+00  0.0000E+00
    -20.226  0.0000E+00  0.0000E+00  0.0000E+00
    -20.123  0.0000E+00  0.0000E+00  0.0000E+00
    -20.021  0.0000E+00  0.0000E+00  0.0000E+00
    -19.918  0.0000E+00  0.0000E+00  0.0000E+00
    -19.815  0.0000E+00  0.0000E+00  0.0000E+00
    -19.713  0.0000E+00  0.0000E+00  0.0000E+00
    -19.610  0.0000E+00  0.0000E+00  0.0000E+00
    -19.507  0.0000E+00  0.0000E+00  0.0000E+00
    -19.405  0.0000E+00  0.0000E+00  0.0000E+00
    -19.302  0.0000E+00  0.0000E+00  0.0000E+00
    -19.199  0.0000E+00  0.0000E+00  0.0000E+00
    -19.096  0.0000E+00  0.0000E+00  0.0000E+00
    -18.994  0.0000E+00  0.0000E+00  0.0000E+00
    -18.891  0.0000E+00  0.0000E+00  0.0000E+00
    -18.788  0.0000E+00  0.0000E+00  0.0000E+00
    -18.686  0.0000E+00  0.0000E+00  0.0000E+00
    -18.583  0.0000E+00  0.0000E+00  0.0000E+00
    -18.480  0.0000E+00  0.0000E+00  0.0000E+00
    -18.378  0.0000E+00  0.0000E+00  0.0000E+00
    -18.275  0.0000E+00  0.0000E+00  0.0000E+00
    -18.172  0.0000E+00  0.0000E+00  0.0000E+00
    -18.070  0.0000E+00  0.0000E+00  0.0000E+00
    -17.967  0.0000E+00  0.0000E+00  0.0000E+00
    -17.864  0.0000E+00  0.0000E+00  0.0000E+00
    -17.762  0.0000E+00  0.0000E+00  0.0000E+00
    -17.659  0.0000E+00  0.0000E+00  0.0000E+00
    -17.556  0.0000E+00  0.0000E+00  0.0000E+00
    -17.454  0.0000E+00  0.0000E+00  0.0000E+00
    -17.351  0.0000E+00  0.0000E+00  0.0000E+00
    -17.248  0.0000E+00  0.0000E+00  0.0000E+00
    -17.145  0.0000E+00  0.0000E+00  0.0000E+00
    -17.043  0.0000E+00  0.0000E+00  0.0000E+00
    -16.940  0.0000E+00  0.0000E+00  0.0000E+00
    -16.837  0.0000E+00  0.0000E+00  0.0000E+00
    -16.735  0.0000E+00  0.0000E+00  0.0000E+00
    -16.632  0.0000E+00  0.0000E+00  0.0000E+00
    -16.529  0.5039E-04  0.3411E-04  0.9081E-05
    -16.427  0.2786E-04  0.3434E-04  0.3592E-05
    -16.324  0.2446E-04  0.1346E-04  0.1698E-05
    -16.221  0.0000E+00  0.0000E+00  0.0000E+00
    -16.119  0.0000E+00  0.0000E+00  0.0000E+00
    -16.016  0.0000E+00  0.0000E+00  0.0000E+00
    -15.913  0.0000E+00  0.0000E+00  0.0000E+00
    -15.811  0.0000E+00  0.0000E+00  0.0000E+00
    -15.708  0.0000E+00  0.0000E+00  0.0000E+00
    -15.605  0.0000E+00  0.0000E+00  0.0000E+00
    -15.502  0.0000E+00  0.0000E+00  0.0000E+00
    -15.400  0.0000E+00  0.0000E+00  0.0000E+00
    -15.297  0.0000E+00  0.0000E+00  0.0000E+00
    -15.194  0.0000E+00  0.0000E+00  0.0000E+00
    -15.092  0.0000E+00  0.0000E+00  0.0000E+00
    -14.989  0.0000E+00  0.0000E+00  0.0000E+00
    -14.886  0.0000E+00  0.0000E+00  0.0000E+00
    -14.784  0.0000E+00  0.0000E+00  0.0000E+00
    -14.681  0.0000E+00  0.0000E+00  0.0000E+00
    -14.578  0.0000E+00  0.0000E+00  0.0000E+00
    -14.476  0.0000E+00  0.0000E+00  0.0000E+00
    -14.373  0.3548E-13  0.4544E-15  0.1638E-16
    -14.270  0.2164E-02  0.4605E-03  0.6352E-05
    -14.168  0.3869E-02  0.3989E-02  0.7250E-04
    -14.065  0.1889E-02  0.7339E-02  0.3845E-03
    -13.962  0.1824E-02  0.3636E-02  0.3279E-03
    -13.860  0.9908E-03  0.4498E-02  0.4321E-03
    -13.757  0.8377E-03  0.2391E-02  0.4180E-03
    -13.654  0.4521E-04  0.2448E-03  0.3147E-04
    -13.551  0.0000E+00  0.0000E+00  0.0000E+00
    -13.449  0.0000E+00  0.0000E+00  0.0000E+00
    -13.346  0.0000E+00  0.0000E+00  0.0000E+00
    -13.243  0.0000E+00  0.0000E+00  0.0000E+00
    -13.141  0.0000E+00  0.0000E+00  0.0000E+00
    -13.038  0.0000E+00  0.0000E+00  0.0000E+00
    -12.935  0.0000E+00  0.0000E+00  0.0000E+00
    -12.833  0.0000E+00  0.0000E+00  0.0000E+00
    -12.730  0.0000E+00  0.0000E+00  0.0000E+00
    -12.627  0.0000E+00  0.0000E+00  0.0000E+00
    -12.525  0.0000E+00  0.0000E+00  0.0000E+00
    -12.422  0.0000E+00  0.0000E+00  0.0000E+00
    -12.319  0.0000E+00  0.0000E+00  0.0000E+00
    -12.217  0.0000E+00  0.0000E+00  0.0000E+00
    -12.114  0.0000E+00  0.0000E+00  0.0000E+00
    -12.011  0.0000E+00  0.0000E+00  0.0000E+00
    -11.908  0.0000E+00  0.0000E+00  0.0000E+00
    -11.806  0.0000E+00  0.0000E+00  0.0000E+00
    -11.703  0.0000E+00  0.0000E+00  0.0000E+00
    -11.600  0.0000E+00  0.0000E+00  0.0000E+00
    -11.498  0.0000E+00  0.0000E+00  0.0000E+00
    -11.395  0.0000E+00  0.0000E+00  0.0000E+00
    -11.292  0.0000E+00  0.0000E+00  0.0000E+00
    -11.190  0.0000E+00  0.0000E+00  0.0000E+00
    -11.087  0.0000E+00  0.0000E+00  0.0000E+00
    -10.984  0.0000E+00  0.0000E+00  0.0000E+00
    -10.882  0.0000E+00  0.0000E+00  0.0000E+00
    -10.779  0.0000E+00  0.0000E+00  0.0000E+00
    -10.676  0.0000E+00  0.0000E+00  0.0000E+00
    -10.574  0.0000E+00  0.0000E+00  0.0000E+00
    -10.471  0.0000E+00  0.0000E+00  0.0000E+00
    -10.368  0.0000E+00  0.0000E+00  0.0000E+00
    -10.266  0.0000E+00  0.0000E+00  0.0000E+00
    -10.163  0.0000E+00  0.0000E+00  0.0000E+00
    -10.060  0.0000E+00  0.0000E+00  0.0000E+00
     -9.957  0.0000E+00  0.0000E+00  0.0000E+00
     -9.855  0.0000E+00  0.0000E+00  0.0000E+00
     -9.752  0.0000E+00  0.0000E+00  0.0000E+00
     -9.649  0.0000E+00  0.0000E+00  0.0000E+00
     -9.547  0.0000E+00  0.0000E+00  0.0000E+00
     -9.444  0.0000E+00  0.0000E+00  0.0000E+00
     -9.341  0.0000E+00  0.0000E+00  0.0000E+00
     -9.239  0.0000E+00  0.0000E+00  0.0000E+00
     -9.136  0.0000E+00  0.0000E+00  0.0000E+00
     -9.033  0.0000E+00  0.0000E+00  0.0000E+00
     -8.931  0.0000E+00  0.0000E+00  0.0000E+00
     -8.828  0.0000E+00  0.0000E+00  0.0000E+00
     -8.725  0.0000E+00  0.0000E+00  0.0000E+00
     -8.623  0.0000E+00  0.0000E+00  0.0000E+00
     -8.520  0.0000E+00  0.0000E+00  0.0000E+00
     -8.417  0.0000E+00  0.0000E+00  0.0000E+00
     -8.315  0.0000E+00  0.0000E+00  0.0000E+00
     -8.212  0.9603E-25  0.2544E-09  0.6185E-11
     -8.109  0.1519E-18  0.4024E-03  0.9785E-05
     -8.006  0.2310E-21  0.3378E-05  0.2003E-07
     -7.904  0.1889E-05  0.5361E-02  0.3833E-04
     -7.801  0.5608E-17  0.7586E-02  0.3349E-04
     -7.698  0.1558E-04  0.2587E-01  0.5653E-04
     -7.596  0.2591E-04  0.5701E-01  0.7221E-04
     -7.493  0.2089E-06  0.1729E-01  0.2529E-04
     -7.390  0.3160E-04  0.9054E-01  0.4687E-04
     -7.288  0.6971E-04  0.3631E+00  0.5098E-04
     -7.185  0.3243E-04  0.1334E+02  0.4393E-04
     -7.082  0.3650E-04  0.1712E+02  0.3906E-04
     -6.980  0.1890E-04  0.1481E+00  0.3347E-04
     -6.877  0.3175E-04  0.6507E-01  0.1270E-04
     -6.774  0.0000E+00  0.0000E+00  0.0000E+00
     -6.672  0.1470E-09  0.6438E-07  0.1781E-10
     -6.569  0.7821E-05  0.3426E-02  0.9476E-06
     -6.466  0.0000E+00  0.0000E+00  0.0000E+00
     -6.363  0.0000E+00  0.0000E+00  0.0000E+00
     -6.261  0.0000E+00  0.0000E+00  0.0000E+00
     -6.158  0.0000E+00  0.0000E+00  0.0000E+00
     -6.055  0.0000E+00  0.0000E+00  0.0000E+00
     -5.953  0.0000E+00  0.0000E+00  0.0000E+00
     -5.850  0.0000E+00  0.0000E+00  0.0000E+00
     -5.747  0.0000E+00  0.0000E+00  0.0000E+00
     -5.645  0.0000E+00  0.0000E+00  0.0000E+00
     -5.542  0.0000E+00  0.0000E+00  0.0000E+00
     -5.439  0.0000E+00  0.0000E+00  0.0000E+00
     -5.337  0.0000E+00  0.0000E+00  0.0000E+00
     -5.234  0.0000E+00  0.0000E+00  0.0000E+00
     -5.131  0.0000E+00  0.0000E+00  0.0000E+00
     -5.029  0.0000E+00  0.0000E+00  0.0000E+00
     -4.926  0.0000E+00  0.0000E+00  0.0000E+00
     -4.823  0.0000E+00  0.0000E+00  0.0000E+00
     -4.721  0.0000E+00  0.0000E+00  0.0000E+00
     -4.618  0.0000E+00  0.0000E+00  0.0000E+00
     -4.515  0.0000E+00  0.0000E+00  0.0000E+00
     -4.412  0.0000E+00  0.0000E+00  0.0000E+00
     -4.310  0.0000E+00  0.0000E+00  0.0000E+00
     -4.207  0.0000E+00  0.0000E+00  0.0000E+00
     -4.104  0.0000E+00  0.0000E+00  0.0000E+00
     -4.002  0.0000E+00  0.0000E+00  0.0000E+00
     -3.899  0.0000E+00  0.0000E+00  0.0000E+00
     -3.796  0.0000E+00  0.0000E+00  0.0000E+00
     -3.694  0.0000E+00  0.0000E+00  0.0000E+00
     -3.591  0.0000E+00  0.0000E+00  0.0000E+00
     -3.488  0.0000E+00  0.0000E+00  0.0000E+00
     -3.386  0.0000E+00  0.0000E+00  0.0000E+00
     -3.283  0.5996E-04  0.1345E-01  0.7443E-03
     -3.180  0.5991E-04  0.5095E-02  0.9161E-03
     -3.078  0.5819E-03  0.1440E-01  0.1109E-02
     -2.975  0.3374E-03  0.9627E-02  0.1044E-02
     -2.872  0.2545E-03  0.5437E-02  0.3657E-03
     -2.769  0.4389E-03  0.1760E-01  0.9810E-03
     -2.667  0.4814E-03  0.1116E-01  0.8216E-03
     -2.564  0.2537E-16  0.5058E-03  0.1276E-03
     -2.461  0.8601E-03  0.3002E-01  0.1888E-02
     -2.359  0.2592E-02  0.1375E-01  0.2557E-02
     -2.256  0.8104E-03  0.1486E-02  0.2544E-03
     -2.153  0.3289E-02  0.8805E-02  0.8104E-03
     -2.051  0.1315E-01  0.3517E-01  0.3070E-02
     -1.948  0.2030E-01  0.5411E-01  0.5846E-02
     -1.845  0.1117E-02  0.1937E-01  0.2276E-03
     -1.743  0.6719E-03  0.7048E-01  0.3330E-02
     -1.640  0.1518E-02  0.1269E+00  0.1628E-01
     -1.537  0.7911E-03  0.1467E-01  0.1916E-02
     -1.435  0.3118E-02  0.7295E-01  0.1918E-01
     -1.332  0.4393E-02  0.1040E+00  0.2434E-01
     -1.229  0.4682E-02  0.5270E-01  0.9941E-02
     -1.127  0.1533E-02  0.1292E+00  0.1582E-01
     -1.024  0.1564E-02  0.4658E-01  0.1137E-01
     -0.921  0.6547E-03  0.1239E-01  0.2828E-02
     -0.818  0.7515E-03  0.1963E-01  0.5093E-02
     -0.716  0.6963E-03  0.1720E-01  0.2855E-02
     -0.613  0.7939E-03  0.4483E-02  0.1299E-02
     -0.510  0.3528E-03  0.3341E-02  0.6224E-03
     -0.408  0.4158E-15  0.2848E-02  0.9366E-04
     -0.305  0.1111E-05  0.1878E-04  0.4156E-05
     -0.202  0.1040E-11  0.1044E-03  0.3493E-03
     -0.100  0.2098E-04  0.1670E-02  0.4769E-03
      0.003  0.0000E+00  0.0000E+00  0.0000E+00
      0.106  0.0000E+00  0.0000E+00  0.0000E+00
      0.208  0.0000E+00  0.0000E+00  0.0000E+00
      0.311  0.7009E-19  0.1552E-03  0.1641E-03
      0.414  0.0000E+00  0.0000E+00  0.0000E+00
      0.516  0.0000E+00  0.0000E+00  0.0000E+00
      0.619  0.0000E+00  0.0000E+00  0.0000E+00
      0.722  0.0000E+00  0.0000E+00  0.0000E+00
      0.825  0.0000E+00  0.0000E+00  0.0000E+00
      0.927  0.0000E+00  0.0000E+00  0.0000E+00
      1.030  0.0000E+00  0.0000E+00  0.0000E+00
      1.133  0.0000E+00  0.0000E+00  0.0000E+00
      1.235  0.0000E+00  0.0000E+00  0.0000E+00
      1.338  0.0000E+00  0.0000E+00  0.0000E+00
      1.441  0.0000E+00  0.0000E+00  0.0000E+00
      1.543  0.0000E+00  0.0000E+00  0.0000E+00
      1.646  0.0000E+00  0.0000E+00  0.0000E+00
      1.749  0.0000E+00  0.0000E+00  0.0000E+00
      1.851  0.0000E+00  0.0000E+00  0.0000E+00
      1.954  0.0000E+00  0.0000E+00  0.0000E+00
      2.057  0.0000E+00  0.0000E+00  0.0000E+00
      2.159  0.0000E+00  0.0000E+00  0.0000E+00
      2.262  0.0000E+00  0.0000E+00  0.0000E+00
      2.365  0.0000E+00  0.0000E+00  0.0000E+00
      2.467  0.3580E-21  0.4668E-09  0.4598E-08
      2.570  0.9708E-16  0.1266E-03  0.1247E-02
      2.673  0.2436E-08  0.1041E-07  0.1472E-07
      2.776  0.4148E-03  0.6232E-03  0.1810E-02
      2.878  0.2981E-03  0.1081E-02  0.1461E-02
      2.981  0.3322E-03  0.4960E-02  0.5492E-02
      3.084  0.2912E-03  0.6522E-03  0.6693E-03
      3.186  0.1327E-02  0.7384E-02  0.5648E-02
      3.289  0.1319E-14  0.3000E-14  0.3426E-14
      3.392  0.1461E-02  0.3840E-02  0.8076E-02
      3.494  0.1318E-06  0.3309E-06  0.7384E-06
      3.597  0.6319E-03  0.1542E-02  0.3455E-02
      3.700  0.1374E-15  0.2528E-03  0.1621E-02
      3.802  0.3905E-03  0.9060E-03  0.1947E-02
      3.905  0.2274E-03  0.2032E-02  0.4843E-02
      4.008  0.2074E-03  0.1165E-02  0.2034E-02
      4.110  0.2794E-03  0.1327E-02  0.1666E-02
      4.213  0.1801E-03  0.7024E-03  0.4775E-03
      4.316  0.1288E-03  0.5544E-03  0.2493E-02
      4.419  0.1056E-02  0.3070E-02  0.8572E-02
      4.521  0.2018E-03  0.5285E-03  0.8540E-03
      4.624  0.2258E-04  0.6292E-03  0.2696E-02
      4.727  0.3172E-03  0.3943E-02  0.7413E-02
      4.829  0.1338E-02  0.1033E-02  0.1341E-02
      4.932  0.1917E-02  0.1115E-02  0.5734E-02
      5.035  0.3235E-02  0.1506E-02  0.1859E-02
      5.137  0.2341E-03  0.1016E-02  0.4306E-02
      5.240  0.1296E-01  0.4721E-02  0.6177E-02
      5.343  0.4011E-13  0.8302E-05  0.2910E-03
      5.445  0.4442E-03  0.2365E-03  0.1956E-02
      5.548  0.2241E-04  0.1071E-03  0.4875E-02
      5.651  0.1753E-01  0.3053E-02  0.8582E-02
      5.753  0.1568E-01  0.4197E-02  0.8594E-02
      5.856  0.1330E-04  0.2096E-03  0.6869E-02
      5.959  0.1139E-03  0.4926E-03  0.9691E-02
      6.061  0.3529E-01  0.8039E-02  0.4569E-01
      6.164  0.5325E-02  0.2576E-02  0.1180E+00
      6.267  0.8875E-02  0.8257E-02  0.2015E+00
      6.370  0.4165E-01  0.2519E-01  0.2148E+00
      6.472  0.5884E-01  0.3616E-01  0.7396E+00
      6.575  0.2563E-01  0.8381E-02  0.2558E+00
      6.678  0.4024E-01  0.2761E-01  0.5310E+00
      6.780  0.2916E-01  0.2526E-01  0.4460E+00
      6.883  0.1286E-01  0.3673E-01  0.5051E+00
      6.986  0.1357E-01  0.1571E-01  0.5105E+00
      7.088  0.3352E-01  0.1869E-01  0.3855E+00
      7.191  0.6788E-02  0.5127E-01  0.4575E+00
      7.294  0.7119E-04  0.7256E-02  0.1569E+00
      7.396  0.0000E+00  0.0000E+00  0.0000E+00
      7.499  0.0000E+00  0.0000E+00  0.0000E+00
      7.602  0.0000E+00  0.0000E+00  0.0000E+00
      7.704  0.0000E+00  0.0000E+00  0.0000E+00
      7.807  0.0000E+00  0.0000E+00  0.0000E+00
      7.910  0.0000E+00  0.0000E+00  0.0000E+00
      8.013  0.0000E+00  0.0000E+00  0.0000E+00
      8.115  0.0000E+00  0.0000E+00  0.0000E+00
      8.218  0.0000E+00  0.0000E+00  0.0000E+00
      8.321  0.0000E+00  0.0000E+00  0.0000E+00
      8.423  0.0000E+00  0.0000E+00  0.0000E+00
      8.526  0.0000E+00  0.0000E+00  0.0000E+00
      8.629  0.0000E+00  0.0000E+00  0.0000E+00
      8.62863221    -22.17706489  301      0.33676541      1.00000000
    -22.177  0.0000E+00  0.0000E+00  0.0000E+00
    -22.074  0.0000E+00  0.0000E+00  0.0000E+00
    -21.972  0.0000E+00  0.0000E+00  0.0000E+00
    -21.869  0.0000E+00  0.0000E+00  0.0000E+00
    -21.766  0.0000E+00  0.0000E+00  0.0000E+00
    -21.664  0.0000E+00  0.0000E+00  0.0000E+00
    -21.561  0.0000E+00  0.0000E+00  0.0000E+00
    -21.458  0.0000E+00  0.0000E+00  0.0000E+00
    -21.356  0.0000E+00  0.0000E+00  0.0000E+00
    -21.253  0.0000E+00  0.0000E+00  0.0000E+00
    -21.150  0.0000E+00  0.0000E+00  0.0000E+00
    -21.048  0.0000E+00  0.0000E+00  0.0000E+00
    -20.945  0.0000E+00  0.0000E+00  0.0000E+00
    -20.842  0.0000E+00  0.0000E+00  0.0000E+00
    -20.739  0.1729E+02  0.1381E-04  0.1944E-05
    -20.637  0.0000E+00  0.0000E+00  0.0000E+00
    -20.534  0.0000E+00  0.0000E+00  0.0000E+00
    -20.431  0.0000E+00  0.0000E+00  0.0000E+00
    -20.329  0.0000E+00  0.0000E+00  0.0000E+00
    -20.226  0.0000E+00  0.0000E+00  0.0000E+00
    -20.123  0.0000E+00  0.0000E+00  0.0000E+00
    -20.021  0.0000E+00  0.0000E+00  0.0000E+00
    -19.918  0.0000E+00  0.0000E+00  0.0000E+00
    -19.815  0.0000E+00  0.0000E+00  0.0000E+00
    -19.713  0.0000E+00  0.0000E+00  0.0000E+00
    -19.610  0.0000E+00  0.0000E+00  0.0000E+00
    -19.507  0.0000E+00  0.0000E+00  0.0000E+00
    -19.405  0.0000E+00  0.0000E+00  0.0000E+00
    -19.302  0.0000E+00  0.0000E+00  0.0000E+00
    -19.199  0.0000E+00  0.0000E+00  0.0000E+00
    -19.096  0.0000E+00  0.0000E+00  0.0000E+00
    -18.994  0.0000E+00  0.0000E+00  0.0000E+00
    -18.891  0.0000E+00  0.0000E+00  0.0000E+00
    -18.788  0.0000E+00  0.0000E+00  0.0000E+00
    -18.686  0.0000E+00  0.0000E+00  0.0000E+00
    -18.583  0.0000E+00  0.0000E+00  0.0000E+00
    -18.480  0.0000E+00  0.0000E+00  0.0000E+00
    -18.378  0.0000E+00  0.0000E+00  0.0000E+00
    -18.275  0.0000E+00  0.0000E+00  0.0000E+00
    -18.172  0.0000E+00  0.0000E+00  0.0000E+00
    -18.070  0.0000E+00  0.0000E+00  0.0000E+00
    -17.967  0.0000E+00  0.0000E+00  0.0000E+00
    -17.864  0.0000E+00  0.0000E+00  0.0000E+00
    -17.762  0.0000E+00  0.0000E+00  0.0000E+00
    -17.659  0.0000E+00  0.0000E+00  0.0000E+00
    -17.556  0.0000E+00  0.0000E+00  0.0000E+00
    -17.454  0.0000E+00  0.0000E+00  0.0000E+00
    -17.351  0.0000E+00  0.0000E+00  0.0000E+00
    -17.248  0.0000E+00  0.0000E+00  0.0000E+00
    -17.145  0.0000E+00  0.0000E+00  0.0000E+00
    -17.043  0.0000E+00  0.0000E+00  0.0000E+00
    -16.940  0.0000E+00  0.0000E+00  0.0000E+00
    -16.837  0.0000E+00  0.0000E+00  0.0000E+00
    -16.735  0.0000E+00  0.0000E+00  0.0000E+00
    -16.632  0.0000E+00  0.0000E+00  0.0000E+00
    -16.529  0.4820E-04  0.3230E-04  0.8566E-05
    -16.427  0.2026E-04  0.4342E-04  0.3962E-05
    -16.324  0.2441E-04  0.1346E-04  0.1709E-05
    -16.221  0.0000E+00  0.0000E+00  0.0000E+00
    -16.119  0.0000E+00  0.0000E+00  0.0000E+00
    -16.016  0.0000E+00  0.0000E+00  0.0000E+00
    -15.913  0.0000E+00  0.0000E+00  0.0000E+00
    -15.811  0.0000E+00  0.0000E+00  0.0000E+00
    -15.708  0.0000E+00  0.0000E+00  0.0000E+00
    -15.605  0.0000E+00  0.0000E+00  0.0000E+00
    -15.502  0.0000E+00  0.0000E+00  0.0000E+00
    -15.400  0.0000E+00  0.0000E+00  0.0000E+00
    -15.297  0.0000E+00  0.0000E+00  0.0000E+00
    -15.194  0.0000E+00  0.0000E+00  0.0000E+00
    -15.092  0.0000E+00  0.0000E+00  0.0000E+00
    -14.989  0.0000E+00  0.0000E+00  0.0000E+00
    -14.886  0.0000E+00  0.0000E+00  0.0000E+00
    -14.784  0.0000E+00  0.0000E+00  0.0000E+00
    -14.681  0.0000E+00  0.0000E+00  0.0000E+00
    -14.578  0.0000E+00  0.0000E+00  0.0000E+00
    -14.476  0.0000E+00  0.0000E+00  0.0000E+00
    -14.373  0.3548E-13  0.4544E-15  0.1638E-16
    -14.270  0.2164E-02  0.4605E-03  0.6352E-05
    -14.168  0.4179E-02  0.3325E-02  0.8277E-04
    -14.065  0.2087E-02  0.7884E-02  0.3838E-03
    -13.962  0.4007E-03  0.2072E-02  0.2266E-03
    -13.860  0.1769E-02  0.5013E-02  0.6148E-03
    -13.757  0.8729E-03  0.2277E-02  0.3568E-03
    -13.654  0.4521E-04  0.2448E-03  0.3147E-04
    -13.551  0.0000E+00  0.0000E+00  0.0000E+00
    -13.449  0.0000E+00  0.0000E+00  0.0000E+00
    -13.346  0.0000E+00  0.0000E+00  0.0000E+00
    -13.243  0.0000E+00  0.0000E+00  0.0000E+00
    -13.141  0.0000E+00  0.0000E+00  0.0000E+00
    -13.038  0.0000E+00  0.0000E+00  0.0000E+00