 vasp.5.4.4.18Apr17-6-g9f103f2a35 (build Jun 29 2021 12:58:12) complex           
 executed on tx2_gcc-7.3_libsci-1 date 2021.09.21  08:29:00
 running on   64 total cores
 distrk:  each k-point on   64 cores,    1 groups
 distr:  one band on NCORES_PER_BAND=   8 cores,    8 groups


--------------------------------------------------------------------------------------------------------


 INCAR:
 POTCAR:    PAW_PBE Cs_sv 08Apr2002               
 POTCAR:    PAW_PBE Pb_d 06Sep2000                
 POTCAR:    PAW_PBE Br 06Sep2000                  
 POTCAR:    PAW_PBE Cs_sv 08Apr2002               
   SHA256 =  c1463496f0f6037ed62c6012a8013a89ee9ad6ffb38599dcd6c079e7ed31779b Cs
   COPYR  = (c) Copyright 08Apr2002 Georg Kresse                                
   COPYR  = This file is part of the software VASP. Any use, copying, and all ot
   COPYR  = If you do not have a valid VASP license, you may not use, copy or di
   VRHFIN =Cs: 5s5p6s                                                           
   LEXCH  = PE                                                                  
   EATOM  =   555.6835 eV,   40.8416 Ry                                         
                                                                                
   TITEL  = PAW_PBE Cs_sv 08Apr2002                                             
   LULTRA =        F    use ultrasoft PP ?                                      
   IUNSCR =        1    unscreen: 0-lin 1-nonlin 2-no                           
   RPACOR =    2.200    partial core radius                                     
   POMASS =  132.900; ZVAL   =    9.000    mass and valenz                      
   RCORE  =    2.500    outmost cutoff radius                                   
   RWIGS  =    2.500; RWIGS  =    1.323    wigner-seitz radius (au A)           
   ENMAX  =  220.318; ENMIN  =  165.238 eV                                      
   RCLOC  =    2.207    cutoff for local pot                                    
   LCOR   =        T    correct aug charges                                     
   LPAW   =        T    paw PP                                                  
   EAUG   =  407.933                                                            
   DEXC   =    0.000                                                            
   RMAX   =    2.554    core radius for proj-oper                               
   RAUG   =    1.300    factor for augmentation sphere                          
   RDEP   =    2.590    radius for radial grids                                 
   RDEPT  =    2.117    core radius for aug-charge                              
                                                                                
   Atomic configuration                                                         
   13 entries                                                                   
     n  l   j            E        occ.                                          
     1  0  0.50    -35790.1377   2.0000                                         
     2  0  0.50     -5613.6201   2.0000                                         
     2  1  1.50     -5035.0101   6.0000                                         
     3  0  0.50     -1167.0767   2.0000                                         
     3  1  1.50      -980.9754   6.0000                                         
     3  2  2.50      -708.0703  10.0000                                         
     4  0  0.50      -220.2386   2.0000                                         
     4  1  1.50      -160.7596   6.0000                                         
     4  2  2.50       -74.2354  10.0000                                         
     5  0  0.50       -26.7287   2.0000                                         
     6  0  0.50        -2.0862   1.0000                                         
     5  1  1.50       -13.5159   6.0000                                         
     5  2  2.50        -0.4136   0.0000                                         
   Description                                                                  
     l       E           TYP  RCUT    TYP  RCUT                                 
     0    -26.7287425     23  1.900                                             
     0     -2.0862306     23  1.900                                             
     1    -13.5158719     23  2.500                                             
     1     -2.7211652     23  2.500                                             
     2     -0.4136171     23  2.500                                             
  local pseudopotential read in
  partial core-charges read in
  partial kinetic energy density read in
  atomic valenz-charges read in
  non local Contribution for L=           0  read in
    real space projection operators read in
  non local Contribution for L=           0  read in
    real space projection operators read in
  non local Contribution for L=           1  read in
    real space projection operators read in
  non local Contribution for L=           1  read in
    real space projection operators read in
  non local Contribution for L=           2  read in
    real space projection operators read in
    PAW grid and wavefunctions read in

   number of l-projection  operators is LMAX  =           5
   number of lm-projection operators is LMMAX =          13

 POTCAR:    PAW_PBE Pb_d 06Sep2000                
   SHA256 =  fb885b08f0fba73a15f6a6b0e39bd200c13ec96ef97cf3ecd8e63bade5137abd Pb
   COPYR  = (c) Copyright 06Sep2000 Georg Kresse                                
   COPYR  = This file is part of the software VASP. Any use, copying, and all ot
   COPYR  = If you do not have a valid VASP license, you may not use, copy or di
   VRHFIN =Pb:                                                                  
   LEXCH  = PE                                                                  
   EATOM  =  1661.6185 eV,  122.1255 Ry                                         
                                                                                
   TITEL  = PAW_PBE Pb_d 06Sep2000                                              
   LULTRA =        F    use ultrasoft PP ?                                      
   IUNSCR =        1    unscreen: 0-lin 1-nonlin 2-no                           
   RPACOR =    2.200    partial core radius                                     
   POMASS =  207.200; ZVAL   =   14.000    mass and valenz                      
   RCORE  =    2.500    outmost cutoff radius                                   
   RWIGS  =    3.260; RWIGS  =    1.725    wigner-seitz radius (au A)           
   ENMAX  =  237.835; ENMIN  =  178.376 eV                                      
   ICORE  =        3    local potential                                         
   LCOR   =        T    correct aug charges                                     
   LPAW   =        T    paw PP                                                  
   EAUG   =  391.914                                                            
   DEXC   =    0.000                                                            
   RMAX   =    2.565    core radius for proj-oper                               
   RAUG   =    1.300    factor for augmentation sphere                          
   RDEP   =    2.643    radius for radial grids                                 
   RDEPT  =    2.092    core radius for aug-charge                              
                                                                                
   Atomic configuration                                                         
   16 entries                                                                   
     n  l   j            E        occ.                                          
     1  0  0.50    -88091.8466   2.0000                                         
     2  0  0.50    -15753.4197   2.0000                                         
     2  1  1.50    -13508.1797   6.0000                                         
     3  0  0.50     -3781.7194   2.0000                                         
     3  1  1.50     -3138.2529   6.0000                                         
     3  2  2.50     -2483.2977  10.0000                                         
     4  0  0.50      -856.2895   2.0000                                         
     4  1  1.50      -645.4942   6.0000                                         
     4  2  2.50      -401.8768  10.0000                                         
     4  3  3.50      -132.9059  14.0000                                         
     5  0  0.50      -144.0950   2.0000                                         
     5  1  1.50       -85.7879   6.0000                                         
     5  2  2.50       -21.1769  10.0000                                         
     6  0  0.50       -12.0372   2.0000                                         
     6  1  1.50        -3.4971   2.0000                                         
     5  3  2.50        -2.7212   0.0000                                         
   Description                                                                  
     l       E           TYP  RCUT    TYP  RCUT                                 
     2    -21.1768523     23  2.500                                             
     2      1.3605826     23  2.500                                             
     0    -12.0371562     23  2.500                                             
     0     13.6058260     23  2.500                                             
     1     -3.4971339     23  2.500                                             
     1     13.6058260     23  2.500                                             
     3     -1.3605826      7  2.500                                             
  local pseudopotential read in
  partial core-charges read in
  partial kinetic energy density read in
  atomic valenz-charges read in
  non local Contribution for L=           2  read in
    real space projection operators read in
  non local Contribution for L=           2  read in
    real space projection operators read in
  non local Contribution for L=           0  read in
    real space projection operators read in
  non local Contribution for L=           0  read in
    real space projection operators read in
  non local Contribution for L=           1  read in
    real space projection operators read in
  non local Contribution for L=           1  read in
    real space projection operators read in
    PAW grid and wavefunctions read in

   number of l-projection  operators is LMAX  =           6
   number of lm-projection operators is LMMAX =          18

 POTCAR:    PAW_PBE Br 06Sep2000                  
   SHA256 =  96a73d2954943bbee26f4990d676cc6c3bf44b8dd2c75cd4b3b825d8403f0103 Br
   COPYR  = (c) Copyright 06Sep2000 Georg Kresse                                
   COPYR  = This file is part of the software VASP. Any use, copying, and all ot
   COPYR  = If you do not have a valid VASP license, you may not use, copy or di
   VRHFIN =Br: s2p5                                                             
   LEXCH  = PE                                                                  
   EATOM  =   368.4488 eV,   27.0802 Ry                                         
                                                                                
   TITEL  = PAW_PBE Br 06Sep2000                                                
   LULTRA =        F    use ultrasoft PP ?                                      
   IUNSCR =        1    unscreen: 0-lin 1-nonlin 2-no                           
   RPACOR =    1.900    partial core radius                                     
   POMASS =   79.904; ZVAL   =    7.000    mass and valenz                      
   RCORE  =    2.100    outmost cutoff radius                                   
   RWIGS  =    2.200; RWIGS  =    1.164    wigner-seitz radius (au A)           
   ENMAX  =  216.285; ENMIN  =  162.214 eV                                      
   ICORE  =        3    local potential                                         
   LCOR   =        T    correct aug charges                                     
   LPAW   =        T    paw PP                                                  
   EAUG   =  503.852                                                            
   DEXC   =    0.000                                                            
   RMAX   =    2.139    core radius for proj-oper                               
   RAUG   =    1.300    factor for augmentation sphere                          
   RDEP   =    2.186    radius for radial grids                                 
   RDEPT  =    1.890    core radius for aug-charge                              
                                                                                
   Atomic configuration                                                         
   10 entries                                                                   
     n  l   j            E        occ.                                          
     1  0  0.50    -13316.2796   2.0000                                         
     2  0  0.50     -1732.8239   2.0000                                         
     2  1  1.50     -1528.2193   6.0000                                         
     3  0  0.50      -238.0460   2.0000                                         
     3  1  1.50      -173.4609   6.0000                                         
     3  2  2.50       -66.7132  10.0000                                         
     4  0  0.50       -20.1334   2.0000                                         
     4  1  0.50        -7.8591   5.0000                                         
     4  2  2.50        -8.1635   0.0000                                         
     4  3  2.50        -8.1635   0.0000                                         
   Description                                                                  
     l       E           TYP  RCUT    TYP  RCUT                                 
     0    -20.1333652     23  2.100                                             
     0    -21.4939478     23  2.100                                             
     1     -7.8591052     23  2.100                                             
     1     -3.1608434     23  2.100                                             
     2     -8.1634956     23  2.100                                             
     3     -1.3605826      7  2.100                                             
  local pseudopotential read in
  partial core-charges read in
  partial kinetic energy density read in
  atomic valenz-charges read in
  non local Contribution for L=           0  read in
    real space projection operators read in
  non local Contribution for L=           0  read in
    real space projection operators read in
  non local Contribution for L=           1  read in
    real space projection operators read in
  non local Contribution for L=           1  read in
    real space projection operators read in
  non local Contribution for L=           2  read in
    real space projection operators read in
    PAW grid and wavefunctions read in

   number of l-projection  operators is LMAX  =           5
   number of lm-projection operators is LMMAX =          13

 Optimization of the real space projectors (new method)

 maximal supplied QI-value         = 15.12
 optimisation between [QCUT,QGAM] = [  8.77, 17.69] = [ 21.53, 87.61] Ry 
 Optimized for a Real-space Cutoff    1.85 Angstroem

   l    n(q)    QCUT    max X(q) W(low)/X(q) W(high)/X(q)  e(spline) 
   0     10     8.768    25.322    0.81E-04    0.51E-04    0.48E-06
   0     10     8.768    99.187    0.78E-04    0.50E-04    0.47E-06
   1      9     8.768    11.761    0.21E-03    0.20E-03    0.37E-06
   1      9     8.768     8.275    0.24E-03    0.22E-03    0.41E-06
   2      9     8.768     3.829    0.23E-04    0.15E-03    0.18E-06
 Optimization of the real space projectors (new method)

 maximal supplied QI-value         = 15.12
 optimisation between [QCUT,QGAM] = [  8.77, 17.69] = [ 21.53, 87.61] Ry 
 Optimized for a Real-space Cutoff    1.59 Angstroem

   l    n(q)    QCUT    max X(q) W(low)/X(q) W(high)/X(q)  e(spline) 
   2      7     8.768     3.846    0.48E-04    0.11E-03    0.11E-06
   2      7     8.768     8.593    0.20E-03    0.22E-04    0.24E-06
   0      8     8.768    20.082    0.68E-04    0.88E-04    0.41E-07
   0      8     8.768     8.597    0.89E-04    0.13E-03    0.59E-07
   1      8     8.768    33.223    0.15E-03    0.53E-04    0.87E-07
   1      8     8.768    15.899    0.14E-03    0.44E-04    0.78E-07
 Optimization of the real space projectors (new method)

 maximal supplied QI-value         = 17.95
 optimisation between [QCUT,QGAM] = [  8.80, 17.59] = [ 21.67, 86.68] Ry 
 Optimized for a Real-space Cutoff    1.59 Angstroem

   l    n(q)    QCUT    max X(q) W(low)/X(q) W(high)/X(q)  e(spline) 
   0      8     8.797   175.082    0.82E-04    0.14E-03    0.89E-07
   0      8     8.797   174.004    0.79E-04    0.14E-03    0.86E-07
   1      8     8.797    54.315    0.16E-03    0.14E-04    0.30E-06
   1      8     8.797    42.441    0.16E-03    0.14E-04    0.30E-06
   2      7     8.797     3.596    0.92E-04    0.15E-03    0.85E-07
  PAW_PBE Cs_sv 08Apr2002               :
 energy of atom  1       EATOM= -555.6835
 kinetic energy error for atom=    0.0069 (will be added to EATOM!!)
  PAW_PBE Pb_d 06Sep2000                :
 energy of atom  2       EATOM=-1661.6185
 kinetic energy error for atom=    0.0498 (will be added to EATOM!!)
  PAW_PBE Br 06Sep2000                  :
 energy of atom  3       EATOM= -368.4488
 kinetic energy error for atom=    0.0072 (will be added to EATOM!!)


 POSCAR: Cs4 Pb4 Br12                            
  positions in direct lattice
  velocities in cartesian coordinates

 METAGGA = SCAN     LMAXTAU =  6    LMIXTAU =  F

 exchange correlation table for  LEXCH =        8
   RHO(1)=    0.500       N(1)  =     2000
   RHO(2)=  100.500       N(2)  =     4000

 VTST: version 3.2, (02/03/18)

 CHAIN: initializing optimizer
 
 OPT: Using VASP Conjugate-Gradient optimizer
 CHAIN: Read ICHAIN            0

 POSCAR: Cs4 Pb4 Br12                            
  positions in direct lattice
  velocities in cartesian coordinates



--------------------------------------------------------------------------------------------------------


 ion  position               nearest neighbor table
   1  0.077  0.250  0.467-
   2  0.423  0.750  0.967-
   3  0.577  0.250  0.033-
   4  0.923  0.750  0.533-
   5  0.000  0.000  0.000-  10 3.00  11 3.00  15 3.02  18 3.02  16 3.05  17 3.05
   6  0.500  0.000  0.500-   9 3.00  12 3.00  17 3.02  16 3.02  18 3.05  15 3.05
   7  0.500  0.500  0.500-   9 3.00  12 3.00  13 3.02  19 3.02  14 3.05  20 3.05
   8  0.000  0.500  0.000-  10 3.00  11 3.00  20 3.02  14 3.02  19 3.05  13 3.05
   9  0.513  0.750  0.438-   6 3.00   7 3.00
  10  0.987  0.250  0.938-   5 3.00   8 3.00
  11  0.013  0.750  0.062-   5 3.00   8 3.00
  12  0.487  0.250  0.562-   6 3.00   7 3.00
  13  0.300  0.466  0.187-   7 3.02   8 3.05
  14  0.200  0.534  0.687-   8 3.02   7 3.05
  15  0.800  0.034  0.313-   5 3.02   6 3.05
  16  0.700  0.966  0.813-   6 3.02   5 3.05
  17  0.300  0.034  0.187-   6 3.02   5 3.05
  18  0.200  0.966  0.687-   5 3.02   6 3.05
  19  0.700  0.534  0.813-   7 3.02   8 3.05
  20  0.800  0.466  0.313-   8 3.02   7 3.05

  LATTYP: Found a simple orthorhombic cell.
 ALAT       =     7.7098618141
 B/A-ratio  =     1.1467155561
 C/A-ratio  =     1.5332889418
  
  Lattice vectors:
  
 A1 = (   0.0000000000,   0.0000000000,   7.7098618141)
 A2 = (  -8.8410184778,   0.0000000000,   0.0000000000)
 A3 = (   0.0000000000, -11.8214458625,   0.0000000000)


Analysis of symmetry for initial positions (statically):
=====================================================================
 Subroutine PRICEL returns:
 Original cell was already a primitive cell.
 

 Routine SETGRP: Setting up the symmetry group for a 
 simple orthorhombic supercell.


 Subroutine GETGRP returns: Found  8 space group operations
 (whereof  2 operations were pure point group operations)
 out of a pool of  8 trial point group operations.


The static configuration has the point symmetry S_2 .
 The point group associated with its full space group is D_2h.


Analysis of symmetry for dynamics (positions and initial velocities):
=====================================================================
 Subroutine PRICEL returns:
 Original cell was already a primitive cell.
 

 Routine SETGRP: Setting up the symmetry group for a 
 simple orthorhombic supercell.


 Subroutine GETGRP returns: Found  8 space group operations
 (whereof  2 operations were pure point group operations)
 out of a pool of  8 trial point group operations.


The dynamic configuration has the point symmetry S_2 .
 The point group associated with its full space group is D_2h.


 Subroutine INISYM returns: Found  8 space group operations
 (whereof  2 operations are pure point group operations),
 and found     1 'primitive' translations



 KPOINTS: 1x1x1                                   

Automatic generation of k-mesh.
Space group operators:
 irot       det(A)        alpha          n_x          n_y          n_z        tau_x        tau_y        tau_z
    1     1.000000     0.000000     1.000000     0.000000     0.000000     0.000000     0.000000     0.000000
    2    -1.000000     0.000000     1.000000     0.000000     0.000000     0.000000     0.000000     0.000000
    3     1.000000   180.000000     0.000000     1.000000     0.000000     0.000000    -0.500000     0.000000
    4    -1.000000   180.000000     0.000000     1.000000     0.000000     0.000000    -0.500000     0.000000
    5     1.000000   180.000000     1.000000     0.000000     0.000000    -0.500000    -0.500000     0.500000
    6    -1.000000   180.000000     1.000000     0.000000     0.000000    -0.500000    -0.500000     0.500000
    7     1.000000   180.000000     0.000000     0.000000     1.000000    -0.500000     0.000000     0.500000
    8    -1.000000   180.000000     0.000000     0.000000     1.000000    -0.500000     0.000000     0.500000
 
 Subroutine IBZKPT returns following result:
 ===========================================
 
 Found      8 irreducible k-points:
 
 Following reciprocal coordinates:
            Coordinates               Weight
  0.000000  0.000000  0.000000      1.000000
  0.333333  0.000000  0.000000      2.000000
  0.000000  0.500000  0.000000      1.000000
  0.333333  0.500000  0.000000      2.000000
  0.000000  0.000000  0.333333      2.000000
  0.333333  0.000000  0.333333      4.000000
  0.000000  0.500000  0.333333      2.000000
  0.333333  0.500000  0.333333      4.000000
 
 Following cartesian coordinates:
            Coordinates               Weight
  0.000000  0.000000  0.000000      1.000000
  0.037703  0.000000  0.000000      2.000000
  0.000000  0.042296  0.000000      1.000000
  0.037703  0.042296  0.000000      2.000000
  0.000000  0.000000  0.043235      2.000000
  0.037703  0.000000  0.043235      4.000000
  0.000000  0.042296  0.043235      2.000000
  0.037703  0.042296  0.043235      4.000000
 


--------------------------------------------------------------------------------------------------------




 Dimension of arrays:
   k-points           NKPTS =      8   k-points in BZ     NKDIM =      8   number of bands    NBANDS=    112
   number of dos      NEDOS =    301   number of ions     NIONS =     20
   non local maximal  LDIM  =      6   non local SUM 2l+1 LMDIM =     18
   total plane-waves  NPLWV = 168000
   max r-space proj   IRMAX =   5561   max aug-charges    IRDMAX=  88744
   dimension x,y,z NGX =    50 NGY =   70 NGZ =   48
   dimension x,y,z NGXF=   100 NGYF=  140 NGZF=   96
   support grid    NGXF=   200 NGYF=  280 NGZF=  192
   ions per type =               4   4  12
   NGX,Y,Z   is equivalent  to a cutoff of   9.40,  9.84, 10.35 a.u.
   NGXF,Y,Z  is equivalent  to a cutoff of  18.80, 19.69, 20.70 a.u.

 SYSTEM =  CsPbBr3 cubic bulk                      
 POSCAR =  Cs4 Pb4 Br12                            

 Startparameter for this run:
   NWRITE =      2    write-flag & timer
   PREC   = accura    normal or accurate (medium, high low for compatibility)
   ISTART =      0    job   : 0-new  1-cont  2-samecut
   ICHARG =      2    charge: 1-file 2-atom 10-const
   ISPIN  =      1    spin polarized calculation?
   LNONCOLLINEAR =      F non collinear calculations
   LSORBIT =      F    spin-orbit coupling
   INIWAV =      1    electr: 0-lowe 1-rand  2-diag
   LASPH  =      T    aspherical Exc in radial PAW
   METAGGA=      F    non-selfconsistent MetaGGA calc.

 Electronic Relaxation 1
   ENCUT  =  300.0 eV  22.05 Ry    4.70 a.u.  12.49 16.70 10.89*2*pi/ulx,y,z
   ENINI  =  300.0     initial cutoff
   ENAUG  =  503.9 eV  augmentation charge cutoff
   NELM   =    200;   NELMIN=  2; NELMDL= -5     # of ELM steps 
   EDIFF  = 0.1E-05   stopping-criterion for ELM
   LREAL  =      T    real-space projection
   NLSPLINE    = F    spline interpolate recip. space projectors
   LCOMPAT=      F    compatible to vasp.4.4
   GGA_COMPAT  = T    GGA compatible to vasp.4.4-vasp.4.6
   LMAXPAW     = -100 max onsite density
   LMAXMIX     =    2 max onsite mixed and CHGCAR
   VOSKOWN=      0    Vosko Wilk Nusair interpolation
   ROPT   =   -0.00025  -0.00025  -0.00025
 Ionic relaxation
   EDIFFG = -.1E-01   stopping-criterion for IOM
   NSW    =      0    number of steps for IOM
   NBLOCK =      1;   KBLOCK =      1    inner block; outer block 
   IBRION =     -1    ionic relax: 0-MD 1-quasi-New 2-CG
   NFREE  =      1    steps in history (QN), initial steepest desc. (CG)
   ISIF   =      3    stress and relaxation
   IWAVPR =     10    prediction:  0-non 1-charg 2-wave 3-comb
   ISYM   =      2    0-nonsym 1-usesym 2-fastsym
   LCORR  =      T    Harris-Foulkes like correction to forces

   POTIM  = 0.5000    time-step for ionic-motion
   TEIN   =    0.0    initial temperature
   TEBEG  =    0.0;   TEEND  =   0.0 temperature during run
   SMASS  =  -3.00    Nose mass-parameter (am)
   estimated Nose-frequenzy (Omega)   =  0.10E-29 period in steps =****** mass=  -0.179E-26a.u.
   SCALEE = 1.0000    scale energy and forces
   NPACO  =    256;   APACO  = 16.0  distance and # of slots for P.C.
   PSTRESS=    0.0 pullay stress

  Mass of Ions in am
   POMASS = 132.90207.20 79.90
  Ionic Valenz
   ZVAL   =   9.00 14.00  7.00
  Atomic Wigner-Seitz radii
   RWIGS  =  -1.00 -1.00 -1.00
  virtual crystal weights 
   VCA    =   1.00  1.00  1.00
   NELECT =     176.0000    total number of electrons
   NUPDOWN=      -1.0000    fix difference up-down

 DOS related values:
   EMIN   =  10.00;   EMAX   =-10.00  energy-range for DOS
   EFERMI =   0.00
   ISMEAR =     0;   SIGMA  =   0.01  broadening in eV -4-tet -1-fermi 0-gaus

 Electronic relaxation 2 (details)
   IALGO  =     38    algorithm
   LDIAG  =      T    sub-space diagonalisation (order eigenvalues)
   LSUBROT=      F    optimize rotation matrix (better conditioning)
   TURBO    =      0    0=normal 1=particle mesh
   IRESTART =      0    0=no restart 2=restart with 2 vectors
   NREBOOT  =      0    no. of reboots
   NMIN     =      0    reboot dimension
   EREF     =   0.00    reference energy to select bands
   IMIX   =      4    mixing-type and parameters
     AMIX     =   0.40;   BMIX     =  1.00
     AMIX_MAG =   1.60;   BMIX_MAG =  1.00
     AMIN     =   0.10
     WC   =   100.;   INIMIX=   1;  MIXPRE=   1;  MAXMIX= -45

 Intra band minimization:
   WEIMIN = 0.0000     energy-eigenvalue tresh-hold
   EBREAK =  0.22E-08  absolut break condition
   DEPER  =   0.30     relativ break condition  

   TIME   =   0.40     timestep for ELM

  volume/ion in A,a.u.               =      40.29       271.89
  Fermi-wavevector in a.u.,A,eV,Ry     =   0.985914  1.863108 13.225234  0.972027
  Thomas-Fermi vector in A             =   2.117257

 Write flags
   LWAVE        =      F    write WAVECAR
   LDOWNSAMPLE  =      F    k-point downsampling of WAVECAR
   LCHARG       =      F    write CHGCAR
   LVTOT        =      F    write LOCPOT, total local potential
   LVHAR        =      T    write LOCPOT, Hartree potential only
   LELF         =      F    write electronic localiz. function (ELF)
   LORBIT       =     10    0 simple, 1 ext, 2 COOP (PROOUT), +10 PAW based schemes


 Dipole corrections
   LMONO  =      F    monopole corrections only (constant potential shift)
   LDIPOL =      F    correct potential (dipole corrections)
   IDIPOL =      0    1-x, 2-y, 3-z, 4-all directions 
   EPSILON=  1.0000000 bulk dielectric constant

 Exchange correlation treatment:
   GGA     =    --    GGA type
   LEXCH   =     8    internal setting for exchange type
   VOSKOWN=      0    Vosko Wilk Nusair interpolation
   LHFCALC =     F    Hartree Fock is set to
   LHFONE  =     F    Hartree Fock one center treatment
   AEXX    =    0.0000 exact exchange contribution

 Linear response parameters
   LEPSILON=     F    determine dielectric tensor
   LRPA    =     F    only Hartree local field effects (RPA)
   LNABLA  =     F    use nabla operator in PAW spheres
   LVEL    =     F    velocity operator in full k-point grid
   LINTERFAST=   F  fast interpolation
   KINTER  =     0    interpolate to denser k-point grid
   CSHIFT  =0.1000    complex shift for real part using Kramers Kronig
   OMEGAMAX=  -1.0    maximum frequency
   DEG_THRESHOLD= 0.2000000E-02 threshold for treating states as degnerate
   RTIME   =   -0.100 relaxation time in fs
  (WPLASMAI=    0.000 imaginary part of plasma frequency in eV, 0.658/RTIME)
   DFIELD  = 0.0000000 0.0000000 0.0000000 field for delta impulse in time

 Orbital magnetization related:
   ORBITALMAG=     F  switch on orbital magnetization
   LCHIMAG   =     F  perturbation theory with respect to B field
   DQ        =  0.001000  dq finite difference perturbation B field
   LLRAUG    =     F  two centre corrections for induced B field



--------------------------------------------------------------------------------------------------------


 Static calculation
 charge density and potential will be updated during run
 non-spin polarized calculation
 Variant of blocked Davidson
 Davidson routine will perform the subspace rotation
 perform sub-space diagonalisation
    after iterative eigenvector-optimisation
 modified Broyden-mixing scheme, WC =      100.0
 initial mixing is a Kerker type mixing with AMIX =  0.4000 and BMIX =      1.0000
 Hartree-type preconditioning will be used
 using additional bands           24
 real space projection scheme for non local part
 use partial core corrections
 calculate Harris-corrections to forces   (improved forces if not selfconsistent)
 use gradient corrections 
 use of overlap-Matrix (Vanderbilt PP)
 Gauss-broadening in eV      SIGMA  =   0.01


--------------------------------------------------------------------------------------------------------


  energy-cutoff  :      300.00
  volume of cell :      805.79
      direct lattice vectors                 reciprocal lattice vectors
     8.841018478  0.000000000  0.000000000     0.113109140  0.000000000  0.000000000
     0.000000000 11.821445862  0.000000000     0.000000000  0.084592021  0.000000000
     0.000000000  0.000000000  7.709861814     0.000000000  0.000000000  0.129704011

  length of vectors
     8.841018478 11.821445862  7.709861814     0.113109140  0.084592021  0.129704011



 k-points in units of 2pi/SCALE and weight: 1x1x1                                   
   0.00000000  0.00000000  0.00000000       0.056
   0.03770305  0.00000000  0.00000000       0.111
   0.00000000  0.04229601  0.00000000       0.056
   0.03770305  0.04229601  0.00000000       0.111
   0.00000000  0.00000000  0.04323467       0.111
   0.03770305  0.00000000  0.04323467       0.222
   0.00000000  0.04229601  0.04323467       0.111
   0.03770305  0.04229601  0.04323467       0.222

 k-points in reciprocal lattice and weights: 1x1x1                                   
   0.00000000  0.00000000  0.00000000       0.056
   0.33333333  0.00000000  0.00000000       0.111
   0.00000000  0.50000000  0.00000000       0.056
   0.33333333  0.50000000  0.00000000       0.111
   0.00000000  0.00000000  0.33333333       0.111
   0.33333333  0.00000000  0.33333333       0.222
   0.00000000  0.50000000  0.33333333       0.111
   0.33333333  0.50000000  0.33333333       0.222

 position of ions in fractional coordinates (direct lattice) 
   0.07682517  0.25000000  0.46689619
   0.42317483  0.75000000  0.96689619
   0.57682517  0.25000000  0.03310381
   0.92317483  0.75000000  0.53310381
   0.00000000  0.00000000  0.00000000
   0.50000000  0.00000000  0.50000000
   0.50000000  0.50000000  0.50000000
   0.00000000  0.50000000  0.00000000
   0.51257082  0.75000000  0.43762015
   0.98742918  0.25000000  0.93762015
   0.01257082  0.75000000  0.06237985
   0.48742918  0.25000000  0.56237985
   0.30018524  0.46561316  0.18651054
   0.19981476  0.53438684  0.68651054
   0.80018524  0.03438684  0.31348946
   0.69981476  0.96561316  0.81348946
   0.30018524  0.03438684  0.18651054
   0.19981476  0.96561316  0.68651054
   0.69981476  0.53438684  0.81348946
   0.80018524  0.46561316  0.31348946

 position of ions in cartesian coordinates  (Angst):
   0.67921279  2.95536147  3.59970508
   3.74129645  8.86608440  7.45463599
   5.09972202  2.95536147  0.25522583
   8.16180569  8.86608440  4.11015673
   0.00000000  0.00000000  0.00000000
   4.42050924  0.00000000  3.85493091
   4.42050924  5.91072293  3.85493091
   0.00000000  5.91072293  0.00000000
   4.53164809  8.86608440  3.37399090
   8.72987962  2.95536147  7.22892181
   0.11113885  8.86608440  0.48094000
   4.30937039  2.95536147  4.33587091
   2.65394324  5.50422071  1.43797047
   1.76656600  6.31722515  5.29290138
   7.07445248  0.40650222  2.41696043
   6.18707524 11.41494364  6.27189134
   2.65394324  0.40650222  1.43797047
   1.76656600 11.41494364  5.29290138
   6.18707524  6.31722515  6.27189134
   7.07445248  5.50422071  2.41696043



--------------------------------------------------------------------------------------------------------


 k-point  1 :   0.0000 0.0000 0.0000  plane waves:    9477
 k-point  2 :   0.3333 0.0000 0.0000  plane waves:    9527
 k-point  3 :   0.0000 0.5000 0.0000  plane waves:    9502
 k-point  4 :   0.3333 0.5000 0.0000  plane waves:    9488
 k-point  5 :   0.0000 0.0000 0.3333  plane waves:    9536
 k-point  6 :   0.3333 0.0000 0.3333  plane waves:    9521
 k-point  7 :   0.0000 0.5000 0.3333  plane waves:    9522
 k-point  8 :   0.3333 0.5000 0.3333  plane waves:    9510

 maximum and minimum number of plane-waves per node :      1206     1173

 maximum number of plane-waves:      9536
 maximum index in each direction: 
   IXMAX=   12   IYMAX=   16   IZMAX=   10
   IXMIN=  -12   IYMIN=  -17   IZMIN=  -11


 real space projection operators:
  total allocation   :       8291.81 KBytes
  max/ min on nodes  :       1163.41        955.78


 parallel 3D FFT for wavefunctions:
    minimum data exchange during FFTs selected (reduces bandwidth)
 parallel 3D FFT for charge:
    minimum data exchange during FFTs selected (reduces bandwidth)


 total amount of memory used by VASP MPI-rank0    43691. kBytes
=======================================================================

   base      :      30000. kBytes
   nonlr-proj:       3311. kBytes
   fftplans  :       4445. kBytes
   grid      :       3667. kBytes
   one-center:         46. kBytes
   wavefun   :       2222. kBytes

     INWAV:  cpu time    0.0000: real time    0.0000
 Broyden mixing: mesh for mixing (old mesh)
   NGX = 25   NGY = 33   NGZ = 21
  (NGX  =100   NGY  =140   NGZ  = 96)
  gives a total of  17325 points

 initial charge density was supplied:
 charge density of overlapping atoms calculated
 number of electron     176.0000000 magnetization 
 keeping initial charge density in first step


--------------------------------------------------------------------------------------------------------


 Maximum index for non-local projection operator          966
 Maximum index for augmentation-charges         4710 (set IRDMAX)


--------------------------------------------------------------------------------------------------------


 First call to EWALD:  gamma=   0.190
 Maximum number of real-space cells 3x 2x 3
 Maximum number of reciprocal cells 3x 3x 2

    FEWALD:  cpu time    0.0022: real time    0.0022


--------------------------------------- Iteration      1(   1)  ---------------------------------------


    POTLOK:  cpu time    0.1300: real time    0.1346
    SETDIJ:  cpu time    1.1013: real time    1.1017
     EDDAV:  cpu time    4.3613: real time    4.3655
       DOS:  cpu time    0.0006: real time    0.0006
    --------------------------------------------
      LOOP:  cpu time    5.5932: real time    5.6024

 eigenvalue-minimisations  :  1848
 total energy-change (2. order) : 0.6614381E+03  (-0.5612357E+04)
 number of electron     176.0000000 magnetization 
 augmentation part      176.0000000 magnetization 

 Free energy of the ion-electron system (eV)
  ---------------------------------------------------
  alpha Z        PSCENC =       447.77288603
  Ewald energy   TEWEN  =     -9219.70629114
  -Hartree energ DENC   =     -3657.73452954
  -exchange      EXHF   =         0.00000000
  -V(xc)+E(xc)   XCENC  =       461.79073857
  PAW double counting   =     10816.98087266   -11353.96092700
  entropy T*S    EENTRO =        -0.00003733
  eigenvalues    EBANDS =      -123.98475033
  atomic energy  EATOM  =     13290.28009929
  Solvation  Ediel_sol  =         0.00000000
  ---------------------------------------------------
  free energy    TOTEN  =       661.43806120 eV

  energy without entropy =      661.43809853  energy(sigma->0) =      661.43807987


--------------------------------------------------------------------------------------------------------




--------------------------------------- Iteration      1(   2)  ---------------------------------------


     EDDAV:  cpu time    4.8907: real time    4.9215
       DOS:  cpu time    0.0003: real time    0.0003
    --------------------------------------------
      LOOP:  cpu time    4.8910: real time    4.9218

 eigenvalue-minimisations  :  2192
 total energy-change (2. order) :-0.1236279E+04  (-0.1187201E+04)
 number of electron     176.0000000 magnetization 
 augmentation part      176.0000000 magnetization 

 Free energy of the ion-electron system (eV)
  ---------------------------------------------------
  alpha Z        PSCENC =       447.77288603
  Ewald energy   TEWEN  =     -9219.70629114
  -Hartree energ DENC   =     -3657.73452954
  -exchange      EXHF   =         0.00000000
  -V(xc)+E(xc)   XCENC  =       461.79073857
  PAW double counting   =     10816.98087266   -11353.96092700
  entropy T*S    EENTRO =        -0.00000000
  eigenvalues    EBANDS =     -1360.26424128
  atomic energy  EATOM  =     13290.28009929
  Solvation  Ediel_sol  =         0.00000000
  ---------------------------------------------------
  free energy    TOTEN  =      -574.84139242 eV

  energy without entropy =     -574.84139242  energy(sigma->0) =     -574.84139242


--------------------------------------------------------------------------------------------------------




--------------------------------------- Iteration      1(   3)  ---------------------------------------


     EDDAV:  cpu time    5.2145: real time    5.2569
       DOS:  cpu time    0.0003: real time    0.0004
    --------------------------------------------
      LOOP:  cpu time    5.2148: real time    5.2573

 eigenvalue-minimisations  :  2432
 total energy-change (2. order) :-0.1742065E+03  (-0.1730538E+03)
 number of electron     176.0000000 magnetization 
 augmentation part      176.0000000 magnetization 

 Free energy of the ion-electron system (eV)
  ---------------------------------------------------
  alpha Z        PSCENC =       447.77288603
  Ewald energy   TEWEN  =     -9219.70629114
  -Hartree energ DENC   =     -3657.73452954
  -exchange      EXHF   =         0.00000000
  -V(xc)+E(xc)   XCENC  =       461.79073857
  PAW double counting   =     10816.98087266   -11353.96092700
  entropy T*S    EENTRO =        -0.00000000
  eigenvalues    EBANDS =     -1534.47070245
  atomic energy  EATOM  =     13290.28009929
  Solvation  Ediel_sol  =         0.00000000
  ---------------------------------------------------
  free energy    TOTEN  =      -749.04785359 eV

  energy without entropy =     -749.04785359  energy(sigma->0) =     -749.04785359


--------------------------------------------------------------------------------------------------------




--------------------------------------- Iteration      1(   4)  ---------------------------------------


     EDDAV:  cpu time    4.8745: real time    4.8965
       DOS:  cpu time    0.0003: real time    0.0003
    --------------------------------------------
      LOOP:  cpu time    4.8748: real time    4.8968

 eigenvalue-minimisations  :  2176
 total energy-change (2. order) :-0.5548907E+01  (-0.5531150E+01)
 number of electron     176.0000000 magnetization 
 augmentation part      176.0000000 magnetization 

 Free energy of the ion-electron system (eV)
  ---------------------------------------------------
  alpha Z        PSCENC =       447.77288603
  Ewald energy   TEWEN  =     -9219.70629114
  -Hartree energ DENC   =     -3657.73452954
  -exchange      EXHF   =         0.00000000
  -V(xc)+E(xc)   XCENC  =       461.79073857
  PAW double counting   =     10816.98087266   -11353.96092700
  entropy T*S    EENTRO =        -0.00000000
  eigenvalues    EBANDS =     -1540.01960975
  atomic energy  EATOM  =     13290.28009929
  Solvation  Ediel_sol  =         0.00000000
  ---------------------------------------------------
  free energy    TOTEN  =      -754.59676089 eV

  energy without entropy =     -754.59676089  energy(sigma->0) =     -754.59676089


--------------------------------------------------------------------------------------------------------




--------------------------------------- Iteration      1(   5)  ---------------------------------------


     EDDAV:  cpu time    5.1030: real time    5.1298
       DOS:  cpu time    0.0003: real time    0.0003
    CHARGE:  cpu time    0.9593: real time    0.9593
    MIXING:  cpu time    0.0008: real time    0.0008
    --------------------------------------------
      LOOP:  cpu time    6.0634: real time    6.0902

 eigenvalue-minimisations  :  2352
 total energy-change (2. order) :-0.2542732E+00  (-0.2541148E+00)
 number of electron     176.0000000 magnetization 
 augmentation part       -3.2372915 magnetization 

 Broyden mixing:
  rms(total) = 0.69583E+00    rms(broyden)= 0.69556E+00
  rms(prec ) = 0.97761E+00
  weight for this iteration     100.00

 Free energy of the ion-electron system (eV)
  ---------------------------------------------------
  alpha Z        PSCENC =       447.77288603
  Ewald energy   TEWEN  =     -9219.70629114
  -Hartree energ DENC   =     -3657.73452954
  -exchange      EXHF   =         0.00000000
  -V(xc)+E(xc)   XCENC  =       461.79073857
  PAW double counting   =     10816.98087266   -11353.96092700
  entropy T*S    EENTRO =        -0.00000000
  eigenvalues    EBANDS =     -1540.27388291
  atomic energy  EATOM  =     13290.28009929
  Solvation  Ediel_sol  =         0.00000000
  ---------------------------------------------------
  free energy    TOTEN  =      -754.85103405 eV

  energy without entropy =     -754.85103405  energy(sigma->0) =     -754.85103405


--------------------------------------------------------------------------------------------------------




--------------------------------------- Iteration      1(   6)  ---------------------------------------


    POTLOK:  cpu time    0.1301: real time    0.1499
    SETDIJ:  cpu time    1.0952: real time    1.0952
     EDDAV:  cpu time    5.1473: real time    5.1475
       DOS:  cpu time    0.0008: real time    0.0008
    CHARGE:  cpu time    0.9204: real time    0.9204
    MIXING:  cpu time    0.0009: real time    0.0009
    --------------------------------------------
      LOOP:  cpu time    7.2947: real time    7.3148

 eigenvalue-minimisations  :  2408
 total energy-change (2. order) : 0.3991583E+02  (-0.1191221E+01)
 number of electron     176.0000000 magnetization 
 augmentation part       -2.5108082 magnetization 

 Broyden mixing:
  rms(total) = 0.49544E+00    rms(broyden)= 0.49536E+00
  rms(prec ) = 0.62102E+00
  weight for this iteration     100.00

 eigenvalues of (default mixing * dielectric matrix)
  average eigenvalue GAMMA=   1.1445
  1.1445

 Free energy of the ion-electron system (eV)
  ---------------------------------------------------
  alpha Z        PSCENC =       447.77288603
  Ewald energy   TEWEN  =     -9219.70629114
  -Hartree energ DENC   =     -3647.05877069
  -exchange      EXHF   =         0.00000000
  -V(xc)+E(xc)   XCENC  =       477.27181283
  PAW double counting   =     10950.29917005   -11486.20924829
  entropy T*S    EENTRO =        -0.00000000
  eigenvalues    EBANDS =     -1527.58485823
  atomic energy  EATOM  =     13290.28009929
  Solvation  Ediel_sol  =         0.00000000
  ---------------------------------------------------
  free energy    TOTEN  =      -714.93520015 eV

  energy without entropy =     -714.93520015  energy(sigma->0) =     -714.93520015


--------------------------------------------------------------------------------------------------------




--------------------------------------- Iteration      1(   7)  ---------------------------------------


    POTLOK:  cpu time    0.1260: real time    0.1630
    SETDIJ:  cpu time    1.0955: real time    1.0955
     EDDAV:  cpu time    4.9833: real time    4.9835
       DOS:  cpu time    0.0004: real time    0.0004
    CHARGE:  cpu time    0.9166: real time    0.9166
    MIXING:  cpu time    0.0009: real time    0.0009
    --------------------------------------------
      LOOP:  cpu time    7.1226: real time    7.1598

 eigenvalue-minimisations  :  2296
 total energy-change (2. order) : 0.2427070E+00  (-0.3969750E+00)
 number of electron     176.0000000 magnetization 
 augmentation part       -2.2423318 magnetization 

 Broyden mixing:
  rms(total) = 0.26000E+00    rms(broyden)= 0.25998E+00
  rms(prec ) = 0.28562E+00
  weight for this iteration     100.00

 eigenvalues of (default mixing * dielectric matrix)
  average eigenvalue GAMMA=   1.3113
  1.3113  1.3113

 Free energy of the ion-electron system (eV)
  ---------------------------------------------------
  alpha Z        PSCENC =       447.77288603
  Ewald energy   TEWEN  =     -9219.70629114
  -Hartree energ DENC   =     -3666.01985369
  -exchange      EXHF   =         0.00000000
  -V(xc)+E(xc)   XCENC  =       479.81972161
  PAW double counting   =     11247.59944607   -11782.46195227
  entropy T*S    EENTRO =        -0.00000000
  eigenvalues    EBANDS =     -1511.97654911
  atomic energy  EATOM  =     13290.28009929
  Solvation  Ediel_sol  =         0.00000000
  ---------------------------------------------------
  free energy    TOTEN  =      -714.69249320 eV

  energy without entropy =     -714.69249320  energy(sigma->0) =     -714.69249320


--------------------------------------------------------------------------------------------------------




--------------------------------------- Iteration      1(   8)  ---------------------------------------


    POTLOK:  cpu time    0.1248: real time    0.1869
    SETDIJ:  cpu time    1.0955: real time    1.0956
     EDDAV:  cpu time    4.7290: real time    4.7292
       DOS:  cpu time    0.0003: real time    0.0003
    CHARGE:  cpu time    0.9171: real time    0.9171
    MIXING:  cpu time    0.0010: real time    0.0010
    --------------------------------------------
      LOOP:  cpu time    6.8678: real time    6.9302

 eigenvalue-minimisations  :  2120
 total energy-change (2. order) :-0.9645816E-01  (-0.1891509E-01)
 number of electron     176.0000000 magnetization 
 augmentation part       -2.2874964 magnetization 

 Broyden mixing:
  rms(total) = 0.14874E+00    rms(broyden)= 0.14873E+00
  rms(prec ) = 0.16545E+00
  weight for this iteration     100.00

 eigenvalues of (default mixing * dielectric matrix)
  average eigenvalue GAMMA=   1.6986
  1.1058  1.3140  2.6759

 Free energy of the ion-electron system (eV)
  ---------------------------------------------------
  alpha Z        PSCENC =       447.77288603
  Ewald energy   TEWEN  =     -9219.70629114
  -Hartree energ DENC   =     -3667.92838918
  -exchange      EXHF   =         0.00000000
  -V(xc)+E(xc)   XCENC  =       480.16515621
  PAW double counting   =     11364.07899727   -11899.08024475
  entropy T*S    EENTRO =        -0.00000000
  eigenvalues    EBANDS =     -1510.37116509
  atomic energy  EATOM  =     13290.28009929
  Solvation  Ediel_sol  =         0.00000000
  ---------------------------------------------------
  free energy    TOTEN  =      -714.78895136 eV

  energy without entropy =     -714.78895136  energy(sigma->0) =     -714.78895136


--------------------------------------------------------------------------------------------------------




--------------------------------------- Iteration      1(   9)  ---------------------------------------


    POTLOK:  cpu time    0.1392: real time    0.1456
    SETDIJ:  cpu time    1.0951: real time    1.0951
     EDDAV:  cpu time    4.4817: real time    4.4819
       DOS:  cpu time    0.0005: real time    0.0005
    CHARGE:  cpu time    0.9143: real time    0.9143
    MIXING:  cpu time    0.0009: real time    0.0009
    --------------------------------------------
      LOOP:  cpu time    6.6318: real time    6.6384

 eigenvalue-minimisations  :  1952
 total energy-change (2. order) :-0.3961037E-01  (-0.8625534E-02)
 number of electron     176.0000000 magnetization 
 augmentation part       -2.3102066 magnetization 

 Broyden mixing:
  rms(total) = 0.31848E-01    rms(broyden)= 0.31844E-01
  rms(prec ) = 0.34309E-01
  weight for this iteration     100.00

 eigenvalues of (default mixing * dielectric matrix)
  average eigenvalue GAMMA=   1.4650
  2.5273  1.2476  1.2476  0.8374

 Free energy of the ion-electron system (eV)
  ---------------------------------------------------
  alpha Z        PSCENC =       447.77288603
  Ewald energy   TEWEN  =     -9219.70629114
  -Hartree energ DENC   =     -3670.18792280
  -exchange      EXHF   =         0.00000000
  -V(xc)+E(xc)   XCENC  =       481.15287545
  PAW double counting   =     11529.16223226   -12064.50606364
  entropy T*S    EENTRO =        -0.00000000
  eigenvalues    EBANDS =     -1508.79637719
  atomic energy  EATOM  =     13290.28009929
  Solvation  Ediel_sol  =         0.00000000
  ---------------------------------------------------
  free energy    TOTEN  =      -714.82856174 eV

  energy without entropy =     -714.82856174  energy(sigma->0) =     -714.82856174


--------------------------------------------------------------------------------------------------------




--------------------------------------- Iteration      1(  10)  ---------------------------------------


    POTLOK:  cpu time    0.1240: real time    0.1750
    SETDIJ:  cpu time    1.0949: real time    1.0949
     EDDAV:  cpu time    5.4366: real time    5.4369
       DOS:  cpu time    0.0004: real time    0.0004
    CHARGE:  cpu time    0.9202: real time    0.9202
    MIXING:  cpu time    0.0010: real time    0.0010
    --------------------------------------------
      LOOP:  cpu time    7.5770: real time    7.6283

 eigenvalue-minimisations  :  2608
 total energy-change (2. order) :-0.1097858E-02  (-0.5805000E-03)
 number of electron     176.0000000 magnetization 
 augmentation part       -2.3031670 magnetization 

 Broyden mixing:
  rms(total) = 0.18661E-01    rms(broyden)= 0.18660E-01
  rms(prec ) = 0.20966E-01
  weight for this iteration     100.00

 eigenvalues of (default mixing * dielectric matrix)
  average eigenvalue GAMMA=   1.6216
  2.4924  2.4924  1.1371  1.1371  0.8491

 Free energy of the ion-electron system (eV)
  ---------------------------------------------------
  alpha Z        PSCENC =       447.77288603
  Ewald energy   TEWEN  =     -9219.70629114
  -Hartree energ DENC   =     -3669.28660377
  -exchange      EXHF   =         0.00000000
  -V(xc)+E(xc)   XCENC  =       481.05392857
  PAW double counting   =     11512.73360625   -12048.12948068
  entropy T*S    EENTRO =        -0.00000000
  eigenvalues    EBANDS =     -1509.54780415
  atomic energy  EATOM  =     13290.28009929
  Solvation  Ediel_sol  =         0.00000000
  ---------------------------------------------------
  free energy    TOTEN  =      -714.82965959 eV

  energy without entropy =     -714.82965959  energy(sigma->0) =     -714.82965959


--------------------------------------------------------------------------------------------------------




--------------------------------------- Iteration      1(  11)  ---------------------------------------


    POTLOK:  cpu time    0.1225: real time    0.1676
    SETDIJ:  cpu time    1.0960: real time    1.0960
     EDDAV:  cpu time    4.5031: real time    4.5033
       DOS:  cpu time    0.0003: real time    0.0003
    CHARGE:  cpu time    0.9197: real time    0.9198
    MIXING:  cpu time    0.0010: real time    0.0010
    --------------------------------------------
      LOOP:  cpu time    6.6426: real time    6.6880

 eigenvalue-minimisations  :  1968
 total energy-change (2. order) :-0.1735415E-02  (-0.2043324E-03)
 number of electron     176.0000000 magnetization 
 augmentation part       -2.3032777 magnetization 

 Broyden mixing:
  rms(total) = 0.70676E-02    rms(broyden)= 0.70672E-02
  rms(prec ) = 0.86240E-02
  weight for this iteration     100.00

 eigenvalues of (default mixing * dielectric matrix)
  average eigenvalue GAMMA=   1.5827
  2.6170  2.6170  1.2169  1.2169  0.9142  0.9142

 Free energy of the ion-electron system (eV)
  ---------------------------------------------------
  alpha Z        PSCENC =       447.77288603
  Ewald energy   TEWEN  =     -9219.70629114
  -Hartree energ DENC   =     -3667.83971596
  -exchange      EXHF   =         0.00000000
  -V(xc)+E(xc)   XCENC  =       481.00310008
  PAW double counting   =     11498.51348733   -12034.10616639
  entropy T*S    EENTRO =        -0.00000000
  eigenvalues    EBANDS =     -1510.74879424
  atomic energy  EATOM  =     13290.28009929
  Solvation  Ediel_sol  =         0.00000000
  ---------------------------------------------------
  free energy    TOTEN  =      -714.83139501 eV

  energy without entropy =     -714.83139501  energy(sigma->0) =     -714.83139501


--------------------------------------------------------------------------------------------------------




--------------------------------------- Iteration      1(  12)  ---------------------------------------


    POTLOK:  cpu time    0.1365: real time    0.1677
    SETDIJ:  cpu time    1.0951: real time    1.0951
     EDDAV:  cpu time    4.9284: real time    4.9287
       DOS:  cpu time    0.0003: real time    0.0003
    CHARGE:  cpu time    0.9176: real time    0.9176
    MIXING:  cpu time    0.0010: real time    0.0010
    --------------------------------------------
      LOOP:  cpu time    7.0789: real time    7.1105

 eigenvalue-minimisations  :  2256
 total energy-change (2. order) : 0.5250801E-04  (-0.4775779E-04)
 number of electron     176.0000000 magnetization 
 augmentation part       -2.3050290 magnetization 

 Broyden mixing:
  rms(total) = 0.22909E-02    rms(broyden)= 0.22905E-02
  rms(prec ) = 0.26678E-02
  weight for this iteration     100.00

 eigenvalues of (default mixing * dielectric matrix)
  average eigenvalue GAMMA=   1.6210
  3.0398  2.2801  1.8860  0.9537  0.9537  1.1169  1.1169

 Free energy of the ion-electron system (eV)
  ---------------------------------------------------
  alpha Z        PSCENC =       447.77288603
  Ewald energy   TEWEN  =     -9219.70629114
  -Hartree energ DENC   =     -3668.05660473
  -exchange      EXHF   =         0.00000000
  -V(xc)+E(xc)   XCENC  =       481.06411373
  PAW double counting   =     11503.95107563   -12039.58085636
  entropy T*S    EENTRO =        -0.00000000
  eigenvalues    EBANDS =     -1510.55576495
  atomic energy  EATOM  =     13290.28009929
  Solvation  Ediel_sol  =         0.00000000
  ---------------------------------------------------
  free energy    TOTEN  =      -714.83134250 eV

  energy without entropy =     -714.83134250  energy(sigma->0) =     -714.83134250


--------------------------------------------------------------------------------------------------------




--------------------------------------- Iteration      1(  13)  ---------------------------------------


    POTLOK:  cpu time    0.1527: real time    0.1671
    SETDIJ:  cpu time    1.0955: real time    1.0955
     EDDAV:  cpu time    4.8030: real time    4.8032
       DOS:  cpu time    0.0003: real time    0.0003
    CHARGE:  cpu time    0.9170: real time    0.9170
    MIXING:  cpu time    0.0012: real time    0.0012
    --------------------------------------------
      LOOP:  cpu time    6.9698: real time    6.9843

 eigenvalue-minimisations  :  2176
 total energy-change (2. order) : 0.1247420E-04  (-0.5401634E-05)
 number of electron     176.0000000 magnetization 
 augmentation part       -2.3049498 magnetization 

 Broyden mixing:
  rms(total) = 0.71177E-03    rms(broyden)= 0.71149E-03
  rms(prec ) = 0.78859E-03
  weight for this iteration     100.00

 eigenvalues of (default mixing * dielectric matrix)
  average eigenvalue GAMMA=   1.6219
  3.0112  2.4396  2.0689  1.2632  1.2632  0.9404  0.9942  0.9942

 Free energy of the ion-electron system (eV)
  ---------------------------------------------------
  alpha Z        PSCENC =       447.77288603
  Ewald energy   TEWEN  =     -9219.70629114
  -Hartree energ DENC   =     -3668.22757722
  -exchange      EXHF   =         0.00000000
  -V(xc)+E(xc)   XCENC  =       481.07837886
  PAW double counting   =     11503.15523997   -12038.78796784
  entropy T*S    EENTRO =        -0.00000000
  eigenvalues    EBANDS =     -1510.39609797
  atomic energy  EATOM  =     13290.28009929
  Solvation  Ediel_sol  =         0.00000000
  ---------------------------------------------------
  free energy    TOTEN  =      -714.83133003 eV

  energy without entropy =     -714.83133003  energy(sigma->0) =     -714.83133003


--------------------------------------------------------------------------------------------------------




--------------------------------------- Iteration      1(  14)  ---------------------------------------


    POTLOK:  cpu time    0.1420: real time    0.1716
    SETDIJ:  cpu time    1.0944: real time    1.0944
     EDDAV:  cpu time    4.2543: real time    4.2545
       DOS:  cpu time    0.0003: real time    0.0003
    CHARGE:  cpu time    0.9162: real time    0.9163
    MIXING:  cpu time    0.0011: real time    0.0011
    --------------------------------------------
      LOOP:  cpu time    6.4084: real time    6.4383

 eigenvalue-minimisations  :  1768
 total energy-change (2. order) :-0.2006826E-04  (-0.2979551E-06)
 number of electron     176.0000000 magnetization 
 augmentation part       -2.3047657 magnetization 

 Broyden mixing:
  rms(total) = 0.21948E-03    rms(broyden)= 0.21897E-03
  rms(prec ) = 0.26787E-03
  weight for this iteration     100.00

 eigenvalues of (default mixing * dielectric matrix)
  average eigenvalue GAMMA=   1.6722
  2.9800  2.3890  2.3890  2.0518  1.1502  1.1502  0.9437  0.9977  0.9977

 Free energy of the ion-electron system (eV)
  ---------------------------------------------------
  alpha Z        PSCENC =       447.77288603
  Ewald energy   TEWEN  =     -9219.70629114
  -Hartree energ DENC   =     -3668.23884582
  -exchange      EXHF   =         0.00000000
  -V(xc)+E(xc)   XCENC  =       481.07806361
  PAW double counting   =     11502.68850936   -12038.32025647
  entropy T*S    EENTRO =        -0.00000000
  eigenvalues    EBANDS =     -1510.38551495
  atomic energy  EATOM  =     13290.28009929
  Solvation  Ediel_sol  =         0.00000000
  ---------------------------------------------------
  free energy    TOTEN  =      -714.83135009 eV

  energy without entropy =     -714.83135009  energy(sigma->0) =     -714.83135009


--------------------------------------------------------------------------------------------------------




--------------------------------------- Iteration      1(  15)  ---------------------------------------


    POTLOK:  cpu time    0.1594: real time    0.1742
    SETDIJ:  cpu time    1.0971: real time    1.0971
     EDDAV:  cpu time    3.4545: real time    3.4546
       DOS:  cpu time    0.0004: real time    0.0003
    CHARGE:  cpu time    0.9173: real time    0.9173
    MIXING:  cpu time    0.0015: real time    0.0015
    --------------------------------------------
      LOOP:  cpu time    5.6301: real time    5.6451

 eigenvalue-minimisations  :  1200
 total energy-change (2. order) :-0.1856360E-05  (-0.4921675E-07)
 number of electron     176.0000000 magnetization 
 augmentation part       -2.3047771 magnetization 

 Broyden mixing:
  rms(total) = 0.64680E-04    rms(broyden)= 0.63055E-04
  rms(prec ) = 0.81121E-04
  weight for this iteration     100.00

 eigenvalues of (default mixing * dielectric matrix)
  average eigenvalue GAMMA=   1.6705
  3.1760  2.6897  2.5434  1.8526  1.2321  1.2321  0.9950  0.9950  0.9944  0.9944

 Free energy of the ion-electron system (eV)
  ---------------------------------------------------
  alpha Z        PSCENC =       447.77288603
  Ewald energy   TEWEN  =     -9219.70629114
  -Hartree energ DENC   =     -3668.22865574
  -exchange      EXHF   =         0.00000000
  -V(xc)+E(xc)   XCENC  =       481.07736677
  PAW double counting   =     11502.73439334   -12038.36581433
  entropy T*S    EENTRO =        -0.00000000
  eigenvalues    EBANDS =     -1510.39533617
  atomic energy  EATOM  =     13290.28009929
  Solvation  Ediel_sol  =         0.00000000
  ---------------------------------------------------
  free energy    TOTEN  =      -714.83135195 eV

  energy without entropy =     -714.83135195  energy(sigma->0) =     -714.83135195


--------------------------------------------------------------------------------------------------------




--------------------------------------- Iteration      1(  16)  ---------------------------------------


    POTLOK:  cpu time    0.1256: real time    0.1669
    SETDIJ:  cpu time    1.0980: real time    1.0980
     EDDAV:  cpu time    3.5960: real time    3.5962
       DOS:  cpu time    0.0003: real time    0.0003
    CHARGE:  cpu time    0.9208: real time    0.9208
    MIXING:  cpu time    0.0015: real time    0.0015
    --------------------------------------------
      LOOP:  cpu time    5.7422: real time    5.7838

 eigenvalue-minimisations  :  1296
 total energy-change (2. order) : 0.2324539E-05  (-0.1800473E-07)
 number of electron     176.0000000 magnetization 
 augmentation part       -2.3048244 magnetization 

 Broyden mixing:
  rms(total) = 0.37171E-04    rms(broyden)= 0.34294E-04
  rms(prec ) = 0.39760E-04
  weight for this iteration     100.00

 eigenvalues of (default mixing * dielectric matrix)
  average eigenvalue GAMMA=   1.7231
  3.0425  3.0425  2.5939  2.0112  2.0112  1.1879  1.1879  0.9973  0.9973  0.9413
  0.9413

 Free energy of the ion-electron system (eV)
  ---------------------------------------------------
  alpha Z        PSCENC =       447.77288603
  Ewald energy   TEWEN  =     -9219.70629114
  -Hartree energ DENC   =     -3668.23458817
  -exchange      EXHF   =         0.00000000
  -V(xc)+E(xc)   XCENC  =       481.07782998
  PAW double counting   =     11502.71688106   -12038.34802305
  entropy T*S    EENTRO =        -0.00000000
  eigenvalues    EBANDS =     -1510.39014362
  atomic energy  EATOM  =     13290.28009929
  Solvation  Ediel_sol  =         0.00000000
  ---------------------------------------------------
  free energy    TOTEN  =      -714.83134963 eV

  energy without entropy =     -714.83134963  energy(sigma->0) =     -714.83134963


--------------------------------------------------------------------------------------------------------




--------------------------------------- Iteration      1(  17)  ---------------------------------------


    POTLOK:  cpu time    0.1680: real time    0.1708
    SETDIJ:  cpu time    1.0982: real time    1.0982
     EDDAV:  cpu time    3.3663: real time    3.3664
       DOS:  cpu time    0.0003: real time    0.0003
    CHARGE:  cpu time    0.9184: real time    0.9184
    MIXING:  cpu time    0.0012: real time    0.0012
    --------------------------------------------
      LOOP:  cpu time    5.5524: real time    5.5554

 eigenvalue-minimisations  :  1136
 total energy-change (2. order) : 0.1073267E-05  (-0.5650525E-08)
 number of electron     176.0000000 magnetization 
 augmentation part       -2.3047913 magnetization 

 Broyden mixing:
  rms(total) = 0.19914E-04    rms(broyden)= 0.13832E-04
  rms(prec ) = 0.16787E-04
  weight for this iteration     100.00
  WARNING: grid for Broyden might be to small

 eigenvalues of (default mixing * dielectric matrix)
  average eigenvalue GAMMA=   1.7344
  3.5954  3.1009  2.4313  2.4313  1.9290  1.2925  1.1364  1.1364  0.9688  0.9688
  0.9112  0.9112

 Free energy of the ion-electron system (eV)
  ---------------------------------------------------
  alpha Z        PSCENC =       447.77288603
  Ewald energy   TEWEN  =     -9219.70629114
  -Hartree energ DENC   =     -3668.23690104
  -exchange      EXHF   =         0.00000000
  -V(xc)+E(xc)   XCENC  =       481.07798423
  PAW double counting   =     11502.70881657   -12038.33969472
  entropy T*S    EENTRO =        -0.00000000
  eigenvalues    EBANDS =     -1510.38824777
  atomic energy  EATOM  =     13290.28009929
  Solvation  Ediel_sol  =         0.00000000
  ---------------------------------------------------
  free energy    TOTEN  =      -714.83134855 eV

  energy without entropy =     -714.83134855  energy(sigma->0) =     -714.83134855


--------------------------------------------------------------------------------------------------------




--------------------------------------- Iteration      1(  18)  ---------------------------------------


    POTLOK:  cpu time    0.1384: real time    0.1757
    SETDIJ:  cpu time    1.0980: real time    1.0980
     EDDAV:  cpu time    3.2978: real time    3.2979
       DOS:  cpu time    0.0003: real time    0.0003
    --------------------------------------------
      LOOP:  cpu time    4.5346: real time    4.5720

 eigenvalue-minimisations  :  1088
 total energy-change (2. order) : 0.6125879E-07  (-0.2664906E-08)
 number of electron     176.0000000 magnetization 
 augmentation part       -2.3047913 magnetization 

 Free energy of the ion-electron system (eV)
  ---------------------------------------------------
  alpha Z        PSCENC =       447.77288603
  Ewald energy   TEWEN  =     -9219.70629114
  -Hartree energ DENC   =     -3668.23718833
  -exchange      EXHF   =         0.00000000
  -V(xc)+E(xc)   XCENC  =       481.07796488
  PAW double counting   =     11502.70424598   -12038.33526867
  entropy T*S    EENTRO =        -0.00000000
  eigenvalues    EBANDS =     -1510.38779654
  atomic energy  EATOM  =     13290.28009929
  Solvation  Ediel_sol  =         0.00000000
  ---------------------------------------------------
  free energy    TOTEN  =      -714.83134849 eV

  energy without entropy =     -714.83134849  energy(sigma->0) =     -714.83134849


--------------------------------------------------------------------------------------------------------




 average (electrostatic) potential at core
  the test charge radii are     1.1312  1.1541  1.0178
  (the norm of the test charge is              1.0000)
       1 -55.2449       2 -55.2449       3 -55.2449       4 -55.2449       5-101.7576
       6-101.7576       7-101.7576       8-101.7576       9 -69.0482      10 -69.0482
      11 -69.0482      12 -69.0482      13 -68.9670      14 -68.9670      15 -68.9670
      16 -68.9670      17 -68.9670      18 -68.9670      19 -68.9670      20 -68.9670



 E-fermi :   0.3368     XC(G=0):  -8.0613     alpha+bet : -7.0248


 k-point     1 :       0.0000    0.0000    0.0000
  band No.  band energies     occupation 
      1     -20.7768      2.00000
      2     -20.7753      2.00000
      3     -20.7725      2.00000
      4     -20.7715      2.00000
      5     -16.5624      2.00000
      6     -16.5419      2.00000
      7     -16.5365      2.00000
      8     -16.5364      2.00000
      9     -16.5058      2.00000
     10     -16.4812      2.00000
     11     -16.4655      2.00000
     12     -16.4654      2.00000
     13     -16.4250      2.00000
     14     -16.4243      2.00000
     15     -16.4238      2.00000
     16     -16.4233      2.00000
     17     -16.4083      2.00000
     18     -16.4081      2.00000
     19     -16.4081      2.00000
     20     -16.4072      2.00000
     21     -16.3987      2.00000
     22     -16.3980      2.00000
     23     -16.3977      2.00000
     24     -16.3970      2.00000
     25     -14.3276      2.00000
     26     -14.1292      2.00000
     27     -14.0817      2.00000
     28     -14.0802      2.00000
     29     -14.0208      2.00000
     30     -14.0136      2.00000
     31     -14.0048      2.00000
     32     -13.9247      2.00000
     33     -13.9186      2.00000
     34     -13.7847      2.00000
     35     -13.7345      2.00000
     36     -13.7301      2.00000
     37      -8.1776      2.00000
     38      -7.6733      2.00000
     39      -7.2734      2.00000
     40      -7.2377      2.00000
     41      -7.2104      2.00000
     42      -7.2031      2.00000
     43      -7.2017      2.00000
     44      -7.2000      2.00000
     45      -7.1890      2.00000
     46      -7.1681      2.00000
     47      -7.1628      2.00000
     48      -7.1606      2.00000
     49      -7.1588      2.00000
     50      -7.1462      2.00000
     51      -7.1192      2.00000
     52      -6.6424      2.00000
     53      -3.3203      2.00000
     54      -3.2994      2.00000
     55      -3.1833      2.00000
     56      -3.1601      2.00000
     57      -3.1057      2.00000
     58      -2.9723      2.00000
     59      -2.1364      2.00000
     60      -1.8962      2.00000
     61      -1.8829      2.00000
     62      -1.8666      2.00000
     63      -1.8227      2.00000
     64      -1.7201      2.00000
     65      -1.6705      2.00000
     66      -1.5847      2.00000
     67      -1.5185      2.00000
     68      -1.4884      2.00000
     69      -1.4858      2.00000
     70      -1.4812      2.00000
     71      -1.4645      2.00000
     72      -1.4515      2.00000
     73      -1.4113      2.00000
     74      -1.3998      2.00000
     75      -1.3783      2.00000
     76      -1.3578      2.00000
     77      -1.3497      2.00000
     78      -1.1990      2.00000
     79      -1.1463      2.00000
     80      -1.0427      2.00000
     81      -1.0027      2.00000
     82      -1.0014      2.00000
     83      -0.9877      2.00000
     84      -0.9155      2.00000
     85      -0.7763      2.00000
     86      -0.6253      2.00000
     87      -0.2921      2.00000
     88       0.2942      2.00000
     89       2.4992      0.00000
     90       2.7009      0.00000
     91       2.9261      0.00000
     92       2.9584      0.00000
     93       3.3721      0.00000
     94       3.3894      0.00000
     95       4.9412      0.00000
     96       5.3512      0.00000
     97       5.6307      0.00000
     98       5.8022      0.00000
     99       5.8640      0.00000
    100       6.0442      0.00000
    101       6.1055      0.00000
    102       6.1428      0.00000
    103       6.2406      0.00000
    104       6.3811      0.00000
    105       6.3971      0.00000
    106       6.4421      0.00000
    107       6.6012      0.00000
    108       6.8058      0.00000
    109       6.9497      0.00000
    110       7.1278      0.00000
    111       7.1472      0.00000
    112       7.1787      0.00000

 k-point     2 :       0.3333    0.0000    0.0000
  band No.  band energies     occupation 
      1     -20.7757      2.00000
      2     -20.7743      2.00000
      3     -20.7737      2.00000
      4     -20.7726      2.00000
      5     -16.5572      2.00000
      6     -16.5470      2.00000
      7     -16.5196      2.00000
      8     -16.5194      2.00000
      9     -16.4994      2.00000
     10     -16.4871      2.00000
     11     -16.4839      2.00000
     12     -16.4839      2.00000
     13     -16.4248      2.00000
     14     -16.4246      2.00000
     15     -16.4237      2.00000
     16     -16.4235      2.00000
     17     -16.4083      2.00000
     18     -16.4083      2.00000
     19     -16.4080      2.00000
     20     -16.4076      2.00000
     21     -16.3986      2.00000
     22     -16.3982      2.00000
     23     -16.3978      2.00000
     24     -16.3974      2.00000
     25     -14.2851      2.00000
     26     -14.1691      2.00000
     27     -14.0999      2.00000
     28     -14.0814      2.00000
     29     -14.0803      2.00000
     30     -14.0378      2.00000
     31     -13.8859      2.00000
     32     -13.8771      2.00000
     33     -13.8712      2.00000
     34     -13.8084      2.00000
     35     -13.7821      2.00000
     36     -13.7771      2.00000
     37      -7.9856      2.00000
     38      -7.5482      2.00000
     39      -7.4837      2.00000
     40      -7.2460      2.00000
     41      -7.2072      2.00000
     42      -7.2040      2.00000
     43      -7.1981      2.00000
     44      -7.1887      2.00000
     45      -7.1826      2.00000
     46      -7.1776      2.00000
     47      -7.1628      2.00000
     48      -7.1533      2.00000
     49      -7.1456      2.00000
     50      -7.1377      2.00000
     51      -7.1262      2.00000
     52      -6.9408      2.00000
     53      -3.2871      2.00000
     54      -3.2075      2.00000
     55      -2.8600      2.00000
     56      -2.7903      2.00000
     57      -2.7527      2.00000
     58      -2.7201      2.00000
     59      -2.2335      2.00000
     60      -2.1110      2.00000
     61      -2.0695      2.00000
     62      -1.9999      2.00000
     63      -1.9845      2.00000
     64      -1.9711      2.00000
     65      -1.7828      2.00000
     66      -1.6996      2.00000
     67      -1.6484      2.00000
     68      -1.6267      2.00000
     69      -1.5082      2.00000
     70      -1.4882      2.00000
     71      -1.4043      2.00000
     72      -1.4001      2.00000
     73      -1.3929      2.00000
     74      -1.3810      2.00000
     75      -1.3186      2.00000
     76      -1.2981      2.00000
     77      -1.2867      2.00000
     78      -1.2404      2.00000
     79      -1.2034      2.00000
     80      -1.0531      2.00000
     81      -1.0457      2.00000
     82      -1.0276      2.00000
     83      -1.0229      2.00000
     84      -0.9952      2.00000
     85      -0.7360      2.00000
     86      -0.6532      2.00000
     87      -0.5061      2.00000
     88      -0.1393      2.00000
     89       2.8526      0.00000
     90       3.1558      0.00000
     91       3.2036      0.00000
     92       3.6100      0.00000
     93       3.8010      0.00000
     94       4.1585      0.00000
     95       4.5887      0.00000
     96       4.9532      0.00000
     97       5.1738      0.00000
     98       5.2133      0.00000
     99       5.7618      0.00000
    100       5.7706      0.00000
    101       6.1124      0.00000
    102       6.2574      0.00000
    103       6.3947      0.00000
    104       6.4456      0.00000
    105       6.4700      0.00000
    106       6.4960      0.00000
    107       6.5685      0.00000
    108       6.7097      0.00000
    109       6.9721      0.00000
    110       6.9962      0.00000
    111       7.1171      0.00000
    112       7.1828      0.00000

 k-point     3 :       0.0000    0.5000    0.0000
  band No.  band energies     occupation 
      1     -20.7760      2.00000
      2     -20.7760      2.00000
      3     -20.7721      2.00000
      4     -20.7721      2.00000
      5     -16.5366      2.00000
      6     -16.5366      2.00000
      7     -16.5345      2.00000
      8     -16.5345      2.00000
      9     -16.5119      2.00000
     10     -16.5119      2.00000
     11     -16.4654      2.00000
     12     -16.4654      2.00000
     13     -16.4244      2.00000
     14     -16.4244      2.00000
     15     -16.4239      2.00000
     16     -16.4239      2.00000
     17     -16.4083      2.00000
     18     -16.4083      2.00000
     19     -16.4078      2.00000
     20     -16.4078      2.00000
     21     -16.3983      2.00000
     22     -16.3983      2.00000
     23     -16.3976      2.00000
     24     -16.3976      2.00000
     25     -14.2734      2.00000
     26     -14.2734      2.00000
     27     -14.0502      2.00000
     28     -14.0502      2.00000
     29     -14.0089      2.00000
     30     -14.0089      2.00000
     31     -13.9229      2.00000
     32     -13.9229      2.00000
     33     -13.8865      2.00000
     34     -13.8865      2.00000
     35     -13.7323      2.00000
     36     -13.7323      2.00000
     37      -7.9446      2.00000
     38      -7.9446      2.00000
     39      -7.2263      2.00000
     40      -7.2263      2.00000
     41      -7.2052      2.00000
     42      -7.2051      2.00000
     43      -7.1843      2.00000
     44      -7.1843      2.00000
     45      -7.1638      2.00000
     46      -7.1638      2.00000
     47      -7.1603      2.00000
     48      -7.1603      2.00000
     49      -7.1516      2.00000
     50      -7.1516      2.00000
     51      -6.9951      2.00000
     52      -6.9951      2.00000
     53      -3.2458      2.00000
     54      -3.2458      2.00000
     55      -3.0483      2.00000
     56      -3.0483      2.00000
     57      -2.4777      2.00000
     58      -2.4777      2.00000
     59      -2.3661      2.00000
     60      -2.3661      2.00000
     61      -2.0049      2.00000
     62      -2.0049      2.00000
     63      -1.8187      2.00000
     64      -1.8187      2.00000
     65      -1.7502      2.00000
     66      -1.7502      2.00000
     67      -1.5490      2.00000
     68      -1.5490      2.00000
     69      -1.4871      2.00000
     70      -1.4871      2.00000
     71      -1.4506      2.00000
     72      -1.4506      2.00000
     73      -1.3823      2.00000
     74      -1.3823      2.00000
     75      -1.3192      2.00000
     76      -1.3192      2.00000
     77      -1.2600      2.00000
     78      -1.2600      2.00000
     79      -1.1631      2.00000
     80      -1.1631      2.00000
     81      -1.1208      2.00000
     82      -1.1208      2.00000
     83      -0.9439      2.00000
     84      -0.9439      2.00000
     85      -0.7695      2.00000
     86      -0.7695      2.00000
     87      -0.1647      2.00000
     88      -0.1647      2.00000
     89       2.7235      0.00000
     90       2.7235      0.00000
     91       3.1697      0.00000
     92       3.1697      0.00000
     93       4.2590      0.00000
     94       4.2590      0.00000
     95       4.7960      0.00000
     96       4.7960      0.00000
     97       5.5238      0.00000
     98       5.5238      0.00000
     99       5.5717      0.00000
    100       5.5717      0.00000
    101       6.0265      0.00000
    102       6.0265      0.00000
    103       6.3478      0.00000
    104       6.3478      0.00000
    105       6.3580      0.00000
    106       6.3580      0.00000
    107       6.7174      0.00000
[...]
     60      -2.3757      2.00000
     61      -2.1987      2.00000
     62      -2.1987      2.00000
     63      -1.9898      2.00000
     64      -1.9898      2.00000
     65      -1.6849      2.00000
     66      -1.6849      2.00000
     67      -1.6636      2.00000
     68      -1.6636      2.00000
     69      -1.5264      2.00000
     70      -1.5264      2.00000
     71      -1.4919      2.00000
     72      -1.4919      2.00000
     73      -1.3659      2.00000
     74      -1.3659      2.00000
     75      -1.3095      2.00000
     76      -1.3095      2.00000
     77      -1.2115      2.00000
     78      -1.2115      2.00000
     79      -1.1529      2.00000
     80      -1.1529      2.00000
     81      -1.1379      2.00000
     82      -1.1379      2.00000
     83      -1.0632      2.00000
     84      -1.0632      2.00000
     85      -0.8940      2.00000
     86      -0.8940      2.00000
     87      -0.7283      2.00000
     88      -0.7283      2.00000
     89       3.5192      0.00000
     90       3.5192      0.00000
     91       3.8401      0.00000
     92       3.8401      0.00000
     93       4.3694      0.00000
     94       4.3694      0.00000
     95       4.6609      0.00000
     96       4.6609      0.00000
     97       4.8378      0.00000
     98       4.8378      0.00000
     99       5.2151      0.00000
    100       5.2151      0.00000
    101       6.0810      0.00000
    102       6.0810      0.00000
    103       6.2421      0.00000
    104       6.2421      0.00000
    105       6.4433      0.00000
    106       6.4433      0.00000
    107       6.6375      0.00000
    108       6.6375      0.00000
    109       6.9585      0.00000
    110       6.9585      0.00000
    111       7.1382      0.00000
    112       7.1383      0.00000

 k-point     8 :       0.3333    0.5000    0.3333
  band No.  band energies     occupation 
      1     -20.7746      2.00000
      2     -20.7746      2.00000
      3     -20.7733      2.00000
      4     -20.7733      2.00000
      5     -16.5348      2.00000
      6     -16.5348      2.00000
      7     -16.5266      2.00000
      8     -16.5266      2.00000
      9     -16.5020      2.00000
     10     -16.5020      2.00000
     11     -16.4870      2.00000
     12     -16.4870      2.00000
     13     -16.4242      2.00000
     14     -16.4242      2.00000
     15     -16.4241      2.00000
     16     -16.4241      2.00000
     17     -16.4080      2.00000
     18     -16.4080      2.00000
     19     -16.4079      2.00000
     20     -16.4079      2.00000
     21     -16.3980      2.00000
     22     -16.3980      2.00000
     23     -16.3978      2.00000
     24     -16.3978      2.00000
     25     -14.1935      2.00000
     26     -14.1935      2.00000
     27     -14.1295      2.00000
     28     -14.1295      2.00000
     29     -13.9792      2.00000
     30     -13.9792      2.00000
     31     -13.9293      2.00000
     32     -13.9293      2.00000
     33     -13.8474      2.00000
     34     -13.8474      2.00000
     35     -13.8106      2.00000
     36     -13.8106      2.00000
     37      -7.6277      2.00000
     38      -7.6277      2.00000
     39      -7.4016      2.00000
     40      -7.4016      2.00000
     41      -7.2009      2.00000
     42      -7.2009      2.00000
     43      -7.1822      2.00000
     44      -7.1822      2.00000
     45      -7.1689      2.00000
     46      -7.1689      2.00000
     47      -7.1643      2.00000
     48      -7.1643      2.00000
     49      -7.1497      2.00000
     50      -7.1497      2.00000
     51      -7.1336      2.00000
     52      -7.1336      2.00000
     53      -3.0726      2.00000
     54      -3.0726      2.00000
     55      -2.7496      2.00000
     56      -2.7496      2.00000
     57      -2.5074      2.00000
     58      -2.5074      2.00000
     59      -2.4071      2.00000
     60      -2.4071      2.00000
     61      -2.1497      2.00000
     62      -2.1497      2.00000
     63      -1.9970      2.00000
     64      -1.9970      2.00000
     65      -1.7272      2.00000
     66      -1.7272      2.00000
     67      -1.6511      2.00000
     68      -1.6511      2.00000
     69      -1.5118      2.00000
     70      -1.5118      2.00000
     71      -1.4284      2.00000
     72      -1.4284      2.00000
     73      -1.3683      2.00000
     74      -1.3683      2.00000
     75      -1.2877      2.00000
     76      -1.2877      2.00000
     77      -1.2050      2.00000
     78      -1.2050      2.00000
     79      -1.1465      2.00000
     80      -1.1465      2.00000
     81      -1.0936      2.00000
     82      -1.0936      2.00000
     83      -1.0557      2.00000
     84      -1.0557      2.00000
     85      -0.8392      2.00000
     86      -0.8392      2.00000
     87      -0.6407      2.00000
     88      -0.6407      2.00000
     89       3.1324      0.00000
     90       3.1324      0.00000
     91       3.8666      0.00000
     92       3.8666      0.00000
     93       4.4334      0.00000
     94       4.4334      0.00000
     95       4.5260      0.00000
     96       4.5260      0.00000
     97       4.9260      0.00000
     98       4.9260      0.00000
     99       5.5646      0.00000
    100       5.5646      0.00000
    101       6.3131      0.00000
    102       6.3131      0.00000
    103       6.4077      0.00000
    104       6.4077      0.00000
    105       6.5935      0.00000
    106       6.5935      0.00000
    107       6.7746      0.00000
    108       6.7746      0.00000
    109       6.8591      0.00000
    110       6.8591      0.00000
    111       7.0282      0.00000
    112       7.0282      0.00000


--------------------------------------------------------------------------------------------------------


 soft charge-density along one line, spin component           1
         0         1         2         3         4         5         6         7         8         9
 total charge-density along one line

 pseudopotential strength for first ion, spin component:           1
 17.957  -4.701   0.000  -0.001  -0.001  -0.000   0.001   0.002
 -4.701   1.239  -0.000   0.000   0.000   0.000  -0.000  -0.000
  0.000  -0.000   2.259  -0.000  -0.000  -2.700   0.000   0.000
 -0.001   0.000  -0.000   2.260  -0.000   0.000  -2.702   0.001
 -0.001   0.000  -0.000  -0.000   2.259   0.000   0.001  -2.701
 -0.000   0.000  -2.700   0.000   0.000   3.196  -0.000  -0.000
  0.001  -0.000   0.000  -2.702   0.001  -0.000   3.198  -0.001
  0.002  -0.000   0.000   0.001  -2.701  -0.000  -0.001   3.197
 -0.000   0.000  -0.000  -0.000   0.000   0.001   0.000  -0.000
 -0.000   0.000  -0.000  -0.000  -0.000   0.000   0.000   0.000
  0.001  -0.000  -0.000  -0.001   0.000   0.000   0.002  -0.000
 -0.000   0.000  -0.000  -0.001   0.000   0.000   0.001  -0.000
  0.000  -0.000  -0.000   0.000  -0.001   0.000  -0.000   0.001
 total augmentation occupancy for first ion, spin component:           1
  1.911  -0.141   0.000  -0.000  -0.000   0.000  -0.001  -0.001   0.000   0.000   0.001  -0.001   0.000
 -0.141   0.119   0.000  -0.004  -0.003   0.000   0.001   0.002   0.000  -0.000  -0.002   0.003   0.001
  0.000   0.000   2.016   0.000   0.000   0.003   0.000  -0.000  -0.000   0.000   0.000   0.000   0.000
 -0.000  -0.004   0.000   2.018  -0.002   0.000   0.005  -0.001   0.000   0.000  -0.004  -0.001   0.000
 -0.000  -0.003   0.000  -0.002   2.016   0.000  -0.001   0.003   0.000   0.000   0.001   0.001  -0.003
  0.000   0.000   0.003   0.000   0.000   0.008  -0.000  -0.000  -0.001  -0.001   0.000   0.000   0.000
 -0.001   0.001   0.000   0.005  -0.001  -0.000   0.008   0.001   0.000  -0.000   0.002  -0.000   0.000
 -0.001   0.002  -0.000  -0.001   0.003  -0.000   0.001   0.009   0.000   0.000  -0.001  -0.001   0.002
  0.000   0.000  -0.000   0.000   0.000  -0.001   0.000   0.000   0.006   0.001   0.000   0.000  -0.000
  0.000  -0.000   0.000   0.000   0.000  -0.001  -0.000   0.000   0.001   0.005   0.000   0.000   0.000
  0.001  -0.002   0.000  -0.004   0.001   0.000   0.002  -0.001   0.000   0.000   0.006  -0.002  -0.001
 -0.001   0.003   0.000  -0.001   0.001   0.000  -0.000  -0.001   0.000   0.000  -0.002   0.004   0.001
  0.000   0.001   0.000   0.000  -0.003   0.000   0.000   0.002  -0.000   0.000  -0.001   0.001   0.004


------------------------ aborting loop because EDIFF is reached ----------------------------------------





 total charge     

# of ion       s       p       d       tot
------------------------------------------
    1        1.786   4.719   0.019   6.523
    2        1.786   4.719   0.019   6.523
    3        1.786   4.719   0.019   6.523
    4        1.786   4.719   0.019   6.523
    5        1.552   0.412   9.831  11.795
    6        1.552   0.411   9.831  11.794
    7        1.552   0.411   9.831  11.794
    8        1.552   0.412   9.831  11.795
    9        1.614   3.286   0.006   4.906
   10        1.614   3.286   0.006   4.906
   11        1.614   3.286   0.006   4.906
   12        1.614   3.286   0.006   4.906
   13        1.615   3.269   0.006   4.889
   14        1.613   3.290   0.005   4.909
   15        1.613   3.290   0.005   4.909
   16        1.615   3.269   0.006   4.889
   17        1.615   3.269   0.006   4.889
   18        1.613   3.290   0.005   4.909
   19        1.615   3.269   0.006   4.889
   20        1.613   3.290   0.005   4.909
--------------------------------------------------
tot         32.717  59.898  39.469 132.084

    CHARGE:  cpu time    0.1425: real time    0.1425
    FORLOC:  cpu time    0.0038: real time    0.0038
    FORNL :  cpu time    0.6196: real time    0.6196
    STRESS:  cpu time   13.7670: real time   13.7675
    FORCOR:  cpu time    0.1031: real time    0.1030
    FORHAR:  cpu time    0.0112: real time    0.0112
    MIXING:  cpu time    0.0012: real time    0.0012
    OFIELD:  cpu time    0.0000: real time    0.0000

  FORCE on cell =-STRESS in cart. coord.  units (eV):
  Direction    XX          YY          ZZ          XY          YZ          ZX
  --------------------------------------------------------------------------------------
  Alpha Z   447.77289   447.77289   447.77289
  Ewald   -3006.62024 -2961.47533 -3251.63731    -0.00000    -0.00000    -0.00000
  Hartree  1276.88037  1279.25239  1112.10351     0.00000    -0.00000    -0.00000
  E(xc)    -738.68239  -738.55855  -738.65351    -0.00000    -0.00000    -0.02958
  Local   -1534.65438 -1581.76072 -1128.66454     0.00000    -0.00000     0.00000
  n-local   898.57213   899.24424   896.98363     0.00000    -0.00000     0.03382
  augment   407.52383   406.38279   405.59745    -0.00000    -0.00004    -0.00001
  Kinetic  2244.48168  2247.80461  2255.72123    -0.00000    -0.00000    -1.45805
  Fock        0.00000     0.00000     0.00000     0.00000     0.00000     0.00000
  -------------------------------------------------------------------------------------
  Total      -4.72611    -1.33767    -0.77664     0.00000     0.00000     0.00000
  in kB      -9.39712    -2.65975    -1.54423     0.00000     0.00000     0.00000
  external pressure =       -4.53 kB  Pullay stress =        0.00 kB


 VOLUME and BASIS-vectors are now :
 -----------------------------------------------------------------------------
  energy-cutoff  :      300.00
  volume of cell :      805.79
      direct lattice vectors                 reciprocal lattice vectors
     8.841018478  0.000000000  0.000000000     0.113109140  0.000000000  0.000000000
     0.000000000 11.821445862  0.000000000     0.000000000  0.084592021  0.000000000
     0.000000000  0.000000000  7.709861814     0.000000000  0.000000000  0.129704011

  length of vectors
     8.841018478 11.821445862  7.709861814     0.113109140  0.084592021  0.129704011


 FORCES acting on ions
    electron-ion (+dipol)            ewald-force                    non-local-force                 convergence-correction
 -----------------------------------------------------------------------------------------------
   0.284E+02 0.104E-12 -.203E+02   -.283E+02 -.279E-11 0.204E+02   -.143E+00 0.132E-22 -.893E-01   0.287E-04 -.231E-12 -.607E-04
   -.284E+02 -.274E-12 -.203E+02   0.283E+02 -.450E-11 0.204E+02   0.143E+00 0.265E-22 -.893E-01   -.287E-04 0.260E-12 -.607E-04
   0.284E+02 0.103E-11 0.203E+02   -.283E+02 -.278E-11 -.204E+02   -.143E+00 -.265E-22 0.893E-01   0.287E-04 -.221E-12 0.607E-04
   -.284E+02 -.118E-11 0.203E+02   0.283E+02 -.450E-11 -.204E+02   0.143E+00 -.662E-23 0.893E-01   -.287E-04 0.249E-12 0.607E-04
   -.629E-11 -.523E-11 -.251E-10   0.126E-10 -.802E-11 -.167E-10   0.000E+00 0.000E+00 0.366E-23   0.200E-12 0.657E-12 0.912E-13
   0.772E-11 0.624E-11 -.186E-10   0.272E-10 -.636E-11 0.151E-11   0.000E+00 0.000E+00 0.847E-23   0.816E-13 0.666E-12 -.325E-13
   0.572E-11 -.986E-11 -.222E-10   0.279E-10 0.166E-10 -.284E-11   0.000E+00 0.000E+00 0.172E-22   0.549E-13 -.733E-12 -.191E-13
   -.648E-11 0.744E-11 -.246E-10   0.134E-10 0.182E-10 -.122E-10   0.000E+00 0.000E+00 -.915E-23   0.228E-12 -.728E-12 0.741E-13
   0.685E+01 -.205E-11 0.396E+02   -.689E+01 -.340E-11 -.399E+02   0.301E-01 0.529E-22 0.233E+00   0.174E-04 0.168E-12 0.482E-04
   -.685E+01 -.243E-11 0.396E+02   0.689E+01 -.853E-12 -.399E+02   -.301E-01 0.265E-22 0.233E+00   -.174E-04 -.188E-12 0.482E-04
   0.685E+01 0.246E-12 -.396E+02   -.689E+01 -.344E-11 0.399E+02   0.301E-01 -.529E-22 -.233E+00   0.174E-04 0.150E-12 -.482E-04
   -.685E+01 -.202E-11 -.396E+02   0.689E+01 -.924E-12 0.399E+02   -.301E-01 -.265E-22 -.233E+00   -.174E-04 -.209E-12 -.482E-04
   -.204E+02 0.162E+02 0.313E+02   0.206E+02 -.164E+02 -.316E+02   -.182E+00 0.140E+00 0.278E+00   0.132E-04 -.303E-04 -.111E-05
   0.204E+02 -.162E+02 0.313E+02   -.206E+02 0.164E+02 -.316E+02   0.182E+00 -.140E+00 0.278E+00   -.132E-04 0.303E-04 -.111E-05
   -.204E+02 -.162E+02 -.313E+02   0.206E+02 0.164E+02 0.316E+02   -.182E+00 -.140E+00 -.278E+00   0.132E-04 0.303E-04 0.111E-05
   0.204E+02 0.162E+02 -.313E+02   -.206E+02 -.164E+02 0.316E+02   0.182E+00 0.140E+00 -.278E+00   -.132E-04 -.303E-04 0.111E-05
   -.204E+02 -.162E+02 0.313E+02   0.206E+02 0.164E+02 -.316E+02   -.182E+00 -.140E+00 0.278E+00   0.132E-04 0.303E-04 -.111E-05
   0.204E+02 0.162E+02 0.313E+02   -.206E+02 -.164E+02 -.316E+02   0.182E+00 0.140E+00 0.278E+00   -.132E-04 -.303E-04 -.111E-05
   0.204E+02 -.162E+02 -.313E+02   -.206E+02 0.164E+02 0.316E+02   0.182E+00 -.140E+00 -.278E+00   -.132E-04 0.303E-04 0.111E-05
   -.204E+02 0.162E+02 -.313E+02   0.206E+02 -.164E+02 0.316E+02   -.182E+00 0.140E+00 -.278E+00   0.132E-04 -.303E-04 0.111E-05
 -----------------------------------------------------------------------------------------------
   -.259E-10 0.118E-09 -.297E-09   -.142E-13 0.000E+00 -.853E-13   -.111E-15 0.000E+00 0.000E+00   0.565E-12 -.179E-12 0.167E-12


 POSITION                                       TOTAL-FORCE (eV/Angst)
 -----------------------------------------------------------------------------------
      0.67921      2.95536      3.59971        -0.008823      0.000000     -0.004466
      3.74130      8.86608      7.45464         0.008823      0.000000     -0.004466
      5.09972      2.95536      0.25523        -0.008823      0.000000      0.004466
      8.16181      8.86608      4.11016         0.008823      0.000000      0.004466
      0.00000      0.00000      0.00000         0.000000      0.000000     -0.000000
      4.42051      0.00000      3.85493         0.000000      0.000000     -0.000000
      4.42051      5.91072      3.85493         0.000000      0.000000     -0.000000
      0.00000      5.91072      0.00000         0.000000      0.000000     -0.000000
      4.53165      8.86608      3.37399         0.002364      0.000000     -0.009838
      8.72988      2.95536      7.22892        -0.002364      0.000000     -0.009838
      0.11114      8.86608      0.48094         0.002364      0.000000      0.009838
      4.30937      2.95536      4.33587        -0.002364      0.000000      0.009838
      2.65394      5.50422      1.43797        -0.004879     -0.008318     -0.002717
      1.76657      6.31723      5.29290         0.004879      0.008318     -0.002717
      7.07445      0.40650      2.41696        -0.004879      0.008318      0.002717
      6.18708     11.41494      6.27189         0.004879     -0.008318      0.002717
      2.65394      0.40650      1.43797        -0.004879      0.008318     -0.002717
      1.76657     11.41494      5.29290         0.004879     -0.008318     -0.002717
      6.18708      6.31723      6.27189         0.004879      0.008318      0.002717
      7.07445      5.50422      2.41696        -0.004879     -0.008318      0.002717
 -----------------------------------------------------------------------------------
    total drift:                               -0.000000      0.000000     -0.000000


--------------------------------------------------------------------------------------------------------



  FREE ENERGIE OF THE ION-ELECTRON SYSTEM (eV)
  ---------------------------------------------------
  free  energy   TOTEN  =      -714.83134849 eV

  energy  without entropy=     -714.83134849  energy(sigma->0) =     -714.83134849



--------------------------------------------------------------------------------------------------------


    POTLOK:  cpu time    1.2023: real time    1.2023


--------------------------------------------------------------------------------------------------------


 stress matrix after NEB project (eV)
     -4.72611      0.00000      0.00000
      0.00000     -1.33767      0.00000
     -0.00000      0.00000     -0.77664
  FORCES: max atom, RMS     0.010118    0.008955
  FORCE total and by dimension    0.040046    0.009838
  Stress total and by dimension    4.972790    4.726107
     LOOP+:  cpu time  127.6991: real time  128.2807
    4ORBIT:  cpu time    0.0000: real time    0.0000



 total charge     

# of ion       s       p       d       tot
------------------------------------------
    1        1.786   4.719   0.019   6.523
    2        1.786   4.719   0.019   6.523
    3        1.786   4.719   0.019   6.523
    4        1.786   4.719   0.019   6.523
    5        1.552   0.412   9.831  11.795
    6        1.552   0.411   9.831  11.794
    7        1.552   0.411   9.831  11.794
    8        1.552   0.412   9.831  11.795
    9        1.614   3.286   0.006   4.906
   10        1.614   3.286   0.006   4.906
   11        1.614   3.286   0.006   4.906
   12        1.614   3.286   0.006   4.906
   13        1.615   3.269   0.006   4.889
   14        1.613   3.290   0.005   4.909
   15        1.613   3.290   0.005   4.909
   16        1.615   3.269   0.006   4.889
   17        1.615   3.269   0.006   4.889
   18        1.613   3.290   0.005   4.909
   19        1.615   3.269   0.006   4.889
   20        1.613   3.290   0.005   4.909
--------------------------------------------------
tot         32.717  59.898  39.469 132.084


 total amount of memory used by VASP MPI-rank0    43691. kBytes
=======================================================================

   base      :      30000. kBytes
   nonlr-proj:       3311. kBytes
   fftplans  :       4445. kBytes
   grid      :       3667. kBytes
   one-center:         46. kBytes
   wavefun   :       2222. kBytes

  
  
 General timing and accounting informations for this job:
 ========================================================
  
                  Total CPU time used (sec):      134.222
                            User time (sec):      133.362
                          System time (sec):        0.860
                         Elapsed time (sec):      134.951
  
                   Maximum memory used (kb):       82092.
                   Average memory used (kb):           0.
  
                          Minor page faults:        20185
                          Major page faults:            1
                 Voluntary context switches:         1914
