PROCAR new format
# of k-points:    8         # of bands:  112         # of ions:   20

 k-point     1 :    0.00000000 0.00000000 0.00000000     weight = 0.05555556

band     1 # energy  -20.77680593 # occ.  2.00000000

ion      s      p      d    tot
    1  0.221  0.000  0.000  0.221
    2  0.222  0.000  0.000  0.222
    3  0.221  0.000  0.000  0.221
    4  0.222  0.000  0.000  0.222
    5  0.000  0.000  0.000  0.000
    6  0.000  0.000  0.000  0.000
    7  0.000  0.000  0.000  0.000
    8  0.000  0.000  0.000  0.000
    9  0.000  0.000  0.000  0.000
   10  0.000  0.000  0.000  0.000
   11  0.000  0.000  0.000  0.000
   12  0.000  0.000  0.000  0.000
   13  0.000  0.000  0.000  0.000
   14  0.000  0.000  0.000  0.000
   15  0.000  0.000  0.000  0.000
   16  0.000  0.000  0.000  0.000
   17  0.000  0.000  0.000  0.000
   18  0.000  0.000  0.000  0.000
   19  0.000  0.000  0.000  0.000
   20  0.000  0.000  0.000  0.000
tot    0.887  0.000  0.000  0.887

band     2 # energy  -20.77525358 # occ.  2.00000000

ion      s      p      d    tot
    1  0.223  0.000  0.000  0.223
    2  0.221  0.000  0.000  0.221
    3  0.223  0.000  0.000  0.223
    4  0.221  0.000  0.000  0.221
    5  0.000  0.000  0.000  0.000
    6  0.000  0.000  0.000  0.000
    7  0.000  0.000  0.000  0.000
    8  0.000  0.000  0.000  0.000
    9  0.000  0.000  0.000  0.000
   10  0.000  0.000  0.000  0.000
   11  0.000  0.000  0.000  0.000
   12  0.000  0.000  0.000  0.000
   13  0.000  0.000  0.000  0.000
   14  0.000  0.000  0.000  0.000
   15  0.000  0.000  0.000  0.000
   16  0.000  0.000  0.000  0.000
   17  0.000  0.000  0.000  0.000
   18  0.000  0.000  0.000  0.000
   19  0.000  0.000  0.000  0.000
   20  0.000  0.000  0.000  0.000
tot    0.887  0.000  0.000  0.887

band     3 # energy  -20.77251098 # occ.  2.00000000

ion      s      p      d    tot
    1  0.221  0.000  0.000  0.221
    2  0.223  0.000  0.000  0.223
    3  0.221  0.000  0.000  0.221
    4  0.223  0.000  0.000  0.223
    5  0.000  0.000  0.000  0.000
    6  0.000  0.000  0.000  0.000
    7  0.000  0.000  0.000  0.000
    8  0.000  0.000  0.000  0.000
    9  0.000  0.000  0.000  0.000
   10  0.000  0.000  0.000  0.000
   11  0.000  0.000  0.000  0.000
   12  0.000  0.000  0.000  0.000
   13  0.000  0.000  0.000  0.000
   14  0.000  0.000  0.000  0.000
   15  0.000  0.000  0.000  0.000
   16  0.000  0.000  0.000  0.000
   17  0.000  0.000  0.000  0.000
   18  0.000  0.000  0.000  0.000
   19  0.000  0.000  0.000  0.000
   20  0.000  0.000  0.000  0.000
tot    0.888  0.000  0.000  0.888

band     4 # energy  -20.77152369 # occ.  2.00000000

ion      s      p      d    tot
    1  0.223  0.000  0.000  0.223
    2  0.221  0.000  0.000  0.221
    3  0.223  0.000  0.000  0.223
    4  0.221  0.000  0.000  0.221
    5  0.000  0.000  0.000  0.000
    6  0.000  0.000  0.000  0.000
    7  0.000  0.000  0.000  0.000
    8  0.000  0.000  0.000  0.000
    9  0.000  0.000  0.000  0.000
   10  0.000  0.000  0.000  0.000
   11  0.000  0.000  0.000  0.000
   12  0.000  0.000  0.000  0.000
   13  0.000  0.000  0.000  0.000
   14  0.000  0.000  0.000  0.000
   15  0.000  0.000  0.000  0.000
   16  0.000  0.000  0.000  0.000
   17  0.000  0.000  0.000  0.000
   18  0.000  0.000  0.000  0.000
   19  0.000  0.000  0.000  0.000
   20  0.000  0.000  0.000  0.000
tot    0.888  0.000  0.000  0.888

band     5 # energy  -16.56240002 # occ.  2.00000000

ion      s      p      d    tot
    1  0.000  0.000  0.000  0.000
    2  0.000  0.000  0.000  0.000
    3  0.000  0.000  0.000  0.000
    4  0.000  0.000  0.000  0.000
    5  0.000  0.000  0.232  0.232
    6  0.000  0.000  0.232  0.232
    7  0.000  0.000  0.232  0.232
    8  0.000  0.000  0.232  0.232
    9  0.006  0.000  0.000  0.006
   10  0.006  0.000  0.000  0.006
   11  0.006  0.000  0.000  0.006
   12  0.006  0.000  0.000  0.006
   13  0.001  0.000  0.000  0.001
   14  0.001  0.000  0.000  0.001
   15  0.001  0.000  0.000  0.001
   16  0.001  0.000  0.000  0.001
   17  0.001  0.000  0.000  0.001
   18  0.001  0.000  0.000  0.001
   19  0.001  0.000  0.000  0.001
   20  0.001  0.000  0.000  0.001
tot    0.033  0.000  0.929  0.962

band     6 # energy  -16.54194033 # occ.  2.00000000

ion      s      p      d    tot
    1  0.000  0.000  0.000  0.000
    2  0.000  0.000  0.000  0.000
    3  0.000  0.000  0.000  0.000
    4  0.000  0.000  0.000  0.000
    5  0.000  0.000  0.234  0.235
    6  0.000  0.000  0.234  0.235
    7  0.000  0.000  0.234  0.235
    8  0.000  0.000  0.234  0.235
    9  0.007  0.000  0.000  0.007
   10  0.007  0.000  0.000  0.007
   11  0.007  0.000  0.000  0.007
   12  0.007  0.000  0.000  0.007
   13  0.000  0.000  0.000  0.000
   14  0.000  0.000  0.000  0.000
   15  0.000  0.000  0.000  0.000
   16  0.000  0.000  0.000  0.000
   17  0.000  0.000  0.000  0.000
   18  0.000  0.000  0.000  0.000
   19  0.000  0.000  0.000  0.000
   20  0.000  0.000  0.000  0.000
tot    0.026  0.001  0.938  0.965

band     7 # energy  -16.53650367 # occ.  2.00000000

ion      s      p      d    tot
    1  0.000  0.000  0.000  0.000
    2  0.000  0.000  0.000  0.000
    3  0.000  0.000  0.000  0.000
    4  0.000  0.000  0.000  0.000
    5  0.000  0.000  0.234  0.234
    6  0.000  0.000  0.234  0.234
    7  0.000  0.000  0.234  0.234
    8  0.000  0.000  0.234  0.234
    9  0.000  0.000  0.000  0.000
   10  0.000  0.000  0.000  0.000
   11  0.000  0.000  0.000  0.000
   12  0.000  0.000  0.000  0.000
   13  0.004  0.000  0.000  0.004
   14  0.004  0.000  0.000  0.004
   15  0.004  0.000  0.000  0.004
   16  0.004  0.000  0.000  0.004
   17  0.004  0.000  0.000  0.004
   18  0.004  0.000  0.000  0.004
   19  0.004  0.000  0.000  0.004
   20  0.004  0.000  0.000  0.004
tot    0.028  0.000  0.936  0.964

band     8 # energy  -16.53641431 # occ.  2.00000000

ion      s      p      d    tot
    1  0.000  0.000  0.000  0.000
    2  0.000  0.000  0.000  0.000
    3  0.000  0.000  0.000  0.000
    4  0.000  0.000  0.000  0.000
    5  0.000  0.000  0.234  0.234
    6  0.000  0.000  0.234  0.234
    7  0.000  0.000  0.234  0.234
    8  0.000  0.000  0.234  0.234
    9  0.000  0.000  0.000  0.000
   10  0.000  0.000  0.000  0.000
   11  0.000  0.000  0.000  0.000
   12  0.000  0.000  0.000  0.000
   13  0.004  0.000  0.000  0.004
   14  0.004  0.000  0.000  0.004
   15  0.004  0.000  0.000  0.004
   16  0.004  0.000  0.000  0.004
   17  0.004  0.000  0.000  0.004
   18  0.004  0.000  0.000  0.004
   19  0.004  0.000  0.000  0.004
   20  0.004  0.000  0.000  0.004
tot    0.028  0.000  0.936  0.964

band     9 # energy  -16.50579679 # occ.  2.00000000

ion      s      p      d    tot
    1  0.000  0.000  0.000  0.000
    2  0.000  0.000  0.000  0.000
    3  0.000  0.000  0.000  0.000
    4  0.000  0.000  0.000  0.000
    5  0.000  0.000  0.239  0.239
    6  0.000  0.000  0.239  0.239
    7  0.000  0.000  0.239  0.239
    8  0.000  0.000  0.239  0.239
    9  0.000  0.000  0.000  0.000
   10  0.000  0.000  0.000  0.000
   11  0.000  0.000  0.000  0.000
   12  0.000  0.000  0.000  0.000
   13  0.001  0.000  0.000  0.001
   14  0.001  0.000  0.000  0.001
   15  0.001  0.000  0.000  0.001
   16  0.001  0.000  0.000  0.001
   17  0.001  0.000  0.000  0.001
   18  0.001  0.000  0.000  0.001
   19  0.001  0.000  0.000  0.001
   20  0.001  0.000  0.000  0.001
tot    0.011  0.002  0.958  0.970

band    10 # energy  -16.48116810 # occ.  2.00000000

ion      s      p      d    tot
    1  0.000  0.000  0.000  0.000
    2  0.000  0.000  0.000  0.000
    3  0.000  0.000  0.000  0.000
    4  0.000  0.000  0.000  0.000
    5  0.000  0.000  0.243  0.243
    6  0.000  0.000  0.243  0.243
    7  0.000  0.000  0.243  0.243
    8  0.000  0.000  0.243  0.243
    9  0.000  0.000  0.000  0.000
   10  0.000  0.000  0.000  0.000
   11  0.000  0.000  0.000  0.000
   12  0.000  0.000  0.000  0.000
   13  0.000  0.000  0.000  0.000
   14  0.000  0.000  0.000  0.000
   15  0.000  0.000  0.000  0.000
   16  0.000  0.000  0.000  0.000
   17  0.000  0.000  0.000  0.000
   18  0.000  0.000  0.000  0.000
   19  0.000  0.000  0.000  0.000
   20  0.000  0.000  0.000  0.000
tot    0.000  0.002  0.973  0.975

band    11 # energy  -16.46546116 # occ.  2.00000000

ion      s      p      d    tot
    1  0.000  0.000  0.000  0.000
    2  0.000  0.000  0.000  0.000
    3  0.000  0.000  0.000  0.000
    4  0.000  0.000  0.000  0.000
    5  0.000  0.000  0.243  0.243
    6  0.000  0.000  0.243  0.243
    7  0.000  0.000  0.243  0.243
    8  0.000  0.000  0.243  0.243
    9  0.000  0.000  0.000  0.000
   10  0.000  0.000  0.000  0.000
   11  0.000  0.000  0.000  0.000
   12  0.000  0.000  0.000  0.000
   13  0.000  0.000  0.000  0.000
   14  0.000  0.000  0.000  0.000
   15  0.000  0.000  0.000  0.000
   16  0.000  0.000  0.000  0.000
   17  0.000  0.000  0.000  0.000
   18  0.000  0.000  0.000  0.000
   19  0.000  0.000  0.000  0.000
   20  0.000  0.000  0.000  0.000
tot    0.000  0.002  0.973  0.975

band    12 # energy  -16.46540952 # occ.  2.00000000

ion      s      p      d    tot
    1  0.000  0.000  0.000  0.000
    2  0.000  0.000  0.000  0.000
    3  0.000  0.000  0.000  0.000
    4  0.000  0.000  0.000  0.000
    5  0.000  0.000  0.243  0.243
    6  0.000  0.000  0.243  0.243
    7  0.000  0.000  0.243  0.243
    8  0.000  0.000  0.243  0.243
    9  0.000  0.000  0.000  0.000
   10  0.000  0.000  0.000  0.000
   11  0.000  0.000  0.000  0.000
   12  0.000  0.000  0.000  0.000
   13  0.000  0.000  0.000  0.000
   14  0.000  0.000  0.000  0.000
   15  0.000  0.000  0.000  0.000
   16  0.000  0.000  0.000  0.000
   17  0.000  0.000  0.000  0.000
   18  0.000  0.000  0.000  0.000
   19  0.000  0.000  0.000  0.000
   20  0.000  0.000  0.000  0.000
tot    0.000  0.002  0.973  0.975

band    13 # energy  -16.42500161 # occ.  2.00000000

ion      s      p      d    tot
    1  0.000  0.000  0.000  0.000
    2  0.000  0.000  0.000  0.000
    3  0.000  0.000  0.000  0.000
    4  0.000  0.000  0.000  0.000
    5  0.000  0.000  0.244  0.244
    6  0.000  0.000  0.244  0.244
    7  0.000  0.000  0.244  0.244
    8  0.000  0.000  0.244  0.244
    9  0.000  0.000  0.000  0.000
   10  0.000  0.000  0.000  0.000
   11  0.000  0.000  0.000  0.000
   12  0.000  0.000  0.000  0.000
   13  0.000  0.000  0.000  0.000
   14  0.000  0.000  0.000  0.000
   15  0.000  0.000  0.000  0.000
   16  0.000  0.000  0.000  0.000
   17  0.000  0.000  0.000  0.000
   18  0.000  0.000  0.000  0.000
   19  0.000  0.000  0.000  0.000
   20  0.000  0.000  0.000  0.000
tot    0.000  0.000  0.978  0.978

band    14 # energy  -16.42428706 # occ.  2.00000000

ion      s      p      d    tot
    1  0.000  0.000  0.000  0.000
    2  0.000  0.000  0.000  0.000
    3  0.000  0.000  0.000  0.000
    4  0.000  0.000  0.000  0.000
    5  0.000  0.000  0.244  0.244
    6  0.000  0.000  0.244  0.244
    7  0.000  0.000  0.244  0.244
    8  0.000  0.000  0.244  0.244
    9  0.000  0.000  0.000  0.000
   10  0.000  0.000  0.000  0.000
   11  0.000  0.000  0.000  0.000
   12  0.000  0.000  0.000  0.000
   13  0.000  0.000  0.000  0.000
   14  0.000  0.000  0.000  0.000
   15  0.000  0.000  0.000  0.000
   16  0.000  0.000  0.000  0.000
   17  0.000  0.000  0.000  0.000
   18  0.000  0.000  0.000  0.000
   19  0.000  0.000  0.000  0.000
   20  0.000  0.000  0.000  0.000
tot    0.000  0.000  0.978  0.978

band    15 # energy  -16.42379401 # occ.  2.00000000

ion      s      p      d    tot
    1  0.000  0.000  0.000  0.000
    2  0.000  0.000  0.000  0.000
    3  0.000  0.000  0.000  0.000
    4  0.000  0.000  0.000  0.000
    5  0.000  0.000  0.244  0.244
    6  0.000  0.000  0.245  0.245
    7  0.000  0.000  0.244  0.244
    8  0.000  0.000  0.245  0.245
    9  0.000  0.000  0.000  0.000
   10  0.000  0.000  0.000  0.000
   11  0.000  0.000  0.000  0.000
   12  0.000  0.000  0.000  0.000
   13  0.000  0.000  0.000  0.000
   14  0.000  0.000  0.000  0.000
   15  0.000  0.000  0.000  0.000
   16  0.000  0.000  0.000  0.000
   17  0.000  0.000  0.000  0.000
   18  0.000  0.000  0.000  0.000
   19  0.000  0.000  0.000  0.000
   20  0.000  0.000  0.000  0.000
tot    0.000  0.000  0.978  0.978

band    16 # energy  -16.42330542 # occ.  2.00000000

ion      s      p      d    tot
    1  0.000  0.000  0.000  0.000
    2  0.000  0.000  0.000  0.000
    3  0.000  0.000  0.000  0.000
    4  0.000  0.000  0.000  0.000
    5  0.000  0.000  0.244  0.244
    6  0.000  0.000  0.244  0.244
    7  0.000  0.000  0.244  0.244
    8  0.000  0.000  0.244  0.244
    9  0.000  0.000  0.000  0.000
   10  0.000  0.000  0.000  0.000
   11  0.000  0.000  0.000  0.000
   12  0.000  0.000  0.000  0.000
   13  0.000  0.000  0.000  0.000
   14  0.000  0.000  0.000  0.000
   15  0.000  0.000  0.000  0.000
   16  0.000  0.000  0.000  0.000
   17  0.000  0.000  0.000  0.000
   18  0.000  0.000  0.000  0.000
   19  0.000  0.000  0.000  0.000
   20  0.000  0.000  0.000  0.000
tot    0.000  0.000  0.978  0.978

band    17 # energy  -16.40830396 # occ.  2.00000000

ion      s      p      d    tot
    1  0.000  0.000  0.000  0.000
    2  0.000  0.000  0.000  0.000
    3  0.000  0.000  0.000  0.000
    4  0.000  0.000  0.000  0.000
    5  0.000  0.000  0.244  0.244
    6  0.000  0.000  0.244  0.244
    7  0.000  0.000  0.244  0.244
    8  0.000  0.000  0.244  0.244
    9  0.000  0.000  0.000  0.000
   10  0.000  0.000  0.000  0.000
   11  0.000  0.000  0.000  0.000
   12  0.000  0.000  0.000  0.000
   13  0.000  0.000  0.000  0.000
   14  0.000  0.000  0.000  0.000
   15  0.000  0.000  0.000  0.000
   16  0.000  0.000  0.000  0.000
   17  0.000  0.000  0.000  0.000
   18  0.000  0.000  0.000  0.000
   19  0.000  0.000  0.000  0.000
   20  0.000  0.000  0.000  0.000
tot    0.001  0.000  0.977  0.978

band    18 # energy  -16.40813511 # occ.  2.00000000

ion      s      p      d    tot
    1  0.000  0.000  0.000  0.000
    2  0.000  0.000  0.000  0.000
    3  0.000  0.000  0.000  0.000
    4  0.000  0.000  0.000  0.000
    5  0.000  0.000  0.244  0.244
    6  0.000  0.000  0.244  0.244
    7  0.000  0.000  0.244  0.244
    8  0.000  0.000  0.244  0.244
    9  0.000  0.000  0.000  0.000
   10  0.000  0.000  0.000  0.000
   11  0.000  0.000  0.000  0.000
   12  0.000  0.000  0.000  0.000
   13  0.000  0.000  0.000  0.000
   14  0.000  0.000  0.000  0.000
   15  0.000  0.000  0.000  0.000
   16  0.000  0.000  0.000  0.000
   17  0.000  0.000  0.000  0.000
   18  0.000  0.000  0.000  0.000
   19  0.000  0.000  0.000  0.000
   20  0.000  0.000  0.000  0.000
tot    0.001  0.000  0.977  0.978

band    19 # energy  -16.40811943 # occ.  2.00000000

ion      s      p      d    tot
    1  0.000  0.000  0.000  0.000
    2  0.000  0.000  0.000  0.000
    3  0.000  0.000  0.000  0.000
    4  0.000  0.000  0.000  0.000
    5  0.000  0.000  0.244  0.244
    6  0.000  0.000  0.244  0.244
    7  0.000  0.000  0.244  0.244
    8  0.000  0.000  0.245  0.245
    9  0.000  0.000  0.000  0.000
   10  0.000  0.000  0.000  0.000
   11  0.000  0.000  0.000  0.000
   12  0.000  0.000  0.000  0.000
   13  0.000  0.000  0.000  0.000
   14  0.000  0.000  0.000  0.000
   15  0.000  0.000  0.000  0.000
   16  0.000  0.000  0.000  0.000
   17  0.000  0.000  0.000  0.000
   18  0.000  0.000  0.000  0.000
   19  0.000  0.000  0.000  0.000
   20  0.000  0.000  0.000  0.000
tot    0.000  0.000  0.977  0.978

band    20 # energy  -16.40717946 # occ.  2.00000000

ion      s      p      d    tot
    1  0.000  0.000  0.000  0.000
    2  0.000  0.000  0.000  0.000
    3  0.000  0.000  0.000  0.000
    4  0.000  0.000  0.000  0.000
    5  0.000  0.000  0.244  0.244
    6  0.000  0.000  0.244  0.244
    7  0.000  0.000  0.244  0.244
    8  0.000  0.000  0.244  0.244
    9  0.000  0.000  0.000  0.000
   10  0.000  0.000  0.000  0.000
   11  0.000  0.000  0.000  0.000
   12  0.000  0.000  0.000  0.000
   13  0.000  0.000  0.000  0.000
   14  0.000  0.000  0.000  0.000
   15  0.000  0.000  0.000  0.000
   16  0.000  0.000  0.000  0.000
   17  0.000  0.000  0.000  0.000
   18  0.000  0.000  0.000  0.000
   19  0.000  0.000  0.000  0.000
   20  0.000  0.000  0.000  0.000
tot    0.000  0.000  0.977  0.978

band    21 # energy  -16.39871598 # occ.  2.00000000

ion      s      p      d    tot
    1  0.000  0.000  0.000  0.000
    2  0.000  0.000  0.000  0.000
    3  0.000  0.000  0.000  0.000
    4  0.000  0.000  0.000  0.000
    5  0.000  0.000  0.244  0.244
    6  0.000  0.000  0.244  0.244
    7  0.000  0.000  0.244  0.244
    8  0.000  0.000  0.244  0.244
    9  0.000  0.000  0.000  0.000
   10  0.000  0.000  0.000  0.000
   11  0.000  0.000  0.000  0.000
   12  0.000  0.000  0.000  0.000
   13  0.000  0.000  0.000  0.000
   14  0.000  0.000  0.000  0.000
   15  0.000  0.000  0.000  0.000
   16  0.000  0.000  0.000  0.000
   17  0.000  0.000  0.000  0.000
   18  0.000  0.000  0.000  0.000
   19  0.000  0.000  0.000  0.000
   20  0.000  0.000  0.000  0.000
tot    0.000  0.000  0.978  0.978

band    22 # energy  -16.39800480 # occ.  2.00000000

ion      s      p      d    tot
    1  0.000  0.000  0.000  0.000
    2  0.000  0.000  0.000  0.000
    3  0.000  0.000  0.000  0.000
    4  0.000  0.000  0.000  0.000
    5  0.000  0.000  0.244  0.244
    6  0.000  0.000  0.244  0.244
    7  0.000  0.000  0.244  0.244
    8  0.000  0.000  0.244  0.244
    9  0.000  0.000  0.000  0.000
   10  0.000  0.000  0.000  0.000
   11  0.000  0.000  0.000  0.000
   12  0.000  0.000  0.000  0.000
   13  0.000  0.000  0.000  0.000
   14  0.000  0.000  0.000  0.000
   15  0.000  0.000  0.000  0.000
   16  0.000  0.000  0.000  0.000
   17  0.000  0.000  0.000  0.000
   18  0.000  0.000  0.000  0.000
   19  0.000  0.000  0.000  0.000
   20  0.000  0.000  0.000  0.000
tot    0.000  0.000  0.978  0.978

band    23 # energy  -16.39773919 # occ.  2.00000000

ion      s      p      d    tot
    1  0.000  0.000  0.000  0.000
    2  0.000  0.000  0.000  0.000
    3  0.000  0.000  0.000  0.000
    4  0.000  0.000  0.000  0.000
    5  0.000  0.000  0.244  0.244
    6  0.000  0.000  0.244  0.244
    7  0.000  0.000  0.244  0.244
    8  0.000  0.000  0.244  0.244
    9  0.000  0.000  0.000  0.000
   10  0.000  0.000  0.000  0.000
   11  0.000  0.000  0.000  0.000
   12  0.000  0.000  0.000  0.000
   13  0.000  0.000  0.000  0.000
   14  0.000  0.000  0.000  0.000
   15  0.000  0.000  0.000  0.000
   16  0.000  0.000  0.000  0.000
   17  0.000  0.000  0.000  0.000
   18  0.000  0.000  0.000  0.000
   19  0.000  0.000  0.000  0.000
   20  0.000  0.000  0.000  0.000
tot    0.000  0.000  0.978  0.978

band    24 # energy  -16.39701645 # occ.  2.00000000

ion      s      p      d    tot
    1  0.000  0.000  0.000  0.000
    2  0.000  0.000  0.000  0.000
    3  0.000  0.000  0.000  0.000
    4  0.000  0.000  0.000  0.000
    5  0.000  0.000  0.244  0.244
    6  0.000  0.000  0.244  0.244
    7  0.000  0.000  0.244  0.244
    8  0.000  0.000  0.244  0.244
    9  0.000  0.000  0.000  0.000
   10  0.000  0.000  0.000  0.000
   11  0.000  0.000  0.000  0.000
   12  0.000  0.000  0.000  0.000
   13  0.000  0.000  0.000  0.000
   14  0.000  0.000  0.000  0.000
   15  0.000  0.000  0.000  0.000
   16  0.000  0.000  0.000  0.000
   17  0.000  0.000  0.000  0.000
   18  0.000  0.000  0.000  0.000
   19  0.000  0.000  0.000  0.000
   20  0.000  0.000  0.000  0.000
tot    0.000  0.000  0.978  0.978

band    25 # energy  -14.32760615 # occ.  2.00000000

ion      s      p      d    tot
    1  0.000  0.000  0.000  0.000
    2  0.000  0.000  0.000  0.000
    3  0.000  0.000  0.000  0.000
    4  0.000  0.000  0.000  0.000
    5  0.007  0.000  0.000  0.008
    6  0.007  0.000  0.000  0.008
    7  0.007  0.000  0.000  0.008
    8  0.007  0.000  0.000  0.008
    9  0.076  0.000  0.000  0.076
   10  0.076  0.000  0.000  0.076
   11  0.076  0.000  0.000  0.076
   12  0.076  0.000  0.000  0.076
   13  0.055  0.000  0.000  0.055
   14  0.055  0.000  0.000  0.055
   15  0.055  0.000  0.000  0.055
   16  0.055  0.000  0.000  0.055
   17  0.055  0.000  0.000  0.055
   18  0.055  0.000  0.000  0.055
   19  0.055  0.000  0.000  0.055
   20  0.055  0.000  0.000  0.055
tot    0.771  0.000  0.002  0.773

band    26 # energy  -14.12923288 # occ.  2.00000000

ion      s      p      d    tot
    1  0.000  0.000  0.000  0.000
    2  0.000  0.000  0.000  0.000
    3  0.000  0.000  0.000  0.000
    4  0.000  0.000  0.000  0.000
    5  0.005  0.000  0.004  0.010
    6  0.005  0.000  0.004  0.010
    7  0.005  0.000  0.004  0.010
    8  0.005  0.000  0.004  0.010
    9  0.000  0.000  0.000  0.000
   10  0.000  0.000  0.000  0.000
   11  0.000  0.000  0.000  0.000
   12  0.000  0.000  0.000  0.000
   13  0.093  0.000  0.000  0.093
   14  0.093  0.000  0.000  0.093
   15  0.093  0.000  0.000  0.093
   16  0.093  0.000  0.000  0.093
   17  0.093  0.000  0.000  0.093
   18  0.093  0.000  0.000  0.093
   19  0.093  0.000  0.000  0.093
   20  0.093  0.000  0.000  0.093
tot    0.766  0.002  0.017  0.786

band    27 # energy  -14.08165084 # occ.  2.00000000

ion      s      p      d    tot
    1  0.000  0.000  0.000  0.000
    2  0.000  0.000  0.000  0.000
    3  0.000  0.000  0.000  0.000
    4  0.000  0.000  0.000  0.000
    5  0.000  0.001  0.000  0.001
    6  0.000  0.001  0.000  0.001
    7  0.000  0.001  0.000  0.001
    8  0.000  0.001  0.000  0.001
    9  0.197  0.000  0.000  0.197
   10  0.197  0.000  0.000  0.197
   11  0.197  0.000  0.000  0.197
   12  0.197  0.000  0.000  0.197
   13  0.000  0.000  0.000  0.000
   14  0.000  0.000  0.000  0.000
   15  0.000  0.000  0.000  0.000
   16  0.000  0.000  0.000  0.000
   17  0.000  0.000  0.000  0.000
   18  0.000  0.000  0.000  0.000
   19  0.000  0.000  0.000  0.000
   20  0.000  0.000  0.000  0.000
tot    0.794  0.004  0.000  0.798

band    28 # energy  -14.08019810 # occ.  2.00000000

ion      s      p      d    tot
    1  0.000  0.000  0.000  0.000
    2  0.000  0.000  0.000  0.000
    3  0.000  0.000  0.000  0.000
    4  0.000  0.000  0.000  0.000
    5  0.000  0.001  0.000  0.001
    6  0.000  0.001  0.000  0.001
    7  0.000  0.001  0.000  0.001
    8  0.000  0.001  0.000  0.001
    9  0.196  0.000  0.000  0.196
   10  0.196  0.000  0.000  0.196
   11  0.196  0.000  0.000  0.196
   12  0.196  0.000  0.000  0.196
   13  0.001  0.000  0.000  0.001
   14  0.001  0.000  0.000  0.001
   15  0.001  0.000  0.000  0.001
   16  0.001  0.000  0.000  0.001
   17  0.001  0.000  0.000  0.001
   18  0.001  0.000  0.000  0.001
   19  0.001  0.000  0.000  0.001
   20  0.001  0.000  0.000  0.001
tot    0.793  0.005  0.000  0.798

band    29 # energy  -14.02084085 # occ.  2.00000000

ion      s      p      d    tot
    1  0.000  0.000  0.000  0.000
    2  0.000  0.000  0.000  0.000
    3  0.000  0.000  0.000  0.000
    4  0.000  0.000  0.000  0.000
    5  0.003  0.000  0.010  0.013
    6  0.003  0.000  0.010  0.013
    7  0.003  0.000  0.010  0.013
    8  0.003  0.000  0.010  0.013
    9  0.188  0.000  0.000  0.188
   10  0.188  0.000  0.000  0.188
   11  0.188  0.000  0.000  0.188
   12  0.188  0.000  0.000  0.188
   13  0.000  0.000  0.000  0.000
   14  0.000  0.000  0.000  0.000
   15  0.000  0.000  0.000  0.000
   16  0.000  0.000  0.000  0.000
   17  0.000  0.000  0.000  0.000
   18  0.000  0.000  0.000  0.000
   19  0.000  0.000  0.000  0.000
   20  0.000  0.000  0.000  0.000
tot    0.767  0.001  0.039  0.807

band    30 # energy  -14.01355790 # occ.  2.00000000

ion      s      p      d    tot
    1  0.000  0.000  0.000  0.000
    2  0.000  0.000  0.000  0.000
    3  0.000  0.000  0.000  0.000
    4  0.000  0.000  0.000  0.000
    5  0.000  0.001  0.000  0.001
    6  0.000  0.001  0.000  0.001
    7  0.000  0.001  0.000  0.001
    8  0.000  0.001  0.000  0.001
    9  0.002  0.000  0.000  0.002
   10  0.002  0.000  0.000  0.002
   11  0.002  0.000  0.000  0.002
   12  0.002  0.000  0.000  0.002
   13  0.098  0.000  0.000  0.098
   14  0.098  0.000  0.000  0.098
   15  0.098  0.000  0.000  0.098
   16  0.098  0.000  0.000  0.098
   17  0.098  0.000  0.000  0.098
   18  0.098  0.000  0.000  0.098
   19  0.098  0.000  0.000  0.098
   20  0.098  0.000  0.000  0.098
tot    0.790  0.005  0.000  0.795

band    31 # energy  -14.00478806 # occ.  2.00000000

ion      s      p      d    tot
    1  0.000  0.000  0.000  0.000
    2  0.000  0.000  0.000  0.000
    3  0.000  0.000  0.000  0.000
    4  0.000  0.000  0.000  0.000
    5  0.000  0.001  0.000  0.001
    6  0.000  0.001  0.000  0.001
    7  0.000  0.001  0.000  0.001
    8  0.000  0.001  0.000  0.001
    9  0.000  0.000  0.000  0.000
   10  0.000  0.000  0.000  0.000
   11  0.000  0.000  0.000  0.000
   12  0.000  0.000  0.000  0.000
   13  0.099  0.000  0.000  0.099
   14  0.099  0.000  0.000  0.099
   15  0.099  0.000  0.000  0.099
   16  0.099  0.000  0.000  0.099
   17  0.099  0.000  0.000  0.099
   18  0.099  0.000  0.000  0.099
   19  0.099  0.000  0.000  0.099
   20  0.099  0.000  0.000  0.099
tot    0.792  0.004  0.000  0.796

band    32 # energy  -13.92469967 # occ.  2.00000000

ion      s      p      d    tot
    1  0.000  0.000  0.000  0.000
    2  0.000  0.000  0.000  0.000
    3  0.000  0.000  0.000  0.000
    4  0.000  0.000  0.000  0.000
    5  0.000  0.001  0.000  0.001
    6  0.000  0.001  0.000  0.001
    7  0.000  0.001  0.000  0.001
    8  0.000  0.001  0.000  0.001
    9  0.001  0.000  0.000  0.001
   10  0.001  0.000  0.000  0.001
   11  0.001  0.000  0.000  0.001
   12  0.001  0.000  0.000  0.001
   13  0.099  0.000  0.000  0.099
   14  0.099  0.000  0.000  0.099
   15  0.099  0.000  0.000  0.099
   16  0.099  0.000  0.000  0.099
   17  0.099  0.000  0.000  0.099
   18  0.099  0.000  0.000  0.099
   19  0.099  0.000  0.000  0.099
   20  0.099  0.000  0.000  0.099
tot    0.798  0.004  0.000  0.802

band    33 # energy  -13.91855341 # occ.  2.00000000

ion      s      p      d    tot
    1  0.000  0.000  0.000  0.000
    2  0.000  0.000  0.000  0.000
    3  0.000  0.000  0.000  0.000
    4  0.000  0.000  0.000  0.000
    5  0.000  0.001  0.000  0.001
    6  0.000  0.001  0.000  0.001
    7  0.000  0.001  0.000  0.001
    8  0.000  0.001  0.000  0.001
    9  0.000  0.000  0.000  0.000
   10  0.000  0.000  0.000  0.000
   11  0.000  0.000  0.000  0.000
   12  0.000  0.000  0.000  0.000
   13  0.100  0.000  0.000  0.100
   14  0.100  0.000  0.000  0.100
   15  0.100  0.000  0.000  0.100
   16  0.100  0.000  0.000  0.100
   17  0.100  0.000  0.000  0.100
   18  0.100  0.000  0.000  0.100
   19  0.100  0.000  0.000  0.100
   20  0.100  0.000  0.000  0.100
tot    0.800  0.003  0.000  0.803

band    34 # energy  -13.78474853 # occ.  2.00000000

ion      s      p      d    tot
    1  0.000  0.000  0.000  0.000
    2  0.000  0.000  0.000  0.000
    3  0.000  0.000  0.000  0.000
    4  0.000  0.000  0.000  0.000
    5  0.000  0.000  0.013  0.013
    6  0.000  0.000  0.013  0.013
    7  0.000  0.000  0.013  0.013
    8  0.000  0.000  0.013  0.013
    9  0.114  0.000  0.000  0.114
   10  0.114  0.000  0.000  0.114
   11  0.114  0.000  0.000  0.114
   12  0.114  0.000  0.000  0.114
   13  0.040  0.000  0.000  0.040
   14  0.040  0.000  0.000  0.040
   15  0.040  0.000  0.000  0.040
   16  0.040  0.000  0.000  0.040
   17  0.040  0.000  0.000  0.040
   18  0.040  0.000  0.000  0.040
   19  0.040  0.000  0.000  0.040
   20  0.040  0.000  0.000  0.040
tot    0.776  0.000  0.050  0.827

band    35 # energy  -13.73454720 # occ.  2.00000000

ion      s      p      d    tot
    1  0.000  0.000  0.000  0.000
    2  0.000  0.000  0.000  0.000
    3  0.000  0.000  0.000  0.000
    4  0.000  0.000  0.000  0.000
    5  0.000  0.000  0.011  0.011
    6  0.000  0.000  0.011  0.011
    7  0.000  0.000  0.011  0.011
    8  0.000  0.000  0.011  0.011
    9  0.000  0.000  0.000  0.000
   10  0.000  0.000  0.000  0.000
   11  0.000  0.000  0.000  0.000
   12  0.000  0.000  0.000  0.000
   13  0.097  0.000  0.000  0.097
   14  0.097  0.000  0.000  0.097
   15  0.097  0.000  0.000  0.097
   16  0.097  0.000  0.000  0.097
   17  0.097  0.000  0.000  0.097
   18  0.097  0.000  0.000  0.097
   19  0.097  0.000  0.000  0.097
   20  0.097  0.000  0.000  0.097
tot    0.780  0.000  0.044  0.825

band    36 # energy  -13.73013170 # occ.  2.00000000

ion      s      p      d    tot
    1  0.000  0.000  0.000  0.000
    2  0.000  0.000  0.000  0.000
    3  0.000  0.000  0.000  0.000
    4  0.000  0.000  0.000  0.000
    5  0.000  0.000  0.011  0.011
    6  0.000  0.000  0.011  0.011
    7  0.000  0.000  0.011  0.011
    8  0.000  0.000  0.011  0.011
    9  0.000  0.000  0.000  0.000
   10  0.000  0.000  0.000  0.000
   11  0.000  0.000  0.000  0.000
   12  0.000  0.000  0.000  0.000
   13  0.098  0.000  0.000  0.098
   14  0.098  0.000  0.000  0.098
   15  0.098  0.000  0.000  0.098
   16  0.098  0.000  0.000  0.098
   17  0.098  0.000  0.000  0.098
   18  0.098  0.000  0.000  0.098
   19  0.098  0.000  0.000  0.098
   20  0.098  0.000  0.000  0.098
tot    0.781  0.000  0.044  0.825

band    37 # energy   -8.17755417 # occ.  2.00000000

ion      s      p      d    tot
    1  0.000  0.000  0.000  0.000
    2  0.000  0.000  0.000  0.000
    3  0.000  0.000  0.000  0.000
    4  0.000  0.000  0.000  0.000
    5  0.145  0.000  0.000  0.145
    6  0.145  0.000  0.000  0.145
    7  0.145  0.000  0.000  0.145
    8  0.145  0.000  0.000  0.145
    9  0.000  0.009  0.000  0.009
   10  0.000  0.009  0.000  0.009
   11  0.000  0.009  0.000  0.009
   12  0.000  0.009  0.000  0.009
   13  0.000  0.007  0.000  0.007
   14  0.000  0.007  0.000  0.007
   15  0.000  0.007  0.000  0.007
   16  0.000  0.007  0.000  0.007
   17  0.000  0.007  0.000  0.007
   18  0.000  0.007  0.000  0.007
   19  0.000  0.007  0.000  0.007
   20  0.000  0.007  0.000  0.007
tot    0.578  0.092  0.001  0.671

band    38 # energy   -7.67333772 # occ.  2.00000000

ion      s      p      d    tot
    1  0.000  0.009  0.000  0.009
    2  0.000  0.009  0.000  0.009
    3  0.000  0.009  0.000  0.009