CsPbBr3 cubic bulk                      
           1
     8.841018    0.000000    0.000000
     0.000000   11.821446    0.000000
     0.000000    0.000000    7.709862
   Cs   Pb   Br
   4   4  12
Direct configuration=     1
   0.07682517  0.25000000  0.46689619
   0.42317483  0.75000000  0.96689619
   0.57682517  0.25000000  0.03310381
   0.92317483  0.75000000  0.53310381
   0.00000000  0.00000000  0.00000000
   0.50000000  0.00000000  0.50000000
   0.50000000  0.50000000  0.50000000
   0.00000000  0.50000000  0.00000000
   0.51257082  0.75000000  0.43762015
   0.98742918  0.25000000  0.93762015
   0.01257082  0.75000000  0.06237985
   0.48742918  0.25000000  0.56237985
   0.30018524  0.46561316  0.18651054
   0.19981476  0.53438684  0.68651054
   0.80018524  0.03438684  0.31348946
   0.69981476  0.96561316  0.81348946
   0.30018524  0.03438684  0.18651054
   0.19981476  0.96561316  0.68651054
   0.69981476  0.53438684  0.81348946
   0.80018524  0.46561316  0.31348946
