  20  20   1   0
  0.3686458E+02  0.8456589E-09  0.1163641E-08  0.7492472E-09  0.5000000E-15
   1.0000000000000000E-004
  CAR 
 CsPbBr3 cubic bulk                      
      9.39884694    -21.48688745  301      1.11117488      1.00000000
    -21.487  0.0000E+00  0.0000E+00
    -21.384  0.0000E+00  0.0000E+00
    -21.281  0.0000E+00  0.0000E+00
    -21.178  0.0000E+00  0.0000E+00
    -21.075  0.0000E+00  0.0000E+00
    -20.972  0.0000E+00  0.0000E+00
    -20.869  0.0000E+00  0.0000E+00
    -20.766  0.0000E+00  0.0000E+00
    -20.663  0.0000E+00  0.0000E+00
    -20.560  0.0000E+00  0.0000E+00
    -20.457  0.0000E+00  0.0000E+00
    -20.354  0.0000E+00  0.0000E+00
    -20.251  0.0000E+00  0.0000E+00
    -20.149  0.0000E+00  0.0000E+00
    -20.046  0.7770E+02  0.8000E+01
    -19.943  0.0000E+00  0.8000E+01
    -19.840  0.0000E+00  0.8000E+01
    -19.737  0.0000E+00  0.8000E+01
    -19.634  0.0000E+00  0.8000E+01
    -19.531  0.0000E+00  0.8000E+01
    -19.428  0.0000E+00  0.8000E+01
    -19.325  0.0000E+00  0.8000E+01
    -19.222  0.0000E+00  0.8000E+01
    -19.119  0.0000E+00  0.8000E+01
    -19.016  0.0000E+00  0.8000E+01
    -18.913  0.0000E+00  0.8000E+01
    -18.810  0.0000E+00  0.8000E+01
    -18.707  0.0000E+00  0.8000E+01
    -18.604  0.0000E+00  0.8000E+01
    -18.501  0.0000E+00  0.8000E+01
    -18.398  0.0000E+00  0.8000E+01
    -18.295  0.0000E+00  0.8000E+01
    -18.192  0.0000E+00  0.8000E+01
    -18.089  0.0000E+00  0.8000E+01
    -17.987  0.0000E+00  0.8000E+01
    -17.884  0.0000E+00  0.8000E+01
    -17.781  0.0000E+00  0.8000E+01
    -17.678  0.0000E+00  0.8000E+01
    -17.575  0.0000E+00  0.8000E+01
    -17.472  0.0000E+00  0.8000E+01
    -17.369  0.0000E+00  0.8000E+01
    -17.266  0.0000E+00  0.8000E+01
    -17.163  0.0000E+00  0.8000E+01
    -17.060  0.0000E+00  0.8000E+01
    -16.957  0.0000E+00  0.8000E+01
    -16.854  0.0000E+00  0.8000E+01
    -16.751  0.0000E+00  0.8000E+01
    -16.648  0.0000E+00  0.8000E+01
    -16.545  0.0000E+00  0.8000E+01
    -16.442  0.0000E+00  0.8000E+01
    -16.339  0.0000E+00  0.8000E+01
    -16.236  0.0000E+00  0.8000E+01
    -16.133  0.0000E+00  0.8000E+01
    -16.030  0.0000E+00  0.8000E+01
    -15.927  0.6673E+00  0.8069E+01
    -15.825  0.1087E+03  0.2063E+02
    -15.722  0.1188E+03  0.3578E+02
    -15.619  0.0000E+00  0.4800E+02
    -15.516  0.0000E+00  0.4800E+02
    -15.413  0.0000E+00  0.4800E+02
    -15.310  0.0000E+00  0.4800E+02
    -15.207  0.0000E+00  0.4800E+02
    -15.104  0.0000E+00  0.4800E+02
    -15.001  0.0000E+00  0.4800E+02
    -14.898  0.0000E+00  0.4800E+02
    -14.795  0.0000E+00  0.4800E+02
    -14.692  0.0000E+00  0.4800E+02
    -14.589  0.0000E+00  0.4800E+02
    -14.486  0.0000E+00  0.4800E+02
    -14.383  0.0000E+00  0.4800E+02
    -14.280  0.0000E+00  0.4800E+02
    -14.177  0.0000E+00  0.4800E+02
    -14.074  0.0000E+00  0.4800E+02
    -13.971  0.7361E+00  0.4808E+02
    -13.868  0.9876E+01  0.4913E+02
    -13.765  0.1182E+02  0.5133E+02
    -13.663  0.2408E+02  0.5470E+02
    -13.560  0.3043E+02  0.5958E+02
    -13.457  0.4481E+02  0.6428E+02
    -13.354  0.3466E+02  0.6812E+02
    -13.251  0.1834E+02  0.7200E+02
    -13.148  0.0000E+00  0.7200E+02
    -13.045  0.0000E+00  0.7200E+02
    -12.942  0.0000E+00  0.7200E+02
    -12.839  0.0000E+00  0.7200E+02
    -12.736  0.0000E+00  0.7200E+02
    -12.633  0.0000E+00  0.7200E+02
    -12.530  0.0000E+00  0.7200E+02
    -12.427  0.0000E+00  0.7200E+02
    -12.324  0.0000E+00  0.7200E+02
    -12.221  0.0000E+00  0.7200E+02
    -12.118  0.0000E+00  0.7200E+02
    -12.015  0.0000E+00  0.7200E+02
    -11.912  0.0000E+00  0.7200E+02
    -11.809  0.0000E+00  0.7200E+02
    -11.706  0.0000E+00  0.7200E+02
    -11.603  0.0000E+00  0.7200E+02
    -11.500  0.0000E+00  0.7200E+02
    -11.398  0.0000E+00  0.7200E+02
    -11.295  0.0000E+00  0.7200E+02
    -11.192  0.0000E+00  0.7200E+02
    -11.089  0.0000E+00  0.7200E+02
    -10.986  0.0000E+00  0.7200E+02
    -10.883  0.0000E+00  0.7200E+02
    -10.780  0.0000E+00  0.7200E+02
    -10.677  0.0000E+00  0.7200E+02
    -10.574  0.0000E+00  0.7200E+02
    -10.471  0.0000E+00  0.7200E+02
    -10.368  0.0000E+00  0.7200E+02
    -10.265  0.0000E+00  0.7200E+02
    -10.162  0.0000E+00  0.7200E+02
    -10.059  0.0000E+00  0.7200E+02
     -9.956  0.0000E+00  0.7200E+02
     -9.853  0.0000E+00  0.7200E+02
     -9.750  0.0000E+00  0.7200E+02
     -9.647  0.0000E+00  0.7200E+02
     -9.544  0.0000E+00  0.7200E+02
     -9.441  0.0000E+00  0.7200E+02
     -9.338  0.0000E+00  0.7200E+02
     -9.236  0.0000E+00  0.7200E+02
     -9.133  0.0000E+00  0.7200E+02
     -9.030  0.0000E+00  0.7200E+02
     -8.927  0.0000E+00  0.7200E+02
     -8.824  0.0000E+00  0.7200E+02
     -8.721  0.0000E+00  0.7200E+02
     -8.618  0.0000E+00  0.7200E+02
     -8.515  0.0000E+00  0.7200E+02
     -8.412  0.0000E+00  0.7200E+02
     -8.309  0.0000E+00  0.7200E+02
     -8.206  0.0000E+00  0.7200E+02
     -8.103  0.0000E+00  0.7200E+02
     -8.000  0.0000E+00  0.7200E+02
     -7.897  0.0000E+00  0.7200E+02
     -7.794  0.2848E-10  0.7200E+02
     -7.691  0.1079E+01  0.7211E+02
     -7.588  0.1198E-15  0.7211E+02
     -7.485  0.6357E+01  0.7277E+02
     -7.382  0.4086E+01  0.7320E+02
     -7.279  0.2830E+01  0.7351E+02
     -7.176  0.1079E+01  0.7422E+02
     -7.074  0.1295E+02  0.7556E+02
     -6.971  0.8263E+01  0.7641E+02
     -6.868  0.8091E+01  0.7728E+02
     -6.765  0.1006E+02  0.7837E+02
     -6.662  0.1083E+01  0.7878E+02
     -6.559  0.5481E+02  0.8464E+02
     -6.456  0.1303E+03  0.1013E+03
     -6.353  0.6432E+01  0.1033E+03
     -6.250  0.4317E+01  0.1039E+03
     -6.147  0.0000E+00  0.1039E+03
     -6.044  0.0000E+00  0.1039E+03
     -5.941  0.1072E+01  0.1040E+03
     -5.838  0.0000E+00  0.1040E+03
     -5.735  0.0000E+00  0.1040E+03
     -5.632  0.0000E+00  0.1040E+03
     -5.529  0.0000E+00  0.1040E+03
     -5.426  0.0000E+00  0.1040E+03
     -5.323  0.0000E+00  0.1040E+03
     -5.220  0.0000E+00  0.1040E+03
     -5.117  0.0000E+00  0.1040E+03
     -5.014  0.0000E+00  0.1040E+03
     -4.912  0.0000E+00  0.1040E+03
     -4.809  0.0000E+00  0.1040E+03
     -4.706  0.0000E+00  0.1040E+03
     -4.603  0.0000E+00  0.1040E+03
     -4.500  0.0000E+00  0.1040E+03
     -4.397  0.0000E+00  0.1040E+03
     -4.294  0.0000E+00  0.1040E+03
     -4.191  0.0000E+00  0.1040E+03
     -4.088  0.0000E+00  0.1040E+03
     -3.985  0.0000E+00  0.1040E+03
     -3.882  0.0000E+00  0.1040E+03
     -3.779  0.0000E+00  0.1040E+03
     -3.676  0.0000E+00  0.1040E+03
     -3.573  0.0000E+00  0.1040E+03
     -3.470  0.0000E+00  0.1040E+03
     -3.367  0.0000E+00  0.1040E+03
     -3.264  0.0000E+00  0.1040E+03
     -3.161  0.0000E+00  0.1040E+03
     -3.058  0.3579E-06  0.1040E+03
     -2.955  0.1592E+01  0.1042E+03
     -2.852  0.1511E+02  0.1058E+03
     -2.750  0.1081E+02  0.1069E+03
     -2.647  0.1079E+02  0.1083E+03
     -2.544  0.1090E+02  0.1095E+03
     -2.441  0.1079E+02  0.1107E+03
     -2.338  0.2036E+02  0.1128E+03
     -2.235  0.5862E+01  0.1137E+03
     -2.132  0.1853E+01  0.1140E+03
     -2.029  0.1607E+02  0.1157E+03
     -1.926  0.1950E+02  0.1180E+03
     -1.823  0.3082E+01  0.1190E+03
     -1.720  0.1103E+02  0.1215E+03
     -1.617  0.2550E+02  0.1245E+03
     -1.514  0.9681E+01  0.1267E+03
     -1.411  0.2091E+01  0.1269E+03
     -1.308  0.2943E+02  0.1299E+03
     -1.205  0.2926E+02  0.1335E+03
     -1.102  0.1683E+02  0.1358E+03
     -0.999  0.3832E+02  0.1412E+03
     -0.896  0.6935E+02  0.1485E+03
     -0.793  0.3076E+02  0.1523E+03
     -0.690  0.3457E+02  0.1566E+03
     -0.588  0.6843E+02  0.1640E+03
     -0.485  0.1273E+02  0.1676E+03
     -0.382  0.1079E+01  0.1680E+03
     -0.279  0.9245E+01  0.1690E+03
     -0.176  0.1080E+02  0.1703E+03
     -0.073  0.1079E+02  0.1717E+03
      0.030  0.1594E+02  0.1733E+03
      0.133  0.2223E+01  0.1736E+03
      0.236  0.3286E+01  0.1743E+03
      0.339  0.0000E+00  0.1747E+03
      0.442  0.3366E-01  0.1747E+03
      0.545  0.6475E+01  0.1754E+03
      0.648  0.4315E+01  0.1759E+03
      0.751  0.0000E+00  0.1759E+03
      0.854  0.0000E+00  0.1759E+03
      0.957  0.0000E+00  0.1759E+03
      1.060  0.1761E+00  0.1759E+03
      1.163  0.0000E+00  0.1760E+03
      1.266  0.0000E+00  0.1760E+03
      1.369  0.0000E+00  0.1760E+03
      1.472  0.0000E+00  0.1760E+03
      1.574  0.0000E+00  0.1760E+03
      1.677  0.0000E+00  0.1760E+03
      1.780  0.0000E+00  0.1760E+03
      1.883  0.0000E+00  0.1760E+03
      1.986  0.0000E+00  0.1760E+03
      2.089  0.0000E+00  0.1760E+03
      2.192  0.0000E+00  0.1760E+03
      2.295  0.0000E+00  0.1760E+03
      2.398  0.0000E+00  0.1760E+03
      2.501  0.0000E+00  0.1760E+03
      2.604  0.0000E+00  0.1760E+03
      2.707  0.0000E+00  0.1760E+03
      2.810  0.0000E+00  0.1760E+03
      2.913  0.0000E+00  0.1760E+03
      3.016  0.0000E+00  0.1760E+03
      3.119  0.0000E+00  0.1760E+03
      3.222  0.0000E+00  0.1760E+03
      3.325  0.1080E+01  0.1761E+03
      3.428  0.1079E+01  0.1762E+03
      3.531  0.5499E+01  0.1768E+03
      3.634  0.4317E+01  0.1773E+03
      3.736  0.6634E+01  0.1780E+03
      3.839  0.9327E+00  0.1785E+03
      3.942  0.1079E+02  0.1800E+03
      4.045  0.2159E+01  0.1802E+03
      4.148  0.6449E+01  0.1809E+03
      4.251  0.4317E+01  0.1816E+03
      4.354  0.5856E+01  0.1822E+03
      4.457  0.2158E+01  0.1824E+03
      4.560  0.1079E+02  0.1836E+03
      4.663  0.7489E+01  0.1843E+03
      4.766  0.2008E+01  0.1853E+03
      4.869  0.2559E+01  0.1856E+03
      4.972  0.3517E+01  0.1861E+03
      5.075  0.3972E+01  0.1866E+03
      5.178  0.4323E+01  0.1880E+03
      5.281  0.2403E+00  0.1889E+03
      5.384  0.7365E+01  0.1901E+03
      5.487  0.4354E+01  0.1907E+03
      5.590  0.3263E-01  0.1909E+03
      5.693  0.2150E+01  0.1916E+03
      5.796  0.1403E+02  0.1930E+03
      5.898  0.8634E+01  0.1941E+03
      6.001  0.6244E+01  0.1948E+03
      6.104  0.6475E+01  0.1959E+03
      6.207  0.1079E+01  0.1960E+03
      6.310  0.3178E+00  0.1960E+03
      6.413  0.1245E+02  0.1975E+03
      6.516  0.1133E+02  0.1987E+03
      6.619  0.0000E+00  0.1990E+03
      6.722  0.5869E+01  0.1996E+03
      6.825  0.2343E+02  0.2021E+03
      6.928  0.1337E+02  0.2036E+03
      7.031  0.1413E+02  0.2059E+03
      7.134  0.1511E+02  0.2078E+03
      7.237  0.1630E+02  0.2095E+03
      7.340  0.2566E+02  0.2128E+03
      7.443  0.1756E+02  0.2150E+03
      7.546  0.2152E+02  0.2175E+03
      7.649  0.1886E+02  0.2195E+03
      7.752  0.4989E+01  0.2206E+03
      7.855  0.1668E+02  0.2232E+03
      7.958  0.3235E+01  0.2237E+03
      8.060  0.1079E+01  0.2240E+03
      8.163  0.0000E+00  0.2240E+03
      8.266  0.0000E+00  0.2240E+03
      8.369  0.0000E+00  0.2240E+03
      8.472  0.0000E+00  0.2240E+03
      8.575  0.0000E+00  0.2240E+03
      8.678  0.0000E+00  0.2240E+03
      8.781  0.0000E+00  0.2240E+03
      8.884  0.0000E+00  0.2240E+03
      8.987  0.0000E+00  0.2240E+03
      9.090  0.0000E+00  0.2240E+03
      9.193  0.0000E+00  0.2240E+03
      9.296  0.0000E+00  0.2240E+03
      9.399  0.0000E+00  0.2240E+03
      9.39884694    -21.48688745  301      1.11117488      1.00000000
    -21.487  0.0000E+00  0.0000E+00  0.0000E+00
    -21.384  0.0000E+00  0.0000E+00  0.0000E+00
    -21.281  0.0000E+00  0.0000E+00  0.0000E+00
    -21.178  0.0000E+00  0.0000E+00  0.0000E+00
    -21.075  0.0000E+00  0.0000E+00  0.0000E+00
    -20.972  0.0000E+00  0.0000E+00  0.0000E+00
    -20.869  0.0000E+00  0.0000E+00  0.0000E+00
    -20.766  0.0000E+00  0.0000E+00  0.0000E+00
    -20.663  0.0000E+00  0.0000E+00  0.0000E+00
    -20.560  0.0000E+00  0.0000E+00  0.0000E+00
    -20.457  0.0000E+00  0.0000E+00  0.0000E+00
    -20.354  0.0000E+00  0.0000E+00  0.0000E+00
    -20.251  0.0000E+00  0.0000E+00  0.0000E+00
    -20.149  0.0000E+00  0.0000E+00  0.0000E+00
    -20.046  0.1723E+02  0.1982E-04  0.1371E-05
    -19.943  0.0000E+00  0.0000E+00  0.0000E+00
    -19.840  0.0000E+00  0.0000E+00  0.0000E+00
    -19.737  0.0000E+00  0.0000E+00  0.0000E+00
    -19.634  0.0000E+00  0.0000E+00  0.0000E+00
    -19.531  0.0000E+00  0.0000E+00  0.0000E+00
    -19.428  0.0000E+00  0.0000E+00  0.0000E+00
    -19.325  0.0000E+00  0.0000E+00  0.0000E+00
    -19.222  0.0000E+00  0.0000E+00  0.0000E+00
    -19.119  0.0000E+00  0.0000E+00  0.0000E+00
    -19.016  0.0000E+00  0.0000E+00  0.0000E+00
    -18.913  0.0000E+00  0.0000E+00  0.0000E+00
    -18.810  0.0000E+00  0.0000E+00  0.0000E+00
    -18.707  0.0000E+00  0.0000E+00  0.0000E+00
    -18.604  0.0000E+00  0.0000E+00  0.0000E+00
    -18.501  0.0000E+00  0.0000E+00  0.0000E+00
    -18.398  0.0000E+00  0.0000E+00  0.0000E+00
    -18.295  0.0000E+00  0.0000E+00  0.0000E+00
    -18.192  0.0000E+00  0.0000E+00  0.0000E+00
    -18.089  0.0000E+00  0.0000E+00  0.0000E+00
    -17.987  0.0000E+00  0.0000E+00  0.0000E+00
    -17.884  0.0000E+00  0.0000E+00  0.0000E+00
    -17.781  0.0000E+00  0.0000E+00  0.0000E+00
    -17.678  0.0000E+00  0.0000E+00  0.0000E+00
    -17.575  0.0000E+00  0.0000E+00  0.0000E+00
    -17.472  0.0000E+00  0.0000E+00  0.0000E+00
    -17.369  0.0000E+00  0.0000E+00  0.0000E+00
    -17.266  0.0000E+00  0.0000E+00  0.0000E+00
    -17.163  0.0000E+00  0.0000E+00  0.0000E+00
    -17.060  0.0000E+00  0.0000E+00  0.0000E+00
    -16.957  0.0000E+00  0.0000E+00  0.0000E+00
    -16.854  0.0000E+00  0.0000E+00  0.0000E+00
    -16.751  0.0000E+00  0.0000E+00  0.0000E+00
    -16.648  0.0000E+00  0.0000E+00  0.0000E+00
    -16.545  0.0000E+00  0.0000E+00  0.0000E+00
    -16.442  0.0000E+00  0.0000E+00  0.0000E+00
    -16.339  0.0000E+00  0.0000E+00  0.0000E+00
    -16.236  0.0000E+00  0.0000E+00  0.0000E+00
    -16.133  0.0000E+00  0.0000E+00  0.0000E+00
    -16.030  0.0000E+00  0.0000E+00  0.0000E+00
    -15.927  0.4531E-05  0.1763E-05  0.4786E-06
    -15.825  0.2235E-03  0.2664E-03  0.4911E-04
    -15.722  0.1383E-03  0.6569E-04  0.7434E-05
    -15.619  0.0000E+00  0.0000E+00  0.0000E+00
    -15.516  0.0000E+00  0.0000E+00  0.0000E+00
    -15.413  0.0000E+00  0.0000E+00  0.0000E+00
    -15.310  0.0000E+00  0.0000E+00  0.0000E+00
    -15.207  0.0000E+00  0.0000E+00  0.0000E+00
    -15.104  0.0000E+00  0.0000E+00  0.0000E+00
    -15.001  0.0000E+00  0.0000E+00  0.0000E+00
    -14.898  0.0000E+00  0.0000E+00  0.0000E+00
    -14.795  0.0000E+00  0.0000E+00  0.0000E+00
    -14.692  0.0000E+00  0.0000E+00  0.0000E+00
    -14.589  0.0000E+00  0.0000E+00  0.0000E+00
    -14.486  0.0000E+00  0.0000E+00  0.0000E+00
    -14.383  0.0000E+00  0.0000E+00  0.0000E+00
    -14.280  0.0000E+00  0.0000E+00  0.0000E+00
    -14.177  0.0000E+00  0.0000E+00  0.0000E+00
    -14.074  0.0000E+00  0.0000E+00  0.0000E+00
    -13.971  0.6688E-03  0.1491E-05  0.5819E-06
    -13.868  0.5446E-02  0.1703E-02  0.2867E-04
    -13.765  0.2480E-02  0.3760E-02  0.8269E-04
    -13.663  0.8255E-03  0.7552E-02  0.3084E-03
    -13.560  0.4976E-02  0.7396E-02  0.7323E-03
    -13.457  0.1438E-02  0.7072E-02  0.7106E-03
    -13.354  0.1263E-02  0.3987E-02  0.7332E-03
    -13.251  0.1060E-02  0.2059E-02  0.3299E-03
    -13.148  0.0000E+00  0.0000E+00  0.0000E+00
    -13.045  0.0000E+00  0.0000E+00  0.0000E+00
    -12.942  0.0000E+00  0.0000E+00  0.0000E+00
    -12.839  0.0000E+00  0.0000E+00  0.0000E+00
    -12.736  0.0000E+00  0.0000E+00  0.0000E+00
    -12.633  0.0000E+00  0.0000E+00  0.0000E+00
    -12.530  0.0000E+00  0.0000E+00  0.0000E+00
    -12.427  0.0000E+00  0.0000E+00  0.0000E+00
    -12.324  0.0000E+00  0.0000E+00  0.0000E+00
    -12.221  0.0000E+00  0.0000E+00  0.0000E+00
    -12.118  0.0000E+00  0.0000E+00  0.0000E+00
    -12.015  0.0000E+00  0.0000E+00  0.0000E+00
    -11.912  0.0000E+00  0.0000E+00  0.0000E+00
    -11.809  0.0000E+00  0.0000E+00  0.0000E+00
    -11.706  0.0000E+00  0.0000E+00  0.0000E+00
    -11.603  0.0000E+00  0.0000E+00  0.0000E+00
    -11.500  0.0000E+00  0.0000E+00  0.0000E+00
    -11.398  0.0000E+00  0.0000E+00  0.0000E+00
    -11.295  0.0000E+00  0.0000E+00  0.0000E+00
    -11.192  0.0000E+00  0.0000E+00  0.0000E+00
    -11.089  0.0000E+00  0.0000E+00  0.0000E+00
    -10.986  0.0000E+00  0.0000E+00  0.0000E+00
    -10.883  0.0000E+00  0.0000E+00  0.0000E+00
    -10.780  0.0000E+00  0.0000E+00  0.0000E+00
    -10.677  0.0000E+00  0.0000E+00  0.0000E+00
    -10.574  0.0000E+00  0.0000E+00  0.0000E+00
    -10.471  0.0000E+00  0.0000E+00  0.0000E+00
    -10.368  0.0000E+00  0.0000E+00  0.0000E+00
    -10.265  0.0000E+00  0.0000E+00  0.0000E+00
    -10.162  0.0000E+00  0.0000E+00  0.0000E+00
    -10.059  0.0000E+00  0.0000E+00  0.0000E+00
     -9.956  0.0000E+00  0.0000E+00  0.0000E+00
     -9.853  0.0000E+00  0.0000E+00  0.0000E+00
     -9.750  0.0000E+00  0.0000E+00  0.0000E+00
     -9.647  0.0000E+00  0.0000E+00  0.0000E+00
     -9.544  0.0000E+00  0.0000E+00  0.0000E+00
     -9.441  0.0000E+00  0.0000E+00  0.0000E+00
     -9.338  0.0000E+00  0.0000E+00  0.0000E+00
     -9.236  0.0000E+00  0.0000E+00  0.0000E+00
     -9.133  0.0000E+00  0.0000E+00  0.0000E+00
     -9.030  0.0000E+00  0.0000E+00  0.0000E+00
     -8.927  0.0000E+00  0.0000E+00  0.0000E+00
     -8.824  0.0000E+00  0.0000E+00  0.0000E+00
     -8.721  0.0000E+00  0.0000E+00  0.0000E+00
     -8.618  0.0000E+00  0.0000E+00  0.0000E+00
     -8.515  0.0000E+00  0.0000E+00  0.0000E+00
     -8.412  0.0000E+00  0.0000E+00  0.0000E+00
     -8.309  0.0000E+00  0.0000E+00  0.0000E+00
     -8.206  0.0000E+00  0.0000E+00  0.0000E+00
     -8.103  0.0000E+00  0.0000E+00  0.0000E+00
     -8.000  0.0000E+00  0.0000E+00  0.0000E+00
     -7.897  0.0000E+00  0.0000E+00  0.0000E+00
     -7.794  0.4808E-30  0.5493E-14  0.5955E-15
     -7.691  0.1822E-19  0.2081E-03  0.2256E-04
     -7.588  0.4360E-34  0.1865E-18  0.1149E-20
     -7.485  0.7082E-06  0.9011E-02  0.1056E-03
     -7.382  0.4026E-18  0.1268E-01  0.6144E-04
     -7.279  0.8689E-05  0.1210E-01  0.3425E-04
     -7.176  0.4877E-06  0.1218E-01  0.6378E-05
     -7.074  0.6906E-04  0.7080E-01  0.1385E-03
     -6.971  0.2931E-04  0.1027E+00  0.9659E-04
     -6.868  0.4751E-04  0.8368E-01  0.8374E-04
     -6.765  0.1689E-03  0.2575E+00  0.7920E-04
     -6.662  0.1666E-07  0.1583E-02  0.1914E-04
     -6.559  0.8338E-04  0.9900E+01  0.1302E-03
     -6.456  0.1719E-03  0.2522E+02  0.1741E-03
     -6.353  0.3519E-04  0.7067E+00  0.5736E-04
     -6.250  0.7447E-04  0.1975E+00  0.2457E-04
     -6.147  0.0000E+00  0.0000E+00  0.0000E+00
     -6.044  0.0000E+00  0.0000E+00  0.0000E+00
     -5.941  0.1904E-04  0.1264E-01  0.1309E-05
     -5.838  0.0000E+00  0.0000E+00  0.0000E+00
     -5.735  0.0000E+00  0.0000E+00  0.0000E+00
     -5.632  0.0000E+00  0.0000E+00  0.0000E+00
     -5.529  0.0000E+00  0.0000E+00  0.0000E+00
     -5.426  0.0000E+00  0.0000E+00  0.0000E+00
     -5.323  0.0000E+00  0.0000E+00  0.0000E+00
     -5.220  0.0000E+00  0.0000E+00  0.0000E+00
     -5.117  0.0000E+00  0.0000E+00  0.0000E+00
     -5.014  0.0000E+00  0.0000E+00  0.0000E+00
     -4.912  0.0000E+00  0.0000E+00  0.0000E+00
     -4.809  0.0000E+00  0.0000E+00  0.0000E+00
     -4.706  0.0000E+00  0.0000E+00  0.0000E+00
     -4.603  0.0000E+00  0.0000E+00  0.0000E+00
     -4.500  0.0000E+00  0.0000E+00  0.0000E+00
     -4.397  0.0000E+00  0.0000E+00  0.0000E+00
     -4.294  0.0000E+00  0.0000E+00  0.0000E+00
     -4.191  0.0000E+00  0.0000E+00  0.0000E+00
     -4.088  0.0000E+00  0.0000E+00  0.0000E+00
     -3.985  0.0000E+00  0.0000E+00  0.0000E+00
     -3.882  0.0000E+00  0.0000E+00  0.0000E+00
     -3.779  0.0000E+00  0.0000E+00  0.0000E+00
     -3.676  0.0000E+00  0.0000E+00  0.0000E+00
     -3.573  0.0000E+00  0.0000E+00  0.0000E+00
     -3.470  0.0000E+00  0.0000E+00  0.0000E+00
     -3.367  0.0000E+00  0.0000E+00  0.0000E+00
     -3.264  0.0000E+00  0.0000E+00  0.0000E+00
     -3.161  0.0000E+00  0.0000E+00  0.0000E+00
     -3.058  0.7986E-25  0.3527E-09  0.1340E-10
     -2.955  0.5866E-04  0.2531E-02  0.8637E-04
     -2.852  0.9830E-04  0.2292E-01  0.1908E-02
     -2.750  0.8239E-03  0.2159E-01  0.1858E-02
     -2.647  0.1181E-02  0.2564E-01  0.2167E-02
     -2.544  0.6757E-03  0.2077E-01  0.2492E-02
     -2.441  0.3957E-03  0.3367E-01  0.1493E-02
     -2.338  0.7345E-03  0.3584E-01  0.2965E-02
     -2.235  0.8459E-03  0.4495E-02  0.6306E-03
     -2.132  0.2403E-10  0.6388E-02  0.2949E-03
     -2.029  0.1952E-02  0.4710E-01  0.2469E-02
     -1.926  0.6723E-02  0.2677E-01  0.4626E-02
     -1.823  0.1380E-02  0.8818E-02  0.7940E-03
     -1.720  0.1962E-02  0.3952E-01  0.2480E-02
     -1.617  0.2509E-01  0.5619E-01  0.6929E-02
     -1.514  0.5896E-02  0.3322E-01  0.2933E-02
     -1.411  0.1616E-03  0.2472E-01  0.2150E-03
     -1.308  0.7852E-02  0.1607E+00  0.1441E-01
     -1.205  0.2228E-02  0.1424E+00  0.1820E-01
     -1.102  0.3718E-02  0.6952E-01  0.1038E-01
     -0.999  0.3695E-02  0.1090E+00  0.2241E-01
     -0.896  0.8289E-02  0.1671E+00  0.4272E-01
     -0.793  0.4276E-02  0.6734E-01  0.1045E-01
     -0.690  0.2031E-02  0.8620E-01  0.1868E-01
     -0.588  0.3323E-02  0.2086E+00  0.2223E-01
     -0.485  0.9404E-03  0.1724E-01  0.4479E-02
     -0.382  0.2106E-04  0.3572E-02  0.1390E-03
     -0.279  0.4458E-03  0.1524E-01  0.3329E-02
     -0.176  0.4960E-03  0.1342E-01  0.4026E-02
     -0.073  0.7744E-03  0.1434E-01  0.2363E-02
      0.030  0.1641E-02  0.1042E-01  0.3650E-02
      0.133  0.8938E-05  0.4807E-03  0.7525E-03
      0.236  0.1319E-15  0.2519E-02  0.4329E-03
      0.339  0.0000E+00  0.0000E+00  0.0000E+00
      0.442  0.5938E-06  0.3514E-04  0.5525E-05
      0.545  0.5184E-11  0.2648E-02  0.2031E-02
      0.648  0.1515E-04  0.3099E-02  0.8267E-03
      0.751  0.0000E+00  0.0000E+00  0.0000E+00
      0.854  0.0000E+00  0.0000E+00  0.0000E+00
      0.957  0.0000E+00  0.0000E+00  0.0000E+00
      1.060  0.1265E-17  0.3396E-04  0.5304E-04
      1.163  0.0000E+00  0.0000E+00  0.0000E+00
      1.266  0.0000E+00  0.0000E+00  0.0000E+00
      1.369  0.0000E+00  0.0000E+00  0.0000E+00
      1.472  0.0000E+00  0.0000E+00  0.0000E+00
      1.574  0.0000E+00  0.0000E+00  0.0000E+00
      1.677  0.0000E+00  0.0000E+00  0.0000E+00
      1.780  0.0000E+00  0.0000E+00  0.0000E+00
      1.883  0.0000E+00  0.0000E+00  0.0000E+00
      1.986  0.0000E+00  0.0000E+00  0.0000E+00
      2.089  0.0000E+00  0.0000E+00  0.0000E+00
      2.192  0.0000E+00  0.0000E+00  0.0000E+00
      2.295  0.0000E+00  0.0000E+00  0.0000E+00
      2.398  0.0000E+00  0.0000E+00  0.0000E+00
      2.501  0.0000E+00  0.0000E+00  0.0000E+00
      2.604  0.0000E+00  0.0000E+00  0.0000E+00
      2.707  0.0000E+00  0.0000E+00  0.0000E+00
      2.810  0.0000E+00  0.0000E+00  0.0000E+00
      2.913  0.0000E+00  0.0000E+00  0.0000E+00
      3.016  0.0000E+00  0.0000E+00  0.0000E+00
      3.119  0.0000E+00  0.0000E+00  0.0000E+00
      3.222  0.0000E+00  0.0000E+00  0.0000E+00
      3.325  0.1852E-07  0.1993E-03  0.1687E-02
      3.428  0.5396E-04  0.3913E-03  0.4260E-03
      3.531  0.6023E-03  0.1727E-02  0.2949E-02
      3.634  0.4504E-04  0.8530E-03  0.3106E-02
      3.736  0.1548E-03  0.6462E-02  0.5487E-02
      3.839  0.8347E-04  0.3919E-03  0.2315E-03
      3.942  0.1467E-02  0.9517E-02  0.8801E-02
      4.045  0.9283E-10  0.1058E-02  0.3122E-02
      4.148  0.1389E-02  0.3590E-02  0.6917E-02
      4.251  0.8706E-03  0.2008E-02  0.4825E-02
      4.354  0.7519E-03  0.2255E-02  0.7191E-02
      4.457  0.9656E-03  0.5348E-03  0.1999E-02
      4.560  0.1297E-03  0.2250E-02  0.1073E-01
      4.663  0.6973E-03  0.2173E-02  0.5298E-02
      4.766  0.2523E-03  0.2829E-03  0.1677E-02
      4.869  0.8899E-04  0.9676E-03  0.9074E-03
      4.972  0.3000E-03  0.1478E-02  0.2879E-02
      5.075  0.4588E-03  0.2700E-02  0.5171E-02
      5.178  0.4246E-03  0.6647E-03  0.3767E-02
      5.281  0.8294E-04  0.8758E-04  0.2760E-03
      5.384  0.1912E-03  0.2630E-02  0.7452E-02
      5.487  0.7606E-03  0.1723E-02  0.6836E-02
      5.590  0.6378E-05  0.1146E-04  0.7402E-04
      5.693  0.5619E-06  0.2802E-03  0.3445E-02
      5.796  0.1420E-01  0.5015E-02  0.2428E-01
      5.898  0.2747E-02  0.4098E-02  0.1101E-01
      6.001  0.8953E-02  0.3578E-02  0.9224E-02
      6.104  0.4002E-02  0.3720E-02  0.1001E-01
      6.207  0.4504E-13  0.2659E-04  0.4813E-02
      6.310  0.2184E-02  0.3206E-03  0.2395E-02
      6.413  0.2085E-03  0.1434E-02  0.2966E-01
      6.516  0.1865E-01  0.8779E-02  0.6610E-01
      6.619  0.0000E+00  0.0000E+00  0.0000E+00
      6.722  0.8236E-03  0.1994E-02  0.5180E-01
      6.825  0.6066E-01  0.3158E-01  0.3773E+00
      6.928  0.1749E-01  0.7135E-02  0.1888E+00
      7.031  0.7852E-02  0.1419E-01  0.4137E+00
      7.134  0.4679E-01  0.2531E-01  0.4002E+00
      7.237  0.4166E-01  0.2329E-01  0.3961E+00
      7.340  0.3364E-01  0.2531E-01  0.7872E+00
      7.443  0.2970E-01  0.3723E-01  0.5108E+00
      7.546  0.7397E-02  0.4092E-01  0.7080E+00
      7.649  0.3313E-01  0.2625E-01  0.6326E+00
      7.752  0.9201E-02  0.6677E-02  0.1645E+00
      7.855  0.7878E-02  0.2096E-01  0.4421E+00
      7.958  0.1234E-02  0.4129E-02  0.1017E+00
      8.060  0.3717E-04  0.7138E-02  0.1876E-01
      8.163  0.0000E+00  0.0000E+00  0.0000E+00
      8.266  0.0000E+00  0.0000E+00  0.0000E+00
      8.369  0.0000E+00  0.0000E+00  0.0000E+00
      8.472  0.0000E+00  0.0000E+00  0.0000E+00
      8.575  0.0000E+00  0.0000E+00  0.0000E+00
      8.678  0.0000E+00  0.0000E+00  0.0000E+00
      8.781  0.0000E+00  0.0000E+00  0.0000E+00
      8.884  0.0000E+00  0.0000E+00  0.0000E+00
      8.987  0.0000E+00  0.0000E+00  0.0000E+00
      9.090  0.0000E+00  0.0000E+00  0.0000E+00
      9.193  0.0000E+00  0.0000E+00  0.0000E+00
      9.296  0.0000E+00  0.0000E+00  0.0000E+00
      9.399  0.0000E+00  0.0000E+00  0.0000E+00
      9.39884694    -21.48688745  301      1.11117488      1.00000000
    -21.487  0.0000E+00  0.0000E+00  0.0000E+00
    -21.384  0.0000E+00  0.0000E+00  0.0000E+00
    -21.281  0.0000E+00  0.0000E+00  0.0000E+00
    -21.178  0.0000E+00  0.0000E+00  0.0000E+00
    -21.075  0.0000E+00  0.0000E+00  0.0000E+00
    -20.972  0.0000E+00  0.0000E+00  0.0000E+00
    -20.869  0.0000E+00  0.0000E+00  0.0000E+00
    -20.766  0.0000E+00  0.0000E+00  0.0000E+00
    -20.663  0.0000E+00  0.0000E+00  0.0000E+00
    -20.560  0.0000E+00  0.0000E+00  0.0000E+00
    -20.457  0.0000E+00  0.0000E+00  0.0000E+00
    -20.354  0.0000E+00  0.0000E+00  0.0000E+00
    -20.251  0.0000E+00  0.0000E+00  0.0000E+00
    -20.149  0.0000E+00  0.0000E+00  0.0000E+00
    -20.046  0.1723E+02  0.1981E-04  0.1378E-05
    -19.943  0.0000E+00  0.0000E+00  0.0000E+00
    -19.840  0.0000E+00  0.0000E+00  0.0000E+00
    -19.737  0.0000E+00  0.0000E+00  0.0000E+00
    -19.634  0.0000E+00  0.0000E+00  0.0000E+00
    -19.531  0.0000E+00  0.0000E+00  0.0000E+00
    -19.428  0.0000E+00  0.0000E+00  0.0000E+00
    -19.325  0.0000E+00  0.0000E+00  0.0000E+00
    -19.222  0.0000E+00  0.0000E+00  0.0000E+00
    -19.119  0.0000E+00  0.0000E+00  0.0000E+00
    -19.016  0.0000E+00  0.0000E+00  0.0000E+00
    -18.913  0.0000E+00  0.0000E+00  0.0000E+00
    -18.810  0.0000E+00  0.0000E+00  0.0000E+00
    -18.707  0.0000E+00  0.0000E+00  0.0000E+00
    -18.604  0.0000E+00  0.0000E+00  0.0000E+00
    -18.501  0.0000E+00  0.0000E+00  0.0000E+00
    -18.398  0.0000E+00  0.0000E+00  0.0000E+00
    -18.295  0.0000E+00  0.0000E+00  0.0000E+00
    -18.192  0.0000E+00  0.0000E+00  0.0000E+00
    -18.089  0.0000E+00  0.0000E+00  0.0000E+00
    -17.987  0.0000E+00  0.0000E+00  0.0000E+00
    -17.884  0.0000E+00  0.0000E+00  0.0000E+00
    -17.781  0.0000E+00  0.0000E+00  0.0000E+00
    -17.678  0.0000E+00  0.0000E+00  0.0000E+00
    -17.575  0.0000E+00  0.0000E+00  0.0000E+00
    -17.472  0.0000E+00  0.0000E+00  0.0000E+00
    -17.369  0.0000E+00  0.0000E+00  0.0000E+00
    -17.266  0.0000E+00  0.0000E+00  0.0000E+00
    -17.163  0.0000E+00  0.0000E+00  0.0000E+00
    -17.060  0.0000E+00  0.0000E+00  0.0000E+00
    -16.957  0.0000E+00  0.0000E+00  0.0000E+00
    -16.854  0.0000E+00  0.0000E+00  0.0000E+00
    -16.751  0.0000E+00  0.0000E+00  0.0000E+00
    -16.648  0.0000E+00  0.0000E+00  0.0000E+00
    -16.545  0.0000E+00  0.0000E+00  0.0000E+00
    -16.442  0.0000E+00  0.0000E+00  0.0000E+00
    -16.339  0.0000E+00  0.0000E+00  0.0000E+00
    -16.236  0.0000E+00  0.0000E+00  0.0000E+00
    -16.133  0.0000E+00  0.0000E+00  0.0000E+00
    -16.030  0.0000E+00  0.0000E+00  0.0000E+00
    -15.927  0.9809E-06  0.1732E-05  0.5220E-06
    -15.825  0.2126E-03  0.2560E-03  0.4974E-04
    -15.722  0.1404E-03  0.6529E-04  0.7363E-05
    -15.619  0.0000E+00  0.0000E+00  0.0000E+00
    -15.516  0.0000E+00  0.0000E+00  0.0000E+00
    -15.413  0.0000E+00  0.0000E+00  0.0000E+00
    -15.310  0.0000E+00  0.0000E+00  0.0000E+00
    -15.207  0.0000E+00  0.0000E+00  0.0000E+00
    -15.104  0.0000E+00  0.0000E+00  0.0000E+00
    -15.001  0.0000E+00  0.0000E+00  0.0000E+00
    -14.898  0.0000E+00  0.0000E+00  0.0000E+00
    -14.795  0.0000E+00  0.0000E+00  0.0000E+00
    -14.692  0.0000E+00  0.0000E+00  0.0000E+00
    -14.589  0.0000E+00  0.0000E+00  0.0000E+00
    -14.486  0.0000E+00  0.0000E+00  0.0000E+00
    -14.383  0.0000E+00  0.0000E+00  0.0000E+00
    -14.280  0.0000E+00  0.0000E+00  0.0000E+00
    -14.177  0.0000E+00  0.0000E+00  0.0000E+00
    -14.074  0.0000E+00  0.0000E+00  0.0000E+00
    -13.971  0.6688E-03  0.1491E-05  0.5819E-06
    -13.868  0.5509E-02  0.1633E-02  0.3030E-04
    -13.765  0.3026E-02  0.3418E-02  0.7711E-04
    -13.663  0.9019E-03  0.9279E-02  0.3414E-03
    -13.560  0.1679E-02  0.4311E-02  0.4183E-03
    -13.457  0.3115E-02  0.8290E-02  0.1136E-02
    -13.354  0.2153E-02  0.4428E-02  0.6928E-03
    -13.251  0.1074E-02  0.2020E-02  0.3134E-03
    -13.148  0.0000E+00  0.0000E+00  0.0000E+00
    -13.045  0.0000E+00  0.0000E+00  0.0000E+00
    -12.942  0.0000E+00  0.0000E+00  0.0000E+00
    -12.839  0.0000E+00  0.0000E+00  0.0000E+00
    -12.736  0.0000E+00  0.0000E+00  0.0000E+00
    -12.633  0.0000E+00  0.0000E+00  0.0000E+00
    -12.530  0.0000E+00  0.0000E+00  0.0000E+00
    -12.427  0.0000E+00  0.0000E+00  0.0000E+00
    -12.324  0.0000E+00  0.0000E+00  0.0000E+00