 vasp.5.4.4.18Apr17-6-g9f103f2a35 (build Jun 22 2020 09:27:21) complex           
 executed on tx2_gcc-7.3_libsci-1 date 2021.09.20  15:14:35
 running on   64 total cores
 distrk:  each k-point on   64 cores,    1 groups
 distr:  one band on NCORES_PER_BAND=   8 cores,    8 groups


--------------------------------------------------------------------------------------------------------


 INCAR:
 POTCAR:    PAW_PBE Cs_sv 08Apr2002               
 POTCAR:    PAW_PBE Pb_d 06Sep2000                
 POTCAR:    PAW_PBE Br 06Sep2000                  
 POTCAR:    PAW_PBE Cs_sv 08Apr2002               
   SHA256 =  c1463496f0f6037ed62c6012a8013a89ee9ad6ffb38599dcd6c079e7ed31779b Cs
   COPYR  = (c) Copyright 08Apr2002 Georg Kresse                                
   COPYR  = This file is part of the software VASP. Any use, copying, and all ot
   COPYR  = If you do not have a valid VASP license, you may not use, copy or di
   VRHFIN =Cs: 5s5p6s                                                           
   LEXCH  = PE                                                                  
   EATOM  =   555.6835 eV,   40.8416 Ry                                         
                                                                                
   TITEL  = PAW_PBE Cs_sv 08Apr2002                                             
   LULTRA =        F    use ultrasoft PP ?                                      
   IUNSCR =        1    unscreen: 0-lin 1-nonlin 2-no                           
   RPACOR =    2.200    partial core radius                                     
   POMASS =  132.900; ZVAL   =    9.000    mass and valenz                      
   RCORE  =    2.500    outmost cutoff radius                                   
   RWIGS  =    2.500; RWIGS  =    1.323    wigner-seitz radius (au A)           
   ENMAX  =  220.318; ENMIN  =  165.238 eV                                      
   RCLOC  =    2.207    cutoff for local pot                                    
   LCOR   =        T    correct aug charges                                     
   LPAW   =        T    paw PP                                                  
   EAUG   =  407.933                                                            
   DEXC   =    0.000                                                            
   RMAX   =    2.554    core radius for proj-oper                               
   RAUG   =    1.300    factor for augmentation sphere                          
   RDEP   =    2.590    radius for radial grids                                 
   RDEPT  =    2.117    core radius for aug-charge                              
                                                                                
   Atomic configuration                                                         
   13 entries                                                                   
     n  l   j            E        occ.                                          
     1  0  0.50    -35790.1377   2.0000                                         
     2  0  0.50     -5613.6201   2.0000                                         
     2  1  1.50     -5035.0101   6.0000                                         
     3  0  0.50     -1167.0767   2.0000                                         
     3  1  1.50      -980.9754   6.0000                                         
     3  2  2.50      -708.0703  10.0000                                         
     4  0  0.50      -220.2386   2.0000                                         
     4  1  1.50      -160.7596   6.0000                                         
     4  2  2.50       -74.2354  10.0000                                         
     5  0  0.50       -26.7287   2.0000                                         
     6  0  0.50        -2.0862   1.0000                                         
     5  1  1.50       -13.5159   6.0000                                         
     5  2  2.50        -0.4136   0.0000                                         
   Description                                                                  
     l       E           TYP  RCUT    TYP  RCUT                                 
     0    -26.7287425     23  1.900                                             
     0     -2.0862306     23  1.900                                             
     1    -13.5158719     23  2.500                                             
     1     -2.7211652     23  2.500                                             
     2     -0.4136171     23  2.500                                             
  local pseudopotential read in
  partial core-charges read in
  partial kinetic energy density read in
  atomic valenz-charges read in
  non local Contribution for L=           0  read in
    real space projection operators read in
  non local Contribution for L=           0  read in
    real space projection operators read in
  non local Contribution for L=           1  read in
    real space projection operators read in
  non local Contribution for L=           1  read in
    real space projection operators read in
  non local Contribution for L=           2  read in
    real space projection operators read in
    PAW grid and wavefunctions read in

   number of l-projection  operators is LMAX  =           5
   number of lm-projection operators is LMMAX =          13

 POTCAR:    PAW_PBE Pb_d 06Sep2000                
   SHA256 =  fb885b08f0fba73a15f6a6b0e39bd200c13ec96ef97cf3ecd8e63bade5137abd Pb
   COPYR  = (c) Copyright 06Sep2000 Georg Kresse                                
   COPYR  = This file is part of the software VASP. Any use, copying, and all ot
   COPYR  = If you do not have a valid VASP license, you may not use, copy or di
   VRHFIN =Pb:                                                                  
   LEXCH  = PE                                                                  
   EATOM  =  1661.6185 eV,  122.1255 Ry                                         
                                                                                
   TITEL  = PAW_PBE Pb_d 06Sep2000                                              
   LULTRA =        F    use ultrasoft PP ?                                      
   IUNSCR =        1    unscreen: 0-lin 1-nonlin 2-no                           
   RPACOR =    2.200    partial core radius                                     
   POMASS =  207.200; ZVAL   =   14.000    mass and valenz                      
   RCORE  =    2.500    outmost cutoff radius                                   
   RWIGS  =    3.260; RWIGS  =    1.725    wigner-seitz radius (au A)           
   ENMAX  =  237.835; ENMIN  =  178.376 eV                                      
   ICORE  =        3    local potential                                         
   LCOR   =        T    correct aug charges                                     
   LPAW   =        T    paw PP                                                  
   EAUG   =  391.914                                                            
   DEXC   =    0.000                                                            
   RMAX   =    2.565    core radius for proj-oper                               
   RAUG   =    1.300    factor for augmentation sphere                          
   RDEP   =    2.643    radius for radial grids                                 
   RDEPT  =    2.092    core radius for aug-charge                              
                                                                                
   Atomic configuration                                                         
   16 entries                                                                   
     n  l   j            E        occ.                                          
     1  0  0.50    -88091.8466   2.0000                                         
     2  0  0.50    -15753.4197   2.0000                                         
     2  1  1.50    -13508.1797   6.0000                                         
     3  0  0.50     -3781.7194   2.0000                                         
     3  1  1.50     -3138.2529   6.0000                                         
     3  2  2.50     -2483.2977  10.0000                                         
     4  0  0.50      -856.2895   2.0000                                         
     4  1  1.50      -645.4942   6.0000                                         
     4  2  2.50      -401.8768  10.0000                                         
     4  3  3.50      -132.9059  14.0000                                         
     5  0  0.50      -144.0950   2.0000                                         
     5  1  1.50       -85.7879   6.0000                                         
     5  2  2.50       -21.1769  10.0000                                         
     6  0  0.50       -12.0372   2.0000                                         
     6  1  1.50        -3.4971   2.0000                                         
     5  3  2.50        -2.7212   0.0000                                         
   Description                                                                  
     l       E           TYP  RCUT    TYP  RCUT                                 
     2    -21.1768523     23  2.500                                             
     2      1.3605826     23  2.500                                             
     0    -12.0371562     23  2.500                                             
     0     13.6058260     23  2.500                                             
     1     -3.4971339     23  2.500                                             
     1     13.6058260     23  2.500                                             
     3     -1.3605826      7  2.500                                             
  local pseudopotential read in
  partial core-charges read in
  partial kinetic energy density read in
  atomic valenz-charges read in
  non local Contribution for L=           2  read in
    real space projection operators read in
  non local Contribution for L=           2  read in
    real space projection operators read in
  non local Contribution for L=           0  read in
    real space projection operators read in
  non local Contribution for L=           0  read in
    real space projection operators read in
  non local Contribution for L=           1  read in
    real space projection operators read in
  non local Contribution for L=           1  read in
    real space projection operators read in
    PAW grid and wavefunctions read in

   number of l-projection  operators is LMAX  =           6
   number of lm-projection operators is LMMAX =          18

 POTCAR:    PAW_PBE Br 06Sep2000                  
   SHA256 =  96a73d2954943bbee26f4990d676cc6c3bf44b8dd2c75cd4b3b825d8403f0103 Br
   COPYR  = (c) Copyright 06Sep2000 Georg Kresse                                
   COPYR  = This file is part of the software VASP. Any use, copying, and all ot
   COPYR  = If you do not have a valid VASP license, you may not use, copy or di
   VRHFIN =Br: s2p5                                                             
   LEXCH  = PE                                                                  
   EATOM  =   368.4488 eV,   27.0802 Ry                                         
                                                                                
   TITEL  = PAW_PBE Br 06Sep2000                                                
   LULTRA =        F    use ultrasoft PP ?                                      
   IUNSCR =        1    unscreen: 0-lin 1-nonlin 2-no                           
   RPACOR =    1.900    partial core radius                                     
   POMASS =   79.904; ZVAL   =    7.000    mass and valenz                      
   RCORE  =    2.100    outmost cutoff radius                                   
   RWIGS  =    2.200; RWIGS  =    1.164    wigner-seitz radius (au A)           
   ENMAX  =  216.285; ENMIN  =  162.214 eV                                      
   ICORE  =        3    local potential                                         
   LCOR   =        T    correct aug charges                                     
   LPAW   =        T    paw PP                                                  
   EAUG   =  503.852                                                            
   DEXC   =    0.000                                                            
   RMAX   =    2.139    core radius for proj-oper                               
   RAUG   =    1.300    factor for augmentation sphere                          
   RDEP   =    2.186    radius for radial grids                                 
   RDEPT  =    1.890    core radius for aug-charge                              
                                                                                
   Atomic configuration                                                         
   10 entries                                                                   
     n  l   j            E        occ.                                          
     1  0  0.50    -13316.2796   2.0000                                         
     2  0  0.50     -1732.8239   2.0000                                         
     2  1  1.50     -1528.2193   6.0000                                         
     3  0  0.50      -238.0460   2.0000                                         
     3  1  1.50      -173.4609   6.0000                                         
     3  2  2.50       -66.7132  10.0000                                         
     4  0  0.50       -20.1334   2.0000                                         
     4  1  0.50        -7.8591   5.0000                                         
     4  2  2.50        -8.1635   0.0000                                         
     4  3  2.50        -8.1635   0.0000                                         
   Description                                                                  
     l       E           TYP  RCUT    TYP  RCUT                                 
     0    -20.1333652     23  2.100                                             
     0    -21.4939478     23  2.100                                             
     1     -7.8591052     23  2.100                                             
     1     -3.1608434     23  2.100                                             
     2     -8.1634956     23  2.100                                             
     3     -1.3605826      7  2.100                                             
  local pseudopotential read in
  partial core-charges read in
  partial kinetic energy density read in
  atomic valenz-charges read in
  non local Contribution for L=           0  read in
    real space projection operators read in
  non local Contribution for L=           0  read in
    real space projection operators read in
  non local Contribution for L=           1  read in
    real space projection operators read in
  non local Contribution for L=           1  read in
    real space projection operators read in
  non local Contribution for L=           2  read in
    real space projection operators read in
    PAW grid and wavefunctions read in

   number of l-projection  operators is LMAX  =           5
   number of lm-projection operators is LMMAX =          13

 Optimization of the real space projectors (new method)

 maximal supplied QI-value         = 15.12
 optimisation between [QCUT,QGAM] = [  8.77, 17.69] = [ 21.53, 87.61] Ry 
 Optimized for a Real-space Cutoff    1.85 Angstroem

   l    n(q)    QCUT    max X(q) W(low)/X(q) W(high)/X(q)  e(spline) 
   0     10     8.768    25.322    0.81E-04    0.51E-04    0.48E-06
   0     10     8.768    99.187    0.78E-04    0.50E-04    0.47E-06
   1      9     8.768    11.761    0.21E-03    0.20E-03    0.37E-06
   1      9     8.768     8.275    0.24E-03    0.22E-03    0.41E-06
   2      9     8.768     3.829    0.23E-04    0.15E-03    0.18E-06
 Optimization of the real space projectors (new method)

 maximal supplied QI-value         = 15.12
 optimisation between [QCUT,QGAM] = [  8.77, 17.69] = [ 21.53, 87.61] Ry 
 Optimized for a Real-space Cutoff    1.59 Angstroem

   l    n(q)    QCUT    max X(q) W(low)/X(q) W(high)/X(q)  e(spline) 
   2      7     8.768     3.846    0.48E-04    0.11E-03    0.11E-06
   2      7     8.768     8.593    0.20E-03    0.22E-04    0.24E-06
   0      8     8.768    20.082    0.68E-04    0.88E-04    0.41E-07
   0      8     8.768     8.597    0.89E-04    0.13E-03    0.59E-07
   1      8     8.768    33.223    0.15E-03    0.53E-04    0.87E-07
   1      8     8.768    15.899    0.14E-03    0.44E-04    0.78E-07
 Optimization of the real space projectors (new method)

 maximal supplied QI-value         = 17.95
 optimisation between [QCUT,QGAM] = [  8.80, 17.59] = [ 21.67, 86.68] Ry 
 Optimized for a Real-space Cutoff    1.59 Angstroem

   l    n(q)    QCUT    max X(q) W(low)/X(q) W(high)/X(q)  e(spline) 
   0      8     8.797   175.082    0.82E-04    0.14E-03    0.89E-07
   0      8     8.797   174.004    0.79E-04    0.14E-03    0.86E-07
   1      8     8.797    54.315    0.16E-03    0.14E-04    0.30E-06
   1      8     8.797    42.441    0.16E-03    0.14E-04    0.30E-06
   2      7     8.797     3.596    0.92E-04    0.15E-03    0.85E-07
  PAW_PBE Cs_sv 08Apr2002               :
 energy of atom  1       EATOM= -555.6835
 kinetic energy error for atom=    0.0069 (will be added to EATOM!!)
  PAW_PBE Pb_d 06Sep2000                :
 energy of atom  2       EATOM=-1661.6185
 kinetic energy error for atom=    0.0498 (will be added to EATOM!!)
  PAW_PBE Br 06Sep2000                  :
 energy of atom  3       EATOM= -368.4488
 kinetic energy error for atom=    0.0072 (will be added to EATOM!!)


 POSCAR: Cs4 Pb4 Br12                            
  positions in direct lattice
  velocities in cartesian coordinates

 METAGGA = SCAN     LMAXTAU =  6    LMIXTAU =  F

 exchange correlation table for  LEXCH =        8
   RHO(1)=    0.500       N(1)  =     2000
   RHO(2)=  100.500       N(2)  =     4000

 VTST: version 3.2, (02/03/18)

 CHAIN: initializing optimizer
 
 OPT: Using VASP Conjugate-Gradient optimizer
 CHAIN: Read ICHAIN            0

 POSCAR: Cs4 Pb4 Br12                            
  positions in direct lattice
  velocities in cartesian coordinates



--------------------------------------------------------------------------------------------------------


 ion  position               nearest neighbor table
   1  0.090  0.250  0.460-
   2  0.410  0.750  0.960-
   3  0.590  0.250  0.040-
   4  0.910  0.750  0.540-
   5  0.000  0.000  0.000-  10 2.96  11 2.96  15 2.96  18 2.96  17 2.97  16 2.97
   6  0.500  0.000  0.500-   9 2.96  12 2.96  16 2.96  17 2.96  15 2.97  18 2.97
   7  0.500  0.500  0.500-   9 2.96  12 2.96  13 2.96  19 2.96  14 2.97  20 2.97
   8  0.000  0.500  0.000-  10 2.96  11 2.96  14 2.96  20 2.96  19 2.97  13 2.97
   9  0.499  0.750  0.429-   6 2.96   7 2.96
  10  0.001  0.250  0.929-   5 2.96   8 2.96
  11  0.999  0.750  0.071-   5 2.96   8 2.96
  12  0.501  0.250  0.571-   6 2.96   7 2.96
  13  0.313  0.463  0.170-   7 2.96   8 2.97
  14  0.187  0.537  0.670-   8 2.96   7 2.97
  15  0.813  0.037  0.330-   5 2.96   6 2.97
  16  0.687  0.963  0.830-   6 2.96   5 2.97
  17  0.313  0.037  0.170-   6 2.96   5 2.97
  18  0.187  0.963  0.670-   5 2.96   6 2.97
  19  0.687  0.537  0.830-   7 2.96   8 2.97
  20  0.813  0.463  0.330-   8 2.96   7 2.97

  LATTYP: Found a simple orthorhombic cell.
 ALAT       =     7.4924717500
 B/A-ratio  =     1.1286781785
 C/A-ratio  =     1.5530800651
  
  Lattice vectors:
  
 A1 = (   0.0000000000,   0.0000000000,   7.4924717500)
 A2 = (  -8.4565893673,   0.0000000000,   0.0000000000)
 A3 = (   0.0000000000, -11.6364085136,   0.0000000000)


Analysis of symmetry for initial positions (statically):
=====================================================================
 Subroutine PRICEL returns:
 Original cell was already a primitive cell.
 

 Routine SETGRP: Setting up the symmetry group for a 
 simple orthorhombic supercell.


 Subroutine GETGRP returns: Found  8 space group operations
 (whereof  2 operations were pure point group operations)
 out of a pool of  8 trial point group operations.


The static configuration has the point symmetry S_2 .
 The point group associated with its full space group is D_2h.


Analysis of symmetry for dynamics (positions and initial velocities):
=====================================================================
 Subroutine PRICEL returns:
 Original cell was already a primitive cell.
 

 Routine SETGRP: Setting up the symmetry group for a 
 simple orthorhombic supercell.


 Subroutine GETGRP returns: Found  8 space group operations
 (whereof  2 operations were pure point group operations)
 out of a pool of  8 trial point group operations.


The dynamic configuration has the point symmetry S_2 .
 The point group associated with its full space group is D_2h.


 Subroutine INISYM returns: Found  8 space group operations
 (whereof  2 operations are pure point group operations),
 and found     1 'primitive' translations



 KPOINTS: 1x1x1                                   

Automatic generation of k-mesh.
Space group operators:
 irot       det(A)        alpha          n_x          n_y          n_z        tau_x        tau_y        tau_z
    1     1.000000     0.000001     1.000000     0.000000     0.000000     0.000000     0.000000     0.000000
    2    -1.000000     0.000001     1.000000     0.000000     0.000000     0.000000     0.000000     0.000000
    3     1.000000   179.999999     0.000000     1.000000     0.000000     0.000000    -0.500000     0.000000
    4    -1.000000   179.999999     0.000000     1.000000     0.000000     0.000000    -0.500000     0.000000
    5     1.000000   179.999999     1.000000     0.000000     0.000000    -0.500000    -0.500000     0.500000
    6    -1.000000   179.999999     1.000000     0.000000     0.000000    -0.500000    -0.500000     0.500000
    7     1.000000   179.999999     0.000000     0.000000     1.000000    -0.500000     0.000000     0.500000
    8    -1.000000   179.999999     0.000000     0.000000     1.000000    -0.500000     0.000000     0.500000
 
 Subroutine IBZKPT returns following result:
 ===========================================
 
 Found      8 irreducible k-points:
 
 Following reciprocal coordinates:
            Coordinates               Weight
  0.000000  0.000000  0.000000      1.000000
  0.333333  0.000000  0.000000      2.000000
  0.000000  0.500000  0.000000      1.000000
  0.333333  0.500000  0.000000      2.000000
  0.000000  0.000000  0.333333      2.000000
  0.333333  0.000000  0.333333      4.000000
  0.000000  0.500000  0.333333      2.000000
  0.333333  0.500000  0.333333      4.000000
 
 Following cartesian coordinates:
            Coordinates               Weight
  0.000000  0.000000  0.000000      1.000000
  0.039417  0.000000  0.000000      2.000000
  0.000000  0.042969  0.000000      1.000000
  0.039417  0.042969  0.000000      2.000000
  0.000000  0.000000  0.044489      2.000000
  0.039417  0.000000  0.044489      4.000000
  0.000000  0.042969  0.044489      2.000000
  0.039417  0.042969  0.044489      4.000000
 


--------------------------------------------------------------------------------------------------------




 Dimension of arrays:
   k-points           NKPTS =      8   k-points in BZ     NKDIM =      8   number of bands    NBANDS=    112
   number of dos      NEDOS =    301   number of ions     NIONS =     20
   non local maximal  LDIM  =      6   non local SUM 2l+1 LMDIM =     18
   total plane-waves  NPLWV = 141120
   max r-space proj   IRMAX =   5109   max aug-charges    IRDMAX=  81486
   dimension x,y,z NGX =    48 NGY =   70 NGZ =   42
   dimension x,y,z NGXF=    96 NGYF=  140 NGZF=   84
   support grid    NGXF=   192 NGYF=  280 NGZF=  168
   ions per type =               4   4  12
   NGX,Y,Z   is equivalent  to a cutoff of   9.44, 10.00,  9.32 a.u.
   NGXF,Y,Z  is equivalent  to a cutoff of  18.87, 20.00, 18.64 a.u.

 SYSTEM =  CsPbBr3 cubic bulk                      
 POSCAR =  Cs4 Pb4 Br12                            

 Startparameter for this run:
   NWRITE =      2    write-flag & timer
   PREC   = accura    normal or accurate (medium, high low for compatibility)
   ISTART =      0    job   : 0-new  1-cont  2-samecut
   ICHARG =      2    charge: 1-file 2-atom 10-const
   ISPIN  =      1    spin polarized calculation?
   LNONCOLLINEAR =      F non collinear calculations
   LSORBIT =      F    spin-orbit coupling
   INIWAV =      1    electr: 0-lowe 1-rand  2-diag
   LASPH  =      T    aspherical Exc in radial PAW
   METAGGA=      F    non-selfconsistent MetaGGA calc.

 Electronic Relaxation 1
   ENCUT  =  300.0 eV  22.05 Ry    4.70 a.u.  11.94 16.43 10.58*2*pi/ulx,y,z
   ENINI  =  300.0     initial cutoff
   ENAUG  =  503.9 eV  augmentation charge cutoff
   NELM   =    200;   NELMIN=  2; NELMDL=  0     # of ELM steps 
   EDIFF  = 0.1E-05   stopping-criterion for ELM
   LREAL  =      T    real-space projection
   NLSPLINE    = F    spline interpolate recip. space projectors
   LCOMPAT=      F    compatible to vasp.4.4
   GGA_COMPAT  = T    GGA compatible to vasp.4.4-vasp.4.6
   LMAXPAW     = -100 max onsite density
   LMAXMIX     =    2 max onsite mixed and CHGCAR
   VOSKOWN=      0    Vosko Wilk Nusair interpolation
   ROPT   =   -0.00025  -0.00025  -0.00025
 Ionic relaxation
   EDIFFG = -.1E-01   stopping-criterion for IOM
   NSW    =      0    number of steps for IOM
   NBLOCK =      1;   KBLOCK =      1    inner block; outer block 
   IBRION =     -1    ionic relax: 0-MD 1-quasi-New 2-CG
   NFREE  =      1    steps in history (QN), initial steepest desc. (CG)
   ISIF   =      3    stress and relaxation
   IWAVPR =     10    prediction:  0-non 1-charg 2-wave 3-comb
   ISYM   =      2    0-nonsym 1-usesym 2-fastsym
   LCORR  =      T    Harris-Foulkes like correction to forces

   POTIM  = 0.5000    time-step for ionic-motion
   TEIN   =    0.0    initial temperature
   TEBEG  =    0.0;   TEEND  =   0.0 temperature during run
   SMASS  =  -3.00    Nose mass-parameter (am)
   estimated Nose-frequenzy (Omega)   =  0.10E-29 period in steps =****** mass=  -0.163E-26a.u.
   SCALEE = 1.0000    scale energy and forces
   NPACO  =    256;   APACO  = 16.0  distance and # of slots for P.C.
   PSTRESS=    0.0 pullay stress

  Mass of Ions in am
   POMASS = 132.90207.20 79.90
  Ionic Valenz
   ZVAL   =   9.00 14.00  7.00
  Atomic Wigner-Seitz radii
   RWIGS  =  -1.00 -1.00 -1.00
  virtual crystal weights 
   VCA    =   1.00  1.00  1.00
   NELECT =     176.0000    total number of electrons
   NUPDOWN=      -1.0000    fix difference up-down

 DOS related values:
   EMIN   =  10.00;   EMAX   =-10.00  energy-range for DOS
   EFERMI =   0.00
   ISMEAR =     0;   SIGMA  =   0.01  broadening in eV -4-tet -1-fermi 0-gaus

 Electronic relaxation 2 (details)
   IALGO  =     38    algorithm
   LDIAG  =      T    sub-space diagonalisation (order eigenvalues)
   LSUBROT=      F    optimize rotation matrix (better conditioning)
   TURBO    =      0    0=normal 1=particle mesh
   IRESTART =      0    0=no restart 2=restart with 2 vectors
   NREBOOT  =      0    no. of reboots
   NMIN     =      0    reboot dimension
   EREF     =   0.00    reference energy to select bands
   IMIX   =      4    mixing-type and parameters
     AMIX     =   0.40;   BMIX     =  1.00
     AMIX_MAG =   1.60;   BMIX_MAG =  1.00
     AMIN     =   0.10
     WC   =   100.;   INIMIX=   1;  MIXPRE=   1;  MAXMIX= -45

 Intra band minimization:
   WEIMIN = 0.0000     energy-eigenvalue tresh-hold
   EBREAK =  0.22E-08  absolut break condition
   DEPER  =   0.30     relativ break condition  

   TIME   =   0.40     timestep for ELM

  volume/ion in A,a.u.               =      36.86       248.77
  Fermi-wavevector in a.u.,A,eV,Ry     =   1.015545  1.919102 14.032126  1.031332
  Thomas-Fermi vector in A             =   2.148837

 Write flags
   LWAVE        =      F    write WAVECAR
   LDOWNSAMPLE  =      F    k-point downsampling of WAVECAR
   LCHARG       =      T    write CHGCAR
   LVTOT        =      F    write LOCPOT, total local potential
   LVHAR        =      T    write LOCPOT, Hartree potential only
   LELF         =      F    write electronic localiz. function (ELF)
   LORBIT       =     10    0 simple, 1 ext, 2 COOP (PROOUT), +10 PAW based schemes


 Dipole corrections
   LMONO  =      F    monopole corrections only (constant potential shift)
   LDIPOL =      F    correct potential (dipole corrections)
   IDIPOL =      0    1-x, 2-y, 3-z, 4-all directions 
   EPSILON=  1.0000000 bulk dielectric constant

 Exchange correlation treatment:
   GGA     =    --    GGA type
   LEXCH   =     8    internal setting for exchange type
   VOSKOWN=      0    Vosko Wilk Nusair interpolation
   LHFCALC =     F    Hartree Fock is set to
   LHFONE  =     F    Hartree Fock one center treatment
   AEXX    =    0.0000 exact exchange contribution

 Linear response parameters
   LEPSILON=     F    determine dielectric tensor
   LRPA    =     F    only Hartree local field effects (RPA)
   LNABLA  =     F    use nabla operator in PAW spheres
   LVEL    =     F    velocity operator in full k-point grid
   LINTERFAST=   F  fast interpolation
   KINTER  =     0    interpolate to denser k-point grid
   CSHIFT  =0.1000    complex shift for real part using Kramers Kronig
   OMEGAMAX=  -1.0    maximum frequency
   DEG_THRESHOLD= 0.2000000E-02 threshold for treating states as degnerate
   RTIME   =   -0.100 relaxation time in fs
  (WPLASMAI=    0.000 imaginary part of plasma frequency in eV, 0.658/RTIME)
   DFIELD  = 0.0000000 0.0000000 0.0000000 field for delta impulse in time

 Orbital magnetization related:
   ORBITALMAG=     F  switch on orbital magnetization
   LCHIMAG   =     F  perturbation theory with respect to B field
   DQ        =  0.001000  dq finite difference perturbation B field
   LLRAUG    =     F  two centre corrections for induced B field



--------------------------------------------------------------------------------------------------------


 Static calculation
 charge density and potential will be updated during run
 non-spin polarized calculation
 Variant of blocked Davidson
 Davidson routine will perform the subspace rotation
 perform sub-space diagonalisation
    after iterative eigenvector-optimisation
 modified Broyden-mixing scheme, WC =      100.0
 initial mixing is a Kerker type mixing with AMIX =  0.4000 and BMIX =      1.0000
 Hartree-type preconditioning will be used
 using additional bands           24
 real space projection scheme for non local part
 use partial core corrections
 calculate Harris-corrections to forces   (improved forces if not selfconsistent)
 use gradient corrections 
 use of overlap-Matrix (Vanderbilt PP)
 Gauss-broadening in eV      SIGMA  =   0.01


--------------------------------------------------------------------------------------------------------


  energy-cutoff  :      300.00
  volume of cell :      737.29
      direct lattice vectors                 reciprocal lattice vectors
     8.456589367  0.000000000 -0.000000000     0.118250982  0.000000000  0.000000000
     0.000000000 11.636408514  0.000000000    -0.000000000  0.085937169  0.000000000
     0.000000000  0.000000000  7.492471750     0.000000000 -0.000000000  0.133467303

  length of vectors
     8.456589367 11.636408514  7.492471750     0.118250982  0.085937169  0.133467303



 k-points in units of 2pi/SCALE and weight: 1x1x1                                   
   0.00000000  0.00000000  0.00000000       0.056
   0.03941699  0.00000000  0.00000000       0.111
   0.00000000  0.04296858  0.00000000       0.056
   0.03941699  0.04296858  0.00000000       0.111
   0.00000000  0.00000000  0.04448910       0.111
   0.03941699  0.00000000  0.04448910       0.222
   0.00000000  0.04296858  0.04448910       0.111
   0.03941699  0.04296858  0.04448910       0.222

 k-points in reciprocal lattice and weights: 1x1x1                                   
   0.00000000  0.00000000  0.00000000       0.056
   0.33333333  0.00000000  0.00000000       0.111
   0.00000000  0.50000000  0.00000000       0.056
   0.33333333  0.50000000  0.00000000       0.111
   0.00000000  0.00000000  0.33333333       0.111
   0.33333333  0.00000000  0.33333333       0.222
   0.00000000  0.50000000  0.33333333       0.111
   0.33333333  0.50000000  0.33333333       0.222

 position of ions in fractional coordinates (direct lattice) 
   0.08985253  0.25000000  0.46041492
   0.41014747  0.75000000  0.96041492
   0.58985253  0.25000000  0.03958508
   0.91014747  0.75000000  0.53958508
   0.00000000  0.00000000  0.00000000
   0.50000000  0.00000000  0.50000000
   0.50000000  0.50000000  0.50000000
   0.00000000  0.50000000  0.00000000
   0.49914060  0.75000000  0.42892614
   0.00085940  0.25000000  0.92892614
   0.99914060  0.75000000  0.07107386
   0.50085940  0.25000000  0.57107386
   0.31326359  0.46266163  0.17016442
   0.18673641  0.53733837  0.67016442
   0.81326359  0.03733837  0.32983558
   0.68673641  0.96266163  0.82983558
   0.31326359  0.03733837  0.17016442
   0.18673641  0.96266163  0.67016442
   0.68673641  0.53733837  0.82983558
   0.81326359  0.46266163  0.32983558

 position of ions in cartesian coordinates  (Angst):
   0.75984595  2.90910213  3.44964577
   3.46844874  8.72730639  7.19588164
   4.98814063  2.90910213  0.29659011
   7.69674342  8.72730639  4.04282598
   0.00000000  0.00000000  0.00000000
   4.22829468  0.00000000  3.74623587
   4.22829468  5.81820426  3.74623587
   0.00000000  5.81820426  0.00000000
   4.22102709  8.72730639  3.21371702
   0.00726760  2.90910213  6.95995290
   8.44932177  8.72730639  0.53251885
   4.23556228  2.90910213  4.27875473
   2.64914155  5.38371972  1.27495213
   1.57915313  6.25268879  5.02118801
   6.87743623  0.43448453  2.47128374
   5.80744782 11.20192398  6.21751962
   2.64914155  0.43448453  1.27495213
   1.57915313 11.20192398  5.02118801
   5.80744782  6.25268879  6.21751962
   6.87743623  5.38371972  2.47128374



--------------------------------------------------------------------------------------------------------


 k-point  1 :   0.0000 0.0000 0.0000  plane waves:    8675
 k-point  2 :   0.3333 0.0000 0.0000  plane waves:    8744
 k-point  3 :   0.0000 0.5000 0.0000  plane waves:    8692
 k-point  4 :   0.3333 0.5000 0.0000  plane waves:    8712
 k-point  5 :   0.0000 0.0000 0.3333  plane waves:    8685
 k-point  6 :   0.3333 0.0000 0.3333  plane waves:    8692
 k-point  7 :   0.0000 0.5000 0.3333  plane waves:    8664
 k-point  8 :   0.3333 0.5000 0.3333  plane waves:    8682

 maximum and minimum number of plane-waves per node :      1110     1069

 maximum number of plane-waves:      8744
 maximum index in each direction: 
   IXMAX=   11   IYMAX=   16   IZMAX=   10
   IXMIN=  -12   IYMIN=  -16   IZMIN=  -10


 real space projection operators:
  total allocation   :       7584.50 KBytes
  max/ min on nodes  :       1004.75        890.44


 parallel 3D FFT for wavefunctions:
    minimum data exchange during FFTs selected (reduces bandwidth)
 parallel 3D FFT for charge:
    minimum data exchange during FFTs selected (reduces bandwidth)


 total amount of memory used by VASP MPI-rank0    41143. kBytes
=======================================================================

   base      :      30000. kBytes
   nonlr-proj:       2819. kBytes
   fftplans  :       3213. kBytes
   grid      :       3001. kBytes
   one-center:         46. kBytes
   wavefun   :       2064. kBytes

     INWAV:  cpu time    0.0000: real time    0.0000
 Broyden mixing: mesh for mixing (old mesh)
   NGX = 23   NGY = 33   NGZ = 21
  (NGX  = 96   NGY  =140   NGZ  = 84)
  gives a total of  15939 points

 initial charge density was supplied:
 charge density of overlapping atoms calculated
 number of electron     176.0000000 magnetization 
 keeping initial charge density in first step


--------------------------------------------------------------------------------------------------------


 Maximum index for non-local projection operator          600
 Maximum index for augmentation-charges         2253 (set IRDMAX)


--------------------------------------------------------------------------------------------------------


 First call to EWALD:  gamma=   0.196
 Maximum number of real-space cells 3x 2x 3
 Maximum number of reciprocal cells 3x 3x 2

    FEWALD:  cpu time    0.0021: real time    0.0021


--------------------------------------- Iteration      1(   1)  ---------------------------------------


    POTLOK:  cpu time    0.1129: real time    0.1458
    SETDIJ:  cpu time    1.1447: real time    1.1448
     EDDAV:  cpu time    3.8642: real time    3.8707
       DOS:  cpu time    0.0006: real time    0.0006
    --------------------------------------------
      LOOP:  cpu time    5.1224: real time    5.1619

 eigenvalue-minimisations  :  1824
 total energy-change (2. order) : 0.6786779E+03  (-0.5660616E+04)
 number of electron     176.0000000 magnetization 
 augmentation part      176.0000000 magnetization 

 Free energy of the ion-electron system (eV)
  ---------------------------------------------------
  alpha Z        PSCENC =       489.37070297
  Ewald energy   TEWEN  =     -9556.20570252
  -Hartree energ DENC   =     -3457.44155924
  -exchange      EXHF   =         0.00000000
  -V(xc)+E(xc)   XCENC  =       464.00792801
  PAW double counting   =     10816.98087266   -11353.96092700
  entropy T*S    EENTRO =        -0.00004835
  eigenvalues    EBANDS =       -14.35348829
  atomic energy  EATOM  =     13290.28009929
  Solvation  Ediel_sol  =         0.00000000
  ---------------------------------------------------
  free energy    TOTEN  =       678.67787752 eV

  energy without entropy =      678.67792588  energy(sigma->0) =      678.67790170


--------------------------------------------------------------------------------------------------------




--------------------------------------- Iteration      1(   2)  ---------------------------------------


     EDDAV:  cpu time    4.3338: real time    4.3830
       DOS:  cpu time    0.0003: real time    0.0003
    --------------------------------------------
      LOOP:  cpu time    4.3341: real time    4.3833

 eigenvalue-minimisations  :  2168
 total energy-change (2. order) :-0.1251899E+04  (-0.1191222E+04)
 number of electron     176.0000000 magnetization 
 augmentation part      176.0000000 magnetization 

 Free energy of the ion-electron system (eV)
  ---------------------------------------------------
  alpha Z        PSCENC =       489.37070297
  Ewald energy   TEWEN  =     -9556.20570252
  -Hartree energ DENC   =     -3457.44155924
  -exchange      EXHF   =         0.00000000
  -V(xc)+E(xc)   XCENC  =       464.00792801
  PAW double counting   =     10816.98087266   -11353.96092700
  entropy T*S    EENTRO =        -0.00000000
  eigenvalues    EBANDS =     -1266.25275358
  atomic energy  EATOM  =     13290.28009929
  Solvation  Ediel_sol  =         0.00000000
  ---------------------------------------------------
  free energy    TOTEN  =      -573.22133941 eV

  energy without entropy =     -573.22133941  energy(sigma->0) =     -573.22133941


--------------------------------------------------------------------------------------------------------




--------------------------------------- Iteration      1(   3)  ---------------------------------------


     EDDAV:  cpu time    4.6399: real time    4.6849
       DOS:  cpu time    0.0003: real time    0.0003
    --------------------------------------------
      LOOP:  cpu time    4.6402: real time    4.6852

 eigenvalue-minimisations  :  2408
 total energy-change (2. order) :-0.1749068E+03  (-0.1736150E+03)
 number of electron     176.0000000 magnetization 
 augmentation part      176.0000000 magnetization 

 Free energy of the ion-electron system (eV)
  ---------------------------------------------------
  alpha Z        PSCENC =       489.37070297
  Ewald energy   TEWEN  =     -9556.20570252
  -Hartree energ DENC   =     -3457.44155924
  -exchange      EXHF   =         0.00000000
  -V(xc)+E(xc)   XCENC  =       464.00792801
  PAW double counting   =     10816.98087266   -11353.96092700
  entropy T*S    EENTRO =        -0.00000000
  eigenvalues    EBANDS =     -1441.15957796
  atomic energy  EATOM  =     13290.28009929
  Solvation  Ediel_sol  =         0.00000000
  ---------------------------------------------------
  free energy    TOTEN  =      -748.12816379 eV

  energy without entropy =     -748.12816379  energy(sigma->0) =     -748.12816379


--------------------------------------------------------------------------------------------------------




--------------------------------------- Iteration      1(   4)  ---------------------------------------


     EDDAV:  cpu time    4.3489: real time    4.3575
       DOS:  cpu time    0.0003: real time    0.0003
    --------------------------------------------
      LOOP:  cpu time    4.3492: real time    4.3578

 eigenvalue-minimisations  :  2144
 total energy-change (2. order) :-0.6003565E+01  (-0.5982323E+01)
 number of electron     176.0000000 magnetization 
 augmentation part      176.0000000 magnetization 

 Free energy of the ion-electron system (eV)
  ---------------------------------------------------
  alpha Z        PSCENC =       489.37070297
  Ewald energy   TEWEN  =     -9556.20570252
  -Hartree energ DENC   =     -3457.44155924
  -exchange      EXHF   =         0.00000000
  -V(xc)+E(xc)   XCENC  =       464.00792801
  PAW double counting   =     10816.98087266   -11353.96092700
  entropy T*S    EENTRO =        -0.00000000
  eigenvalues    EBANDS =     -1447.16314318
  atomic energy  EATOM  =     13290.28009929
  Solvation  Ediel_sol  =         0.00000000
  ---------------------------------------------------
  free energy    TOTEN  =      -754.13172901 eV

  energy without entropy =     -754.13172901  energy(sigma->0) =     -754.13172901


--------------------------------------------------------------------------------------------------------




--------------------------------------- Iteration      1(   5)  ---------------------------------------


     EDDAV:  cpu time    4.5883: real time    4.6394
       DOS:  cpu time    0.0004: real time    0.0004
    CHARGE:  cpu time    0.8294: real time    0.8295
    MIXING:  cpu time    0.0005: real time    0.0005
    --------------------------------------------
      LOOP:  cpu time    5.4187: real time    5.4699

 eigenvalue-minimisations  :  2376
 total energy-change (2. order) :-0.3088142E+00  (-0.3086614E+00)
 number of electron     175.9999998 magnetization 
 augmentation part       -3.2892117 magnetization 

 Broyden mixing:
  rms(total) = 0.75903E+00    rms(broyden)= 0.75879E+00
  rms(prec ) = 0.10025E+01
  weight for this iteration     100.00

 Free energy of the ion-electron system (eV)
  ---------------------------------------------------
  alpha Z        PSCENC =       489.37070297
  Ewald energy   TEWEN  =     -9556.20570252
  -Hartree energ DENC   =     -3457.44155924
  -exchange      EXHF   =         0.00000000
  -V(xc)+E(xc)   XCENC  =       464.00792801
  PAW double counting   =     10816.98087266   -11353.96092700
  entropy T*S    EENTRO =        -0.00000000
  eigenvalues    EBANDS =     -1447.47195738
  atomic energy  EATOM  =     13290.28009929
  Solvation  Ediel_sol  =         0.00000000
  ---------------------------------------------------
  free energy    TOTEN  =      -754.44054321 eV

  energy without entropy =     -754.44054321  energy(sigma->0) =     -754.44054321


--------------------------------------------------------------------------------------------------------




--------------------------------------- Iteration      1(   6)  ---------------------------------------


    POTLOK:  cpu time    0.1404: real time    0.1648
    SETDIJ:  cpu time    1.1486: real time    1.1487
     EDDAV:  cpu time    4.6092: real time    4.6093
       DOS:  cpu time    0.0004: real time    0.0004
    CHARGE:  cpu time    0.8047: real time    0.8047
    MIXING:  cpu time    0.0007: real time    0.0007
    --------------------------------------------
      LOOP:  cpu time    6.7040: real time    6.7286

 eigenvalue-minimisations  :  2408
 total energy-change (2. order) : 0.3972039E+02  (-0.1183797E+01)
 number of electron     175.9999998 magnetization 
 augmentation part       -2.5847582 magnetization 

 Broyden mixing:
  rms(total) = 0.53769E+00    rms(broyden)= 0.53762E+00
  rms(prec ) = 0.64713E+00
  weight for this iteration     100.00

 eigenvalues of (default mixing * dielectric matrix)
  average eigenvalue GAMMA=   1.2883
  1.2883

 Free energy of the ion-electron system (eV)
  ---------------------------------------------------
  alpha Z        PSCENC =       489.37070297
  Ewald energy   TEWEN  =     -9556.20570252
  -Hartree energ DENC   =     -3446.15887633
  -exchange      EXHF   =         0.00000000
  -V(xc)+E(xc)   XCENC  =       479.04993141
  PAW double counting   =     11017.08603037   -11553.66302104
  entropy T*S    EENTRO =        -0.00000000
  eigenvalues    EBANDS =     -1434.47931684
  atomic energy  EATOM  =     13290.28009929
  Solvation  Ediel_sol  =         0.00000000
  ---------------------------------------------------
  free energy    TOTEN  =      -714.72015270 eV

  energy without entropy =     -714.72015270  energy(sigma->0) =     -714.72015270


--------------------------------------------------------------------------------------------------------




--------------------------------------- Iteration      1(   7)  ---------------------------------------


    POTLOK:  cpu time    0.1581: real time    0.1714
    SETDIJ:  cpu time    1.1485: real time    1.1485
     EDDAV:  cpu time    4.3949: real time    4.3952
       DOS:  cpu time    0.0004: real time    0.0004
    CHARGE:  cpu time    0.8067: real time    0.8067
    MIXING:  cpu time    0.0007: real time    0.0007
    --------------------------------------------
      LOOP:  cpu time    6.5093: real time    6.5230

 eigenvalue-minimisations  :  2248
 total energy-change (2. order) : 0.2287978E+00  (-0.3710531E+00)
 number of electron     175.9999998 magnetization 
 augmentation part       -2.3288363 magnetization 

 Broyden mixing:
  rms(total) = 0.26151E+00    rms(broyden)= 0.26149E+00
  rms(prec ) = 0.28307E+00
  weight for this iteration     100.00

 eigenvalues of (default mixing * dielectric matrix)
  average eigenvalue GAMMA=   1.3434
  1.3434  1.3434

 Free energy of the ion-electron system (eV)
  ---------------------------------------------------
  alpha Z        PSCENC =       489.37070297
  Ewald energy   TEWEN  =     -9556.20570252
  -Hartree energ DENC   =     -3465.68589794
  -exchange      EXHF   =         0.00000000
  -V(xc)+E(xc)   XCENC  =       481.72106351
  PAW double counting   =     11382.09116389   -11918.19347948
  entropy T*S    EENTRO =        -0.00000000
  eigenvalues    EBANDS =     -1417.86930465
  atomic energy  EATOM  =     13290.28009929
  Solvation  Ediel_sol  =         0.00000000
  ---------------------------------------------------
  free energy    TOTEN  =      -714.49135493 eV

  energy without entropy =     -714.49135493  energy(sigma->0) =     -714.49135493


--------------------------------------------------------------------------------------------------------




--------------------------------------- Iteration      1(   8)  ---------------------------------------


    POTLOK:  cpu time    0.1525: real time    0.1622
    SETDIJ:  cpu time    1.1485: real time    1.1486
     EDDAV:  cpu time    4.2890: real time    4.2892
       DOS:  cpu time    0.0004: real time    0.0004
    CHARGE:  cpu time    0.8055: real time    0.8055
    MIXING:  cpu time    0.0006: real time    0.0006
    --------------------------------------------
      LOOP:  cpu time    6.3966: real time    6.4066

 eigenvalue-minimisations  :  2168
 total energy-change (2. order) :-0.8267470E-01  (-0.1867083E-01)
 number of electron     175.9999998 magnetization 
 augmentation part       -2.3689385 magnetization 

 Broyden mixing:
  rms(total) = 0.14849E+00    rms(broyden)= 0.14849E+00
  rms(prec ) = 0.16185E+00
  weight for this iteration     100.00

 eigenvalues of (default mixing * dielectric matrix)
  average eigenvalue GAMMA=   1.7254
  1.0983  1.3364  2.7415

 Free energy of the ion-electron system (eV)
  ---------------------------------------------------
  alpha Z        PSCENC =       489.37070297
  Ewald energy   TEWEN  =     -9556.20570252
  -Hartree energ DENC   =     -3468.21747621
  -exchange      EXHF   =         0.00000000
  -V(xc)+E(xc)   XCENC  =       482.14365802
  PAW double counting   =     11527.90390696   -12064.34121377
  entropy T*S    EENTRO =        -0.00000000
  eigenvalues    EBANDS =     -1415.50800437
  atomic energy  EATOM  =     13290.28009929
  Solvation  Ediel_sol  =         0.00000000
  ---------------------------------------------------
  free energy    TOTEN  =      -714.57402963 eV

  energy without entropy =     -714.57402963  energy(sigma->0) =     -714.57402963


--------------------------------------------------------------------------------------------------------




--------------------------------------- Iteration      1(   9)  ---------------------------------------


    POTLOK:  cpu time    0.1595: real time    0.1608
    SETDIJ:  cpu time    1.1477: real time    1.1478
     EDDAV:  cpu time    4.0630: real time    4.0632
       DOS:  cpu time    0.0006: real time    0.0006
    CHARGE:  cpu time    0.8050: real time    0.8050
    MIXING:  cpu time    0.0007: real time    0.0007
    --------------------------------------------
      LOOP:  cpu time    6.1765: real time    6.1780

 eigenvalue-minimisations  :  2000
 total energy-change (2. order) :-0.2985232E-01  (-0.6136745E-02)
 number of electron     175.9999998 magnetization 
 augmentation part       -2.3900663 magnetization 

 Broyden mixing:
  rms(total) = 0.30317E-01    rms(broyden)= 0.30313E-01
  rms(prec ) = 0.32743E-01
  weight for this iteration     100.00

 eigenvalues of (default mixing * dielectric matrix)
  average eigenvalue GAMMA=   1.4803
  2.5689  1.2562  1.2562  0.8397

 Free energy of the ion-electron system (eV)
  ---------------------------------------------------
  alpha Z        PSCENC =       489.37070297
  Ewald energy   TEWEN  =     -9556.20570252
  -Hartree energ DENC   =     -3470.58544518
  -exchange      EXHF   =         0.00000000
  -V(xc)+E(xc)   XCENC  =       483.10269098
  PAW double counting   =     11721.99390587   -12259.02844326
  entropy T*S    EENTRO =        -0.00000000
  eigenvalues    EBANDS =     -1413.53169009
  atomic energy  EATOM  =     13290.28009929
  Solvation  Ediel_sol  =         0.00000000
  ---------------------------------------------------
  free energy    TOTEN  =      -714.60388195 eV

  energy without entropy =     -714.60388195  energy(sigma->0) =     -714.60388195


--------------------------------------------------------------------------------------------------------




--------------------------------------- Iteration      1(  10)  ---------------------------------------


    POTLOK:  cpu time    0.1188: real time    0.1629
    SETDIJ:  cpu time    1.1481: real time    1.1481
     EDDAV:  cpu time    4.7745: real time    4.7748
       DOS:  cpu time    0.0004: real time    0.0004
    CHARGE:  cpu time    0.8065: real time    0.8065
    MIXING:  cpu time    0.0007: real time    0.0007
    --------------------------------------------
      LOOP:  cpu time    6.8491: real time    6.8934

 eigenvalue-minimisations  :  2536
 total energy-change (2. order) :-0.6000647E-03  (-0.4177566E-03)
 number of electron     175.9999998 magnetization 
 augmentation part       -2.3836500 magnetization 

 Broyden mixing:
  rms(total) = 0.17007E-01    rms(broyden)= 0.17007E-01
  rms(prec ) = 0.18942E-01
  weight for this iteration     100.00

 eigenvalues of (default mixing * dielectric matrix)
  average eigenvalue GAMMA=   1.5866
  2.3755  2.3755  0.8938  1.1441  1.1441

 Free energy of the ion-electron system (eV)
  ---------------------------------------------------
  alpha Z        PSCENC =       489.37070297
  Ewald energy   TEWEN  =     -9556.20570252
  -Hartree energ DENC   =     -3469.59935738
  -exchange      EXHF   =         0.00000000
  -V(xc)+E(xc)   XCENC  =       483.00151850
  PAW double counting   =     11701.28875400   -12238.32871235
  entropy T*S    EENTRO =        -0.00000000
  eigenvalues    EBANDS =     -1414.41178452
  atomic energy  EATOM  =     13290.28009929
  Solvation  Ediel_sol  =         0.00000000
  ---------------------------------------------------
  free energy    TOTEN  =      -714.60448202 eV

  energy without entropy =     -714.60448202  energy(sigma->0) =     -714.60448202


--------------------------------------------------------------------------------------------------------




--------------------------------------- Iteration      1(  11)  ---------------------------------------


    POTLOK:  cpu time    0.1592: real time    0.1786
    SETDIJ:  cpu time    1.1463: real time    1.1463
     EDDAV:  cpu time    4.0459: real time    4.0461
       DOS:  cpu time    0.0007: real time    0.0007
    CHARGE:  cpu time    0.8140: real time    0.8140
    MIXING:  cpu time    0.0007: real time    0.0007
    --------------------------------------------
      LOOP:  cpu time    6.1668: real time    6.1865

 eigenvalue-minimisations  :  1992
 total energy-change (2. order) :-0.9893462E-03  (-0.1321951E-03)
 number of electron     175.9999998 magnetization 
 augmentation part       -2.3833212 magnetization 

 Broyden mixing:
  rms(total) = 0.57494E-02    rms(broyden)= 0.57489E-02
  rms(prec ) = 0.70783E-02
  weight for this iteration     100.00

 eigenvalues of (default mixing * dielectric matrix)
  average eigenvalue GAMMA=   1.5917
  2.6068  2.6068  1.2351  1.2351  0.9334  0.9334

 Free energy of the ion-electron system (eV)
  ---------------------------------------------------
  alpha Z        PSCENC =       489.37070297
  Ewald energy   TEWEN  =     -9556.20570252
  -Hartree energ DENC   =     -3468.40620395
  -exchange      EXHF   =         0.00000000
  -V(xc)+E(xc)   XCENC  =       482.95682872
  PAW double counting   =     11686.39322363   -12223.55049810
  entropy T*S    EENTRO =        -0.00000000
  eigenvalues    EBANDS =     -1415.44392140
  atomic energy  EATOM  =     13290.28009929
  Solvation  Ediel_sol  =         0.00000000
  ---------------------------------------------------
  free energy    TOTEN  =      -714.60547136 eV

  energy without entropy =     -714.60547136  energy(sigma->0) =     -714.60547136


--------------------------------------------------------------------------------------------------------




--------------------------------------- Iteration      1(  12)  ---------------------------------------


    POTLOK:  cpu time    0.1255: real time    0.1602
    SETDIJ:  cpu time    1.1467: real time    1.1467
     EDDAV:  cpu time    4.5064: real time    4.5065
       DOS:  cpu time    0.0004: real time    0.0004
    CHARGE:  cpu time    0.8096: real time    0.8096
    MIXING:  cpu time    0.0007: real time    0.0007
    --------------------------------------------
      LOOP:  cpu time    6.5893: real time    6.6242

 eigenvalue-minimisations  :  2336
 total energy-change (2. order) :-0.5219647E-04  (-0.3510137E-04)
 number of electron     175.9999998 magnetization 
 augmentation part       -2.3847688 magnetization 

 Broyden mixing:
  rms(total) = 0.22001E-02    rms(broyden)= 0.21993E-02
  rms(prec ) = 0.25733E-02
  weight for this iteration     100.00

 eigenvalues of (default mixing * dielectric matrix)
  average eigenvalue GAMMA=   1.6205
  3.0529  2.2387  1.8682  1.1849  1.0466  0.9759  0.9759

 Free energy of the ion-electron system (eV)
  ---------------------------------------------------
  alpha Z        PSCENC =       489.37070297
  Ewald energy   TEWEN  =     -9556.20570252
  -Hartree energ DENC   =     -3468.49217364
  -exchange      EXHF   =         0.00000000
  -V(xc)+E(xc)   XCENC  =       483.00854425
  PAW double counting   =     11690.99774031   -12228.21178191
  entropy T*S    EENTRO =        -0.00000000
  eigenvalues    EBANDS =     -1415.35295230
  atomic energy  EATOM  =     13290.28009929
  Solvation  Ediel_sol  =         0.00000000
  ---------------------------------------------------
  free energy    TOTEN  =      -714.60552356 eV

  energy without entropy =     -714.60552356  energy(sigma->0) =     -714.60552356


--------------------------------------------------------------------------------------------------------




--------------------------------------- Iteration      1(  13)  ---------------------------------------


    POTLOK:  cpu time    0.1266: real time    0.1741
    SETDIJ:  cpu time    1.1455: real time    1.1455
     EDDAV:  cpu time    4.3330: real time    4.3332
       DOS:  cpu time    0.0004: real time    0.0004
    CHARGE:  cpu time    0.8089: real time    0.8089
    MIXING:  cpu time    0.0010: real time    0.0010
    --------------------------------------------
      LOOP:  cpu time    6.4154: real time    6.4631

 eigenvalue-minimisations  :  2200
 total energy-change (2. order) : 0.2385034E-04  (-0.4512940E-05)
 number of electron     175.9999998 magnetization 
 augmentation part       -2.3846786 magnetization 

 Broyden mixing:
  rms(total) = 0.82306E-03    rms(broyden)= 0.82170E-03
  rms(prec ) = 0.88696E-03
  weight for this iteration     100.00

 eigenvalues of (default mixing * dielectric matrix)
  average eigenvalue GAMMA=   1.5989
  2.9223  2.4791  1.8812  1.2311  1.2311  0.9515  1.0473  1.0473

 Free energy of the ion-electron system (eV)
  ---------------------------------------------------
  alpha Z        PSCENC =       489.37070297
  Ewald energy   TEWEN  =     -9556.20570252
  -Hartree energ DENC   =     -3468.66585846
  -exchange      EXHF   =         0.00000000
  -V(xc)+E(xc)   XCENC  =       483.02407029
  PAW double counting   =     11690.87240673   -12228.09164568
  entropy T*S    EENTRO =        -0.00000000
  eigenvalues    EBANDS =     -1415.18957232
  atomic energy  EATOM  =     13290.28009929
  Solvation  Ediel_sol  =         0.00000000
  ---------------------------------------------------
  free energy    TOTEN  =      -714.60549971 eV

  energy without entropy =     -714.60549971  energy(sigma->0) =     -714.60549971


--------------------------------------------------------------------------------------------------------




--------------------------------------- Iteration      1(  14)  ---------------------------------------


    POTLOK:  cpu time    0.1119: real time    0.1789
    SETDIJ:  cpu time    1.1460: real time    1.1461
     EDDAV:  cpu time    3.8250: real time    3.8252
       DOS:  cpu time    0.0004: real time    0.0004
    CHARGE:  cpu time    0.8075: real time    0.8075
    MIXING:  cpu time    0.0008: real time    0.0008
    --------------------------------------------
      LOOP:  cpu time    5.8916: real time    5.9589

 eigenvalue-minimisations  :  1776
 total energy-change (2. order) :-0.2167936E-04  (-0.3298932E-06)
 number of electron     175.9999998 magnetization 
 augmentation part       -2.3844951 magnetization 

 Broyden mixing:
  rms(total) = 0.20595E-03    rms(broyden)= 0.20073E-03
  rms(prec ) = 0.24174E-03
  weight for this iteration     100.00

 eigenvalues of (default mixing * dielectric matrix)
  average eigenvalue GAMMA=   1.6662
  2.8779  2.8779  2.0128  2.0128  0.9280  1.1303  1.0959  1.0302  1.0302

 Free energy of the ion-electron system (eV)
  ---------------------------------------------------
  alpha Z        PSCENC =       489.37070297
  Ewald energy   TEWEN  =     -9556.20570252
  -Hartree energ DENC   =     -3468.67172407
  -exchange      EXHF   =         0.00000000
  -V(xc)+E(xc)   XCENC  =       483.02272886
  PAW double counting   =     11690.28169505   -12227.49947295
  entropy T*S    EENTRO =        -0.00000000
  eigenvalues    EBANDS =     -1415.18384801
  atomic energy  EATOM  =     13290.28009929
  Solvation  Ediel_sol  =         0.00000000
  ---------------------------------------------------
  free energy    TOTEN  =      -714.60552139 eV

  energy without entropy =     -714.60552139  energy(sigma->0) =     -714.60552139


--------------------------------------------------------------------------------------------------------




--------------------------------------- Iteration      1(  15)  ---------------------------------------


    POTLOK:  cpu time    0.1109: real time    0.1631
    SETDIJ:  cpu time    1.1447: real time    1.1448
     EDDAV:  cpu time    3.1332: real time    3.1335
       DOS:  cpu time    0.0004: real time    0.0004
    CHARGE:  cpu time    0.8089: real time    0.8090
    MIXING:  cpu time    0.0011: real time    0.0011
    --------------------------------------------
      LOOP:  cpu time    5.1993: real time    5.2518

 eigenvalue-minimisations  :  1224
 total energy-change (2. order) :-0.3457229E-05  (-0.4055649E-07)
 number of electron     175.9999998 magnetization 
 augmentation part       -2.3845261 magnetization 

 Broyden mixing:
  rms(total) = 0.11472E-03    rms(broyden)= 0.10515E-03
  rms(prec ) = 0.11290E-03
  weight for this iteration     100.00

 eigenvalues of (default mixing * dielectric matrix)
  average eigenvalue GAMMA=   1.6376
  3.0502  2.5364  2.5364  1.8370  1.2715  1.1027  1.1027  0.9447  0.9970  0.9970

 Free energy of the ion-electron system (eV)
  ---------------------------------------------------
  alpha Z        PSCENC =       489.37070297
  Ewald energy   TEWEN  =     -9556.20570252
  -Hartree energ DENC   =     -3468.66734101
  -exchange      EXHF   =         0.00000000
  -V(xc)+E(xc)   XCENC  =       483.02246962
  PAW double counting   =     11690.20900313   -12227.42693283
  entropy T*S    EENTRO =        -0.00000000
  eigenvalues    EBANDS =     -1415.18782349
  atomic energy  EATOM  =     13290.28009929
  Solvation  Ediel_sol  =         0.00000000
  ---------------------------------------------------
  free energy    TOTEN  =      -714.60552484 eV

  energy without entropy =     -714.60552484  energy(sigma->0) =     -714.60552484


--------------------------------------------------------------------------------------------------------




--------------------------------------- Iteration      1(  16)  ---------------------------------------


    POTLOK:  cpu time    0.1481: real time    0.1584
    SETDIJ:  cpu time    1.1484: real time    1.1484
     EDDAV:  cpu time    3.0179: real time    3.0180
       DOS:  cpu time    0.0004: real time    0.0004
    CHARGE:  cpu time    0.8089: real time    0.8089
    MIXING:  cpu time    0.0011: real time    0.0011
    --------------------------------------------
      LOOP:  cpu time    5.1248: real time    5.1352

 eigenvalue-minimisations  :  1136
 total energy-change (2. order) : 0.2588987E-05  (-0.1120165E-07)
 number of electron     175.9999998 magnetization 
 augmentation part       -2.3845318 magnetization 

 Broyden mixing:
  rms(total) = 0.61138E-04    rms(broyden)= 0.40451E-04
  rms(prec ) = 0.44966E-04
  weight for this iteration     100.00
  WARNING: grid for Broyden might be to small

 eigenvalues of (default mixing * dielectric matrix)
  average eigenvalue GAMMA=   1.7023
  2.9167  2.9167  2.5881  2.0298  2.0298  1.0353  1.0353  1.1243  1.1243  0.9487
  0.9756

 Free energy of the ion-electron system (eV)
  ---------------------------------------------------
  alpha Z        PSCENC =       489.37070297
  Ewald energy   TEWEN  =     -9556.20570252
  -Hartree energ DENC   =     -3468.66868019
  -exchange      EXHF   =         0.00000000
  -V(xc)+E(xc)   XCENC  =       483.02271504
  PAW double counting   =     11690.25930721   -12227.47714704
  entropy T*S    EENTRO =        -0.00000000
  eigenvalues    EBANDS =     -1415.18681702
  atomic energy  EATOM  =     13290.28009929
  Solvation  Ediel_sol  =         0.00000000
  ---------------------------------------------------
  free energy    TOTEN  =      -714.60552225 eV

  energy without entropy =     -714.60552225  energy(sigma->0) =     -714.60552225


--------------------------------------------------------------------------------------------------------




--------------------------------------- Iteration      1(  17)  ---------------------------------------


    POTLOK:  cpu time    0.1281: real time    0.1641
    SETDIJ:  cpu time    1.1489: real time    1.1489
     EDDAV:  cpu time    2.9620: real time    2.9620
       DOS:  cpu time    0.0004: real time    0.0004
    CHARGE:  cpu time    0.8070: real time    0.8070
    MIXING:  cpu time    0.0009: real time    0.0009
    --------------------------------------------
      LOOP:  cpu time    5.0472: real time    5.0834

 eigenvalue-minimisations  :  1088
 total energy-change (2. order) : 0.1743592E-05  (-0.4351063E-08)
 number of electron     175.9999998 magnetization 
 augmentation part       -2.3845416 magnetization 

 Broyden mixing:
  rms(total) = 0.47713E-04    rms(broyden)= 0.13238E-04
  rms(prec ) = 0.15208E-04
  weight for this iteration     100.00
  WARNING: grid for Broyden might be to small

 eigenvalues of (default mixing * dielectric matrix)
  average eigenvalue GAMMA=   1.7185
  3.5856  2.9225  2.5738  2.2856  1.9538  1.1822  1.1822  1.0656  1.0656  0.9481
  0.9481  0.9094

 Free energy of the ion-electron system (eV)
  ---------------------------------------------------
  alpha Z        PSCENC =       489.37070297
  Ewald energy   TEWEN  =     -9556.20570252
  -Hartree energ DENC   =     -3468.67211283
  -exchange      EXHF   =         0.00000000
  -V(xc)+E(xc)   XCENC  =       483.02289425
  PAW double counting   =     11690.24963322   -12227.46725109
  entropy T*S    EENTRO =        -0.00000000
  eigenvalues    EBANDS =     -1415.18378379
  atomic energy  EATOM  =     13290.28009929
  Solvation  Ediel_sol  =         0.00000000
  ---------------------------------------------------
  free energy    TOTEN  =      -714.60552051 eV

  energy without entropy =     -714.60552051  energy(sigma->0) =     -714.60552051


--------------------------------------------------------------------------------------------------------




--------------------------------------- Iteration      1(  18)  ---------------------------------------


    POTLOK:  cpu time    0.1269: real time    0.1714
    SETDIJ:  cpu time    1.1483: real time    1.1483
     EDDAV:  cpu time    2.9591: real time    2.9593
       DOS:  cpu time    0.0003: real time    0.0003
    --------------------------------------------
      LOOP:  cpu time    4.2346: real time    4.2794

 eigenvalue-minimisations  :  1088
 total energy-change (2. order) :-0.1608935E-06  (-0.1832438E-08)
 number of electron     175.9999998 magnetization 
 augmentation part       -2.3845416 magnetization 

 Free energy of the ion-electron system (eV)
  ---------------------------------------------------
  alpha Z        PSCENC =       489.37070297
  Ewald energy   TEWEN  =     -9556.20570252
  -Hartree energ DENC   =     -3468.67148103
  -exchange      EXHF   =         0.00000000
  -V(xc)+E(xc)   XCENC  =       483.02289770
  PAW double counting   =     11690.24800581   -12227.46566265
  entropy T*S    EENTRO =        -0.00000000
  eigenvalues    EBANDS =     -1415.18438023
  atomic energy  EATOM  =     13290.28009929
  Solvation  Ediel_sol  =         0.00000000
  ---------------------------------------------------
  free energy    TOTEN  =      -714.60552067 eV

  energy without entropy =     -714.60552067  energy(sigma->0) =     -714.60552067


--------------------------------------------------------------------------------------------------------




 average (electrostatic) potential at core
  the test charge radii are     1.1312  1.1541  1.0178
  (the norm of the test charge is              1.0000)
       1 -54.5135       2 -54.5135       3 -54.5135       4 -54.5135       5-101.0468
       6-101.0468       7-101.0468       8-101.0468       9 -68.5538      10 -68.5538
      11 -68.5538      12 -68.5538      13 -68.5085      14 -68.5085      15 -68.5085
      16 -68.5085      17 -68.5085      18 -68.5085      19 -68.5085      20 -68.5085



 E-fermi :   1.1112     XC(G=0):  -8.4751     alpha+bet : -7.6774


 k-point     1 :       0.0000    0.0000    0.0000
  band No.  band energies     occupation 
      1     -20.0830      2.00000
      2     -20.0797      2.00000
      3     -20.0737      2.00000
      4     -20.0723      2.00000
      5     -15.9216      2.00000
      6     -15.9045      2.00000
      7     -15.9043      2.00000
      8     -15.8897      2.00000
      9     -15.8487      2.00000
     10     -15.8066      2.00000
     11     -15.7934      2.00000
     12     -15.7934      2.00000
     13     -15.7344      2.00000
     14     -15.7337      2.00000
     15     -15.7328      2.00000
     16     -15.7323      2.00000
     17     -15.7224      2.00000
     18     -15.7216      2.00000
     19     -15.7211      2.00000
     20     -15.7206      2.00000
     21     -15.7085      2.00000
     22     -15.7079      2.00000
     23     -15.7077      2.00000
     24     -15.7071      2.00000
     25     -13.9747      2.00000
     26     -13.7754      2.00000
     27     -13.6420      2.00000
     28     -13.6397      2.00000
     29     -13.6084      2.00000
     30     -13.6004      2.00000
     31     -13.5536      2.00000
     32     -13.5222      2.00000
     33     -13.5151      2.00000
     34     -13.2998      2.00000
     35     -13.2787      2.00000
     36     -13.2747      2.00000
     37      -7.7478      2.00000
     38      -7.2050      2.00000
     39      -6.6909      2.00000
     40      -6.6158      2.00000
     41      -6.5740      2.00000
     42      -6.5737      2.00000
     43      -6.5716      2.00000
     44      -6.5616      2.00000
     45      -6.5609      2.00000
     46      -6.5334      2.00000
     47      -6.5284      2.00000
     48      -6.5249      2.00000
     49      -6.4872      2.00000
     50      -6.4834      2.00000
     51      -6.4306      2.00000
     52      -5.9586      2.00000
     53      -3.0232      2.00000
     54      -2.9550      2.00000
     55      -2.7945      2.00000
     56      -2.7721      2.00000
     57      -2.7331      2.00000
     58      -2.6147      2.00000
     59      -1.8298      2.00000
     60      -1.5276      2.00000
     61      -1.4841      2.00000
     62      -1.4220      2.00000
     63      -1.3617      2.00000
     64      -1.3389      2.00000
     65      -1.2196      2.00000
     66      -1.1608      2.00000
     67      -1.1212      2.00000
     68      -1.0764      2.00000
     69      -1.0210      2.00000
     70      -1.0115      2.00000
     71      -0.9757      2.00000
     72      -0.9722      2.00000
     73      -0.9436      2.00000
     74      -0.9333      2.00000
     75      -0.9156      2.00000
     76      -0.8966      2.00000
     77      -0.8308      2.00000
     78      -0.6560      2.00000
     79      -0.6189      2.00000
     80      -0.6109      2.00000
     81      -0.6057      2.00000
     82      -0.5450      2.00000
     83      -0.5267      2.00000
     84      -0.4230      2.00000
     85      -0.2651      2.00000
     86       0.0168      2.00000
     87       0.4552      2.00000
     88       1.0666      2.00000
     89       3.2916      0.00000
     90       3.3487      0.00000
     91       3.6816      0.00000
     92       3.7469      0.00000
     93       4.0705      0.00000
     94       4.1696      0.00000
     95       5.7370      0.00000
     96       6.1447      0.00000
     97       6.3649      0.00000
     98       6.3984      0.00000
     99       6.5332      0.00000
    100       6.7102      0.00000
    101       6.7224      0.00000
    102       6.8279      0.00000
    103       6.9830      0.00000
    104       7.0427      0.00000
    105       7.2068      0.00000
    106       7.3055      0.00000
    107       7.3333      0.00000
    108       7.4376      0.00000
    109       7.6505      0.00000
    110       7.8483      0.00000
    111       7.9516      0.00000
    112       7.9949      0.00000

 k-point     2 :       0.3333    0.0000    0.0000
  band No.  band energies     occupation 
      1     -20.0807      2.00000
      2     -20.0778      2.00000
      3     -20.0762      2.00000
      4     -20.0742      2.00000
      5     -15.9133      2.00000
      6     -15.8974      2.00000
      7     -15.8784      2.00000
      8     -15.8782      2.00000
      9     -15.8379      2.00000
     10     -15.8228      2.00000
     11     -15.8227      2.00000
     12     -15.8168      2.00000
     13     -15.7344      2.00000
     14     -15.7340      2.00000
     15     -15.7328      2.00000
     16     -15.7326      2.00000
     17     -15.7222      2.00000
     18     -15.7216      2.00000
     19     -15.7215      2.00000
     20     -15.7210      2.00000
     21     -15.7084      2.00000
     22     -15.7080      2.00000
     23     -15.7078      2.00000
     24     -15.7074      2.00000
     25     -13.9237      2.00000
     26     -13.7810      2.00000
     27     -13.7363      2.00000
     28     -13.6489      2.00000
     29     -13.6393      2.00000
     30     -13.6364      2.00000
     31     -13.4608      2.00000
     32     -13.4524      2.00000
     33     -13.4163      2.00000
     34     -13.3380      2.00000
     35     -13.3324      2.00000
     36     -13.3248      2.00000
     37      -7.5299      2.00000
     38      -7.0312      2.00000
     39      -6.9854      2.00000
     40      -6.6412      2.00000
     41      -6.5761      2.00000
     42      -6.5681      2.00000
     43      -6.5659      2.00000
     44      -6.5502      2.00000
     45      -6.5422      2.00000
     46      -6.5261      2.00000
     47      -6.5184      2.00000
     48      -6.4951      2.00000
     49      -6.4884      2.00000
     50      -6.4700      2.00000
     51      -6.4489      2.00000
     52      -6.3160      2.00000
     53      -2.9064      2.00000
     54      -2.8068      2.00000
     55      -2.5446      2.00000
     56      -2.3929      2.00000
     57      -2.3822      2.00000
     58      -2.3593      2.00000
     59      -1.8737      2.00000
     60      -1.7485      2.00000
     61      -1.7256      2.00000
     62      -1.6082      2.00000
     63      -1.5949      2.00000
     64      -1.5647      2.00000
     65      -1.3328      2.00000
     66      -1.2378      2.00000
     67      -1.2146      2.00000
     68      -1.1647      2.00000
     69      -1.0339      2.00000
     70      -1.0306      2.00000
     71      -0.9402      2.00000
     72      -0.9296      2.00000
     73      -0.9139      2.00000
     74      -0.8975      2.00000
     75      -0.8607      2.00000
     76      -0.8604      2.00000
     77      -0.8090      2.00000
     78      -0.7318      2.00000
     79      -0.7186      2.00000
     80      -0.6261      2.00000
     81      -0.6073      2.00000
     82      -0.5865      2.00000
     83      -0.5641      2.00000
     84      -0.4937      2.00000
     85      -0.1576      2.00000
     86       0.0148      2.00000
     87       0.2022      2.00000
     88       0.6256      2.00000
     89       3.5103      0.00000
     90       3.8467      0.00000
     91       3.9923      0.00000
     92       4.4039      0.00000
     93       4.5260      0.00000
     94       4.9317      0.00000
     95       5.4339      0.00000
     96       5.8177      0.00000
     97       5.8323      0.00000
     98       5.9954      0.00000
     99       6.4735      0.00000
    100       6.5208      0.00000
    101       6.8059      0.00000
    102       6.8977      0.00000
    103       7.0452      0.00000
    104       7.0675      0.00000
    105       7.1066      0.00000
    106       7.2113      0.00000
    107       7.3494      0.00000
    108       7.4220      0.00000
    109       7.6034      0.00000
    110       7.6485      0.00000
    111       7.7146      0.00000
    112       7.9666      0.00000

 k-point     3 :       0.0000    0.5000    0.0000
  band No.  band energies     occupation 
      1     -20.0813      2.00000
      2     -20.0813      2.00000
      3     -20.0730      2.00000
      4     -20.0730      2.00000
      5     -15.9044      2.00000
      6     -15.9044      2.00000
      7     -15.8855      2.00000
      8     -15.8855      2.00000
      9     -15.8490      2.00000
     10     -15.8490      2.00000
     11     -15.7934      2.00000
     12     -15.7934      2.00000
     13     -15.7336      2.00000
     14     -15.7336      2.00000
     15     -15.7332      2.00000
     16     -15.7332      2.00000
     17     -15.7221      2.00000
     18     -15.7221      2.00000
     19     -15.7209      2.00000
     20     -15.7209      2.00000
     21     -15.7082      2.00000
     22     -15.7082      2.00000
     23     -15.7074      2.00000
     24     -15.7074      2.00000
     25     -13.9158      2.00000
     26     -13.9158      2.00000
     27     -13.6125      2.00000
     28     -13.6125      2.00000
     29     -13.5887      2.00000
     30     -13.5887      2.00000
     31     -13.5201      2.00000
     32     -13.5201      2.00000
     33     -13.4268      2.00000
     34     -13.4268      2.00000
     35     -13.2765      2.00000
     36     -13.2765      2.00000
     37      -7.4967      2.00000
     38      -7.4967      2.00000
     39      -6.6058      2.00000
     40      -6.6058      2.00000
     41      -6.5884      2.00000
     42      -6.5884      2.00000
     43      -6.5386      2.00000
     44      -6.5386      2.00000
     45      -6.5239      2.00000
     46      -6.5239      2.00000
     47      -6.5049      2.00000
     48      -6.5049      2.00000
     49      -6.5019      2.00000
     50      -6.5019      2.00000
     51      -6.3525      2.00000
     52      -6.3525      2.00000
     53      -2.9087      2.00000
     54      -2.9087      2.00000
     55      -2.7310      2.00000
     56      -2.7310      2.00000
     57      -2.0389      2.00000
     58      -2.0389      2.00000
     59      -1.9079      2.00000
     60      -1.9079      2.00000
     61      -1.6608      2.00000
     62      -1.6608      2.00000
     63      -1.3688      2.00000
     64      -1.3688      2.00000
     65      -1.2990      2.00000
     66      -1.2990      2.00000
     67      -1.1038      2.00000
     68      -1.1038      2.00000
     69      -1.0372      2.00000
     70      -1.0372      2.00000
     71      -1.0142      2.00000
     72      -1.0142      2.00000
     73      -0.9046      2.00000
     74      -0.9046      2.00000
     75      -0.8936      2.00000
     76      -0.8936      2.00000
     77      -0.7349      2.00000
     78      -0.7349      2.00000
     79      -0.7227      2.00000
     80      -0.7227      2.00000
     81      -0.6441      2.00000
     82      -0.6441      2.00000
     83      -0.4617      2.00000
     84      -0.4617      2.00000
     85      -0.2521      2.00000
     86      -0.2521      2.00000
     87       0.5801      2.00000
     88       0.5801      2.00000
     89       3.5297      0.00000
     90       3.5297      0.00000
     91       3.9228      0.00000
     92       3.9228      0.00000
     93       4.9696      0.00000
     94       4.9696      0.00000
     95       5.4659      0.00000
     96       5.4659      0.00000
     97       6.3177      0.00000
     98       6.3177      0.00000
     99       6.4078      0.00000
    100       6.4078      0.00000
    101       6.8059      0.00000
    102       6.8059      0.00000
    103       6.9054      0.00000
    104       6.9054      0.00000
    105       7.1704      0.00000
[...]
     60      -1.9654      2.00000
     61      -1.8044      2.00000
     62      -1.8044      2.00000
     63      -1.5926      2.00000
     64      -1.5926      2.00000
     65      -1.2639      2.00000
     66      -1.2639      2.00000
     67      -1.1953      2.00000
     68      -1.1953      2.00000
     69      -1.0660      2.00000
     70      -1.0660      2.00000
     71      -1.0228      2.00000
     72      -1.0228      2.00000
     73      -0.9423      2.00000
     74      -0.9423      2.00000
     75      -0.9217      2.00000
     76      -0.9217      2.00000
     77      -0.7467      2.00000
     78      -0.7467      2.00000
     79      -0.7009      2.00000
     80      -0.7009      2.00000
     81      -0.6183      2.00000
     82      -0.6183      2.00000
     83      -0.5727      2.00000
     84      -0.5727      2.00000
     85      -0.3036      2.00000
     86      -0.3036      2.00000
     87      -0.0270      2.00000
     88      -0.0270      2.00000
     89       4.3399      0.00000
     90       4.3399      0.00000
     91       4.5317      0.00000
     92       4.5317      0.00000
     93       5.0650      0.00000
     94       5.0650      0.00000
     95       5.3346      0.00000
     96       5.3346      0.00000
     97       5.7161      0.00000
     98       5.7161      0.00000
     99       5.9503      0.00000
    100       5.9503      0.00000
    101       6.7975      0.00000
    102       6.7975      0.00000
    103       6.9097      0.00000
    104       6.9097      0.00000
    105       7.1943      0.00000
    106       7.1943      0.00000
    107       7.2511      0.00000
    108       7.2511      0.00000
    109       7.6007      0.00000
    110       7.6007      0.00000
    111       7.8513      0.00000
    112       7.8514      0.00000

 k-point     8 :       0.3333    0.5000    0.3333
  band No.  band energies     occupation 
      1     -20.0783      2.00000
      2     -20.0783      2.00000
      3     -20.0755      2.00000
      4     -20.0755      2.00000
      5     -15.8913      2.00000
      6     -15.8913      2.00000
      7     -15.8760      2.00000
      8     -15.8760      2.00000
      9     -15.8448      2.00000
     10     -15.8448      2.00000
     11     -15.8234      2.00000
     12     -15.8234      2.00000
     13     -15.7335      2.00000
     14     -15.7335      2.00000
     15     -15.7334      2.00000
     16     -15.7334      2.00000
     17     -15.7215      2.00000
     18     -15.7215      2.00000
     19     -15.7213      2.00000
     20     -15.7213      2.00000
     21     -15.7078      2.00000
     22     -15.7078      2.00000
     23     -15.7076      2.00000
     24     -15.7076      2.00000
     25     -13.8116      2.00000
     26     -13.8116      2.00000
     27     -13.7140      2.00000
     28     -13.7140      2.00000
     29     -13.5951      2.00000
     30     -13.5951      2.00000
     31     -13.5085      2.00000
     32     -13.5085      2.00000
     33     -13.3857      2.00000
     34     -13.3857      2.00000
     35     -13.3473      2.00000
     36     -13.3473      2.00000
     37      -7.1367      2.00000
     38      -7.1367      2.00000
     39      -6.8785      2.00000
     40      -6.8785      2.00000
     41      -6.5679      2.00000
     42      -6.5679      2.00000
     43      -6.5368      2.00000
     44      -6.5368      2.00000
     45      -6.5192      2.00000
     46      -6.5192      2.00000
     47      -6.5148      2.00000
     48      -6.5148      2.00000
     49      -6.4814      2.00000
     50      -6.4814      2.00000
     51      -6.4551      2.00000
     52      -6.4551      2.00000
     53      -2.7198      2.00000
     54      -2.7198      2.00000
     55      -2.3683      2.00000
     56      -2.3683      2.00000
     57      -2.0964      2.00000
     58      -2.0964      2.00000
     59      -1.9954      2.00000
     60      -1.9954      2.00000
     61      -1.8005      2.00000
     62      -1.8005      2.00000
     63      -1.6185      2.00000
     64      -1.6185      2.00000
     65      -1.3351      2.00000
     66      -1.3351      2.00000
     67      -1.2675      2.00000
     68      -1.2675      2.00000
     69      -1.0892      2.00000
     70      -1.0892      2.00000
     71      -0.9600      2.00000
     72      -0.9600      2.00000
     73      -0.9221      2.00000
     74      -0.9221      2.00000
     75      -0.7876      2.00000
     76      -0.7876      2.00000
     77      -0.6912      2.00000
     78      -0.6912      2.00000
     79      -0.6372      2.00000
     80      -0.6372      2.00000
     81      -0.6104      2.00000
     82      -0.6104      2.00000
     83      -0.5657      2.00000
     84      -0.5657      2.00000
     85      -0.2247      2.00000
     86      -0.2247      2.00000
     87       0.0159      2.00000
     88       0.0159      2.00000
     89       3.9163      0.00000
     90       3.9163      0.00000
     91       4.6622      0.00000
     92       4.6622      0.00000
     93       5.0958      0.00000
     94       5.0958      0.00000
     95       5.2005      0.00000
     96       5.2005      0.00000
     97       5.7306      0.00000
     98       5.7306      0.00000
     99       6.3369      0.00000
    100       6.3369      0.00000
    101       6.9894      0.00000
    102       6.9894      0.00000
    103       7.1075      0.00000
    104       7.1075      0.00000
    105       7.2926      0.00000
    106       7.2926      0.00000
    107       7.4393      0.00000
    108       7.4393      0.00000
    109       7.4979      0.00000
    110       7.4979      0.00000
    111       7.7616      0.00000
    112       7.7616      0.00000


--------------------------------------------------------------------------------------------------------


 soft charge-density along one line, spin component           1
         0         1         2         3         4         5         6         7         8         9
 total charge-density along one line

 pseudopotential strength for first ion, spin component:           1
 17.640  -4.617   0.000  -0.002   0.000  -0.000   0.002  -0.000
 -4.617   1.217  -0.000   0.000  -0.000   0.000  -0.000   0.000
  0.000  -0.000   2.128  -0.000   0.000  -2.516   0.000  -0.000
 -0.002   0.000  -0.000   2.129  -0.001   0.000  -2.518   0.001
  0.000  -0.000   0.000  -0.001   2.129  -0.000   0.001  -2.517
 -0.000   0.000  -2.516   0.000  -0.000   2.934  -0.000   0.000
  0.002  -0.000   0.000  -2.518   0.001  -0.000   2.936  -0.001
 -0.000   0.000  -0.000   0.001  -2.517   0.000  -0.001   2.934
  0.000  -0.000   0.001  -0.000  -0.000  -0.001   0.000   0.000
 -0.000   0.000  -0.000  -0.000  -0.000   0.001   0.000   0.000
  0.001  -0.000  -0.000  -0.002  -0.000   0.000   0.002   0.000
 -0.001   0.000  -0.000  -0.000  -0.000   0.000   0.000   0.001
  0.000  -0.000  -0.000   0.000  -0.001   0.000   0.000   0.001
 total augmentation occupancy for first ion, spin component:           1
  1.917  -0.131   0.000  -0.000   0.000   0.000  -0.001  -0.000   0.000   0.000   0.001  -0.001   0.000
 -0.131   0.152   0.000  -0.006   0.001   0.000   0.002   0.001   0.000   0.000  -0.004   0.004   0.001
  0.000   0.000   2.019   0.000   0.000   0.006   0.000   0.000   0.003  -0.001   0.000   0.000  -0.000
 -0.000  -0.006   0.000   2.023  -0.001   0.000   0.009  -0.001  -0.000   0.000  -0.005  -0.000   0.000
  0.000   0.001   0.000  -0.001   2.021   0.000  -0.001   0.007   0.000   0.000  -0.001  -0.000  -0.002
  0.000   0.000   0.006   0.000   0.000   0.012   0.000   0.000  -0.002  -0.002   0.000   0.000   0.000
 -0.001   0.002   0.000   0.009  -0.001   0.000   0.010   0.001   0.000  -0.000   0.003  -0.000   0.000
 -0.000   0.001   0.000  -0.001   0.007   0.000   0.001   0.012   0.000   0.000  -0.001  -0.001   0.003
  0.000   0.000   0.003  -0.000   0.000  -0.002   0.000   0.000   0.009   0.002   0.000   0.000   0.000
  0.000   0.000  -0.001   0.000   0.000  -0.002  -0.000   0.000   0.002   0.006   0.000  -0.000   0.000
  0.001  -0.004   0.000  -0.005  -0.001   0.000   0.003  -0.001   0.000   0.000   0.008  -0.003  -0.001
 -0.001   0.004   0.000  -0.000  -0.000   0.000  -0.000  -0.001   0.000  -0.000  -0.003   0.005   0.001
  0.000   0.001  -0.000   0.000  -0.002   0.000   0.000   0.003   0.000   0.000  -0.001   0.001   0.007


------------------------ aborting loop because EDIFF is reached ----------------------------------------





 total charge     

# of ion       s       p       d       tot
------------------------------------------
    1        1.790   4.720   0.027   6.537
    2        1.790   4.720   0.027   6.537
    3        1.790   4.720   0.027   6.537
    4        1.790   4.720   0.027   6.537
    5        1.556   0.441   9.837  11.834
    6        1.556   0.440   9.837  11.834
    7        1.556   0.440   9.837  11.834
    8        1.556   0.441   9.837  11.834
    9        1.615   3.295   0.008   4.918
   10        1.615   3.295   0.008   4.918
   11        1.615   3.295   0.008   4.918
   12        1.615   3.295   0.008   4.918
   13        1.617   3.282   0.008   4.907
   14        1.615   3.302   0.007   4.924
   15        1.615   3.302   0.007   4.924
   16        1.617   3.282   0.008   4.907
   17        1.617   3.282   0.008   4.907
   18        1.615   3.302   0.007   4.924
   19        1.617   3.282   0.008   4.907
   20        1.615   3.302   0.007   4.924
--------------------------------------------------
tot         32.769  60.163  39.546 132.478

    CHARGE:  cpu time    0.1245: real time    0.1245
    FORLOC:  cpu time    0.0028: real time    0.0028
    FORNL :  cpu time    0.5189: real time    0.5189
    STRESS:  cpu time   12.0298: real time   12.0303
    FORCOR:  cpu time    0.0937: real time    0.0937
    FORHAR:  cpu time    0.0097: real time    0.0097
    MIXING:  cpu time    0.0009: real time    0.0009
    OFIELD:  cpu time    0.0000: real time    0.0000

  FORCE on cell =-STRESS in cart. coord.  units (eV):
  Direction    XX          YY          ZZ          XY          YZ          ZX
  --------------------------------------------------------------------------------------
  Alpha Z   489.37070   489.37070   489.37070
  Ewald   -3107.68114 -3106.49208 -3342.05893    -0.00000     0.00000     0.00000
  Hartree  1216.60074  1180.13780  1071.93309    -0.00000    -0.00000    -0.00000
  E(xc)    -740.38822  -740.41195  -740.47870    -0.00000    -0.00000    -0.02079
  Local   -1418.41150 -1381.65171 -1043.19391    -0.00000    -0.00000     0.00000
  n-local   904.74280   904.49307   903.10726     0.00000    -0.00000    -0.11045
  augment   406.56060   405.55915   405.33245     0.00000    -0.00003    -0.00002
  Kinetic  2255.85652  2255.94850  2262.71232     0.00000    -0.00001    -1.30300
  Fock        0.00000     0.00000     0.00000     0.00000     0.00000     0.00000
  -------------------------------------------------------------------------------------
  Total       6.65050     6.95348     6.72429     0.00000     0.00000    -0.00000
  in kB      14.45193    15.11031    14.61226     0.00000     0.00000    -0.00000
  external pressure =       14.72 kB  Pullay stress =        0.00 kB


 VOLUME and BASIS-vectors are now :
 -----------------------------------------------------------------------------
  energy-cutoff  :      300.00
  volume of cell :      737.29
      direct lattice vectors                 reciprocal lattice vectors
     8.456589367  0.000000000 -0.000000000     0.118250982  0.000000000  0.000000000
     0.000000000 11.636408514  0.000000000    -0.000000000  0.085937169  0.000000000
     0.000000000  0.000000000  7.492471750     0.000000000 -0.000000000  0.133467303

  length of vectors
     8.456589367 11.636408514  7.492471750     0.118250982  0.085937169  0.133467303


 FORCES acting on ions
    electron-ion (+dipol)            ewald-force                    non-local-force                 convergence-correction
 -----------------------------------------------------------------------------------------------
   0.267E+02 0.206E-12 -.207E+02   -.267E+02 -.355E-13 0.209E+02   -.107E-01 0.000E+00 -.171E+00   0.561E-05 0.137E-12 -.427E-04
   -.267E+02 0.923E-12 -.207E+02   0.267E+02 0.355E-14 0.209E+02   0.107E-01 0.000E+00 -.171E+00   -.561E-05 -.729E-13 -.427E-04
   0.267E+02 0.177E-11 0.207E+02   -.267E+02 -.142E-13 -.209E+02   -.107E-01 0.000E+00 0.171E+00   0.561E-05 0.118E-12 0.427E-04
   -.267E+02 -.368E-12 0.207E+02   0.267E+02 -.355E-13 -.209E+02   0.107E-01 0.000E+00 0.171E+00   -.561E-05 -.108E-12 0.427E-04
   -.518E-10 0.484E-11 -.231E-10   0.275E-13 0.195E-13 0.266E-14   0.000E+00 0.000E+00 0.790E-23   -.657E-13 -.903E-13 -.765E-13
   -.479E-10 0.292E-11 -.292E-10   0.897E-13 -.711E-14 0.444E-15   0.000E+00 0.000E+00 0.383E-23   -.835E-13 -.657E-13 -.842E-13
   -.470E-10 -.542E-11 -.270E-10   0.284E-13 -.178E-13 0.284E-13   0.000E+00 0.000E+00 -.443E-23   -.488E-13 0.543E-13 -.835E-13
   -.519E-10 -.389E-11 -.231E-10   -.142E-13 -.675E-13 -.426E-13   0.000E+00 0.000E+00 -.132E-23   -.667E-13 0.493E-13 -.120E-12
   0.123E+02 -.113E-11 0.427E+02   -.125E+02 -.178E-13 -.430E+02   0.175E+00 -.106E-21 0.284E+00   0.297E-05 -.112E-12 0.405E-04
   -.123E+02 0.296E-12 0.427E+02   0.125E+02 0.462E-13 -.430E+02   -.175E+00 -.529E-22 0.284E+00   -.297E-05 0.499E-13 0.405E-04
   0.123E+02 0.125E-11 -.427E+02   -.125E+02 0.213E-13 0.430E+02   0.175E+00 0.529E-22 -.284E+00   0.297E-05 -.104E-12 -.405E-04
   -.123E+02 -.111E-11 -.427E+02   0.125E+02 0.711E-14 0.430E+02   -.175E+00 0.106E-21 -.284E+00   -.297E-05 0.539E-13 -.405E-04
   -.254E+02 0.188E+02 0.352E+02   0.257E+02 -.190E+02 -.356E+02   -.269E+00 0.188E+00 0.375E+00   0.902E-05 -.220E-04 -.187E-05
   0.254E+02 -.188E+02 0.352E+02   -.257E+02 0.190E+02 -.356E+02   0.269E+00 -.188E+00 0.375E+00   -.902E-05 0.220E-04 -.187E-05
   -.254E+02 -.188E+02 -.352E+02   0.257E+02 0.190E+02 0.356E+02   -.269E+00 -.188E+00 -.375E+00   0.902E-05 0.220E-04 0.187E-05
   0.254E+02 0.188E+02 -.352E+02   -.257E+02 -.190E+02 0.356E+02   0.269E+00 0.188E+00 -.375E+00   -.902E-05 -.220E-04 0.187E-05
   -.254E+02 -.188E+02 0.352E+02   0.257E+02 0.190E+02 -.356E+02   -.269E+00 -.188E+00 0.375E+00   0.902E-05 0.220E-04 -.187E-05
   0.254E+02 0.188E+02 0.352E+02   -.257E+02 -.190E+02 -.356E+02   0.269E+00 0.188E+00 0.375E+00   -.902E-05 -.220E-04 -.187E-05
   0.254E+02 -.188E+02 -.352E+02   -.257E+02 0.190E+02 0.356E+02   0.269E+00 -.188E+00 -.375E+00   -.902E-05 0.220E-04 0.187E-05
   -.254E+02 0.188E+02 -.352E+02   0.257E+02 -.190E+02 0.356E+02   -.269E+00 0.188E+00 -.375E+00   0.902E-05 -.220E-04 0.187E-05
 -----------------------------------------------------------------------------------------------
   -.667E-09 0.141E-11 -.389E-09   -.497E-13 0.711E-14 -.142E-13   0.167E-15 0.000E+00 0.000E+00   -.315E-12 -.172E-12 -.343E-12


 POSITION                                       TOTAL-FORCE (eV/Angst)
 -----------------------------------------------------------------------------------
      0.75985      2.90910      3.44965        -0.007731      0.000000     -0.004640
      3.46845      8.72731      7.19588         0.007731      0.000000     -0.004640
      4.98814      2.90910      0.29659        -0.007731      0.000000      0.004640
      7.69674      8.72731      4.04283         0.007731     -0.000000      0.004640
      0.00000      0.00000      0.00000         0.000000      0.000000      0.000000
      4.22829      0.00000      3.74624         0.000000      0.000000      0.000000
      4.22829      5.81820      3.74624         0.000000      0.000000      0.000000
      0.00000      5.81820      0.00000         0.000000      0.000000      0.000000
      4.22103      8.72731      3.21372        -0.002696      0.000000     -0.016798
      0.00727      2.90910      6.95995         0.002696      0.000000     -0.016798
      8.44932      8.72731      0.53252        -0.002696      0.000000      0.016798
      4.23556      2.90910      4.27875         0.002696     -0.000000      0.016798
      2.64914      5.38372      1.27495        -0.007936      0.008674      0.000396
      1.57915      6.25269      5.02119         0.007936     -0.008674      0.000396
      6.87744      0.43448      2.47128        -0.007936     -0.008674     -0.000396
      5.80745     11.20192      6.21752         0.007936      0.008674     -0.000396
      2.64914      0.43448      1.27495        -0.007936     -0.008674      0.000396
      1.57915     11.20192      5.02119         0.007936      0.008674      0.000396
      5.80745      6.25269      6.21752         0.007936     -0.008674     -0.000396
      6.87744      5.38372      2.47128        -0.007936      0.008674     -0.000396
 -----------------------------------------------------------------------------------
    total drift:                               -0.000000      0.000000     -0.000000


--------------------------------------------------------------------------------------------------------



  FREE ENERGIE OF THE ION-ELECTRON SYSTEM (eV)
  ---------------------------------------------------
  free  energy   TOTEN  =      -714.60552067 eV

  energy  without entropy=     -714.60552067  energy(sigma->0) =     -714.60552067



--------------------------------------------------------------------------------------------------------


    POTLOK:  cpu time    1.2442: real time    1.2443


--------------------------------------------------------------------------------------------------------


 stress matrix after NEB project (eV)
      6.65050      0.00000     -0.00000
      0.00000      6.95348      0.00000
      0.00000      0.00000      6.72429
  FORCES: max atom, RMS     0.017013    0.011380
  FORCE total and by dimension    0.050892    0.016798
  Stress total and by dimension   11.738659    6.953479
     LOOP+:  cpu time  118.3229: real time  119.0038
    4ORBIT:  cpu time    0.0000: real time    0.0000



 total charge     

# of ion       s       p       d       tot
------------------------------------------
    1        1.790   4.720   0.027   6.537
    2        1.790   4.720   0.027   6.537
    3        1.790   4.720   0.027   6.537
    4        1.790   4.720   0.027   6.537
    5        1.556   0.441   9.837  11.834
    6        1.556   0.440   9.837  11.834
    7        1.556   0.440   9.837  11.834
    8        1.556   0.441   9.837  11.834
    9        1.615   3.295   0.008   4.918
   10        1.615   3.295   0.008   4.918
   11        1.615   3.295   0.008   4.918
   12        1.615   3.295   0.008   4.918
   13        1.617   3.282   0.008   4.907
   14        1.615   3.302   0.007   4.924
   15        1.615   3.302   0.007   4.924
   16        1.617   3.282   0.008   4.907
   17        1.617   3.282   0.008   4.907
   18        1.615   3.302   0.007   4.924
   19        1.617   3.282   0.008   4.907
   20        1.615   3.302   0.007   4.924
--------------------------------------------------
tot         32.769  60.163  39.546 132.478


 total amount of memory used by VASP MPI-rank0    41143. kBytes
=======================================================================

   base      :      30000. kBytes
   nonlr-proj:       2819. kBytes
   fftplans  :       3213. kBytes
   grid      :       3001. kBytes
   one-center:         46. kBytes
   wavefun   :       2064. kBytes

  
  
 General timing and accounting informations for this job:
 ========================================================
  
                  Total CPU time used (sec):      127.372
                            User time (sec):      126.360
                          System time (sec):        1.012
                         Elapsed time (sec):      128.291
  
                   Maximum memory used (kb):       72256.
                   Average memory used (kb):           0.
  
                          Minor page faults:        17422
                          Major page faults:            1
                 Voluntary context switches:         1699
