 running on   64 total cores
 distrk:  each k-point on   64 cores,    1 groups
 distr:  one band on    8 cores,    8 groups
 using from now: INCAR     
 vasp.5.4.4.18Apr17-6-g9f103f2a35 (build Jun 22 2020 09:27:21) complex           
 POSCAR found type information on POSCAR  Cs Pb Br
 POSCAR found :  3 types and      20 ions
 scaLAPACK will be used
 LDA part: xc-table for Pade appr. of Perdew
 POSCAR found type information on POSCAR  Cs Pb Br
 POSCAR found :  3 types and      20 ions
 POSCAR, INCAR and KPOINTS ok, starting setup
 FFT: planning ...
 WAVECAR not read
 WARNING: random wavefunctions but no delay for mixing, default for NELMDL
 entering main loop
       N       E                     dE             d eps       ncg     rms          rms(c)
DAV:   1     0.678677877524E+03    0.67868E+03   -0.56606E+04  1824   0.937E+02
DAV:   2    -0.573221339413E+03   -0.12519E+04   -0.11912E+04  2168   0.291E+02
DAV:   3    -0.748128163791E+03   -0.17491E+03   -0.17361E+03  2408   0.129E+02
DAV:   4    -0.754131729011E+03   -0.60036E+01   -0.59823E+01  2144   0.308E+01
DAV:   5    -0.754440543213E+03   -0.30881E+00   -0.30866E+00  2376   0.558E+00    0.759E+00
DAV:   6    -0.714720152705E+03    0.39720E+02   -0.11838E+01  2408   0.283E+01    0.538E+00
DAV:   7    -0.714491354926E+03    0.22880E+00   -0.37105E+00  2248   0.498E+00    0.262E+00
DAV:   8    -0.714574029627E+03   -0.82675E-01   -0.18671E-01  2168   0.175E+00    0.148E+00
DAV:   9    -0.714603881950E+03   -0.29852E-01   -0.61367E-02  2000   0.108E+00    0.303E-01
DAV:  10    -0.714604482015E+03   -0.60006E-03   -0.41776E-03  2536   0.315E-01    0.170E-01
DAV:  11    -0.714605471361E+03   -0.98935E-03   -0.13220E-03  1992   0.144E-01    0.575E-02
DAV:  12    -0.714605523558E+03   -0.52196E-04   -0.35101E-04  2336   0.779E-02    0.220E-02
DAV:  13    -0.714605499707E+03    0.23850E-04   -0.45129E-05  2200   0.257E-02    0.823E-03
DAV:  14    -0.714605521387E+03   -0.21679E-04   -0.32989E-06  1776   0.647E-03    0.206E-03
DAV:  15    -0.714605524844E+03   -0.34572E-05   -0.40556E-07  1224   0.300E-03    0.115E-03
DAV:  16    -0.714605522255E+03    0.25890E-05   -0.11202E-07  1136   0.160E-03    0.611E-04
DAV:  17    -0.714605520511E+03    0.17436E-05   -0.43511E-08  1088   0.108E-03    0.477E-04
DAV:  18    -0.714605520672E+03   -0.16089E-06   -0.18324E-08  1088   0.733E-04
   1 F= -.71460552E+03 E0= -.71460552E+03  d E =-.762933E-12
Application 1865598 resources: utime ~8118s, stime ~71s, Rss ~72256, inblocks ~1438, outblocks ~111944
