CsPbBr3 cubic bulk                      
           1
     8.456589    0.000000   -0.000000
     0.000000   11.636409    0.000000
     0.000000    0.000000    7.492472
   Cs   Pb   Br
   4   4  12
Direct configuration=     1
   0.08985253  0.25000000  0.46041492
   0.41014747  0.75000000  0.96041492
   0.58985253  0.25000000  0.03958508
   0.91014747  0.75000000  0.53958508
   0.00000000  0.00000000  0.00000000
   0.50000000  0.00000000  0.50000000
   0.50000000  0.50000000  0.50000000
   0.00000000  0.50000000  0.00000000
   0.49914060  0.75000000  0.42892614
   0.00085940  0.25000000  0.92892614
   0.99914060  0.75000000  0.07107386
   0.50085940  0.25000000  0.57107386
   0.31326359  0.46266163  0.17016442
   0.18673641  0.53733837  0.67016442
   0.81326359  0.03733837  0.32983558
   0.68673641  0.96266163  0.82983558
   0.31326359  0.03733837  0.17016442
   0.18673641  0.96266163  0.67016442
   0.68673641  0.53733837  0.82983558
   0.81326359  0.46266163  0.32983558
