  20  20   1   0
  0.4062899E+02  0.8672618E-09  0.1211672E-08  0.7732692E-09  0.5000000E-15
   1.0000000000000000E-004
  CAR 
 CsPbBr3 cubic bulk                      
      8.57289844    -22.25826725  301      0.36410058      1.00000000
    -22.258  0.0000E+00  0.0000E+00
    -22.155  0.0000E+00  0.0000E+00
    -22.053  0.0000E+00  0.0000E+00
    -21.950  0.0000E+00  0.0000E+00
    -21.847  0.0000E+00  0.0000E+00
    -21.744  0.0000E+00  0.0000E+00
    -21.642  0.0000E+00  0.0000E+00
    -21.539  0.0000E+00  0.0000E+00
    -21.436  0.0000E+00  0.0000E+00
    -21.333  0.0000E+00  0.0000E+00
    -21.231  0.0000E+00  0.0000E+00
    -21.128  0.0000E+00  0.0000E+00
    -21.025  0.0000E+00  0.0000E+00
    -20.922  0.0000E+00  0.0000E+00
    -20.819  0.7784E+02  0.8000E+01
    -20.717  0.0000E+00  0.8000E+01
    -20.614  0.0000E+00  0.8000E+01
    -20.511  0.0000E+00  0.8000E+01
    -20.408  0.0000E+00  0.8000E+01
    -20.306  0.0000E+00  0.8000E+01
    -20.203  0.0000E+00  0.8000E+01
    -20.100  0.0000E+00  0.8000E+01
    -19.997  0.0000E+00  0.8000E+01
    -19.895  0.0000E+00  0.8000E+01
    -19.792  0.0000E+00  0.8000E+01
    -19.689  0.0000E+00  0.8000E+01
    -19.586  0.0000E+00  0.8000E+01
    -19.483  0.0000E+00  0.8000E+01
    -19.381  0.0000E+00  0.8000E+01
    -19.278  0.0000E+00  0.8000E+01
    -19.175  0.0000E+00  0.8000E+01
    -19.072  0.0000E+00  0.8000E+01
    -18.970  0.0000E+00  0.8000E+01
    -18.867  0.0000E+00  0.8000E+01
    -18.764  0.0000E+00  0.8000E+01
    -18.661  0.0000E+00  0.8000E+01
    -18.559  0.0000E+00  0.8000E+01
    -18.456  0.0000E+00  0.8000E+01
    -18.353  0.0000E+00  0.8000E+01
    -18.250  0.0000E+00  0.8000E+01
    -18.147  0.0000E+00  0.8000E+01
    -18.045  0.0000E+00  0.8000E+01
    -17.942  0.0000E+00  0.8000E+01
    -17.839  0.0000E+00  0.8000E+01
    -17.736  0.0000E+00  0.8000E+01
    -17.634  0.0000E+00  0.8000E+01
    -17.531  0.0000E+00  0.8000E+01
    -17.428  0.0000E+00  0.8000E+01
    -17.325  0.0000E+00  0.8000E+01
    -17.223  0.0000E+00  0.8000E+01
    -17.120  0.0000E+00  0.8000E+01
    -17.017  0.0000E+00  0.8000E+01
    -16.914  0.0000E+00  0.8000E+01
    -16.811  0.0000E+00  0.8000E+01
    -16.709  0.0000E+00  0.8000E+01
    -16.606  0.2855E-01  0.8003E+01
    -16.503  0.1443E+03  0.2383E+02
    -16.400  0.2335E+03  0.4800E+02
    -16.298  0.0000E+00  0.4800E+02
    -16.195  0.0000E+00  0.4800E+02
    -16.092  0.0000E+00  0.4800E+02
    -15.989  0.0000E+00  0.4800E+02
    -15.886  0.0000E+00  0.4800E+02
    -15.784  0.0000E+00  0.4800E+02
    -15.681  0.0000E+00  0.4800E+02
    -15.578  0.0000E+00  0.4800E+02
    -15.475  0.0000E+00  0.4800E+02
    -15.373  0.0000E+00  0.4800E+02
    -15.270  0.0000E+00  0.4800E+02
    -15.167  0.0000E+00  0.4800E+02
    -15.064  0.0000E+00  0.4800E+02
    -14.962  0.0000E+00  0.4800E+02
    -14.859  0.0000E+00  0.4800E+02
    -14.756  0.0000E+00  0.4800E+02
    -14.653  0.0000E+00  0.4800E+02
    -14.550  0.0000E+00  0.4800E+02
    -14.448  0.0000E+00  0.4800E+02
    -14.345  0.7406E+00  0.4808E+02
    -14.242  0.1763E+02  0.4992E+02
    -14.139  0.2685E+02  0.5287E+02
    -14.037  0.2605E+02  0.5734E+02
    -13.934  0.4629E+02  0.6409E+02
    -13.831  0.5242E+02  0.6994E+02
    -13.728  0.9730E+01  0.7200E+02
    -13.626  0.0000E+00  0.7200E+02
    -13.523  0.0000E+00  0.7200E+02
    -13.420  0.0000E+00  0.7200E+02
    -13.317  0.0000E+00  0.7200E+02
    -13.214  0.0000E+00  0.7200E+02
    -13.112  0.0000E+00  0.7200E+02
    -13.009  0.0000E+00  0.7200E+02
    -12.906  0.0000E+00  0.7200E+02
    -12.803  0.0000E+00  0.7200E+02
    -12.701  0.0000E+00  0.7200E+02
    -12.598  0.0000E+00  0.7200E+02
    -12.495  0.0000E+00  0.7200E+02
    -12.392  0.0000E+00  0.7200E+02
    -12.290  0.0000E+00  0.7200E+02
    -12.187  0.0000E+00  0.7200E+02
    -12.084  0.0000E+00  0.7200E+02
    -11.981  0.0000E+00  0.7200E+02
    -11.878  0.0000E+00  0.7200E+02
    -11.776  0.0000E+00  0.7200E+02
    -11.673  0.0000E+00  0.7200E+02
    -11.570  0.0000E+00  0.7200E+02
    -11.467  0.0000E+00  0.7200E+02
    -11.365  0.0000E+00  0.7200E+02
    -11.262  0.0000E+00  0.7200E+02
    -11.159  0.0000E+00  0.7200E+02
    -11.056  0.0000E+00  0.7200E+02
    -10.954  0.0000E+00  0.7200E+02
    -10.851  0.0000E+00  0.7200E+02
    -10.748  0.0000E+00  0.7200E+02
    -10.645  0.0000E+00  0.7200E+02
    -10.542  0.0000E+00  0.7200E+02
    -10.440  0.0000E+00  0.7200E+02
    -10.337  0.0000E+00  0.7200E+02
    -10.234  0.0000E+00  0.7200E+02
    -10.131  0.0000E+00  0.7200E+02
    -10.029  0.0000E+00  0.7200E+02
     -9.926  0.0000E+00  0.7200E+02
     -9.823  0.0000E+00  0.7200E+02
     -9.720  0.0000E+00  0.7200E+02
     -9.617  0.0000E+00  0.7200E+02
     -9.515  0.0000E+00  0.7200E+02
     -9.412  0.0000E+00  0.7200E+02
     -9.309  0.0000E+00  0.7200E+02
     -9.206  0.0000E+00  0.7200E+02
     -9.104  0.0000E+00  0.7200E+02
     -9.001  0.0000E+00  0.7200E+02
     -8.898  0.0000E+00  0.7200E+02
     -8.795  0.0000E+00  0.7200E+02
     -8.693  0.0000E+00  0.7200E+02
     -8.590  0.0000E+00  0.7200E+02
     -8.487  0.0000E+00  0.7200E+02
     -8.384  0.0000E+00  0.7200E+02
     -8.281  0.0000E+00  0.7200E+02
     -8.179  0.1076E+01  0.7211E+02
     -8.076  0.0000E+00  0.7211E+02
     -7.973  0.6432E+01  0.7277E+02
     -7.870  0.7165E+00  0.7285E+02
     -7.768  0.9514E+01  0.7420E+02
     -7.665  0.2932E+01  0.7452E+02
     -7.562  0.6676E+01  0.7580E+02
     -7.459  0.4325E+01  0.7644E+02
     -7.357  0.1300E+02  0.7778E+02
     -7.254  0.8215E+02  0.8666E+02
     -7.151  0.6811E+02  0.1028E+03
     -7.048  0.4325E+01  0.1032E+03
     -6.945  0.6487E+01  0.1039E+03
     -6.843  0.0000E+00  0.1039E+03
     -6.740  0.5641E-12  0.1039E+03
     -6.637  0.1081E+01  0.1040E+03
     -6.534  0.0000E+00  0.1040E+03
     -6.432  0.0000E+00  0.1040E+03
     -6.329  0.0000E+00  0.1040E+03
     -6.226  0.0000E+00  0.1040E+03
     -6.123  0.0000E+00  0.1040E+03
     -6.021  0.0000E+00  0.1040E+03
     -5.918  0.0000E+00  0.1040E+03
     -5.815  0.0000E+00  0.1040E+03
     -5.712  0.0000E+00  0.1040E+03
     -5.609  0.0000E+00  0.1040E+03
     -5.507  0.0000E+00  0.1040E+03
     -5.404  0.0000E+00  0.1040E+03
     -5.301  0.0000E+00  0.1040E+03
     -5.198  0.0000E+00  0.1040E+03
     -5.096  0.0000E+00  0.1040E+03
     -4.993  0.0000E+00  0.1040E+03
     -4.890  0.0000E+00  0.1040E+03
     -4.787  0.0000E+00  0.1040E+03
     -4.685  0.0000E+00  0.1040E+03
     -4.582  0.0000E+00  0.1040E+03
     -4.479  0.0000E+00  0.1040E+03
     -4.376  0.0000E+00  0.1040E+03
     -4.273  0.0000E+00  0.1040E+03
     -4.171  0.0000E+00  0.1040E+03
     -4.068  0.0000E+00  0.1040E+03
     -3.965  0.0000E+00  0.1040E+03
     -3.862  0.0000E+00  0.1040E+03
     -3.760  0.0000E+00  0.1040E+03
     -3.657  0.0000E+00  0.1040E+03
     -3.554  0.0000E+00  0.1040E+03
     -3.451  0.0000E+00  0.1040E+03
     -3.348  0.1053E+01  0.1041E+03
     -3.246  0.3243E+01  0.1044E+03
     -3.143  0.2994E+02  0.1075E+03
     -3.040  0.6487E+01  0.1083E+03
     -2.937  0.1291E+02  0.1097E+03
     -2.835  0.9134E+01  0.1107E+03
     -2.732  0.1510E+02  0.1131E+03
     -2.629  0.6512E+01  0.1138E+03
     -2.526  0.1004E-04  0.1140E+03
     -2.424  0.1475E+02  0.1155E+03
     -2.321  0.1031E+02  0.1179E+03
     -2.218  0.1070E+02  0.1193E+03
     -2.115  0.2062E+02  0.1219E+03
     -2.012  0.2724E+02  0.1249E+03
     -1.910  0.4325E+01  0.1268E+03
     -1.807  0.8628E+01  0.1277E+03
     -1.704  0.3998E+02  0.1324E+03
     -1.601  0.1027E+02  0.1347E+03
     -1.499  0.3998E+02  0.1394E+03
     -1.396  0.4254E+02  0.1455E+03
     -1.293  0.5257E+02  0.1527E+03
     -1.190  0.4137E+02  0.1581E+03
     -1.088  0.4673E+02  0.1654E+03
     -0.985  0.1535E+02  0.1679E+03
     -0.882  0.1516E+02  0.1696E+03
     -0.779  0.1010E+02  0.1710E+03
     -0.676  0.1075E+02  0.1723E+03
     -0.574  0.5664E+01  0.1741E+03
     -0.471  0.4325E+01  0.1747E+03
     -0.368  0.9459E-13  0.1747E+03
     -0.265  0.5426E+01  0.1752E+03
     -0.163  0.2191E+01  0.1757E+03
     -0.060  0.0000E+00  0.1759E+03
      0.043  0.0000E+00  0.1759E+03
      0.146  0.0000E+00  0.1759E+03
      0.248  0.1027E+01  0.1760E+03
      0.351  0.0000E+00  0.1760E+03
      0.454  0.0000E+00  0.1760E+03
      0.557  0.0000E+00  0.1760E+03
      0.660  0.0000E+00  0.1760E+03
      0.762  0.0000E+00  0.1760E+03
      0.865  0.0000E+00  0.1760E+03
      0.968  0.0000E+00  0.1760E+03
      1.071  0.0000E+00  0.1760E+03
      1.173  0.0000E+00  0.1760E+03
      1.276  0.0000E+00  0.1760E+03
      1.379  0.0000E+00  0.1760E+03
      1.482  0.0000E+00  0.1760E+03
      1.585  0.0000E+00  0.1760E+03
      1.687  0.0000E+00  0.1760E+03
      1.790  0.0000E+00  0.1760E+03
      1.893  0.0000E+00  0.1760E+03
      1.996  0.0000E+00  0.1760E+03
      2.098  0.0000E+00  0.1760E+03
      2.201  0.0000E+00  0.1760E+03
      2.304  0.0000E+00  0.1760E+03
      2.407  0.0000E+00  0.1760E+03
      2.509  0.4457E+00  0.1760E+03
      2.612  0.1081E+01  0.1762E+03
      2.715  0.4325E+01  0.1767E+03
      2.818  0.6487E+01  0.1773E+03
      2.921  0.2370E+01  0.1776E+03
      3.023  0.8480E+01  0.1786E+03
      3.126  0.2148E-03  0.1789E+03
      3.229  0.1188E+02  0.1801E+03
      3.332  0.2170E+01  0.1803E+03
      3.434  0.1885E+01  0.1811E+03
      3.537  0.2472E-10  0.1816E+03
      3.640  0.5438E+01  0.1821E+03
      3.743  0.2162E+01  0.1824E+03
      3.845  0.1283E+02  0.1838E+03
      3.948  0.9800E+01  0.1848E+03
      4.051  0.4325E+01  0.1856E+03
      4.154  0.1480E+02  0.1871E+03
      4.257  0.4982E-07  0.1880E+03
      4.359  0.8649E+01  0.1889E+03
      4.462  0.8649E+01  0.1898E+03
      4.565  0.1275E+01  0.1899E+03
      4.668  0.2298E-07  0.1900E+03
      4.770  0.7635E+01  0.1908E+03
      4.873  0.4657E+01  0.1914E+03
      4.976  0.1295E+02  0.1928E+03
      5.079  0.4339E+01  0.1932E+03
      5.181  0.6450E+01  0.1941E+03
      5.284  0.9542E+01  0.1953E+03
      5.387  0.4495E+01  0.1958E+03
      5.490  0.4438E+01  0.1965E+03
      5.593  0.9389E+00  0.1968E+03
      5.695  0.1092E+02  0.1981E+03
      5.798  0.1080E+02  0.1997E+03
      5.901  0.7060E+01  0.2006E+03
      6.004  0.6487E+01  0.2019E+03
      6.106  0.7562E+01  0.2027E+03
      6.209  0.1153E+02  0.2039E+03
      6.312  0.1069E+02  0.2058E+03
      6.415  0.1081E+02  0.2084E+03
      6.517  0.1500E+02  0.2100E+03
      6.620  0.2409E+02  0.2128E+03
      6.723  0.2086E+02  0.2158E+03
      6.826  0.2175E+02  0.2182E+03
      6.929  0.1063E+02  0.2195E+03
      7.031  0.2131E+02  0.2222E+03
      7.134  0.1248E+02  0.2235E+03
      7.237  0.2162E+01  0.2240E+03
      7.340  0.0000E+00  0.2240E+03
      7.442  0.0000E+00  0.2240E+03
      7.545  0.0000E+00  0.2240E+03
      7.648  0.0000E+00  0.2240E+03
      7.751  0.0000E+00  0.2240E+03
      7.854  0.0000E+00  0.2240E+03
      7.956  0.0000E+00  0.2240E+03
      8.059  0.0000E+00  0.2240E+03
      8.162  0.0000E+00  0.2240E+03
      8.265  0.0000E+00  0.2240E+03
      8.367  0.0000E+00  0.2240E+03
      8.470  0.0000E+00  0.2240E+03
      8.573  0.0000E+00  0.2240E+03
      8.57289844    -22.25826725  301      0.36410058      1.00000000
    -22.258  0.0000E+00  0.0000E+00  0.0000E+00
    -22.155  0.0000E+00  0.0000E+00  0.0000E+00
    -22.053  0.0000E+00  0.0000E+00  0.0000E+00
    -21.950  0.0000E+00  0.0000E+00  0.0000E+00
    -21.847  0.0000E+00  0.0000E+00  0.0000E+00
    -21.744  0.0000E+00  0.0000E+00  0.0000E+00
    -21.642  0.0000E+00  0.0000E+00  0.0000E+00
    -21.539  0.0000E+00  0.0000E+00  0.0000E+00
    -21.436  0.0000E+00  0.0000E+00  0.0000E+00
    -21.333  0.0000E+00  0.0000E+00  0.0000E+00
    -21.231  0.0000E+00  0.0000E+00  0.0000E+00
    -21.128  0.0000E+00  0.0000E+00  0.0000E+00
    -21.025  0.0000E+00  0.0000E+00  0.0000E+00
    -20.922  0.0000E+00  0.0000E+00  0.0000E+00
    -20.819  0.1727E+02  0.1107E-04  0.2618E-05
    -20.717  0.0000E+00  0.0000E+00  0.0000E+00
    -20.614  0.0000E+00  0.0000E+00  0.0000E+00
    -20.511  0.0000E+00  0.0000E+00  0.0000E+00
    -20.408  0.0000E+00  0.0000E+00  0.0000E+00
    -20.306  0.0000E+00  0.0000E+00  0.0000E+00
    -20.203  0.0000E+00  0.0000E+00  0.0000E+00
    -20.100  0.0000E+00  0.0000E+00  0.0000E+00
    -19.997  0.0000E+00  0.0000E+00  0.0000E+00
    -19.895  0.0000E+00  0.0000E+00  0.0000E+00
    -19.792  0.0000E+00  0.0000E+00  0.0000E+00
    -19.689  0.0000E+00  0.0000E+00  0.0000E+00
    -19.586  0.0000E+00  0.0000E+00  0.0000E+00
    -19.483  0.0000E+00  0.0000E+00  0.0000E+00
    -19.381  0.0000E+00  0.0000E+00  0.0000E+00
    -19.278  0.0000E+00  0.0000E+00  0.0000E+00
    -19.175  0.0000E+00  0.0000E+00  0.0000E+00
    -19.072  0.0000E+00  0.0000E+00  0.0000E+00
    -18.970  0.0000E+00  0.0000E+00  0.0000E+00
    -18.867  0.0000E+00  0.0000E+00  0.0000E+00
    -18.764  0.0000E+00  0.0000E+00  0.0000E+00
    -18.661  0.0000E+00  0.0000E+00  0.0000E+00
    -18.559  0.0000E+00  0.0000E+00  0.0000E+00
    -18.456  0.0000E+00  0.0000E+00  0.0000E+00
    -18.353  0.0000E+00  0.0000E+00  0.0000E+00
    -18.250  0.0000E+00  0.0000E+00  0.0000E+00
    -18.147  0.0000E+00  0.0000E+00  0.0000E+00
    -18.045  0.0000E+00  0.0000E+00  0.0000E+00
    -17.942  0.0000E+00  0.0000E+00  0.0000E+00
    -17.839  0.0000E+00  0.0000E+00  0.0000E+00
    -17.736  0.0000E+00  0.0000E+00  0.0000E+00
    -17.634  0.0000E+00  0.0000E+00  0.0000E+00
    -17.531  0.0000E+00  0.0000E+00  0.0000E+00
    -17.428  0.0000E+00  0.0000E+00  0.0000E+00
    -17.325  0.0000E+00  0.0000E+00  0.0000E+00
    -17.223  0.0000E+00  0.0000E+00  0.0000E+00
    -17.120  0.0000E+00  0.0000E+00  0.0000E+00
    -17.017  0.0000E+00  0.0000E+00  0.0000E+00
    -16.914  0.0000E+00  0.0000E+00  0.0000E+00
    -16.811  0.0000E+00  0.0000E+00  0.0000E+00
    -16.709  0.0000E+00  0.0000E+00  0.0000E+00
    -16.606  0.5342E-07  0.2135E-07  0.5046E-08
    -16.503  0.6091E-04  0.7937E-04  0.1540E-04
    -16.400  0.7412E-04  0.4070E-04  0.5130E-05
    -16.298  0.0000E+00  0.0000E+00  0.0000E+00
    -16.195  0.0000E+00  0.0000E+00  0.0000E+00
    -16.092  0.0000E+00  0.0000E+00  0.0000E+00
    -15.989  0.0000E+00  0.0000E+00  0.0000E+00
    -15.886  0.0000E+00  0.0000E+00  0.0000E+00
    -15.784  0.0000E+00  0.0000E+00  0.0000E+00
    -15.681  0.0000E+00  0.0000E+00  0.0000E+00
    -15.578  0.0000E+00  0.0000E+00  0.0000E+00
    -15.475  0.0000E+00  0.0000E+00  0.0000E+00
    -15.373  0.0000E+00  0.0000E+00  0.0000E+00
    -15.270  0.0000E+00  0.0000E+00  0.0000E+00
    -15.167  0.0000E+00  0.0000E+00  0.0000E+00
    -15.064  0.0000E+00  0.0000E+00  0.0000E+00
    -14.962  0.0000E+00  0.0000E+00  0.0000E+00
    -14.859  0.0000E+00  0.0000E+00  0.0000E+00
    -14.756  0.0000E+00  0.0000E+00  0.0000E+00
    -14.653  0.0000E+00  0.0000E+00  0.0000E+00
    -14.550  0.0000E+00  0.0000E+00  0.0000E+00
    -14.448  0.0000E+00  0.0000E+00  0.0000E+00
    -14.345  0.3022E-03  0.2355E-05  0.4170E-06
    -14.242  0.3764E-02  0.2139E-02  0.3014E-04
    -14.139  0.1693E-02  0.4623E-02  0.1239E-03
    -14.037  0.1278E-02  0.3562E-02  0.2954E-03
    -13.934  0.4945E-03  0.3817E-02  0.4024E-03
    -13.831  0.9921E-03  0.3186E-02  0.5460E-03
    -13.728  0.3317E-03  0.5802E-03  0.8006E-04
    -13.626  0.0000E+00  0.0000E+00  0.0000E+00
    -13.523  0.0000E+00  0.0000E+00  0.0000E+00
    -13.420  0.0000E+00  0.0000E+00  0.0000E+00
    -13.317  0.0000E+00  0.0000E+00  0.0000E+00
    -13.214  0.0000E+00  0.0000E+00  0.0000E+00
    -13.112  0.0000E+00  0.0000E+00  0.0000E+00
    -13.009  0.0000E+00  0.0000E+00  0.0000E+00
    -12.906  0.0000E+00  0.0000E+00  0.0000E+00
    -12.803  0.0000E+00  0.0000E+00  0.0000E+00
    -12.701  0.0000E+00  0.0000E+00  0.0000E+00
    -12.598  0.0000E+00  0.0000E+00  0.0000E+00
    -12.495  0.0000E+00  0.0000E+00  0.0000E+00
    -12.392  0.0000E+00  0.0000E+00  0.0000E+00
    -12.290  0.0000E+00  0.0000E+00  0.0000E+00
    -12.187  0.0000E+00  0.0000E+00  0.0000E+00
    -12.084  0.0000E+00  0.0000E+00  0.0000E+00
    -11.981  0.0000E+00  0.0000E+00  0.0000E+00
    -11.878  0.0000E+00  0.0000E+00  0.0000E+00
    -11.776  0.0000E+00  0.0000E+00  0.0000E+00
    -11.673  0.0000E+00  0.0000E+00  0.0000E+00
    -11.570  0.0000E+00  0.0000E+00  0.0000E+00
    -11.467  0.0000E+00  0.0000E+00  0.0000E+00
    -11.365  0.0000E+00  0.0000E+00  0.0000E+00
    -11.262  0.0000E+00  0.0000E+00  0.0000E+00
    -11.159  0.0000E+00  0.0000E+00  0.0000E+00
    -11.056  0.0000E+00  0.0000E+00  0.0000E+00
    -10.954  0.0000E+00  0.0000E+00  0.0000E+00
    -10.851  0.0000E+00  0.0000E+00  0.0000E+00
    -10.748  0.0000E+00  0.0000E+00  0.0000E+00
    -10.645  0.0000E+00  0.0000E+00  0.0000E+00
    -10.542  0.0000E+00  0.0000E+00  0.0000E+00
    -10.440  0.0000E+00  0.0000E+00  0.0000E+00
    -10.337  0.0000E+00  0.0000E+00  0.0000E+00
    -10.234  0.0000E+00  0.0000E+00  0.0000E+00
    -10.131  0.0000E+00  0.0000E+00  0.0000E+00
    -10.029  0.0000E+00  0.0000E+00  0.0000E+00
     -9.926  0.0000E+00  0.0000E+00  0.0000E+00
     -9.823  0.0000E+00  0.0000E+00  0.0000E+00
     -9.720  0.0000E+00  0.0000E+00  0.0000E+00
     -9.617  0.0000E+00  0.0000E+00  0.0000E+00
     -9.515  0.0000E+00  0.0000E+00  0.0000E+00
     -9.412  0.0000E+00  0.0000E+00  0.0000E+00
     -9.309  0.0000E+00  0.0000E+00  0.0000E+00
     -9.206  0.0000E+00  0.0000E+00  0.0000E+00
     -9.104  0.0000E+00  0.0000E+00  0.0000E+00
     -9.001  0.0000E+00  0.0000E+00  0.0000E+00
     -8.898  0.0000E+00  0.0000E+00  0.0000E+00
     -8.795  0.0000E+00  0.0000E+00  0.0000E+00
     -8.693  0.0000E+00  0.0000E+00  0.0000E+00
     -8.590  0.0000E+00  0.0000E+00  0.0000E+00
     -8.487  0.0000E+00  0.0000E+00  0.0000E+00
     -8.384  0.0000E+00  0.0000E+00  0.0000E+00
     -8.281  0.0000E+00  0.0000E+00  0.0000E+00
     -8.179  0.2694E-18  0.2682E-03  0.8102E-05
     -8.076  0.0000E+00  0.0000E+00  0.0000E+00
     -7.973  0.1134E-05  0.6062E-02  0.4011E-04
     -7.870  0.8900E-19  0.1522E-02  0.5345E-05
     -7.768  0.1235E-04  0.2626E-01  0.4771E-04
     -7.665  0.5841E-05  0.1312E-01  0.1753E-04
     -7.562  0.5364E-05  0.4545E-01  0.1608E-04
     -7.459  0.1973E-09  0.2731E-01  0.2593E-04
     -7.357  0.4124E-04  0.2127E+00  0.3977E-04
     -7.254  0.5254E-04  0.1488E+02  0.6729E-04
     -7.151  0.2459E-04  0.1133E+02  0.3033E-04
     -7.048  0.1117E-04  0.1448E+00  0.1856E-04
     -6.945  0.3868E-04  0.6480E-01  0.1914E-04
     -6.843  0.0000E+00  0.0000E+00  0.0000E+00
     -6.740  0.3946E-17  0.1409E-14  0.4893E-18
     -6.637  0.7562E-05  0.2701E-02  0.9378E-06
     -6.534  0.0000E+00  0.0000E+00  0.0000E+00
     -6.432  0.0000E+00  0.0000E+00  0.0000E+00
     -6.329  0.0000E+00  0.0000E+00  0.0000E+00
     -6.226  0.0000E+00  0.0000E+00  0.0000E+00
     -6.123  0.0000E+00  0.0000E+00  0.0000E+00
     -6.021  0.0000E+00  0.0000E+00  0.0000E+00
     -5.918  0.0000E+00  0.0000E+00  0.0000E+00
     -5.815  0.0000E+00  0.0000E+00  0.0000E+00
     -5.712  0.0000E+00  0.0000E+00  0.0000E+00
     -5.609  0.0000E+00  0.0000E+00  0.0000E+00
     -5.507  0.0000E+00  0.0000E+00  0.0000E+00
     -5.404  0.0000E+00  0.0000E+00  0.0000E+00
     -5.301  0.0000E+00  0.0000E+00  0.0000E+00
     -5.198  0.0000E+00  0.0000E+00  0.0000E+00
     -5.096  0.0000E+00  0.0000E+00  0.0000E+00
     -4.993  0.0000E+00  0.0000E+00  0.0000E+00
     -4.890  0.0000E+00  0.0000E+00  0.0000E+00
     -4.787  0.0000E+00  0.0000E+00  0.0000E+00
     -4.685  0.0000E+00  0.0000E+00  0.0000E+00
     -4.582  0.0000E+00  0.0000E+00  0.0000E+00
     -4.479  0.0000E+00  0.0000E+00  0.0000E+00
     -4.376  0.0000E+00  0.0000E+00  0.0000E+00
     -4.273  0.0000E+00  0.0000E+00  0.0000E+00
     -4.171  0.0000E+00  0.0000E+00  0.0000E+00
     -4.068  0.0000E+00  0.0000E+00  0.0000E+00
     -3.965  0.0000E+00  0.0000E+00  0.0000E+00
     -3.862  0.0000E+00  0.0000E+00  0.0000E+00
     -3.760  0.0000E+00  0.0000E+00  0.0000E+00
     -3.657  0.0000E+00  0.0000E+00  0.0000E+00
     -3.554  0.0000E+00  0.0000E+00  0.0000E+00
     -3.451  0.0000E+00  0.0000E+00  0.0000E+00
     -3.348  0.5029E-04  0.1650E-02  0.4004E-04
     -3.246  0.4864E-04  0.2221E-02  0.1809E-03
     -3.143  0.7417E-03  0.4081E-01  0.3485E-02
     -3.040  0.2028E-03  0.4321E-02  0.5416E-03
     -2.937  0.2961E-03  0.1007E-01  0.1175E-02
     -2.835  0.2159E-03  0.1510E-01  0.7538E-03
     -2.732  0.3844E-03  0.1375E-01  0.1139E-02
     -2.629  0.4919E-03  0.2890E-02  0.3475E-03
     -2.526  0.6774E-10  0.1680E-07  0.1296E-08
     -2.424  0.8509E-03  0.2495E-01  0.1541E-02
     -2.321  0.1008E-02  0.5141E-02  0.1061E-02
     -2.218  0.3522E-02  0.8504E-02  0.1141E-02
     -2.115  0.8641E-02  0.2559E-01  0.2542E-02
     -2.012  0.2148E-01  0.4694E-01  0.5122E-02
     -1.910  0.2260E-02  0.1777E-01  0.5786E-03
     -1.807  0.4796E-03  0.5521E-01  0.1552E-02
     -1.704  0.4640E-02  0.1425E+00  0.1304E-01
     -1.601  0.1146E-02  0.3061E-01  0.2515E-02
     -1.499  0.5142E-02  0.7034E-01  0.1579E-01
     -1.396  0.3268E-02  0.5732E-01  0.2114E-01
     -1.293  0.6434E-02  0.7432E-01  0.1237E-01
     -1.190  0.2246E-02  0.7162E-01  0.1105E-01
     -1.088  0.1829E-02  0.4480E-01  0.1234E-01
     -0.985  0.6315E-03  0.1234E-01  0.4122E-02
     -0.882  0.6012E-03  0.1638E-01  0.3730E-02
     -0.779  0.4835E-03  0.1182E-01  0.1626E-02
     -0.676  0.3837E-03  0.4408E-02  0.1590E-02
     -0.574  0.3155E-03  0.2985E-02  0.7135E-03
     -0.471  0.5334E-15  0.3096E-02  0.1024E-03
     -0.368  0.3734E-29  0.4318E-17  0.1540E-16
     -0.265  0.7705E-06  0.7831E-03  0.9864E-03
     -0.163  0.2104E-06  0.1064E-02  0.1364E-03
     -0.060  0.0000E+00  0.0000E+00  0.0000E+00
      0.043  0.0000E+00  0.0000E+00  0.0000E+00
      0.146  0.0000E+00  0.0000E+00  0.0000E+00
      0.248  0.1136E-16  0.1164E-03  0.1423E-03
      0.351  0.0000E+00  0.0000E+00  0.0000E+00
      0.454  0.0000E+00  0.0000E+00  0.0000E+00
      0.557  0.0000E+00  0.0000E+00  0.0000E+00
      0.660  0.0000E+00  0.0000E+00  0.0000E+00
      0.762  0.0000E+00  0.0000E+00  0.0000E+00
      0.865  0.0000E+00  0.0000E+00  0.0000E+00
      0.968  0.0000E+00  0.0000E+00  0.0000E+00
      1.071  0.0000E+00  0.0000E+00  0.0000E+00
      1.173  0.0000E+00  0.0000E+00  0.0000E+00
      1.276  0.0000E+00  0.0000E+00  0.0000E+00
      1.379  0.0000E+00  0.0000E+00  0.0000E+00
      1.482  0.0000E+00  0.0000E+00  0.0000E+00
      1.585  0.0000E+00  0.0000E+00  0.0000E+00
      1.687  0.0000E+00  0.0000E+00  0.0000E+00
      1.790  0.0000E+00  0.0000E+00  0.0000E+00
      1.893  0.0000E+00  0.0000E+00  0.0000E+00
      1.996  0.0000E+00  0.0000E+00  0.0000E+00
      2.098  0.0000E+00  0.0000E+00  0.0000E+00
      2.201  0.0000E+00  0.0000E+00  0.0000E+00
      2.304  0.0000E+00  0.0000E+00  0.0000E+00
      2.407  0.0000E+00  0.0000E+00  0.0000E+00
      2.509  0.1660E-04  0.9146E-04  0.1501E-03
      2.612  0.1170E-16  0.9674E-04  0.1217E-02
      2.715  0.2214E-03  0.8635E-03  0.1265E-02
      2.818  0.2876E-03  0.1010E-02  0.3093E-02
      2.921  0.1314E-03  0.3287E-03  0.4114E-03
      3.023  0.2893E-03  0.4815E-02  0.3400E-02
      3.126  0.8153E-08  0.1917E-07  0.9488E-07
      3.229  0.1026E-02  0.5847E-02  0.4641E-02
      3.332  0.1875E-05  0.6829E-03  0.2267E-02
      3.434  0.1282E-05  0.4436E-03  0.2632E-02
      3.537  0.2711E-14  0.7239E-14  0.1927E-13
      3.640  0.8181E-03  0.1435E-02  0.3885E-02
      3.743  0.5926E-16  0.3078E-03  0.1651E-02
      3.845  0.5063E-03  0.1829E-02  0.6677E-02
      3.948  0.2350E-03  0.1468E-02  0.3357E-02
      4.051  0.4294E-03  0.5885E-03  0.2624E-02
      4.154  0.9525E-03  0.4108E-02  0.7830E-02
      4.257  0.5347E-11  0.8202E-11  0.1152E-10
      4.359  0.9280E-03  0.1424E-02  0.2001E-02
      4.462  0.1329E-02  0.2458E-02  0.3313E-02
      4.565  0.5102E-03  0.3516E-03  0.4200E-03
      4.668  0.1592E-21  0.6844E-11  0.2753E-10
      4.770  0.1458E-12  0.1904E-02  0.8460E-02
      4.873  0.1219E-01  0.8391E-03  0.6185E-02
      4.976  0.3055E-02  0.4323E-02  0.1138E-01
      5.079  0.5749E-02  0.2243E-02  0.3629E-02
      5.181  0.1408E-01  0.4194E-02  0.3581E-02
      5.284  0.6196E-02  0.4634E-02  0.9571E-02
      5.387  0.4946E-04  0.1758E-03  0.9239E-02
      5.490  0.1850E-01  0.2714E-02  0.1102E-01
      5.593  0.8008E-03  0.2236E-03  0.1697E-02
      5.695  0.1121E-03  0.9896E-03  0.2029E-01
      5.798  0.8386E-02  0.2519E-02  0.2330E-01
      5.901  0.2681E-01  0.1316E-01  0.1991E-01
      6.004  0.2897E-01  0.8147E-02  0.7363E-01
      6.106  0.1178E-01  0.5047E-02  0.1361E+00
      6.209  0.1192E-01  0.9266E-02  0.2750E+00
      6.312  0.9707E-02  0.2148E-01  0.2700E+00
      6.415  0.3091E-01  0.7931E-02  0.2298E+00
      6.517  0.3742E-01  0.1828E-01  0.3868E+00
      6.620  0.1697E-01  0.3548E-01  0.6721E+00
      6.723  0.3294E-01  0.4051E-01  0.5750E+00
      6.826  0.8663E-02  0.2900E-01  0.7830E+00
      6.929  0.7345E-02  0.6851E-02  0.4604E+00
      7.031  0.4297E-01  0.5009E-01  0.6251E+00
      7.134  0.1198E-01  0.2836E-01  0.3222E+00
      7.237  0.1173E-03  0.1328E-02  0.8931E-01
      7.340  0.0000E+00  0.0000E+00  0.0000E+00
      7.442  0.0000E+00  0.0000E+00  0.0000E+00
      7.545  0.0000E+00  0.0000E+00  0.0000E+00
      7.648  0.0000E+00  0.0000E+00  0.0000E+00
      7.751  0.0000E+00  0.0000E+00  0.0000E+00
      7.854  0.0000E+00  0.0000E+00  0.0000E+00
      7.956  0.0000E+00  0.0000E+00  0.0000E+00
      8.059  0.0000E+00  0.0000E+00  0.0000E+00
      8.162  0.0000E+00  0.0000E+00  0.0000E+00
      8.265  0.0000E+00  0.0000E+00  0.0000E+00
      8.367  0.0000E+00  0.0000E+00  0.0000E+00
      8.470  0.0000E+00  0.0000E+00  0.0000E+00
      8.573  0.0000E+00  0.0000E+00  0.0000E+00
      8.57289844    -22.25826725  301      0.36410058      1.00000000
    -22.258  0.0000E+00  0.0000E+00  0.0000E+00
    -22.155  0.0000E+00  0.0000E+00  0.0000E+00
    -22.053  0.0000E+00  0.0000E+00  0.0000E+00
    -21.950  0.0000E+00  0.0000E+00  0.0000E+00
    -21.847  0.0000E+00  0.0000E+00  0.0000E+00
    -21.744  0.0000E+00  0.0000E+00  0.0000E+00
    -21.642  0.0000E+00  0.0000E+00  0.0000E+00
    -21.539  0.0000E+00  0.0000E+00  0.0000E+00
    -21.436  0.0000E+00  0.0000E+00  0.0000E+00
    -21.333  0.0000E+00  0.0000E+00  0.0000E+00
    -21.231  0.0000E+00  0.0000E+00  0.0000E+00
    -21.128  0.0000E+00  0.0000E+00  0.0000E+00
    -21.025  0.0000E+00  0.0000E+00  0.0000E+00
    -20.922  0.0000E+00  0.0000E+00  0.0000E+00
    -20.819  0.1727E+02  0.1105E-04  0.2630E-05
    -20.717  0.0000E+00  0.0000E+00  0.0000E+00
    -20.614  0.0000E+00  0.0000E+00  0.0000E+00
    -20.511  0.0000E+00  0.0000E+00  0.0000E+00
    -20.408  0.0000E+00  0.0000E+00  0.0000E+00
    -20.306  0.0000E+00  0.0000E+00  0.0000E+00
    -20.203  0.0000E+00  0.0000E+00  0.0000E+00
    -20.100  0.0000E+00  0.0000E+00  0.0000E+00
    -19.997  0.0000E+00  0.0000E+00  0.0000E+00
    -19.895  0.0000E+00  0.0000E+00  0.0000E+00
    -19.792  0.0000E+00  0.0000E+00  0.0000E+00
    -19.689  0.0000E+00  0.0000E+00  0.0000E+00
    -19.586  0.0000E+00  0.0000E+00  0.0000E+00
    -19.483  0.0000E+00  0.0000E+00  0.0000E+00
    -19.381  0.0000E+00  0.0000E+00  0.0000E+00
    -19.278  0.0000E+00  0.0000E+00  0.0000E+00
    -19.175  0.0000E+00  0.0000E+00  0.0000E+00
    -19.072  0.0000E+00  0.0000E+00  0.0000E+00
    -18.970  0.0000E+00  0.0000E+00  0.0000E+00
    -18.867  0.0000E+00  0.0000E+00  0.0000E+00
    -18.764  0.0000E+00  0.0000E+00  0.0000E+00
    -18.661  0.0000E+00  0.0000E+00  0.0000E+00
    -18.559  0.0000E+00  0.0000E+00  0.0000E+00
    -18.456  0.0000E+00  0.0000E+00  0.0000E+00
    -18.353  0.0000E+00  0.0000E+00  0.0000E+00
    -18.250  0.0000E+00  0.0000E+00  0.0000E+00
    -18.147  0.0000E+00  0.0000E+00  0.0000E+00
    -18.045  0.0000E+00  0.0000E+00  0.0000E+00
    -17.942  0.0000E+00  0.0000E+00  0.0000E+00
    -17.839  0.0000E+00  0.0000E+00  0.0000E+00
    -17.736  0.0000E+00  0.0000E+00  0.0000E+00
    -17.634  0.0000E+00  0.0000E+00  0.0000E+00
    -17.531  0.0000E+00  0.0000E+00  0.0000E+00
    -17.428  0.0000E+00  0.0000E+00  0.0000E+00
    -17.325  0.0000E+00  0.0000E+00  0.0000E+00
    -17.223  0.0000E+00  0.0000E+00  0.0000E+00
    -17.120  0.0000E+00  0.0000E+00  0.0000E+00
    -17.017  0.0000E+00  0.0000E+00  0.0000E+00
    -16.914  0.0000E+00  0.0000E+00  0.0000E+00
    -16.811  0.0000E+00  0.0000E+00  0.0000E+00
    -16.709  0.0000E+00  0.0000E+00  0.0000E+00
    -16.606  0.2754E-07  0.2012E-07  0.5024E-08
    -16.503  0.6917E-04  0.8062E-04  0.1555E-04
    -16.400  0.7428E-04  0.4034E-04  0.5067E-05
    -16.298  0.0000E+00  0.0000E+00  0.0000E+00
    -16.195  0.0000E+00  0.0000E+00  0.0000E+00
    -16.092  0.0000E+00  0.0000E+00  0.0000E+00
    -15.989  0.0000E+00  0.0000E+00  0.0000E+00
    -15.886  0.0000E+00  0.0000E+00  0.0000E+00
    -15.784  0.0000E+00  0.0000E+00  0.0000E+00
    -15.681  0.0000E+00  0.0000E+00  0.0000E+00
    -15.578  0.0000E+00  0.0000E+00  0.0000E+00
    -15.475  0.0000E+00  0.0000E+00  0.0000E+00
    -15.373  0.0000E+00  0.0000E+00  0.0000E+00
    -15.270  0.0000E+00  0.0000E+00  0.0000E+00
    -15.167  0.0000E+00  0.0000E+00  0.0000E+00
    -15.064  0.0000E+00  0.0000E+00  0.0000E+00
    -14.962  0.0000E+00  0.0000E+00  0.0000E+00
    -14.859  0.0000E+00  0.0000E+00  0.0000E+00
    -14.756  0.0000E+00  0.0000E+00  0.0000E+00
    -14.653  0.0000E+00  0.0000E+00  0.0000E+00
    -14.550  0.0000E+00  0.0000E+00  0.0000E+00
    -14.448  0.0000E+00  0.0000E+00  0.0000E+00
    -14.345  0.3022E-03  0.2355E-05  0.4170E-06
    -14.242  0.4000E-02  0.1800E-02  0.3750E-04
    -14.139  0.1874E-02  0.5105E-02  0.1141E-03
    -14.037  0.4901E-03  0.2028E-02  0.1570E-03
    -13.934  0.1166E-02  0.4305E-02  0.5953E-03
    -13.831  0.1286E-02  0.3304E-02  0.4778E-03
    -13.728  0.1562E-03  0.5325E-03  0.7865E-04
    -13.626  0.0000E+00  0.0000E+00  0.0000E+00
    -13.523  0.0000E+00  0.0000E+00  0.0000E+00
    -13.420  0.0000E+00  0.0000E+00  0.0000E+00
    -13.317  0.0000E+00  0.0000E+00  0.0000E+00
    -13.214  0.0000E+00  0.0000E+00  0.0000E+00
    -13.112  0.0000E+00  0.0000E+00  0.0000E+00