       N       E                     dE             d eps       ncg     rms          rms(c)
DAV:   1     0.651980564966E+03    0.65198E+03   -0.55814E+04  1816   0.921E+02
DAV:   2    -0.578559215570E+03   -0.12305E+04   -0.11771E+04  2192   0.285E+02
DAV:   3    -0.749935900947E+03   -0.17138E+03   -0.17034E+03  2480   0.126E+02
DAV:   4    -0.754599984136E+03   -0.46641E+01   -0.46514E+01  2152   0.279E+01
DAV:   5    -0.754804192311E+03   -0.20421E+00   -0.20411E+00  2344   0.478E+00    0.692E+00
DAV:   6    -0.714922570692E+03    0.39882E+02   -0.11863E+01  2408   0.288E+01    0.494E+00
DAV:   7    -0.714679903797E+03    0.24267E+00   -0.39473E+00  2208   0.489E+00    0.260E+00
DAV:   8    -0.714778602294E+03   -0.98698E-01   -0.18739E-01  2176   0.173E+00    0.148E+00
DAV:   9    -0.714819749502E+03   -0.41147E-01   -0.89113E-02  1960   0.122E+00    0.321E-01
DAV:  10    -0.714820867566E+03   -0.11181E-02   -0.58094E-03  2616   0.339E-01    0.189E-01
DAV:  11    -0.714822649789E+03   -0.17822E-02   -0.19514E-03  1944   0.174E-01    0.675E-02
DAV:  12    -0.714822690394E+03   -0.40605E-04   -0.47020E-04  2176   0.938E-02    0.231E-02
DAV:  13    -0.714822676019E+03    0.14375E-04   -0.56250E-05  2192   0.287E-02    0.746E-03
DAV:  14    -0.714822695347E+03   -0.19328E-04   -0.36431E-06  1816   0.691E-03    0.235E-03
DAV:  15    -0.714822696382E+03   -0.10350E-05   -0.58394E-07  1272   0.328E-03    0.773E-04
DAV:  16    -0.714822693933E+03    0.24489E-05   -0.18925E-07  1248   0.231E-03    0.472E-04
DAV:  17    -0.714822693050E+03    0.88248E-06   -0.21565E-06  1400   0.266E-03
   1 F= -.71482269E+03 E0= -.71482269E+03  d E =-.149645E-73
