 vasp.5.4.4.18Apr17-6-g9f103f2a35 (build Jun 29 2021 12:58:12) complex           
 executed on tx2_gcc-7.3_libsci-1 date 2021.09.21  08:32:48
 running on   64 total cores
 distrk:  each k-point on   64 cores,    1 groups
 distr:  one band on NCORES_PER_BAND=   8 cores,    8 groups


--------------------------------------------------------------------------------------------------------


 INCAR:
 POTCAR:    PAW_PBE Cs_sv 08Apr2002               
 POTCAR:    PAW_PBE Pb_d 06Sep2000                
 POTCAR:    PAW_PBE Br 06Sep2000                  
 POTCAR:    PAW_PBE Cs_sv 08Apr2002               
   SHA256 =  c1463496f0f6037ed62c6012a8013a89ee9ad6ffb38599dcd6c079e7ed31779b Cs
   COPYR  = (c) Copyright 08Apr2002 Georg Kresse                                
   COPYR  = This file is part of the software VASP. Any use, copying, and all ot
   COPYR  = If you do not have a valid VASP license, you may not use, copy or di
   VRHFIN =Cs: 5s5p6s                                                           
   LEXCH  = PE                                                                  
   EATOM  =   555.6835 eV,   40.8416 Ry                                         
                                                                                
   TITEL  = PAW_PBE Cs_sv 08Apr2002                                             
   LULTRA =        F    use ultrasoft PP ?                                      
   IUNSCR =        1    unscreen: 0-lin 1-nonlin 2-no                           
   RPACOR =    2.200    partial core radius                                     
   POMASS =  132.900; ZVAL   =    9.000    mass and valenz                      
   RCORE  =    2.500    outmost cutoff radius                                   
   RWIGS  =    2.500; RWIGS  =    1.323    wigner-seitz radius (au A)           
   ENMAX  =  220.318; ENMIN  =  165.238 eV                                      
   RCLOC  =    2.207    cutoff for local pot                                    
   LCOR   =        T    correct aug charges                                     
   LPAW   =        T    paw PP                                                  
   EAUG   =  407.933                                                            
   DEXC   =    0.000                                                            
   RMAX   =    2.554    core radius for proj-oper                               
   RAUG   =    1.300    factor for augmentation sphere                          
   RDEP   =    2.590    radius for radial grids                                 
   RDEPT  =    2.117    core radius for aug-charge                              
                                                                                
   Atomic configuration                                                         
   13 entries                                                                   
     n  l   j            E        occ.                                          
     1  0  0.50    -35790.1377   2.0000                                         
     2  0  0.50     -5613.6201   2.0000                                         
     2  1  1.50     -5035.0101   6.0000                                         
     3  0  0.50     -1167.0767   2.0000                                         
     3  1  1.50      -980.9754   6.0000                                         
     3  2  2.50      -708.0703  10.0000                                         
     4  0  0.50      -220.2386   2.0000                                         
     4  1  1.50      -160.7596   6.0000                                         
     4  2  2.50       -74.2354  10.0000                                         
     5  0  0.50       -26.7287   2.0000                                         
     6  0  0.50        -2.0862   1.0000                                         
     5  1  1.50       -13.5159   6.0000                                         
     5  2  2.50        -0.4136   0.0000                                         
   Description                                                                  
     l       E           TYP  RCUT    TYP  RCUT                                 
     0    -26.7287425     23  1.900                                             
     0     -2.0862306     23  1.900                                             
     1    -13.5158719     23  2.500                                             
     1     -2.7211652     23  2.500                                             
     2     -0.4136171     23  2.500                                             
  local pseudopotential read in
  partial core-charges read in
  partial kinetic energy density read in
  atomic valenz-charges read in
  non local Contribution for L=           0  read in
    real space projection operators read in
  non local Contribution for L=           0  read in
    real space projection operators read in
  non local Contribution for L=           1  read in
    real space projection operators read in
  non local Contribution for L=           1  read in
    real space projection operators read in
  non local Contribution for L=           2  read in
    real space projection operators read in
    PAW grid and wavefunctions read in

   number of l-projection  operators is LMAX  =           5
   number of lm-projection operators is LMMAX =          13

 POTCAR:    PAW_PBE Pb_d 06Sep2000                
   SHA256 =  fb885b08f0fba73a15f6a6b0e39bd200c13ec96ef97cf3ecd8e63bade5137abd Pb
   COPYR  = (c) Copyright 06Sep2000 Georg Kresse                                
   COPYR  = This file is part of the software VASP. Any use, copying, and all ot
   COPYR  = If you do not have a valid VASP license, you may not use, copy or di
   VRHFIN =Pb:                                                                  
   LEXCH  = PE                                                                  
   EATOM  =  1661.6185 eV,  122.1255 Ry                                         
                                                                                
   TITEL  = PAW_PBE Pb_d 06Sep2000                                              
   LULTRA =        F    use ultrasoft PP ?                                      
   IUNSCR =        1    unscreen: 0-lin 1-nonlin 2-no                           
   RPACOR =    2.200    partial core radius                                     
   POMASS =  207.200; ZVAL   =   14.000    mass and valenz                      
   RCORE  =    2.500    outmost cutoff radius                                   
   RWIGS  =    3.260; RWIGS  =    1.725    wigner-seitz radius (au A)           
   ENMAX  =  237.835; ENMIN  =  178.376 eV                                      
   ICORE  =        3    local potential                                         
   LCOR   =        T    correct aug charges                                     
   LPAW   =        T    paw PP                                                  
   EAUG   =  391.914                                                            
   DEXC   =    0.000                                                            
   RMAX   =    2.565    core radius for proj-oper                               
   RAUG   =    1.300    factor for augmentation sphere                          
   RDEP   =    2.643    radius for radial grids                                 
   RDEPT  =    2.092    core radius for aug-charge                              
                                                                                
   Atomic configuration                                                         
   16 entries                                                                   
     n  l   j            E        occ.                                          
     1  0  0.50    -88091.8466   2.0000                                         
     2  0  0.50    -15753.4197   2.0000                                         
     2  1  1.50    -13508.1797   6.0000                                         
     3  0  0.50     -3781.7194   2.0000                                         
     3  1  1.50     -3138.2529   6.0000                                         
     3  2  2.50     -2483.2977  10.0000                                         
     4  0  0.50      -856.2895   2.0000                                         
     4  1  1.50      -645.4942   6.0000                                         
     4  2  2.50      -401.8768  10.0000                                         
     4  3  3.50      -132.9059  14.0000                                         
     5  0  0.50      -144.0950   2.0000                                         
     5  1  1.50       -85.7879   6.0000                                         
     5  2  2.50       -21.1769  10.0000                                         
     6  0  0.50       -12.0372   2.0000                                         
     6  1  1.50        -3.4971   2.0000                                         
     5  3  2.50        -2.7212   0.0000                                         
   Description                                                                  
     l       E           TYP  RCUT    TYP  RCUT                                 
     2    -21.1768523     23  2.500                                             
     2      1.3605826     23  2.500                                             
     0    -12.0371562     23  2.500                                             
     0     13.6058260     23  2.500                                             
     1     -3.4971339     23  2.500                                             
     1     13.6058260     23  2.500                                             
     3     -1.3605826      7  2.500                                             
  local pseudopotential read in
  partial core-charges read in
  partial kinetic energy density read in
  atomic valenz-charges read in
  non local Contribution for L=           2  read in
    real space projection operators read in
  non local Contribution for L=           2  read in
    real space projection operators read in
  non local Contribution for L=           0  read in
    real space projection operators read in
  non local Contribution for L=           0  read in
    real space projection operators read in
  non local Contribution for L=           1  read in
    real space projection operators read in
  non local Contribution for L=           1  read in
    real space projection operators read in
    PAW grid and wavefunctions read in

   number of l-projection  operators is LMAX  =           6
   number of lm-projection operators is LMMAX =          18

 POTCAR:    PAW_PBE Br 06Sep2000                  
   SHA256 =  96a73d2954943bbee26f4990d676cc6c3bf44b8dd2c75cd4b3b825d8403f0103 Br
   COPYR  = (c) Copyright 06Sep2000 Georg Kresse                                
   COPYR  = This file is part of the software VASP. Any use, copying, and all ot
   COPYR  = If you do not have a valid VASP license, you may not use, copy or di
   VRHFIN =Br: s2p5                                                             
   LEXCH  = PE                                                                  
   EATOM  =   368.4488 eV,   27.0802 Ry                                         
                                                                                
   TITEL  = PAW_PBE Br 06Sep2000                                                
   LULTRA =        F    use ultrasoft PP ?                                      
   IUNSCR =        1    unscreen: 0-lin 1-nonlin 2-no                           
   RPACOR =    1.900    partial core radius                                     
   POMASS =   79.904; ZVAL   =    7.000    mass and valenz                      
   RCORE  =    2.100    outmost cutoff radius                                   
   RWIGS  =    2.200; RWIGS  =    1.164    wigner-seitz radius (au A)           
   ENMAX  =  216.285; ENMIN  =  162.214 eV                                      
   ICORE  =        3    local potential                                         
   LCOR   =        T    correct aug charges                                     
   LPAW   =        T    paw PP                                                  
   EAUG   =  503.852                                                            
   DEXC   =    0.000                                                            
   RMAX   =    2.139    core radius for proj-oper                               
   RAUG   =    1.300    factor for augmentation sphere                          
   RDEP   =    2.186    radius for radial grids                                 
   RDEPT  =    1.890    core radius for aug-charge                              
                                                                                
   Atomic configuration                                                         
   10 entries                                                                   
     n  l   j            E        occ.                                          
     1  0  0.50    -13316.2796   2.0000                                         
     2  0  0.50     -1732.8239   2.0000                                         
     2  1  1.50     -1528.2193   6.0000                                         
     3  0  0.50      -238.0460   2.0000                                         
     3  1  1.50      -173.4609   6.0000                                         
     3  2  2.50       -66.7132  10.0000                                         
     4  0  0.50       -20.1334   2.0000                                         
     4  1  0.50        -7.8591   5.0000                                         
     4  2  2.50        -8.1635   0.0000                                         
     4  3  2.50        -8.1635   0.0000                                         
   Description                                                                  
     l       E           TYP  RCUT    TYP  RCUT                                 
     0    -20.1333652     23  2.100                                             
     0    -21.4939478     23  2.100                                             
     1     -7.8591052     23  2.100                                             
     1     -3.1608434     23  2.100                                             
     2     -8.1634956     23  2.100                                             
     3     -1.3605826      7  2.100                                             
  local pseudopotential read in
  partial core-charges read in
  partial kinetic energy density read in
  atomic valenz-charges read in
  non local Contribution for L=           0  read in
    real space projection operators read in
  non local Contribution for L=           0  read in
    real space projection operators read in
  non local Contribution for L=           1  read in
    real space projection operators read in
  non local Contribution for L=           1  read in
    real space projection operators read in
  non local Contribution for L=           2  read in
    real space projection operators read in
    PAW grid and wavefunctions read in

   number of l-projection  operators is LMAX  =           5
   number of lm-projection operators is LMMAX =          13

 Optimization of the real space projectors (new method)

 maximal supplied QI-value         = 15.12
 optimisation between [QCUT,QGAM] = [  8.77, 17.69] = [ 21.53, 87.61] Ry 
 Optimized for a Real-space Cutoff    1.85 Angstroem

   l    n(q)    QCUT    max X(q) W(low)/X(q) W(high)/X(q)  e(spline) 
   0     10     8.768    25.322    0.81E-04    0.51E-04    0.48E-06
   0     10     8.768    99.187    0.78E-04    0.50E-04    0.47E-06
   1      9     8.768    11.761    0.21E-03    0.20E-03    0.37E-06
   1      9     8.768     8.275    0.24E-03    0.22E-03    0.41E-06
   2      9     8.768     3.829    0.23E-04    0.15E-03    0.18E-06
 Optimization of the real space projectors (new method)

 maximal supplied QI-value         = 15.12
 optimisation between [QCUT,QGAM] = [  8.77, 17.69] = [ 21.53, 87.61] Ry 
 Optimized for a Real-space Cutoff    1.59 Angstroem

   l    n(q)    QCUT    max X(q) W(low)/X(q) W(high)/X(q)  e(spline) 
   2      7     8.768     3.846    0.48E-04    0.11E-03    0.11E-06
   2      7     8.768     8.593    0.20E-03    0.22E-04    0.24E-06
   0      8     8.768    20.082    0.68E-04    0.88E-04    0.41E-07
   0      8     8.768     8.597    0.89E-04    0.13E-03    0.59E-07
   1      8     8.768    33.223    0.15E-03    0.53E-04    0.87E-07
   1      8     8.768    15.899    0.14E-03    0.44E-04    0.78E-07
 Optimization of the real space projectors (new method)

 maximal supplied QI-value         = 17.95
 optimisation between [QCUT,QGAM] = [  8.80, 17.59] = [ 21.67, 86.68] Ry 
 Optimized for a Real-space Cutoff    1.59 Angstroem

   l    n(q)    QCUT    max X(q) W(low)/X(q) W(high)/X(q)  e(spline) 
   0      8     8.797   175.082    0.82E-04    0.14E-03    0.89E-07
   0      8     8.797   174.004    0.79E-04    0.14E-03    0.86E-07
   1      8     8.797    54.315    0.16E-03    0.14E-04    0.30E-06
   1      8     8.797    42.441    0.16E-03    0.14E-04    0.30E-06
   2      7     8.797     3.596    0.92E-04    0.15E-03    0.85E-07
  PAW_PBE Cs_sv 08Apr2002               :
 energy of atom  1       EATOM= -555.6835
 kinetic energy error for atom=    0.0069 (will be added to EATOM!!)
  PAW_PBE Pb_d 06Sep2000                :
 energy of atom  2       EATOM=-1661.6185
 kinetic energy error for atom=    0.0498 (will be added to EATOM!!)
  PAW_PBE Br 06Sep2000                  :
 energy of atom  3       EATOM= -368.4488
 kinetic energy error for atom=    0.0072 (will be added to EATOM!!)


 POSCAR: Cs4 Pb4 Br12                            
  positions in direct lattice
  velocities in cartesian coordinates

 METAGGA = SCAN     LMAXTAU =  6    LMIXTAU =  F

 exchange correlation table for  LEXCH =        8
   RHO(1)=    0.500       N(1)  =     2000
   RHO(2)=  100.500       N(2)  =     4000

 VTST: version 3.2, (02/03/18)

 CHAIN: initializing optimizer
 
 OPT: Using VASP Conjugate-Gradient optimizer
 CHAIN: Read ICHAIN            0

 POSCAR: Cs4 Pb4 Br12                            
  positions in direct lattice
  velocities in cartesian coordinates



--------------------------------------------------------------------------------------------------------


 ion  position               nearest neighbor table
   1  0.073  0.250  0.470-
   2  0.427  0.750  0.970-
   3  0.573  0.250  0.030-
   4  0.927  0.750  0.530-
   5  0.000  0.000  0.000-  15 3.00  18 3.00  17 3.02  16 3.02  10 3.05  11 3.05
   6  0.500  0.000  0.500-  16 3.00  17 3.00  15 3.02  18 3.02   9 3.05  12 3.05
   7  0.500  0.500  0.500-  13 3.00  19 3.00  14 3.02  20 3.02   9 3.05  12 3.05
   8  0.000  0.500  0.000-  14 3.00  20 3.00  19 3.02  13 3.02  10 3.05  11 3.05
   9  0.507  0.750  0.450-   6 3.05   7 3.05
  10  0.993  0.250  0.950-   5 3.05   8 3.05
  11  0.007  0.750  0.050-   5 3.05   8 3.05
  12  0.493  0.250  0.550-   6 3.05   7 3.05
  13  0.304  0.468  0.184-   7 3.00   8 3.02
  14  0.196  0.532  0.684-   8 3.00   7 3.02
  15  0.804  0.032  0.316-   5 3.00   6 3.02
  16  0.696  0.968  0.816-   6 3.00   5 3.02
  17  0.304  0.032  0.184-   6 3.00   5 3.02
  18  0.196  0.968  0.684-   5 3.00   6 3.02
  19  0.696  0.532  0.816-   7 3.00   8 3.02
  20  0.804  0.468  0.316-   8 3.00   7 3.02

  LATTYP: Found a simple orthorhombic cell.
 ALAT       =     7.7326917652
 B/A-ratio  =     1.1215522860
 C/A-ratio  =     1.5669474985
  
  Lattice vectors:
  
 A1 = (   0.0000000000,   0.0000000000,   7.7326917652)
 A2 = (  -8.6726181258,   0.0000000000,   0.0000000000)
 A3 = (   0.0000000000, -12.1167220182,   0.0000000000)


Analysis of symmetry for initial positions (statically):
=====================================================================
 Subroutine PRICEL returns:
 Original cell was already a primitive cell.
 

 Routine SETGRP: Setting up the symmetry group for a 
 simple orthorhombic supercell.


 Subroutine GETGRP returns: Found  8 space group operations
 (whereof  2 operations were pure point group operations)
 out of a pool of  8 trial point group operations.


The static configuration has the point symmetry S_2 .
 The point group associated with its full space group is D_2h.


Analysis of symmetry for dynamics (positions and initial velocities):
=====================================================================
 Subroutine PRICEL returns:
 Original cell was already a primitive cell.
 

 Routine SETGRP: Setting up the symmetry group for a 
 simple orthorhombic supercell.


 Subroutine GETGRP returns: Found  8 space group operations
 (whereof  2 operations were pure point group operations)
 out of a pool of  8 trial point group operations.


The dynamic configuration has the point symmetry S_2 .
 The point group associated with its full space group is D_2h.


 Subroutine INISYM returns: Found  8 space group operations
 (whereof  2 operations are pure point group operations),
 and found     1 'primitive' translations



 KPOINTS: 1x1x1                                   

Automatic generation of k-mesh.
Space group operators:
 irot       det(A)        alpha          n_x          n_y          n_z        tau_x        tau_y        tau_z
    1     1.000000     0.000000     1.000000     0.000000     0.000000     0.000000     0.000000     0.000000
    2    -1.000000     0.000000     1.000000     0.000000     0.000000     0.000000     0.000000     0.000000
    3     1.000000   180.000000     0.000000     1.000000     0.000000    -0.000000    -0.500000     0.000000
    4    -1.000000   180.000000     0.000000     1.000000     0.000000     0.000000    -0.500000     0.000000
    5     1.000000   179.999999     1.000000     0.000000     0.000000    -0.500000    -0.500000     0.500000
    6    -1.000000   179.999999     1.000000     0.000000     0.000000    -0.500000    -0.500000     0.500000
    7     1.000000   180.000000     0.000000     0.000000     1.000000    -0.500000     0.000000     0.500000
    8    -1.000000   180.000000     0.000000     0.000000     1.000000    -0.500000     0.000000     0.500000
 
 Subroutine IBZKPT returns following result:
 ===========================================
 
 Found      8 irreducible k-points:
 
 Following reciprocal coordinates:
            Coordinates               Weight
  0.000000  0.000000  0.000000      1.000000
  0.333333  0.000000  0.000000      2.000000
  0.000000  0.500000  0.000000      1.000000
  0.333333  0.500000  0.000000      2.000000
  0.000000  0.000000  0.333333      2.000000
  0.333333  0.000000  0.333333      4.000000
  0.000000  0.500000  0.333333      2.000000
  0.333333  0.500000  0.333333      4.000000
 
 Following cartesian coordinates:
            Coordinates               Weight
  0.000000  0.000000  0.000000      1.000000
  0.038435  0.000000  0.000000      2.000000
  0.000000  0.041265  0.000000      1.000000
  0.038435  0.041265  0.000000      2.000000
  0.000000  0.000000  0.043107      2.000000
  0.038435  0.000000  0.043107      4.000000
  0.000000  0.041265  0.043107      2.000000
  0.038435  0.041265  0.043107      4.000000
 


--------------------------------------------------------------------------------------------------------




 Dimension of arrays:
   k-points           NKPTS =      8   k-points in BZ     NKDIM =      8   number of bands    NBANDS=    112
   number of dos      NEDOS =    301   number of ions     NIONS =     20
   non local maximal  LDIM  =      6   non local SUM 2l+1 LMDIM =     18
   total plane-waves  NPLWV = 168000
   max r-space proj   IRMAX =   5515   max aug-charges    IRDMAX=  88003
   dimension x,y,z NGX =    50 NGY =   70 NGZ =   48
   dimension x,y,z NGXF=   100 NGYF=  140 NGZF=   96
   support grid    NGXF=   200 NGYF=  280 NGZF=  192
   ions per type =               4   4  12
   NGX,Y,Z   is equivalent  to a cutoff of   9.58,  9.60, 10.32 a.u.
   NGXF,Y,Z  is equivalent  to a cutoff of  19.17, 19.21, 20.64 a.u.

 SYSTEM =  CsPbBr3 cubic bulk                      
 POSCAR =  Cs4 Pb4 Br12                            

 Startparameter for this run:
   NWRITE =      2    write-flag & timer
   PREC   = accura    normal or accurate (medium, high low for compatibility)
   ISTART =      0    job   : 0-new  1-cont  2-samecut
   ICHARG =      2    charge: 1-file 2-atom 10-const
   ISPIN  =      1    spin polarized calculation?
   LNONCOLLINEAR =      F non collinear calculations
   LSORBIT =      F    spin-orbit coupling
   INIWAV =      1    electr: 0-lowe 1-rand  2-diag
   LASPH  =      T    aspherical Exc in radial PAW
   METAGGA=      F    non-selfconsistent MetaGGA calc.

 Electronic Relaxation 1
   ENCUT  =  300.0 eV  22.05 Ry    4.70 a.u.  12.25 17.11 10.92*2*pi/ulx,y,z
   ENINI  =  300.0     initial cutoff
   ENAUG  =  503.9 eV  augmentation charge cutoff
   NELM   =    200;   NELMIN=  2; NELMDL= -5     # of ELM steps 
   EDIFF  = 0.1E-05   stopping-criterion for ELM
   LREAL  =      T    real-space projection
   NLSPLINE    = F    spline interpolate recip. space projectors
   LCOMPAT=      F    compatible to vasp.4.4
   GGA_COMPAT  = T    GGA compatible to vasp.4.4-vasp.4.6
   LMAXPAW     = -100 max onsite density
   LMAXMIX     =    2 max onsite mixed and CHGCAR
   VOSKOWN=      0    Vosko Wilk Nusair interpolation
   ROPT   =   -0.00025  -0.00025  -0.00025
 Ionic relaxation
   EDIFFG = -.1E-01   stopping-criterion for IOM
   NSW    =      0    number of steps for IOM
   NBLOCK =      1;   KBLOCK =      1    inner block; outer block 
   IBRION =     -1    ionic relax: 0-MD 1-quasi-New 2-CG
   NFREE  =      1    steps in history (QN), initial steepest desc. (CG)
   ISIF   =      3    stress and relaxation
   IWAVPR =     10    prediction:  0-non 1-charg 2-wave 3-comb
   ISYM   =      2    0-nonsym 1-usesym 2-fastsym
   LCORR  =      T    Harris-Foulkes like correction to forces

   POTIM  = 0.5000    time-step for ionic-motion
   TEIN   =    0.0    initial temperature
   TEBEG  =    0.0;   TEEND  =   0.0 temperature during run
   SMASS  =  -3.00    Nose mass-parameter (am)
   estimated Nose-frequenzy (Omega)   =  0.10E-29 period in steps =****** mass=  -0.172E-26a.u.
   SCALEE = 1.0000    scale energy and forces
   NPACO  =    256;   APACO  = 16.0  distance and # of slots for P.C.
   PSTRESS=    0.0 pullay stress

  Mass of Ions in am
   POMASS = 132.90207.20 79.90
  Ionic Valenz
   ZVAL   =   9.00 14.00  7.00
  Atomic Wigner-Seitz radii
   RWIGS  =  -1.00 -1.00 -1.00
  virtual crystal weights 
   VCA    =   1.00  1.00  1.00
   NELECT =     176.0000    total number of electrons
   NUPDOWN=      -1.0000    fix difference up-down

 DOS related values:
   EMIN   =  10.00;   EMAX   =-10.00  energy-range for DOS
   EFERMI =   0.00
   ISMEAR =     0;   SIGMA  =   0.01  broadening in eV -4-tet -1-fermi 0-gaus

 Electronic relaxation 2 (details)
   IALGO  =     38    algorithm
   LDIAG  =      T    sub-space diagonalisation (order eigenvalues)
   LSUBROT=      F    optimize rotation matrix (better conditioning)
   TURBO    =      0    0=normal 1=particle mesh
   IRESTART =      0    0=no restart 2=restart with 2 vectors
   NREBOOT  =      0    no. of reboots
   NMIN     =      0    reboot dimension
   EREF     =   0.00    reference energy to select bands
   IMIX   =      4    mixing-type and parameters
     AMIX     =   0.40;   BMIX     =  1.00
     AMIX_MAG =   1.60;   BMIX_MAG =  1.00
     AMIN     =   0.10
     WC   =   100.;   INIMIX=   1;  MIXPRE=   1;  MAXMIX= -45

 Intra band minimization:
   WEIMIN = 0.0000     energy-eigenvalue tresh-hold
   EBREAK =  0.22E-08  absolut break condition
   DEPER  =   0.30     relativ break condition  

   TIME   =   0.40     timestep for ELM

  volume/ion in A,a.u.               =      40.63       274.18
  Fermi-wavevector in a.u.,A,eV,Ry     =   0.983159  1.857901 13.151410  0.966601
  Thomas-Fermi vector in A             =   2.114296

 Write flags
   LWAVE        =      F    write WAVECAR
   LDOWNSAMPLE  =      F    k-point downsampling of WAVECAR
   LCHARG       =      F    write CHGCAR
   LVTOT        =      F    write LOCPOT, total local potential
   LVHAR        =      T    write LOCPOT, Hartree potential only
   LELF         =      F    write electronic localiz. function (ELF)
   LORBIT       =     10    0 simple, 1 ext, 2 COOP (PROOUT), +10 PAW based schemes


 Dipole corrections
   LMONO  =      F    monopole corrections only (constant potential shift)
   LDIPOL =      F    correct potential (dipole corrections)
   IDIPOL =      0    1-x, 2-y, 3-z, 4-all directions 
   EPSILON=  1.0000000 bulk dielectric constant

 Exchange correlation treatment:
   GGA     =    --    GGA type
   LEXCH   =     8    internal setting for exchange type
   VOSKOWN=      0    Vosko Wilk Nusair interpolation
   LHFCALC =     F    Hartree Fock is set to
   LHFONE  =     F    Hartree Fock one center treatment
   AEXX    =    0.0000 exact exchange contribution

 Linear response parameters
   LEPSILON=     F    determine dielectric tensor
   LRPA    =     F    only Hartree local field effects (RPA)
   LNABLA  =     F    use nabla operator in PAW spheres
   LVEL    =     F    velocity operator in full k-point grid
   LINTERFAST=   F  fast interpolation
   KINTER  =     0    interpolate to denser k-point grid
   CSHIFT  =0.1000    complex shift for real part using Kramers Kronig
   OMEGAMAX=  -1.0    maximum frequency
   DEG_THRESHOLD= 0.2000000E-02 threshold for treating states as degnerate
   RTIME   =   -0.100 relaxation time in fs
  (WPLASMAI=    0.000 imaginary part of plasma frequency in eV, 0.658/RTIME)
   DFIELD  = 0.0000000 0.0000000 0.0000000 field for delta impulse in time

 Orbital magnetization related:
   ORBITALMAG=     F  switch on orbital magnetization
   LCHIMAG   =     F  perturbation theory with respect to B field
   DQ        =  0.001000  dq finite difference perturbation B field
   LLRAUG    =     F  two centre corrections for induced B field



--------------------------------------------------------------------------------------------------------


 Static calculation
 charge density and potential will be updated during run
 non-spin polarized calculation
 Variant of blocked Davidson
 Davidson routine will perform the subspace rotation
 perform sub-space diagonalisation
    after iterative eigenvector-optimisation
 modified Broyden-mixing scheme, WC =      100.0
 initial mixing is a Kerker type mixing with AMIX =  0.4000 and BMIX =      1.0000
 Hartree-type preconditioning will be used
 using additional bands           24
 real space projection scheme for non local part
 use partial core corrections
 calculate Harris-corrections to forces   (improved forces if not selfconsistent)
 use gradient corrections 
 use of overlap-Matrix (Vanderbilt PP)
 Gauss-broadening in eV      SIGMA  =   0.01


--------------------------------------------------------------------------------------------------------


  energy-cutoff  :      300.00
  volume of cell :      812.58
      direct lattice vectors                 reciprocal lattice vectors
     8.672618126  0.000000000  0.000000000     0.115305434  0.000000000  0.000000000
     0.000000000 12.116722018  0.000000000     0.000000000  0.082530572  0.000000000
     0.000000000  0.000000000  7.732691765     0.000000000  0.000000000  0.129321073

  length of vectors
     8.672618126 12.116722018  7.732691765     0.115305434  0.082530572  0.129321073



 k-points in units of 2pi/SCALE and weight: 1x1x1                                   
   0.00000000  0.00000000  0.00000000       0.056
   0.03843514  0.00000000  0.00000000       0.111
   0.00000000  0.04126529  0.00000000       0.056
   0.03843514  0.04126529  0.00000000       0.111
   0.00000000  0.00000000  0.04310702       0.111
   0.03843514  0.00000000  0.04310702       0.222
   0.00000000  0.04126529  0.04310702       0.111
   0.03843514  0.04126529  0.04310702       0.222

 k-points in reciprocal lattice and weights: 1x1x1                                   
   0.00000000  0.00000000  0.00000000       0.056
   0.33333333  0.00000000  0.00000000       0.111
   0.00000000  0.50000000  0.00000000       0.056
   0.33333333  0.50000000  0.00000000       0.111
   0.00000000  0.00000000  0.33333333       0.111
   0.33333333  0.00000000  0.33333333       0.222
   0.00000000  0.50000000  0.33333333       0.111
   0.33333333  0.50000000  0.33333333       0.222

 position of ions in fractional coordinates (direct lattice) 
   0.07286331  0.25000000  0.47024290
   0.42713669  0.75000000  0.97024290
   0.57286331  0.25000000  0.02975710
   0.92713669  0.75000000  0.52975710
   0.00000000  0.00000000  0.00000000
   0.50000000  0.00000000  0.50000000
   0.50000000  0.50000000  0.50000000
   0.00000000  0.50000000  0.00000000
   0.50691735  0.75000000  0.44969638
   0.99308265  0.25000000  0.94969638
   0.00691735  0.75000000  0.05030362
   0.49308265  0.25000000  0.55030362
   0.30401003  0.46822520  0.18394757
   0.19598997  0.53177480  0.68394757
   0.80401003  0.03177480  0.31605243
   0.69598997  0.96822520  0.81605243
   0.30401003  0.03177480  0.18394757
   0.19598997  0.96822520  0.68394757
   0.69598997  0.53177480  0.81605243
   0.80401003  0.46822520  0.31605243

 position of ions in cartesian coordinates  (Angst):
   0.63191563  3.02918050  3.63624342
   3.70439343  9.08754151  7.50258930
   4.96822470  3.02918050  0.23010246
   8.04070249  9.08754151  4.09644834
   0.00000000  0.00000000  0.00000000
   4.33630906  0.00000000  3.86634588
   4.33630906  6.05836101  3.86634588
   0.00000000  6.05836101  0.00000000
   4.39630063  9.08754151  3.47736350
   8.61262656  3.02918050  7.34370938
   0.05999157  9.08754151  0.38898238
   4.27631749  3.02918050  4.25532826
   2.63656286  5.67335458  1.42240987
   1.69974620  6.44336744  5.28875575
   6.97287192  0.38500643  2.44393601
   6.03605527 11.73171559  6.31028190
   2.63656286  0.38500643  1.42240987
   1.69974620 11.73171559  5.28875575
   6.03605527  6.44336744  6.31028190
   6.97287192  5.67335458  2.44393601



--------------------------------------------------------------------------------------------------------


 k-point  1 :   0.0000 0.0000 0.0000  plane waves:    9563
 k-point  2 :   0.3333 0.0000 0.0000  plane waves:    9584
 k-point  3 :   0.0000 0.5000 0.0000  plane waves:    9606
 k-point  4 :   0.3333 0.5000 0.0000  plane waves:    9586
 k-point  5 :   0.0000 0.0000 0.3333  plane waves:    9580
 k-point  6 :   0.3333 0.0000 0.3333  plane waves:    9598
 k-point  7 :   0.0000 0.5000 0.3333  plane waves:    9596
 k-point  8 :   0.3333 0.5000 0.3333  plane waves:    9592

 maximum and minimum number of plane-waves per node :      1223     1171

 maximum number of plane-waves:      9606
 maximum index in each direction: 
   IXMAX=   12   IYMAX=   17   IZMAX=   10
   IXMIN=  -12   IYMIN=  -17   IZMIN=  -11


 real space projection operators:
  total allocation   :       8209.62 KBytes
  max/ min on nodes  :       1147.14        942.98


 parallel 3D FFT for wavefunctions:
    minimum data exchange during FFTs selected (reduces bandwidth)
 parallel 3D FFT for charge:
    minimum data exchange during FFTs selected (reduces bandwidth)


 total amount of memory used by VASP MPI-rank0    43682. kBytes
=======================================================================

   base      :      30000. kBytes
   nonlr-proj:       3273. kBytes
   fftplans  :       4446. kBytes
   grid      :       3667. kBytes
   one-center:         46. kBytes
   wavefun   :       2250. kBytes

     INWAV:  cpu time    0.0000: real time    0.0000
 Broyden mixing: mesh for mixing (old mesh)
   NGX = 25   NGY = 35   NGZ = 21
  (NGX  =100   NGY  =140   NGZ  = 96)
  gives a total of  18375 points

 initial charge density was supplied:
 charge density of overlapping atoms calculated
 number of electron     176.0000000 magnetization 
 keeping initial charge density in first step


--------------------------------------------------------------------------------------------------------


 Maximum index for non-local projection operator          940
 Maximum index for augmentation-charges         4594 (set IRDMAX)


--------------------------------------------------------------------------------------------------------


 First call to EWALD:  gamma=   0.190
 Maximum number of real-space cells 3x 2x 3
 Maximum number of reciprocal cells 3x 3x 2

    FEWALD:  cpu time    0.0022: real time    0.0022


--------------------------------------- Iteration      1(   1)  ---------------------------------------


    POTLOK:  cpu time    0.1291: real time    0.1385
    SETDIJ:  cpu time    1.1065: real time    1.1065
     EDDAV:  cpu time    4.3185: real time    4.3233
       DOS:  cpu time    0.0003: real time    0.0003
    --------------------------------------------
      LOOP:  cpu time    5.5544: real time    5.5687

 eigenvalue-minimisations  :  1816
 total energy-change (2. order) : 0.6519806E+03  (-0.5581398E+04)
 number of electron     176.0000000 magnetization 
 augmentation part      176.0000000 magnetization 

 Free energy of the ion-electron system (eV)
  ---------------------------------------------------
  alpha Z        PSCENC =       444.02887702
  Ewald energy   TEWEN  =     -9193.57922232
  -Hartree energ DENC   =     -3672.32820289
  -exchange      EXHF   =         0.00000000
  -V(xc)+E(xc)   XCENC  =       461.64497397
  PAW double counting   =     10816.98087266   -11353.96092700
  entropy T*S    EENTRO =        -0.00000000
  eigenvalues    EBANDS =      -141.08590576
  atomic energy  EATOM  =     13290.28009929
  Solvation  Ediel_sol  =         0.00000000
  ---------------------------------------------------
  free energy    TOTEN  =       651.98056497 eV

  energy without entropy =      651.98056497  energy(sigma->0) =      651.98056497


--------------------------------------------------------------------------------------------------------




--------------------------------------- Iteration      1(   2)  ---------------------------------------


     EDDAV:  cpu time    4.8791: real time    4.9171
       DOS:  cpu time    0.0005: real time    0.0005
    --------------------------------------------
      LOOP:  cpu time    4.8795: real time    4.9176

 eigenvalue-minimisations  :  2192
 total energy-change (2. order) :-0.1230540E+04  (-0.1177123E+04)
 number of electron     176.0000000 magnetization 
 augmentation part      176.0000000 magnetization 

 Free energy of the ion-electron system (eV)
  ---------------------------------------------------
  alpha Z        PSCENC =       444.02887702
  Ewald energy   TEWEN  =     -9193.57922232
  -Hartree energ DENC   =     -3672.32820289
  -exchange      EXHF   =         0.00000000
  -V(xc)+E(xc)   XCENC  =       461.64497397
  PAW double counting   =     10816.98087266   -11353.96092700
  entropy T*S    EENTRO =        -0.00000000
  eigenvalues    EBANDS =     -1371.62568629
  atomic energy  EATOM  =     13290.28009929
  Solvation  Ediel_sol  =         0.00000000
  ---------------------------------------------------
  free energy    TOTEN  =      -578.55921557 eV

  energy without entropy =     -578.55921557  energy(sigma->0) =     -578.55921557


--------------------------------------------------------------------------------------------------------




--------------------------------------- Iteration      1(   3)  ---------------------------------------


     EDDAV:  cpu time    5.2790: real time    5.3254
       DOS:  cpu time    0.0003: real time    0.0003
    --------------------------------------------
      LOOP:  cpu time    5.2793: real time    5.3257

 eigenvalue-minimisations  :  2480
 total energy-change (2. order) :-0.1713767E+03  (-0.1703357E+03)
 number of electron     176.0000000 magnetization 
 augmentation part      176.0000000 magnetization 

 Free energy of the ion-electron system (eV)
  ---------------------------------------------------
  alpha Z        PSCENC =       444.02887702
  Ewald energy   TEWEN  =     -9193.57922232
  -Hartree energ DENC   =     -3672.32820289
  -exchange      EXHF   =         0.00000000
  -V(xc)+E(xc)   XCENC  =       461.64497397
  PAW double counting   =     10816.98087266   -11353.96092700
  entropy T*S    EENTRO =        -0.00000000
  eigenvalues    EBANDS =     -1543.00237167
  atomic energy  EATOM  =     13290.28009929
  Solvation  Ediel_sol  =         0.00000000
  ---------------------------------------------------
  free energy    TOTEN  =      -749.93590095 eV

  energy without entropy =     -749.93590095  energy(sigma->0) =     -749.93590095


--------------------------------------------------------------------------------------------------------




--------------------------------------- Iteration      1(   4)  ---------------------------------------


     EDDAV:  cpu time    4.8417: real time    4.8603
       DOS:  cpu time    0.0003: real time    0.0003
    --------------------------------------------
      LOOP:  cpu time    4.8420: real time    4.8606

 eigenvalue-minimisations  :  2152
 total energy-change (2. order) :-0.4664083E+01  (-0.4651357E+01)
 number of electron     176.0000000 magnetization 
 augmentation part      176.0000000 magnetization 

 Free energy of the ion-electron system (eV)
  ---------------------------------------------------
  alpha Z        PSCENC =       444.02887702
  Ewald energy   TEWEN  =     -9193.57922232
  -Hartree energ DENC   =     -3672.32820289
  -exchange      EXHF   =         0.00000000
  -V(xc)+E(xc)   XCENC  =       461.64497397
  PAW double counting   =     10816.98087266   -11353.96092700
  entropy T*S    EENTRO =        -0.00000000
  eigenvalues    EBANDS =     -1547.66645486
  atomic energy  EATOM  =     13290.28009929
  Solvation  Ediel_sol  =         0.00000000
  ---------------------------------------------------
  free energy    TOTEN  =      -754.59998414 eV

  energy without entropy =     -754.59998414  energy(sigma->0) =     -754.59998414


--------------------------------------------------------------------------------------------------------




--------------------------------------- Iteration      1(   5)  ---------------------------------------


     EDDAV:  cpu time    5.0853: real time    5.0978
       DOS:  cpu time    0.0004: real time    0.0004
    CHARGE:  cpu time    0.9595: real time    0.9595
    MIXING:  cpu time    0.0008: real time    0.0008
    --------------------------------------------
      LOOP:  cpu time    6.0461: real time    6.0586

 eigenvalue-minimisations  :  2344
 total energy-change (2. order) :-0.2042082E+00  (-0.2041077E+00)
 number of electron     175.9999998 magnetization 
 augmentation part       -3.2362185 magnetization 

 Broyden mixing:
  rms(total) = 0.69230E+00    rms(broyden)= 0.69204E+00
  rms(prec ) = 0.96590E+00
  weight for this iteration     100.00

 Free energy of the ion-electron system (eV)
  ---------------------------------------------------
  alpha Z        PSCENC =       444.02887702
  Ewald energy   TEWEN  =     -9193.57922232
  -Hartree energ DENC   =     -3672.32820289
  -exchange      EXHF   =         0.00000000
  -V(xc)+E(xc)   XCENC  =       461.64497397
  PAW double counting   =     10816.98087266   -11353.96092700
  entropy T*S    EENTRO =        -0.00000000
  eigenvalues    EBANDS =     -1547.87066303
  atomic energy  EATOM  =     13290.28009929
  Solvation  Ediel_sol  =         0.00000000
  ---------------------------------------------------
  free energy    TOTEN  =      -754.80419231 eV

  energy without entropy =     -754.80419231  energy(sigma->0) =     -754.80419231


--------------------------------------------------------------------------------------------------------




--------------------------------------- Iteration      1(   6)  ---------------------------------------


    POTLOK:  cpu time    0.1267: real time    0.1665
    SETDIJ:  cpu time    1.1126: real time    1.1126
     EDDAV:  cpu time    5.1543: real time    5.1545
       DOS:  cpu time    0.0004: real time    0.0004
    CHARGE:  cpu time    0.9259: real time    0.9259
    MIXING:  cpu time    0.0009: real time    0.0009
    --------------------------------------------
      LOOP:  cpu time    7.3208: real time    7.3608

 eigenvalue-minimisations  :  2408
 total energy-change (2. order) : 0.3988162E+02  (-0.1186346E+01)
 number of electron     175.9999998 magnetization 
 augmentation part       -2.5044561 magnetization 

 Broyden mixing:
  rms(total) = 0.49392E+00    rms(broyden)= 0.49383E+00
  rms(prec ) = 0.61512E+00
  weight for this iteration     100.00

 eigenvalues of (default mixing * dielectric matrix)
  average eigenvalue GAMMA=   1.1329
  1.1329

 Free energy of the ion-electron system (eV)
  ---------------------------------------------------
  alpha Z        PSCENC =       444.02887702
  Ewald energy   TEWEN  =     -9193.57922232
  -Hartree energ DENC   =     -3662.02182588
  -exchange      EXHF   =         0.00000000
  -V(xc)+E(xc)   XCENC  =       477.08494538
  PAW double counting   =     10944.72622375   -11480.59705872
  entropy T*S    EENTRO =        -0.00000000
  eigenvalues    EBANDS =     -1534.84460920
  atomic energy  EATOM  =     13290.28009929
  Solvation  Ediel_sol  =         0.00000000
  ---------------------------------------------------
  free energy    TOTEN  =      -714.92257069 eV

  energy without entropy =     -714.92257069  energy(sigma->0) =     -714.92257069


--------------------------------------------------------------------------------------------------------




--------------------------------------- Iteration      1(   7)  ---------------------------------------


    POTLOK:  cpu time    0.1411: real time    0.1766
    SETDIJ:  cpu time    1.1048: real time    1.1048
     EDDAV:  cpu time    4.8702: real time    4.8704
       DOS:  cpu time    0.0004: real time    0.0004
    CHARGE:  cpu time    0.9253: real time    0.9253
    MIXING:  cpu time    0.0009: real time    0.0009
    --------------------------------------------
      LOOP:  cpu time    7.0427: real time    7.0785

 eigenvalue-minimisations  :  2208
 total energy-change (2. order) : 0.2426669E+00  (-0.3947315E+00)
 number of electron     175.9999998 magnetization 
 augmentation part       -2.2370431 magnetization 

 Broyden mixing:
  rms(total) = 0.26015E+00    rms(broyden)= 0.26014E+00
  rms(prec ) = 0.28512E+00
  weight for this iteration     100.00

 eigenvalues of (default mixing * dielectric matrix)
  average eigenvalue GAMMA=   1.3112
  1.3112  1.3112

 Free energy of the ion-electron system (eV)
  ---------------------------------------------------
  alpha Z        PSCENC =       444.02887702
  Ewald energy   TEWEN  =     -9193.57922232
  -Hartree energ DENC   =     -3681.07054428
  -exchange      EXHF   =         0.00000000
  -V(xc)+E(xc)   XCENC  =       479.68108136
  PAW double counting   =     11236.16721425   -11770.95795473
  entropy T*S    EENTRO =        -0.00000000
  eigenvalues    EBANDS =     -1519.22945438
  atomic energy  EATOM  =     13290.28009929
  Solvation  Ediel_sol  =         0.00000000
  ---------------------------------------------------
  free energy    TOTEN  =      -714.67990380 eV

  energy without entropy =     -714.67990380  energy(sigma->0) =     -714.67990380


--------------------------------------------------------------------------------------------------------




--------------------------------------- Iteration      1(   8)  ---------------------------------------


    POTLOK:  cpu time    0.1258: real time    0.1758
    SETDIJ:  cpu time    1.1051: real time    1.1051
     EDDAV:  cpu time    4.8187: real time    4.8190
       DOS:  cpu time    0.0003: real time    0.0003
    CHARGE:  cpu time    0.9208: real time    0.9208
    MIXING:  cpu time    0.0009: real time    0.0009
    --------------------------------------------
      LOOP:  cpu time    6.9716: real time    7.0219

 eigenvalue-minimisations  :  2176
 total energy-change (2. order) :-0.9869850E-01  (-0.1873859E-01)
 number of electron     175.9999998 magnetization 
 augmentation part       -2.2820023 magnetization 

 Broyden mixing:
  rms(total) = 0.14845E+00    rms(broyden)= 0.14844E+00
  rms(prec ) = 0.16465E+00
  weight for this iteration     100.00

 eigenvalues of (default mixing * dielectric matrix)
  average eigenvalue GAMMA=   1.7000
  1.1072  1.3078  2.6849

 Free energy of the ion-electron system (eV)
  ---------------------------------------------------
  alpha Z        PSCENC =       444.02887702
  Ewald energy   TEWEN  =     -9193.57922232
  -Hartree energ DENC   =     -3683.03298798
  -exchange      EXHF   =         0.00000000
  -V(xc)+E(xc)   XCENC  =       480.04394123
  PAW double counting   =     11351.29393940   -11886.20154337
  entropy T*S    EENTRO =        -0.00000000
  eigenvalues    EBANDS =     -1517.61170556
  atomic energy  EATOM  =     13290.28009929
  Solvation  Ediel_sol  =         0.00000000
  ---------------------------------------------------
  free energy    TOTEN  =      -714.77860229 eV

  energy without entropy =     -714.77860229  energy(sigma->0) =     -714.77860229


--------------------------------------------------------------------------------------------------------




--------------------------------------- Iteration      1(   9)  ---------------------------------------


    POTLOK:  cpu time    0.1380: real time    0.1704
    SETDIJ:  cpu time    1.1031: real time    1.1032
     EDDAV:  cpu time    4.5044: real time    4.5046
       DOS:  cpu time    0.0006: real time    0.0006
    CHARGE:  cpu time    0.9238: real time    0.9239
    MIXING:  cpu time    0.0009: real time    0.0009
    --------------------------------------------
      LOOP:  cpu time    6.6709: real time    6.7036

 eigenvalue-minimisations  :  1960
 total energy-change (2. order) :-0.4114721E-01  (-0.8911261E-02)
 number of electron     175.9999998 magnetization 
 augmentation part       -2.3044531 magnetization 

 Broyden mixing:
  rms(total) = 0.32094E-01    rms(broyden)= 0.32091E-01
  rms(prec ) = 0.34429E-01
  weight for this iteration     100.00

 eigenvalues of (default mixing * dielectric matrix)
  average eigenvalue GAMMA=   1.4631
  2.5322  1.2442  1.2442  0.8316

 Free energy of the ion-electron system (eV)
  ---------------------------------------------------
  alpha Z        PSCENC =       444.02887702
  Ewald energy   TEWEN  =     -9193.57922232
  -Hartree energ DENC   =     -3685.38280591
  -exchange      EXHF   =         0.00000000
  -V(xc)+E(xc)   XCENC  =       481.02962161
  PAW double counting   =     11514.29599845   -12049.52174415
  entropy T*S    EENTRO =        -0.00000000
  eigenvalues    EBANDS =     -1515.97057350
  atomic energy  EATOM  =     13290.28009929
  Solvation  Ediel_sol  =         0.00000000
  ---------------------------------------------------
  free energy    TOTEN  =      -714.81974950 eV

  energy without entropy =     -714.81974950  energy(sigma->0) =     -714.81974950


--------------------------------------------------------------------------------------------------------




--------------------------------------- Iteration      1(  10)  ---------------------------------------


    POTLOK:  cpu time    0.1367: real time    0.1711
    SETDIJ:  cpu time    1.1035: real time    1.1036
     EDDAV:  cpu time    5.4566: real time    5.4568
       DOS:  cpu time    0.0004: real time    0.0004
    CHARGE:  cpu time    0.9234: real time    0.9235
    MIXING:  cpu time    0.0010: real time    0.0010
    --------------------------------------------
      LOOP:  cpu time    7.6216: real time    7.6563

 eigenvalue-minimisations  :  2616
 total energy-change (2. order) :-0.1118064E-02  (-0.5809418E-03)
 number of electron     175.9999998 magnetization 
 augmentation part       -2.2975379 magnetization 

 Broyden mixing:
  rms(total) = 0.18862E-01    rms(broyden)= 0.18862E-01
  rms(prec ) = 0.21073E-01
  weight for this iteration     100.00

 eigenvalues of (default mixing * dielectric matrix)
  average eigenvalue GAMMA=   1.6020
  2.4505  2.4505  1.1319  1.1319  0.8450

 Free energy of the ion-electron system (eV)
  ---------------------------------------------------
  alpha Z        PSCENC =       444.02887702
  Ewald energy   TEWEN  =     -9193.57922232
  -Hartree energ DENC   =     -3684.50026591
  -exchange      EXHF   =         0.00000000
  -V(xc)+E(xc)   XCENC  =       480.92924853
  PAW double counting   =     11498.22939488   -12033.50994325
  entropy T*S    EENTRO =        -0.00000000
  eigenvalues    EBANDS =     -1516.69905581
  atomic energy  EATOM  =     13290.28009929
  Solvation  Ediel_sol  =         0.00000000
  ---------------------------------------------------
  free energy    TOTEN  =      -714.82086757 eV

  energy without entropy =     -714.82086757  energy(sigma->0) =     -714.82086757


--------------------------------------------------------------------------------------------------------




--------------------------------------- Iteration      1(  11)  ---------------------------------------


    POTLOK:  cpu time    0.1309: real time    0.1556
    SETDIJ:  cpu time    1.1079: real time    1.1079
     EDDAV:  cpu time    4.4792: real time    4.4794
       DOS:  cpu time    0.0004: real time    0.0004
    CHARGE:  cpu time    0.9176: real time    0.9176
    MIXING:  cpu time    0.0012: real time    0.0012
    --------------------------------------------
      LOOP:  cpu time    6.6372: real time    6.6622

 eigenvalue-minimisations  :  1944
 total energy-change (2. order) :-0.1782223E-02  (-0.1951369E-03)
 number of electron     175.9999998 magnetization 
 augmentation part       -2.2974980 magnetization 

 Broyden mixing:
  rms(total) = 0.67508E-02    rms(broyden)= 0.67504E-02
  rms(prec ) = 0.82600E-02
  weight for this iteration     100.00

 eigenvalues of (default mixing * dielectric matrix)
  average eigenvalue GAMMA=   1.5803
  2.6180  2.6180  1.2157  1.2157  0.9072  0.9072

 Free energy of the ion-electron system (eV)
  ---------------------------------------------------
  alpha Z        PSCENC =       444.02887702
  Ewald energy   TEWEN  =     -9193.57922232
  -Hartree energ DENC   =     -3683.11392190
  -exchange      EXHF   =         0.00000000
  -V(xc)+E(xc)   XCENC  =       480.88102656
  PAW double counting   =     11484.68871467   -12020.15999991
  entropy T*S    EENTRO =        -0.00000000
  eigenvalues    EBANDS =     -1517.84822319
  atomic energy  EATOM  =     13290.28009929
  Solvation  Ediel_sol  =         0.00000000
  ---------------------------------------------------
  free energy    TOTEN  =      -714.82264979 eV

  energy without entropy =     -714.82264979  energy(sigma->0) =     -714.82264979


--------------------------------------------------------------------------------------------------------




--------------------------------------- Iteration      1(  12)  ---------------------------------------


    POTLOK:  cpu time    0.1420: real time    0.1507
    SETDIJ:  cpu time    1.1089: real time    1.1089
     EDDAV:  cpu time    4.8222: real time    4.8224
       DOS:  cpu time    0.0004: real time    0.0004
    CHARGE:  cpu time    0.9232: real time    0.9233
    MIXING:  cpu time    0.0010: real time    0.0010
    --------------------------------------------
      LOOP:  cpu time    6.9978: real time    7.0067

 eigenvalue-minimisations  :  2176
 total energy-change (2. order) :-0.4060487E-04  (-0.4702021E-04)
 number of electron     175.9999998 magnetization 
 augmentation part       -2.2992413 magnetization 

 Broyden mixing:
  rms(total) = 0.23135E-02    rms(broyden)= 0.23129E-02
  rms(prec ) = 0.26776E-02
  weight for this iteration     100.00

 eigenvalues of (default mixing * dielectric matrix)
  average eigenvalue GAMMA=   1.6316
  3.0799  2.2472  1.9577  0.9480  0.9480  1.1465  1.0940

 Free energy of the ion-electron system (eV)
  ---------------------------------------------------
  alpha Z        PSCENC =       444.02887702
  Ewald energy   TEWEN  =     -9193.57922232
  -Hartree energ DENC   =     -3683.28136845
  -exchange      EXHF   =         0.00000000
  -V(xc)+E(xc)   XCENC  =       480.93976394
  PAW double counting   =     11489.42258273   -12024.93690664
  entropy T*S    EENTRO =        -0.00000000
  eigenvalues    EBANDS =     -1517.69651597
  atomic energy  EATOM  =     13290.28009929
  Solvation  Ediel_sol  =         0.00000000
  ---------------------------------------------------
  free energy    TOTEN  =      -714.82269039 eV

  energy without entropy =     -714.82269039  energy(sigma->0) =     -714.82269039


--------------------------------------------------------------------------------------------------------




--------------------------------------- Iteration      1(  13)  ---------------------------------------


    POTLOK:  cpu time    0.1222: real time    0.1449
    SETDIJ:  cpu time    1.1087: real time    1.1087
     EDDAV:  cpu time    4.8408: real time    4.8410
       DOS:  cpu time    0.0004: real time    0.0004
    CHARGE:  cpu time    0.9211: real time    0.9211
    MIXING:  cpu time    0.0015: real time    0.0015
    --------------------------------------------
      LOOP:  cpu time    6.9947: real time    7.0176

 eigenvalue-minimisations  :  2192
 total energy-change (2. order) : 0.1437544E-04  (-0.5624987E-05)
 number of electron     175.9999998 magnetization 
 augmentation part       -2.2992408 magnetization 

 Broyden mixing:
  rms(total) = 0.74614E-03    rms(broyden)= 0.74540E-03
  rms(prec ) = 0.81575E-03
  weight for this iteration     100.00

 eigenvalues of (default mixing * dielectric matrix)
  average eigenvalue GAMMA=   1.6351
  2.9999  2.4565  2.1173  1.2944  1.2944  0.9455  0.9865  0.9865

 Free energy of the ion-electron system (eV)
  ---------------------------------------------------
  alpha Z        PSCENC =       444.02887702
  Ewald energy   TEWEN  =     -9193.57922232
  -Hartree energ DENC   =     -3683.45953596
  -exchange      EXHF   =         0.00000000
  -V(xc)+E(xc)   XCENC  =       480.95510636
  PAW double counting   =     11488.53339706   -12024.05093669
  entropy T*S    EENTRO =        -0.00000000
  eigenvalues    EBANDS =     -1517.53046078
  atomic energy  EATOM  =     13290.28009929
  Solvation  Ediel_sol  =         0.00000000
  ---------------------------------------------------
  free energy    TOTEN  =      -714.82267602 eV

  energy without entropy =     -714.82267602  energy(sigma->0) =     -714.82267602


--------------------------------------------------------------------------------------------------------




--------------------------------------- Iteration      1(  14)  ---------------------------------------


    POTLOK:  cpu time    0.1247: real time    0.1750
    SETDIJ:  cpu time    1.1103: real time    1.1103
     EDDAV:  cpu time    4.3297: real time    4.3299
       DOS:  cpu time    0.0006: real time    0.0006
    CHARGE:  cpu time    0.9225: real time    0.9226
    MIXING:  cpu time    0.0011: real time    0.0011
    --------------------------------------------
      LOOP:  cpu time    6.4889: real time    6.5394

 eigenvalue-minimisations  :  1816
 total energy-change (2. order) :-0.1932824E-04  (-0.3643119E-06)
 number of electron     175.9999998 magnetization 
 augmentation part       -2.2990167 magnetization 

 Broyden mixing:
  rms(total) = 0.23543E-03    rms(broyden)= 0.23347E-03
  rms(prec ) = 0.27834E-03
  weight for this iteration     100.00

 eigenvalues of (default mixing * dielectric matrix)
  average eigenvalue GAMMA=   1.6823
  2.8669  2.6444  2.2035  2.2035  1.1579  1.1579  0.9321  0.9872  0.9872

 Free energy of the ion-electron system (eV)
  ---------------------------------------------------
  alpha Z        PSCENC =       444.02887702
  Ewald energy   TEWEN  =     -9193.57922232
  -Hartree energ DENC   =     -3683.46928940
  -exchange      EXHF   =         0.00000000
  -V(xc)+E(xc)   XCENC  =       480.95458242
  PAW double counting   =     11488.05854975   -12023.57413759
  entropy T*S    EENTRO =        -0.00000000
  eigenvalues    EBANDS =     -1517.52215452
  atomic energy  EATOM  =     13290.28009929
  Solvation  Ediel_sol  =         0.00000000
  ---------------------------------------------------
  free energy    TOTEN  =      -714.82269535 eV

  energy without entropy =     -714.82269535  energy(sigma->0) =     -714.82269535


--------------------------------------------------------------------------------------------------------




--------------------------------------- Iteration      1(  15)  ---------------------------------------


    POTLOK:  cpu time    0.1324: real time    0.1623
    SETDIJ:  cpu time    1.1119: real time    1.1120
     EDDAV:  cpu time    3.5707: real time    3.5708
       DOS:  cpu time    0.0004: real time    0.0004
    CHARGE:  cpu time    0.9170: real time    0.9170
    MIXING:  cpu time    0.0015: real time    0.0015
    --------------------------------------------
      LOOP:  cpu time    5.7339: real time    5.7639

 eigenvalue-minimisations  :  1272
 total energy-change (2. order) :-0.1034963E-05  (-0.5839366E-07)
 number of electron     175.9999998 magnetization 
 augmentation part       -2.2990383 magnetization 

 Broyden mixing:
  rms(total) = 0.77347E-04    rms(broyden)= 0.71306E-04
  rms(prec ) = 0.89857E-04
  weight for this iteration     100.00

 eigenvalues of (default mixing * dielectric matrix)
  average eigenvalue GAMMA=   1.6613
  3.1541  2.7050  2.4952  1.8460  1.2163  1.2163  0.9475  0.9475  1.0424  1.0424

 Free energy of the ion-electron system (eV)
  ---------------------------------------------------
  alpha Z        PSCENC =       444.02887702
  Ewald energy   TEWEN  =     -9193.57922232
  -Hartree energ DENC   =     -3683.45651271
  -exchange      EXHF   =         0.00000000
  -V(xc)+E(xc)   XCENC  =       480.95373474
  PAW double counting   =     11488.13771755   -12023.65296990
  entropy T*S    EENTRO =        -0.00000000
  eigenvalues    EBANDS =     -1517.53442005
  atomic energy  EATOM  =     13290.28009929
  Solvation  Ediel_sol  =         0.00000000
  ---------------------------------------------------
  free energy    TOTEN  =      -714.82269638 eV

  energy without entropy =     -714.82269638  energy(sigma->0) =     -714.82269638


--------------------------------------------------------------------------------------------------------




--------------------------------------- Iteration      1(  16)  ---------------------------------------


    POTLOK:  cpu time    0.1589: real time    0.1616
    SETDIJ:  cpu time    1.1109: real time    1.1109
     EDDAV:  cpu time    3.5361: real time    3.5362
       DOS:  cpu time    0.0004: real time    0.0004
    CHARGE:  cpu time    0.9158: real time    0.9159
    MIXING:  cpu time    0.0012: real time    0.0012
    --------------------------------------------
      LOOP:  cpu time    5.7232: real time    5.7262

 eigenvalue-minimisations  :  1248
 total energy-change (2. order) : 0.2448880E-05  (-0.1892499E-07)
 number of electron     175.9999998 magnetization 
 augmentation part       -2.2990895 magnetization 

 Broyden mixing:
  rms(total) = 0.47229E-04    rms(broyden)= 0.36525E-04
  rms(prec ) = 0.42111E-04
  weight for this iteration     100.00
  WARNING: grid for Broyden might be to small

 eigenvalues of (default mixing * dielectric matrix)
  average eigenvalue GAMMA=   1.7006
  2.9223  2.8028  2.8028  1.9710  1.9710  1.1857  1.1857  0.9945  0.9945  0.9381
  0.9381

 Free energy of the ion-electron system (eV)
  ---------------------------------------------------
  alpha Z        PSCENC =       444.02887702
  Ewald energy   TEWEN  =     -9193.57922232
  -Hartree energ DENC   =     -3683.46448551
  -exchange      EXHF   =         0.00000000
  -V(xc)+E(xc)   XCENC  =       480.95438969
  PAW double counting   =     11488.10582325   -12023.62093458
  entropy T*S    EENTRO =        -0.00000000
  eigenvalues    EBANDS =     -1517.52724077
  atomic energy  EATOM  =     13290.28009929
  Solvation  Ediel_sol  =         0.00000000
  ---------------------------------------------------
  free energy    TOTEN  =      -714.82269393 eV

  energy without entropy =     -714.82269393  energy(sigma->0) =     -714.82269393


--------------------------------------------------------------------------------------------------------




--------------------------------------- Iteration      1(  17)  ---------------------------------------


    POTLOK:  cpu time    0.1331: real time    0.1676
    SETDIJ:  cpu time    1.1127: real time    1.1127
     EDDAV:  cpu time    3.7371: real time    3.7373
       DOS:  cpu time    0.0005: real time    0.0004
    --------------------------------------------
      LOOP:  cpu time    4.9833: real time    5.0180

 eigenvalue-minimisations  :  1400
 total energy-change (2. order) : 0.8824786E-06  (-0.2156458E-06)
 number of electron     175.9999998 magnetization 
 augmentation part       -2.2990895 magnetization 

 Free energy of the ion-electron system (eV)
  ---------------------------------------------------
  alpha Z        PSCENC =       444.02887702
  Ewald energy   TEWEN  =     -9193.57922232
  -Hartree energ DENC   =     -3683.46724629
  -exchange      EXHF   =         0.00000000
  -V(xc)+E(xc)   XCENC  =       480.95458182
  PAW double counting   =     11488.09920834   -12023.61866776
  entropy T*S    EENTRO =        -0.00000000
  eigenvalues    EBANDS =     -1517.52032315
  atomic energy  EATOM  =     13290.28009929
  Solvation  Ediel_sol  =         0.00000000
  ---------------------------------------------------
  free energy    TOTEN  =      -714.82269305 eV

  energy without entropy =     -714.82269305  energy(sigma->0) =     -714.82269305


--------------------------------------------------------------------------------------------------------




 average (electrostatic) potential at core
  the test charge radii are     1.1312  1.1541  1.0178
  (the norm of the test charge is              1.0000)
       1 -55.3295       2 -55.3321       3 -55.3295       4 -55.3321       5-101.8006
       6-101.8006       7-101.8006       8-101.8006       9 -69.0212      10 -69.0212
      11 -69.0212      12 -69.0212      13 -69.0291      14 -69.0291      15 -69.0291
      16 -69.0291      17 -69.0291      18 -69.0291      19 -69.0291      20 -69.0291



 E-fermi :   0.3641     XC(G=0):  -8.0254     alpha+bet : -6.9661


 k-point     1 :       0.0000    0.0000    0.0000
  band No.  band energies     occupation 
      1     -20.8569      2.00000
      2     -20.8555      2.00000
      3     -20.8528      2.00000
      4     -20.8520      2.00000
      5     -16.5866      2.00000
      6     -16.5866      2.00000
      7     -16.5861      2.00000
      8     -16.5612      2.00000
      9     -16.5463      2.00000
     10     -16.5173      2.00000
     11     -16.5068      2.00000
     12     -16.5065      2.00000
     13     -16.4683      2.00000
     14     -16.4678      2.00000
     15     -16.4674      2.00000
     16     -16.4670      2.00000
     17     -16.4501      2.00000
     18     -16.4498      2.00000
     19     -16.4495      2.00000
     20     -16.4488      2.00000
     21     -16.4418      2.00000
     22     -16.4414      2.00000
     23     -16.4412      2.00000
     24     -16.4409      2.00000
     25     -14.3483      2.00000
     26     -14.2050      2.00000
     27     -14.0745      2.00000
     28     -14.0671      2.00000
     29     -14.0319      2.00000
     30     -14.0198      2.00000
     31     -13.9924      2.00000
     32     -13.9866      2.00000
     33     -13.9799      2.00000
     34     -13.8016      2.00000
     35     -13.7851      2.00000
     36     -13.7841      2.00000
     37      -8.1968      2.00000
     38      -7.7738      2.00000
     39      -7.3060      2.00000
     40      -7.2852      2.00000
     41      -7.2818      2.00000
     42      -7.2652      2.00000
     43      -7.2634      2.00000
     44      -7.2609      2.00000
     45      -7.2528      2.00000
     46      -7.2393      2.00000
     47      -7.2386      2.00000
     48      -7.2374      2.00000
     49      -7.2209      2.00000
     50      -7.2202      2.00000
     51      -7.1940      2.00000
     52      -6.6895      2.00000
     53      -3.3622      2.00000
     54      -3.2926      2.00000
     55      -3.2042      2.00000
     56      -3.1941      2.00000
     57      -3.1490      2.00000
     58      -2.9667      2.00000
     59      -2.1942      2.00000
     60      -1.9634      2.00000
     61      -1.9631      2.00000
     62      -1.8840      2.00000
     63      -1.8359      2.00000
     64      -1.6782      2.00000
     65      -1.6475      2.00000
     66      -1.6139      2.00000
     67      -1.5703      2.00000
     68      -1.5640      2.00000
     69      -1.4932      2.00000
     70      -1.4908      2.00000
     71      -1.4858      2.00000
     72      -1.4821      2.00000
     73      -1.4443      2.00000
     74      -1.4156      2.00000
     75      -1.3678      2.00000
     76      -1.3565      2.00000
     77      -1.3465      2.00000
     78      -1.2013      2.00000
     79      -1.2011      2.00000
     80      -1.1332      2.00000
     81      -1.0683      2.00000
     82      -1.0262      2.00000
     83      -1.0115      2.00000
     84      -0.9788      2.00000
     85      -0.8469      2.00000
     86      -0.7033      2.00000
     87      -0.2528      2.00000
     88       0.2369      2.00000
     89       2.5110      0.00000
     90       2.5703      0.00000
     91       2.9536      0.00000
     92       2.9769      0.00000
     93       3.2125      0.00000
     94       3.3542      0.00000
     95       4.8365      0.00000
     96       5.2464      0.00000
     97       5.5876      0.00000
     98       5.8540      0.00000
     99       5.9008      0.00000
    100       5.9339      0.00000
    101       5.9553      0.00000
    102       6.0847      0.00000
    103       6.1508      0.00000
    104       6.1588      0.00000
    105       6.3411      0.00000
    106       6.3557      0.00000
    107       6.5275      0.00000
    108       6.6772      0.00000
    109       6.8974      0.00000
    110       6.9737      0.00000
    111       7.0187      0.00000
    112       7.0266      0.00000

 k-point     2 :       0.3333    0.0000    0.0000
  band No.  band energies     occupation 
      1     -20.8558      2.00000
      2     -20.8547      2.00000
      3     -20.8539      2.00000
      4     -20.8528      2.00000
      5     -16.5798      2.00000
      6     -16.5678      2.00000
      7     -16.5674      2.00000
      8     -16.5669      2.00000
      9     -16.5389      2.00000
     10     -16.5275      2.00000
     11     -16.5275      2.00000
     12     -16.5245      2.00000
     13     -16.4683      2.00000
     14     -16.4681      2.00000
     15     -16.4673      2.00000
     16     -16.4670      2.00000
     17     -16.4501      2.00000
     18     -16.4497      2.00000
     19     -16.4496      2.00000
     20     -16.4493      2.00000
     21     -16.4417      2.00000
     22     -16.4414      2.00000
     23     -16.4413      2.00000
     24     -16.4411      2.00000
     25     -14.3044      2.00000
     26     -14.1874      2.00000
     27     -14.1728      2.00000
     28     -14.1039      2.00000
     29     -14.0257      2.00000
     30     -14.0217      2.00000
     31     -13.9398      2.00000
     32     -13.9397      2.00000
     33     -13.8917      2.00000
     34     -13.8371      2.00000
     35     -13.8358      2.00000
     36     -13.8226      2.00000
     37      -7.9919      2.00000
     38      -7.5667      2.00000
     39      -7.5243      2.00000
     40      -7.3083      2.00000
     41      -7.2800      2.00000
     42      -7.2776      2.00000
     43      -7.2620      2.00000
     44      -7.2614      2.00000
     45      -7.2552      2.00000
     46      -7.2469      2.00000
     47      -7.2385      2.00000
     48      -7.2260      2.00000
     49      -7.2229      2.00000
     50      -7.2219      2.00000
     51      -7.2043      2.00000
     52      -7.0171      2.00000
     53      -3.1844      2.00000
     54      -3.0967      2.00000
     55      -2.9374      2.00000
     56      -2.8277      2.00000
     57      -2.8201      2.00000
     58      -2.8082      2.00000
     59      -2.2737      2.00000
     60      -2.1481      2.00000
     61      -2.1320      2.00000
     62      -2.0163      2.00000
     63      -2.0151      2.00000
     64      -2.0134      2.00000
     65      -1.7969      2.00000
     66      -1.6975      2.00000
     67      -1.6958      2.00000
     68      -1.6512      2.00000
     69      -1.5137      2.00000
     70      -1.5125      2.00000
     71      -1.4716      2.00000
     72      -1.4516      2.00000
     73      -1.3812      2.00000
     74      -1.3696      2.00000
     75      -1.3680      2.00000
     76      -1.3356      2.00000
     77      -1.2880      2.00000
     78      -1.2705      2.00000
     79      -1.2500      2.00000
     80      -1.1262      2.00000
     81      -1.0979      2.00000
     82      -1.0954      2.00000
     83      -1.0364      2.00000
     84      -1.0245      2.00000
     85      -0.7921      2.00000
     86      -0.6694      2.00000
     87      -0.5795      2.00000
     88      -0.2168      2.00000
     89       2.6800      0.00000
     90       3.0252      0.00000
     91       3.2906      0.00000
     92       3.6396      0.00000
     93       3.8114      0.00000
     94       4.1467      0.00000
     95       4.7074      0.00000
     96       5.0498      0.00000
     97       5.1678      0.00000
     98       5.1980      0.00000
     99       5.4759      0.00000
    100       5.7295      0.00000
    101       5.8267      0.00000
    102       6.1583      0.00000
    103       6.3200      0.00000
    104       6.3311      0.00000
    105       6.3540      0.00000
    106       6.3662      0.00000
    107       6.5455      0.00000
    108       6.5974      0.00000
    109       6.9186      0.00000
    110       6.9692      0.00000
    111       6.9693      0.00000
    112       7.1715      0.00000

 k-point     3 :       0.0000    0.5000    0.0000
  band No.  band energies     occupation 
      1     -20.8565      2.00000
      2     -20.8561      2.00000
      3     -20.8526      2.00000
      4     -20.8523      2.00000
      5     -16.5867      2.00000
      6     -16.5867      2.00000
      7     -16.5666      2.00000
      8     -16.5666      2.00000
      9     -16.5393      2.00000
     10     -16.5393      2.00000
     11     -16.5066      2.00000
     12     -16.5066      2.00000
     13     -16.4680      2.00000
     14     -16.4680      2.00000
     15     -16.4674      2.00000
     16     -16.4674      2.00000
     17     -16.4500      2.00000
     18     -16.4500      2.00000
     19     -16.4494      2.00000
     20     -16.4494      2.00000
     21     -16.4416      2.00000
     22     -16.4416      2.00000
     23     -16.4411      2.00000
     24     -16.4411      2.00000
     25     -14.2982      2.00000
     26     -14.2982      2.00000
     27     -14.0708      2.00000
     28     -14.0708      2.00000
     29     -13.9995      2.00000
     30     -13.9995      2.00000
     31     -13.9961      2.00000
     32     -13.9961      2.00000
     33     -13.8885      2.00000
     34     -13.8885      2.00000
     35     -13.7846      2.00000
     36     -13.7846      2.00000
     37      -7.9995      2.00000
     38      -7.9995      2.00000
     39      -7.2959      2.00000
     40      -7.2955      2.00000
     41      -7.2770      2.00000
     42      -7.2767      2.00000
     43      -7.2543      2.00000
     44      -7.2539      2.00000
     45      -7.2417      2.00000
     46      -7.2414      2.00000
     47      -7.2347      2.00000
     48      -7.2345      2.00000
     49      -7.2275      2.00000
     50      -7.2273      2.00000
     51      -6.9824      2.00000
     52      -6.9824      2.00000
     53      -3.3218      2.00000
     54      -3.3218      2.00000
     55      -3.1533      2.00000
     56      -3.1533      2.00000
     57      -2.4874      2.00000
     58      -2.4874      2.00000
     59      -2.3009      2.00000
     60      -2.3009      2.00000
     61      -2.0812      2.00000
     62      -2.0812      2.00000
     63      -1.8215      2.00000
     64      -1.8215      2.00000
     65      -1.7724      2.00000
     66      -1.7724      2.00000
     67      -1.5791      2.00000
     68      -1.5791      2.00000
     69      -1.4894      2.00000
     70      -1.4894      2.00000
     71      -1.4878      2.00000
     72      -1.4878      2.00000
     73      -1.3815      2.00000
     74      -1.3815      2.00000
     75      -1.3479      2.00000
     76      -1.3479      2.00000
     77      -1.2525      2.00000
     78      -1.2525      2.00000
     79      -1.2160      2.00000
     80      -1.2160      2.00000
     81      -1.1488      2.00000
     82      -1.1488      2.00000
     83      -1.0041      2.00000
     84      -1.0041      2.00000
     85      -0.8392      2.00000
     86      -0.8392      2.00000
     87      -0.1470      2.00000
     88      -0.1470      2.00000
     89       2.7745      0.00000
     90       2.7745      0.00000
     91       3.1524      0.00000
     92       3.1524      0.00000
     93       3.9938      0.00000
     94       3.9938      0.00000
     95       4.5632      0.00000
     96       4.5632      0.00000
     97       5.4198      0.00000
     98       5.4199      0.00000
     99       5.6623      0.00000
    100       5.6623      0.00000
    101       6.0595      0.00000
    102       6.0595      0.00000
    103       6.1511      0.00000
    104       6.1511      0.00000
    105       6.3789      0.00000
    106       6.3789      0.00000
    107       6.6840      0.00000
    108       6.6840      0.00000
    109       6.8206      0.00000
    110       6.8227      0.00000
    111       6.9170      0.00000
    112       6.9706      0.00000

 k-point     4 :       0.3333    0.5000    0.0000
  band No.  band energies     occupation 
      1     -20.8555      2.00000
      2     -20.8552      2.00000
      3     -20.8535      2.00000
      4     -20.8532      2.00000
      5     -16.5674      2.00000
      6     -16.5674      2.00000
      7     -16.5596      2.00000
      8     -16.5596      2.00000
      9     -16.5460      2.00000
     10     -16.5460      2.00000
     11     -16.5275      2.00000
     12     -16.5275      2.00000
     13     -16.4679      2.00000
     14     -16.4679      2.00000
     15     -16.4675      2.00000
     16     -16.4675      2.00000
     17     -16.4498      2.00000
     18     -16.4498      2.00000
     19     -16.4494      2.00000
     20     -16.4494      2.00000
     21     -16.4415      2.00000
     22     -16.4415      2.00000
     23     -16.4413      2.00000
     24     -16.4413      2.00000
     25     -14.2591      2.00000
     26     -14.2591      2.00000
     27     -14.1595      2.00000
     28     -14.1595      2.00000
     29     -13.9452      2.00000
     30     -13.9452      2.00000
     31     -13.9425      2.00000
     32     -13.9425      2.00000
     33     -13.8980      2.00000
     34     -13.8980      2.00000
     35     -13.8364      2.00000
     36     -13.8364      2.00000
     37      -7.7939      2.00000
     38      -7.7939      2.00000
     39      -7.3388      2.00000
     40      -7.3388      2.00000
     41      -7.2824      2.00000
     42      -7.2821      2.00000
     43      -7.2786      2.00000
     44      -7.2782      2.00000
     45      -7.2447      2.00000
     46      -7.2444      2.00000
     47      -7.2345      2.00000
     48      -7.2343      2.00000
     49      -7.2329      2.00000
[...]
     60      -2.4015      2.00000
     61      -2.2270      2.00000
     62      -2.2270      2.00000
     63      -2.0124      2.00000
     64      -2.0124      2.00000
     65      -1.7371      2.00000
     66      -1.7371      2.00000
     67      -1.7052      2.00000
     68      -1.7051      2.00000
     69      -1.5444      2.00000
     70      -1.5444      2.00000
     71      -1.5278      2.00000
     72      -1.5278      2.00000
     73      -1.3885      2.00000
     74      -1.3885      2.00000
     75      -1.3664      2.00000
     76      -1.3664      2.00000
     77      -1.2341      2.00000
     78      -1.2341      2.00000
     79      -1.1726      2.00000
     80      -1.1726      2.00000
     81      -1.1672      2.00000
     82      -1.1672      2.00000
     83      -1.1151      2.00000
     84      -1.1151      2.00000
     85      -0.9293      2.00000
     86      -0.9293      2.00000
     87      -0.7358      2.00000
     88      -0.7358      2.00000
     89       3.5851      0.00000
     90       3.5851      0.00000
     91       3.8324      0.00000
     92       3.8324      0.00000
     93       4.1063      0.00000
     94       4.1063      0.00000
     95       4.4297      0.00000
     96       4.4297      0.00000
     97       4.9420      0.00000
     98       4.9421      0.00000
     99       5.2363      0.00000
    100       5.2363      0.00000
    101       5.9490      0.00000
    102       5.9490      0.00000
    103       6.1530      0.00000
    104       6.1530      0.00000
    105       6.4430      0.00000
    106       6.4430      0.00000
    107       6.5065      0.00000
    108       6.5065      0.00000
    109       6.8222      0.00000
    110       6.8222      0.00000
    111       7.1231      0.00000
    112       7.1235      0.00000

 k-point     8 :       0.3333    0.5000    0.3333
  band No.  band energies     occupation 
      1     -20.8550      2.00000
      2     -20.8547      2.00000
      3     -20.8537      2.00000
      4     -20.8534      2.00000
      5     -16.5742      2.00000
      6     -16.5742      2.00000
      7     -16.5617      2.00000
      8     -16.5617      2.00000
      9     -16.5398      2.00000
     10     -16.5398      2.00000
     11     -16.5256      2.00000
     12     -16.5256      2.00000
     13     -16.4677      2.00000
     14     -16.4677      2.00000
     15     -16.4676      2.00000
     16     -16.4676      2.00000
     17     -16.4496      2.00000
     18     -16.4496      2.00000
     19     -16.4495      2.00000
     20     -16.4495      2.00000
     21     -16.4414      2.00000
     22     -16.4414      2.00000
     23     -16.4412      2.00000
     24     -16.4412      2.00000
     25     -14.2063      2.00000
     26     -14.2063      2.00000
     27     -14.1167      2.00000
     28     -14.1167      2.00000
     29     -14.0467      2.00000
     30     -14.0466      2.00000
     31     -13.9621      2.00000
     32     -13.9621      2.00000
     33     -13.8754      2.00000
     34     -13.8754      2.00000
     35     -13.8477      2.00000
     36     -13.8477      2.00000
     37      -7.6619      2.00000
     38      -7.6619      2.00000
     39      -7.4227      2.00000
     40      -7.4227      2.00000
     41      -7.2716      2.00000
     42      -7.2712      2.00000
     43      -7.2528      2.00000
     44      -7.2525      2.00000
     45      -7.2394      2.00000
     46      -7.2392      2.00000
     47      -7.2360      2.00000
     48      -7.2357      2.00000
     49      -7.2244      2.00000
     50      -7.2243      2.00000
     51      -7.2059      2.00000
     52      -7.2059      2.00000
     53      -3.1512      2.00000
     54      -3.1512      2.00000
     55      -2.7968      2.00000
     56      -2.7968      2.00000
     57      -2.4929      2.00000
     58      -2.4929      2.00000
     59      -2.3934      2.00000
     60      -2.3934      2.00000
     61      -2.1850      2.00000
     62      -2.1850      2.00000
     63      -2.0102      2.00000
     64      -2.0102      2.00000
     65      -1.7822      2.00000
     66      -1.7822      2.00000
     67      -1.7185      2.00000
     68      -1.7185      2.00000
     69      -1.5383      2.00000
     70      -1.5383      2.00000
     71      -1.4380      2.00000
     72      -1.4380      2.00000
     73      -1.3923      2.00000
     74      -1.3923      2.00000
     75      -1.3026      2.00000
     76      -1.3026      2.00000
     77      -1.2498      2.00000
     78      -1.2498      2.00000
     79      -1.1841      2.00000
     80      -1.1841      2.00000
     81      -1.1260      2.00000
     82      -1.1260      2.00000
     83      -1.0939      2.00000
     84      -1.0939      2.00000
     85      -0.8820      2.00000
     86      -0.8820      2.00000
     87      -0.6617      2.00000
     88      -0.6617      2.00000
     89       3.1645      0.00000
     90       3.1645      0.00000
     91       3.9226      0.00000
     92       3.9226      0.00000
     93       4.1765      0.00000
     94       4.1765      0.00000
     95       4.2969      0.00000
     96       4.2969      0.00000
     97       4.9565      0.00000
     98       4.9565      0.00000
     99       5.6335      0.00000
    100       5.6335      0.00000
    101       6.2190      0.00000
    102       6.2190      0.00000
    103       6.3311      0.00000
    104       6.3312      0.00000
    105       6.5518      0.00000
    106       6.5518      0.00000
    107       6.7137      0.00000
    108       6.7138      0.00000
    109       6.8091      0.00000
    110       6.8091      0.00000
    111       6.9929      0.00000
    112       6.9929      0.00000


--------------------------------------------------------------------------------------------------------


 soft charge-density along one line, spin component           1
         0         1         2         3         4         5         6         7         8         9
 total charge-density along one line

 pseudopotential strength for first ion, spin component:           1
 17.994  -4.711   0.000  -0.001  -0.001  -0.000   0.001   0.002
 -4.711   1.242  -0.000   0.000   0.000   0.000  -0.000  -0.000
  0.000  -0.000   2.274  -0.000   0.000  -2.721   0.000  -0.000
 -0.001   0.000  -0.000   2.275  -0.001   0.000  -2.724   0.001
 -0.001   0.000   0.000  -0.001   2.275  -0.000   0.001  -2.723
 -0.000   0.000  -2.721   0.000  -0.000   3.226  -0.000   0.000
  0.001  -0.000   0.000  -2.724   0.001  -0.000   3.229  -0.001
  0.002  -0.000  -0.000   0.001  -2.723   0.000  -0.001   3.227
  0.000  -0.000   0.000  -0.000  -0.000  -0.000   0.000   0.000
 -0.000   0.000   0.000  -0.000  -0.000  -0.000   0.000   0.000
  0.001  -0.000  -0.000  -0.002   0.001   0.000   0.002  -0.001
 -0.001   0.000  -0.000  -0.000   0.000   0.000   0.000  -0.000
  0.001  -0.000  -0.000   0.000  -0.002   0.000  -0.000   0.003
 total augmentation occupancy for first ion, spin component:           1
  1.910  -0.142   0.000  -0.000  -0.000   0.000  -0.000  -0.001   0.000   0.000   0.001  -0.001   0.000
 -0.142   0.115   0.000  -0.003  -0.004   0.000   0.000   0.002   0.000   0.000  -0.002   0.004   0.001
  0.000   0.000   2.015   0.000   0.000   0.002   0.000   0.000   0.001   0.000   0.000  -0.000   0.000
 -0.000  -0.003   0.000   2.018  -0.002   0.000   0.004  -0.001   0.000   0.000  -0.003  -0.001   0.000
 -0.000  -0.004   0.000  -0.002   2.016   0.000  -0.001   0.003   0.000   0.000   0.001   0.001  -0.003
  0.000   0.000   0.002   0.000   0.000   0.008   0.000   0.000  -0.001  -0.001  -0.000  -0.000   0.000
 -0.000   0.000   0.000   0.004  -0.001   0.000   0.007   0.001   0.000   0.000   0.002  -0.000   0.000
 -0.001   0.002   0.000  -0.001   0.003   0.000   0.001   0.008  -0.000   0.000  -0.001  -0.001   0.002
  0.000   0.000   0.001   0.000   0.000  -0.001   0.000  -0.000   0.006   0.002  -0.000   0.000   0.000
  0.000   0.000   0.000   0.000   0.000  -0.001   0.000   0.000   0.002   0.004   0.000   0.000  -0.000
  0.001  -0.002   0.000  -0.003   0.001  -0.000   0.002  -0.001  -0.000   0.000   0.006  -0.002  -0.001
 -0.001   0.004  -0.000  -0.001   0.001  -0.000  -0.000  -0.001   0.000   0.000  -0.002   0.003   0.001
  0.000   0.001   0.000   0.000  -0.003   0.000   0.000   0.002   0.000  -0.000  -0.001   0.001   0.005


------------------------ aborting loop because EDIFF is reached ----------------------------------------





 total charge     

# of ion       s       p       d       tot
------------------------------------------
    1        1.785   4.719   0.017   6.521
    2        1.785   4.719   0.017   6.521
    3        1.785   4.719   0.017   6.521
    4        1.785   4.719   0.017   6.521
    5        1.552   0.409   9.831  11.792
    6        1.552   0.409   9.831  11.792
    7        1.552   0.409   9.831  11.792
    8        1.552   0.409   9.831  11.792
    9        1.613   3.281   0.005   4.899
   10        1.613   3.281   0.005   4.899
   11        1.613   3.281   0.005   4.899
   12        1.613   3.281   0.005   4.899
   13        1.615   3.269   0.006   4.890
   14        1.614   3.291   0.006   4.910
   15        1.614   3.291   0.006   4.910
   16        1.615   3.269   0.006   4.890
   17        1.615   3.269   0.006   4.890
   18        1.614   3.291   0.006   4.910
   19        1.615   3.269   0.006   4.890
   20        1.614   3.291   0.006   4.910
--------------------------------------------------
tot         32.714  59.874  39.462 132.050

    CHARGE:  cpu time    0.1376: real time    0.1376
    FORLOC:  cpu time    0.0037: real time    0.0038
    FORNL :  cpu time    0.6171: real time    0.6173
    STRESS:  cpu time   13.7729: real time   13.7736
    FORCOR:  cpu time    0.1036: real time    0.1036
    FORHAR:  cpu time    0.0111: real time    0.0111
    MIXING:  cpu time    0.0013: real time    0.0013
    OFIELD:  cpu time    0.0000: real time    0.0000

  FORCE on cell =-STRESS in cart. coord.  units (eV):
  Direction    XX          YY          ZZ          XY          YZ          ZX
  --------------------------------------------------------------------------------------
  Alpha Z   444.02888   444.02888   444.02888
  Ewald   -2948.85515 -3072.98315 -3171.76685    -0.00000    -0.00000    -0.00000
  Hartree  1311.94348  1205.62821  1165.89171    -0.00000    -0.00000    -0.00000
  E(xc)    -738.41137  -738.60478  -738.37602    -0.00000    -0.00000    -0.02902
  Local   -1623.71884 -1392.14138 -1258.64095     0.00000     0.00000    -0.00000
  n-local   899.23744   896.53639   897.71620     0.00000    -0.00000     0.00556
  augment   407.28851   406.53635   405.96065     0.00000    -0.00001     0.00001
  Kinetic  2245.17965  2245.76765  2254.49278    -0.00000    -0.00001    -1.49022
  Fock        0.00000     0.00000     0.00000     0.00000     0.00000     0.00000
  -------------------------------------------------------------------------------------
  Total      -3.30740    -5.23183    -0.69359     0.00000     0.00000     0.00000
  in kB      -6.52126   -10.31569    -1.36757     0.00000     0.00000     0.00000
  external pressure =       -6.07 kB  Pullay stress =        0.00 kB


 VOLUME and BASIS-vectors are now :
 -----------------------------------------------------------------------------
  energy-cutoff  :      300.00
  volume of cell :      812.58
      direct lattice vectors                 reciprocal lattice vectors
     8.672618126  0.000000000  0.000000000     0.115305434  0.000000000  0.000000000
     0.000000000 12.116722018  0.000000000     0.000000000  0.082530572  0.000000000
     0.000000000  0.000000000  7.732691765     0.000000000  0.000000000  0.129321073

  length of vectors
     8.672618126 12.116722018  7.732691765     0.115305434  0.082530572  0.129321073


 FORCES acting on ions
    electron-ion (+dipol)            ewald-force                    non-local-force                 convergence-correction
 -----------------------------------------------------------------------------------------------
   0.260E+02 0.270E-11 -.212E+02   -.258E+02 0.000E+00 0.212E+02   -.119E+00 0.000E+00 -.476E-01   0.171E-03 -.158E-12 -.174E-03
   -.260E+02 0.406E-11 -.212E+02   0.258E+02 -.426E-13 0.212E+02   0.119E+00 0.000E+00 -.476E-01   -.171E-03 0.117E-12 -.174E-03
   0.260E+02 0.225E-11 0.212E+02   -.258E+02 0.711E-14 -.212E+02   -.119E+00 0.000E+00 0.476E-01   0.171E-03 -.874E-13 0.174E-03
   -.260E+02 -.236E-11 0.212E+02   0.258E+02 -.142E-13 -.212E+02   0.119E+00 0.000E+00 0.476E-01   -.171E-03 0.201E-12 0.174E-03
   -.486E-10 0.974E-12 -.126E-10   -.107E-13 0.140E-12 0.000E+00   0.000E+00 0.000E+00 0.123E-22   0.122E-12 -.132E-13 -.557E-13
   -.533E-10 -.607E-11 -.560E-11   -.320E-13 0.178E-12 0.000E+00   0.000E+00 0.000E+00 -.718E-23   0.217E-12 -.302E-13 0.292E-13
   -.520E-10 -.378E-11 -.881E-11   0.853E-13 -.782E-13 0.142E-13   0.000E+00 0.000E+00 -.229E-23   0.216E-12 -.499E-13 0.702E-13
   -.453E-10 -.516E-11 -.126E-10   0.995E-13 -.426E-13 -.568E-13   0.000E+00 0.000E+00 0.231E-22   0.121E-12 -.127E-13 -.423E-13
   0.999E+01 0.156E-11 0.343E+02   -.101E+02 0.000E+00 -.345E+02   0.105E+00 0.000E+00 0.156E+00   0.261E-04 0.110E-12 0.575E-04
   -.999E+01 0.181E-11 0.343E+02   0.101E+02 -.568E-13 -.345E+02   -.105E+00 0.529E-22 0.156E+00   -.261E-04 -.105E-12 0.575E-04
   0.999E+01 0.267E-11 -.343E+02   -.101E+02 -.142E-13 0.345E+02   0.105E+00 -.529E-22 -.156E+00   0.261E-04 0.538E-13 -.575E-04
   -.999E+01 0.118E-11 -.343E+02   0.101E+02 -.426E-13 0.345E+02   -.105E+00 0.000E+00 -.156E+00   -.261E-04 -.145E-12 -.575E-04
   -.221E+02 0.155E+02 0.313E+02   0.223E+02 -.157E+02 -.316E+02   -.205E+00 0.166E+00 0.285E+00   0.972E-05 -.456E-04 -.127E-05
   0.221E+02 -.155E+02 0.313E+02   -.223E+02 0.157E+02 -.316E+02   0.205E+00 -.166E+00 0.285E+00   -.972E-05 0.456E-04 -.127E-05
   -.221E+02 -.155E+02 -.313E+02   0.223E+02 0.157E+02 0.316E+02   -.205E+00 -.166E+00 -.285E+00   0.972E-05 0.456E-04 0.127E-05
   0.221E+02 0.155E+02 -.313E+02   -.223E+02 -.157E+02 0.316E+02   0.205E+00 0.166E+00 -.285E+00   -.972E-05 -.456E-04 0.127E-05
   -.221E+02 -.155E+02 0.313E+02   0.223E+02 0.157E+02 -.316E+02   -.205E+00 -.166E+00 0.285E+00   0.972E-05 0.456E-04 -.127E-05
   0.221E+02 0.155E+02 0.313E+02   -.223E+02 -.157E+02 -.316E+02   0.205E+00 0.166E+00 0.285E+00   -.972E-05 -.456E-04 -.127E-05
   0.221E+02 -.155E+02 -.313E+02   -.223E+02 0.157E+02 0.316E+02   0.205E+00 -.166E+00 -.285E+00   -.972E-05 0.456E-04 0.127E-05
   -.221E+02 0.155E+02 -.313E+02   0.223E+02 -.157E+02 0.316E+02   -.205E+00 0.166E+00 -.285E+00   0.972E-05 -.456E-04 0.127E-05
 -----------------------------------------------------------------------------------------------
   -.793E-09 0.140E-10 -.235E-09   0.142E-13 -.213E-13 0.284E-13   -.555E-16 0.555E-16 0.555E-16   0.673E-12 -.160E-12 0.647E-13


 POSITION                                       TOTAL-FORCE (eV/Angst)
 -----------------------------------------------------------------------------------
      0.63192      3.02918      3.63624         0.005538      0.000000      0.004336
      3.70439      9.08754      7.50259        -0.005538      0.000000      0.004336
      4.96822      3.02918      0.23010         0.005538     -0.000000     -0.004336
      8.04070      9.08754      4.09645        -0.005538     -0.000000     -0.004336
      0.00000      0.00000      0.00000        -0.000000      0.000000     -0.000000
      4.33631      0.00000      3.86635        -0.000000      0.000000     -0.000000
      4.33631      6.05836      3.86635        -0.000000      0.000000     -0.000000
      0.00000      6.05836      0.00000        -0.000000      0.000000     -0.000000
      4.39630      9.08754      3.47736         0.012930      0.000000      0.000919
      8.61263      3.02918      7.34371        -0.012930      0.000000      0.000919
      0.05999      9.08754      0.38898         0.012930      0.000000     -0.000919
      4.27632      3.02918      4.25533        -0.012930      0.000000     -0.000919
      2.63656      5.67335      1.42241         0.000308      0.005708     -0.010315
      1.69975      6.44337      5.28876        -0.000308     -0.005708     -0.010315
      6.97287      0.38501      2.44394         0.000308     -0.005708      0.010315
      6.03606     11.73172      6.31028        -0.000308      0.005708      0.010315
      2.63656      0.38501      1.42241         0.000308     -0.005708     -0.010315
      1.69975     11.73172      5.28876        -0.000308      0.005708     -0.010315
      6.03606      6.44337      6.31028        -0.000308     -0.005708      0.010315
      6.97287      5.67335      2.44394         0.000308      0.005708      0.010315
 -----------------------------------------------------------------------------------
    total drift:                               -0.000000      0.000000     -0.000000


--------------------------------------------------------------------------------------------------------



  FREE ENERGIE OF THE ION-ELECTRON SYSTEM (eV)
  ---------------------------------------------------
  free  energy   TOTEN  =      -714.82269305 eV

  energy  without entropy=     -714.82269305  energy(sigma->0) =     -714.82269305



--------------------------------------------------------------------------------------------------------


    POTLOK:  cpu time    1.2115: real time    1.2115


--------------------------------------------------------------------------------------------------------


 stress matrix after NEB project (eV)
     -3.30740      0.00000      0.00000
      0.00000     -5.23183      0.00000
      0.00000      0.00000     -0.69359
  FORCES: max atom, RMS     0.012963    0.009956
  FORCE total and by dimension    0.044527    0.012930
  Stress total and by dimension    6.228327    5.231833
     LOOP+:  cpu time  122.8298: real time  123.3803
    4ORBIT:  cpu time    0.0000: real time    0.0000



 total charge     

# of ion       s       p       d       tot
------------------------------------------
    1        1.785   4.719   0.017   6.521
    2        1.785   4.719   0.017   6.521
    3        1.785   4.719   0.017   6.521
    4        1.785   4.719   0.017   6.521
    5        1.552   0.409   9.831  11.792
    6        1.552   0.409   9.831  11.792
    7        1.552   0.409   9.831  11.792
    8        1.552   0.409   9.831  11.792
    9        1.613   3.281   0.005   4.899
   10        1.613   3.281   0.005   4.899
   11        1.613   3.281   0.005   4.899
   12        1.613   3.281   0.005   4.899
   13        1.615   3.269   0.006   4.890
   14        1.614   3.291   0.006   4.910
   15        1.614   3.291   0.006   4.910
   16        1.615   3.269   0.006   4.890
   17        1.615   3.269   0.006   4.890
   18        1.614   3.291   0.006   4.910
   19        1.615   3.269   0.006   4.890
   20        1.614   3.291   0.006   4.910
--------------------------------------------------
tot         32.714  59.874  39.462 132.050


 total amount of memory used by VASP MPI-rank0    43682. kBytes
=======================================================================

   base      :      30000. kBytes
   nonlr-proj:       3273. kBytes
   fftplans  :       4446. kBytes
   grid      :       3667. kBytes
   one-center:         46. kBytes
   wavefun   :       2250. kBytes

  
  
 General timing and accounting informations for this job:
 ========================================================
  
                  Total CPU time used (sec):      129.361
                            User time (sec):      128.541
                          System time (sec):        0.820
                         Elapsed time (sec):      130.094
  
                   Maximum memory used (kb):       82640.
                   Average memory used (kb):           0.
  
                          Minor page faults:        20300
                          Major page faults:            0
                 Voluntary context switches:         1854
