<?xml version="1.0" encoding="ISO-8859-1"?>
<modeling>
 <generator>
  <i name="program" type="string">vasp </i>
  <i name="version" type="string">5.4.4.18Apr17-6-g9f103f2a35  </i>
  <i name="subversion" type="string">(build Jun 29 2021 12:58:12) complex            parallel </i>
  <i name="platform" type="string">tx2_gcc-7.3_libsci-18.07_cray-fftw-3.3.8 </i>
  <i name="date" type="string">2021 09 21 </i>
  <i name="time" type="string">08:32:48 </i>
 </generator>
 <incar>
  <i type="string" name="SYSTEM"> CsPbBr3 cubic bulk</i>
  <i type="string" name="PREC">accurate</i>
  <i type="string" name="ALGO"> Normal   ! Electronic minimisation algo</i>
  <i type="logical" name="ADDGRID"> T  </i>
  <i type="int" name="NELM">   200</i>
  <i type="int" name="IBRION">     2</i>
  <i name="EDIFF">      0.00000100</i>
  <i name="EDIFFG">     -0.01000000</i>
  <i type="int" name="NSW">     0</i>
  <i type="int" name="ISIF">     3</i>
  <i type="int" name="ISYM">     2</i>
  <i name="ENCUT">    300.00000000</i>
  <i name="POTIM">      0.50000000</i>
  <i type="string" name="LREAL"> AUTO</i>
  <i type="int" name="ISMEAR">     0</i>
  <i name="SIGMA">      0.01000000</i>
  <i name="PSTRESS">      0.00000000</i>
  <i type="logical" name="LWAVE"> F  </i>
  <i type="logical" name="LCHARG"> F  </i>
  <i type="logical" name="LVHAR"> T  </i>
  <i type="int" name="LORBIT">    10</i>
  <i type="logical" name="LASPH"> T  </i>
  <v type="int" name="KPOINT_BSE">    -1     0     0     0</v>
  <i type="int" name="NELM">   200</i>
  <i type="string" name="METAGGA"> SCAN       ! PBE exchange-correlation</i>
  <i type="logical" name="LASPH"> T  </i>
 </incar>
 <structure name="primitive_cell" >
  <crystal>
   <varray name="basis" >
    <v>       8.67261813       0.00000000       0.00000000 </v>
    <v>       0.00000000      12.11672202       0.00000000 </v>
    <v>       0.00000000       0.00000000       7.73269177 </v>
   </varray>
   <i name="volume">    812.57988485 </i>
   <varray name="rec_basis" >
    <v>       0.11530543       0.00000000       0.00000000 </v>
    <v>       0.00000000       0.08253057       0.00000000 </v>
    <v>       0.00000000       0.00000000       0.12932107 </v>
   </varray>
  </crystal>
  <varray name="positions" >
   <v>       0.07286331       0.25000000       0.47024290 </v>
   <v>       0.49308265       0.25000000      -0.44969638 </v>
   <v>      -0.19598997       0.03177480       0.31605243 </v>
   <v>      -0.19598997       0.46822520       0.31605243 </v>
   <v>      -0.00691735       0.25000000      -0.05030362 </v>
   <v>       0.19598997      -0.46822520      -0.31605243 </v>
   <v>       0.19598997      -0.03177480      -0.31605243 </v>
   <v>       0.30401003       0.46822520       0.18394757 </v>
   <v>       0.30401003       0.03177480       0.18394757 </v>
   <v>       0.00000000       0.00000000       0.00000000 </v>
   <v>       0.00000000      -0.50000000       0.00000000 </v>
   <v>      -0.50000000       0.00000000      -0.50000000 </v>
   <v>      -0.50000000      -0.50000000      -0.50000000 </v>
   <v>      -0.30401003      -0.03177480      -0.18394757 </v>
   <v>      -0.30401003      -0.46822520      -0.18394757 </v>
   <v>      -0.42713669       0.25000000       0.02975710 </v>
   <v>      -0.07286331      -0.25000000      -0.47024290 </v>
   <v>       0.00691735      -0.25000000       0.05030362 </v>
   <v>      -0.49308265      -0.25000000       0.44969638 </v>
   <v>       0.42713669      -0.25000000      -0.02975710 </v>
  </varray>
 </structure>
 <varray name="primitive_index" >
  <v type="int" >        1 </v>
  <v type="int" >       12 </v>
  <v type="int" >       15 </v>
  <v type="int" >       20 </v>
  <v type="int" >       10 </v>
  <v type="int" >       14 </v>
  <v type="int" >       18 </v>
  <v type="int" >       13 </v>
  <v type="int" >       17 </v>
  <v type="int" >        5 </v>
  <v type="int" >        8 </v>
  <v type="int" >        6 </v>
  <v type="int" >        7 </v>
  <v type="int" >       16 </v>
  <v type="int" >       19 </v>
  <v type="int" >        3 </v>
  <v type="int" >        4 </v>
  <v type="int" >       11 </v>
  <v type="int" >        9 </v>
  <v type="int" >        2 </v>
 </varray>
 <kpoints>
  <generation param="Gamma">
   <v type="int" name="divisions">       3        2        3 </v>
   <v name="usershift">      0.00000000       0.00000000       0.00000000 </v>
   <v name="genvec1">      0.33333333       0.00000000       0.00000000 </v>
   <v name="genvec2">      0.00000000       0.50000000       0.00000000 </v>
   <v name="genvec3">      0.00000000       0.00000000       0.33333333 </v>
   <v name="shift">      0.00000000       0.00000000       0.00000000 </v>
  </generation>
  <varray name="kpointlist" >
   <v>       0.00000000       0.00000000       0.00000000 </v>
   <v>       0.33333333       0.00000000       0.00000000 </v>
   <v>       0.00000000       0.50000000       0.00000000 </v>
   <v>       0.33333333       0.50000000       0.00000000 </v>
   <v>       0.00000000       0.00000000       0.33333333 </v>
   <v>       0.33333333       0.00000000       0.33333333 </v>
   <v>       0.00000000       0.50000000       0.33333333 </v>
   <v>       0.33333333       0.50000000       0.33333333 </v>
  </varray>
  <varray name="weights" >
   <v>       0.05555556 </v>
   <v>       0.11111111 </v>
   <v>       0.05555556 </v>
   <v>       0.11111111 </v>
   <v>       0.11111111 </v>
   <v>       0.22222222 </v>
   <v>       0.11111111 </v>
   <v>       0.22222222 </v>
  </varray>
 </kpoints>
 <parameters>
  <separator name="general" >
   <i type="string" name="SYSTEM">CsPbBr3 cubic bulk</i>
   <i type="logical" name="LCOMPAT"> F  </i>
  </separator>
  <separator name="electronic" >
   <i type="string" name="PREC">accura</i>
   <i name="ENMAX">    300.00000000</i>
   <i name="ENAUG">    503.85200000</i>
   <i name="EDIFF">      0.00000100</i>
   <i type="int" name="IALGO">    38</i>
   <i type="int" name="IWAVPR">    10</i>
   <i type="int" name="NBANDS">   112</i>
   <i name="NELECT">    176.00000000</i>
   <i type="int" name="TURBO">     0</i>
   <i type="int" name="IRESTART">     0</i>
   <i type="int" name="NREBOOT">     0</i>
   <i type="int" name="NMIN">     0</i>
   <i name="EREF">      0.00000000</i>
   <separator name="electronic smearing" >
    <i type="int" name="ISMEAR">     0</i>
    <i name="SIGMA">      0.01000000</i>
    <i name="KSPACING">      0.50000000</i>
    <i type="logical" name="KGAMMA"> T  </i>
   </separator>
   <separator name="electronic projectors" >
    <i type="logical" name="LREAL"> T  </i>
    <v name="ROPT">     -0.00025000     -0.00025000     -0.00025000</v>
    <i type="int" name="LMAXPAW">  -100</i>
    <i type="int" name="LMAXMIX">     2</i>
    <i type="logical" name="NLSPLINE"> F  </i>
   </separator>
   <separator name="electronic startup" >
    <i type="int" name="ISTART">     0</i>
    <i type="int" name="ICHARG">     2</i>
    <i type="int" name="INIWAV">     1</i>
   </separator>
   <separator name="electronic spin" >
    <i type="int" name="ISPIN">     1</i>
    <i type="logical" name="LNONCOLLINEAR"> F  </i>
    <v name="MAGMOM">      1.00000000      1.00000000      1.00000000      1.00000000      1.00000000      1.00000000      1.00000000      1.00000000      1.00000000      1.00000000      1.00000000      1.00000000      1.00000000      1.00000000      1.00000000      1.00000000      1.00000000      1.00000000      1.00000000      1.00000000
</v>
    <i name="NUPDOWN">     -1.00000000</i>
    <i type="logical" name="LSORBIT"> F  </i>
    <v name="SAXIS">      0.00000000      0.00000000      1.00000000</v>
    <i type="logical" name="LSPIRAL"> F  </i>
    <v name="QSPIRAL">      0.00000000      0.00000000      0.00000000</v>
    <i type="logical" name="LZEROZ"> F  </i>
   </separator>
   <separator name="electronic exchange-correlation" >
    <i type="logical" name="LASPH"> T  </i>
    <i type="logical" name="LMETAGGA"> F  </i>
   </separator>
   <separator name="electronic convergence" >
    <i type="int" name="NELM">   200</i>
    <i type="int" name="NELMDL">    -5</i>
    <i type="int" name="NELMIN">     2</i>
    <i name="ENINI">    300.00000000</i>
    <separator name="electronic convergence detail" >
     <i type="logical" name="LDIAG"> T  </i>
     <i type="logical" name="LSUBROT"> F  </i>
     <i name="WEIMIN">      0.00000000</i>
     <i name="EBREAK">      0.00000000</i>
     <i name="DEPER">      0.30000000</i>
     <i type="int" name="NRMM">     4</i>
     <i name="TIME">      0.40000000</i>
    </separator>
   </separator>
   <separator name="electronic mixer" >
    <i name="AMIX">      0.40000000</i>
    <i name="BMIX">      1.00000000</i>
    <i name="AMIN">      0.10000000</i>
    <i name="AMIX_MAG">      1.60000000</i>
    <i name="BMIX_MAG">      1.00000000</i>
    <separator name="electronic mixer details" >
     <i type="int" name="IMIX">     4</i>
     <i type="logical" name="MIXFIRST"> F  </i>
     <i type="int" name="MAXMIX">   -45</i>
     <i name="WC">    100.00000000</i>
     <i type="int" name="INIMIX">     1</i>
     <i type="int" name="MIXPRE">     1</i>
     <i type="int" name="MREMOVE">     5</i>
    </separator>
   </separator>
   <separator name="electronic dipolcorrection" >
    <i type="logical" name="LDIPOL"> F  </i>
    <i type="logical" name="LMONO"> F  </i>
    <i type="int" name="IDIPOL">     0</i>
    <i name="EPSILON">      1.00000000</i>
    <v name="DIPOL">   -100.00000000   -100.00000000   -100.00000000</v>
    <i name="EFIELD">      0.00000000</i>
   </separator>
  </separator>
  <separator name="grids" >
   <i type="int" name="NGX">    50</i>
   <i type="int" name="NGY">    70</i>
   <i type="int" name="NGZ">    48</i>
   <i type="int" name="NGXF">   100</i>
   <i type="int" name="NGYF">   140</i>
   <i type="int" name="NGZF">    96</i>
   <i type="logical" name="ADDGRID"> T  </i>
  </separator>
  <separator name="ionic" >
   <i type="int" name="NSW">     0</i>
   <i type="int" name="IBRION">    -1</i>
   <i type="int" name="MDALGO">     0</i>
   <i type="int" name="ISIF">     3</i>
   <i name="PSTRESS">      0.00000000</i>
   <i name="EDIFFG">     -0.01000000</i>
   <i type="int" name="NFREE">     1</i>
   <i name="POTIM">      0.50000000</i>
   <i name="SMASS">     -3.00000000</i>
   <i name="SCALEE">      1.00000000</i>
  </separator>
  <separator name="ionic md" >
   <i name="TEBEG">      0.00010000</i>
   <i name="TEEND">      0.00010000</i>
   <i type="int" name="NBLOCK">     1</i>
   <i type="int" name="KBLOCK">     1</i>
   <i type="int" name="NPACO">   256</i>
   <i name="APACO">     16.00000000</i>
  </separator>
  <separator name="symmetry" >
   <i type="int" name="ISYM">     2</i>
   <i name="SYMPREC">      0.00001000</i>
  </separator>
  <separator name="dos" >
   <i type="int" name="LORBIT">    10</i>
   <v name="RWIGS">     -1.00000000     -1.00000000     -1.00000000</v>
   <i type="int" name="NEDOS">   301</i>
   <i name="EMIN">     10.00000000</i>
   <i name="EMAX">    -10.00000000</i>
   <i name="EFERMI">      0.00000000</i>
  </separator>
  <separator name="writing" >
   <i type="int" name="NWRITE">     2</i>
   <i type="logical" name="LWAVE"> F  </i>
   <i type="logical" name="LDOWNSAMPLE"> F  </i>
   <i type="logical" name="LCHARG"> F  </i>
   <i type="logical" name="LPARD"> F  </i>
   <i type="logical" name="LVTOT"> F  </i>
   <i type="logical" name="LVHAR"> T  </i>
   <i type="logical" name="LELF"> F  </i>
   <i type="logical" name="LOPTICS"> F  </i>
   <v name="STM">      0.00000000      0.00000000      0.00000000      0.00000000      0.00000000      0.00000000      0.00000000</v>
  </separator>
  <separator name="performance" >
   <i type="int" name="NPAR">     8</i>
   <i type="int" name="NSIM">     4</i>
   <i type="int" name="NBLK">    -1</i>
   <i type="logical" name="LPLANE"> T  </i>
   <i type="logical" name="LSCALAPACK"> T  </i>
   <i type="logical" name="LSCAAWARE"> F  </i>
   <i type="logical" name="LSCALU"> F  </i>
   <i type="logical" name="LASYNC"> F  </i>
   <i type="logical" name="LORBITALREAL"> F  </i>
  </separator>
  <separator name="miscellaneous" >
   <i type="int" name="IDIOT">     3</i>
   <i type="int" name="ISPECIAL">     0</i>
   <i type="logical" name="LMUSIC"> F  </i>
   <v name="POMASS">    132.90000000    207.20000000     79.90400000</v>
   <v name="DARWINR">      0.00000000      0.00000000      0.00000000</v>
   <v name="DARWINV">      1.00000000      1.00000000      1.00000000</v>
   <i type="logical" name="LCORR"> T  </i>
  </separator>
  <i type="logical" name="GGA_COMPAT"> T  </i>
  <i type="logical" name="LBERRY"> F  </i>
  <i type="int" name="ICORELEVEL">     0</i>
  <i type="logical" name="LDAU"> F  </i>
  <i type="int" name="I_CONSTRAINED_M">     0</i>
  <separator name="electronic exchange-correlation" >
   <i type="string" name="GGA">--</i>
   <i type="int" name="VOSKOWN">     0</i>
   <i type="logical" name="LHFCALC"> F  </i>
   <i type="string" name="PRECFOCK"></i>
   <i type="logical" name="LSYMGRAD"> F  </i>
   <i type="logical" name="LHFONE"> F  </i>
   <i type="logical" name="LRHFCALC"> F  </i>
   <i type="logical" name="LTHOMAS"> F  </i>
   <i type="logical" name="LMODELHF"> F  </i>
   <i name="ENCUT4O">     -1.00000000</i>
   <i type="int" name="EXXOEP">     0</i>
   <i type="int" name="FOURORBIT">     0</i>
   <i name="AEXX">      0.00000000</i>
   <i name="HFALPHA">      0.00000000</i>
   <i name="MCALPHA">      0.00000000</i>
   <i name="ALDAX">      1.00000000</i>
   <i name="AGGAX">      1.00000000</i>
   <i name="ALDAC">      1.00000000</i>
   <i name="AGGAC">      1.00000000</i>
   <i type="int" name="NKREDX">     1</i>
   <i type="int" name="NKREDY">     1</i>
   <i type="int" name="NKREDZ">     1</i>
   <i type="logical" name="SHIFTRED"> F  </i>
   <i type="logical" name="ODDONLY"> F  </i>
   <i type="logical" name="EVENONLY"> F  </i>
   <i type="int" name="LMAXFOCK">     0</i>
   <i type="int" name="NMAXFOCKAE">     0</i>
   <i type="logical" name="LFOCKAEDFT"> F  </i>
   <i name="HFSCREEN">      0.00000000</i>
   <i name="HFSCREENC">      0.00000000</i>
   <i type="int" name="NBANDSGWLOW">     0</i>
  </separator>
  <separator name="vdW DFT" >
   <i type="logical" name="LUSE_VDW"> F  </i>
   <i name="Zab_VDW">     -0.84910000</i>
   <i name="PARAM1">      0.12340000</i>
   <i name="PARAM2">      1.00000000</i>
   <i name="PARAM3">      0.00000000</i>
  </separator>
  <separator name="model GW" >
   <i type="int" name="MODEL_GW">     0</i>
   <i name="MODEL_EPS0">     24.37739655</i>
   <i name="MODEL_ALPHA">      1.00000000</i>
  </separator>
  <separator name="linear response parameters" >
   <i type="logical" name="LEPSILON"> F  </i>
   <i type="logical" name="LRPA"> F  </i>
   <i type="logical" name="LNABLA"> F  </i>
   <i type="logical" name="LVEL"> F  </i>
   <i type="int" name="KINTER">     0</i>
   <i name="CSHIFT">      0.10000000</i>
   <i name="OMEGAMAX">     -1.00000000</i>
   <i name="DEG_THRESHOLD">      0.00200000</i>
   <i name="RTIME">     -0.10000000</i>
   <i name="WPLASMAI">      0.00000000</i>
   <v name="DFIELD">      0.00000000      0.00000000      0.00000000</v>
   <v name="WPLASMA">      0.00000000      0.00000000      0.00000000      0.00000000      0.00000000      0.00000000      0.00000000      0.00000000      0.00000000</v>
  </separator>
  <separator name="orbital magnetization" >
   <i type="logical" name="NUCIND"> F  </i>
   <v name="MAGPOS">      0.00000000      0.00000000      0.00000000</v>
   <i type="logical" name="LNICSALL"> T  </i>
   <i type="logical" name="ORBITALMAG"> F  </i>
   <i type="logical" name="LMAGBLOCH"> F  </i>
   <i type="logical" name="LCHIMAG"> F  </i>
   <i type="logical" name="LGAUGE"> T  </i>
   <i type="int" name="MAGATOM">     0</i>
   <v name="MAGDIPOL">      0.00000000      0.00000000      0.00000000</v>
   <v name="AVECCONST">      0.00000000      0.00000000      0.00000000</v>
  </separator>
  <separator name="response functions" >
   <i type="logical" name="LADDER"> F  </i>
   <i type="logical" name="LRPAFORCE"> F  </i>
   <i type="logical" name="LFXC"> F  </i>
   <i type="logical" name="LHARTREE"> T  </i>
   <i type="int" name="IBSE">     0</i>
   <v type="int" name="KPOINT">    -1     0     0     0</v>
   <i type="logical" name="LTCTE"> F  </i>
   <i type="logical" name="LTETE"> F  </i>
   <i type="logical" name="LTRIPLET"> F  </i>
   <i type="logical" name="LFXCEPS"> F  </i>
   <i type="logical" name="LFXHEG"> F  </i>
   <i type="int" name="NATURALO">     2</i>
   <i type="logical" name="L2ORDER"> F  </i>
   <i type="logical" name="LMP2LT"> F  </i>
   <i type="logical" name="LUSEW"> F  </i>
   <i name="ENCUTGW">     -2.00000000</i>
   <i name="ENCUTGWSOFT">     -2.00000000</i>
   <i name="ENCUTLF">     -1.00000000</i>
   <i type="int" name="LMAXMP2">    -1</i>
   <i name="SCISSOR">      0.00000000</i>
   <i type="int" name="NOMEGA">     0</i>
   <i type="int" name="NOMEGAR">     0</i>
   <i type="int" name="NBANDSGW">    -1</i>
   <i type="int" name="NBANDSO">    -1</i>
   <i type="int" name="NBANDSV">    -1</i>
   <i type="int" name="NELM">   200</i>
   <i type="int" name="NELMHF">     1</i>
   <i type="int" name="DIM">     3</i>
   <i type="int" name="ANTIRES">     0</i>
   <i name="OMEGAMAX">    -30.00000000</i>
   <i name="OMEGAMIN">    -30.00000000</i>
   <i name="OMEGATL">   -200.00000000</i>
   <i type="int" name="OMEGAGRID">   140</i>
   <i name="CSHIFT">     -0.10000000</i>
   <i type="logical" name="SELFENERGY"> F  </i>
   <i type="logical" name="LSPECTRAL"> F  </i>
   <i type="logical" name="LSPECTRALGW"> F  </i>
   <i type="logical" name="LSINGLES"> F  </i>
   <i type="logical" name="LFERMIGW"> F  </i>
   <i type="logical" name="ODDONLYGW"> F  </i>
   <i type="logical" name="EVENONLYGW"> F  </i>
   <i type="int" name="NKREDLFX">     1</i>
   <i type="int" name="NKREDLFY">     1</i>
   <i type="int" name="NKREDLFZ">     1</i>
   <i type="int" name="MAXMEM">  2800</i>
   <i type="int" name="TELESCOPE">     0</i>
   <i type="int" name="TAUPAR">     1</i>
   <i type="int" name="OMEGAPAR">    -1</i>
   <i name="LAMBDA">      1.00000000</i>
  </separator>
  <separator name="External order field" >
   <i name="OFIELD_KAPPA">      0.00000000</i>
   <v name="OFIELD_K">      0.00000000      0.00000000      0.00000000</v>
   <i name="OFIELD_Q6_NEAR">      0.00000000</i>
   <i name="OFIELD_Q6_FAR">      0.00000000</i>
   <i name="OFIELD_A">      0.00000000</i>
  </separator>
 </parameters>
 <atominfo>
  <atoms>      20 </atoms>
  <types>       3 </types>
  <array name="atoms" >
   <dimension dim="1">ion</dimension>
   <field type="string">element</field>
   <field type="int">atomtype</field>
   <set>
    <rc><c>Cs</c><c>   1</c></rc>
    <rc><c>Cs</c><c>   1</c></rc>
    <rc><c>Cs</c><c>   1</c></rc>
    <rc><c>Cs</c><c>   1</c></rc>
    <rc><c>Pb</c><c>   2</c></rc>
    <rc><c>Pb</c><c>   2</c></rc>
    <rc><c>Pb</c><c>   2</c></rc>
    <rc><c>Pb</c><c>   2</c></rc>
    <rc><c>Br</c><c>   3</c></rc>
    <rc><c>Br</c><c>   3</c></rc>
    <rc><c>Br</c><c>   3</c></rc>
    <rc><c>Br</c><c>   3</c></rc>
    <rc><c>Br</c><c>   3</c></rc>
    <rc><c>Br</c><c>   3</c></rc>
    <rc><c>Br</c><c>   3</c></rc>
    <rc><c>Br</c><c>   3</c></rc>
    <rc><c>Br</c><c>   3</c></rc>
    <rc><c>Br</c><c>   3</c></rc>
    <rc><c>Br</c><c>   3</c></rc>
    <rc><c>Br</c><c>   3</c></rc>
   </set>
  </array>
  <array name="atomtypes" >
   <dimension dim="1">type</dimension>
   <field type="int">atomspertype</field>
   <field type="string">element</field>
   <field>mass</field>
   <field>valence</field>
   <field type="string">pseudopotential</field>
   <set>
    <rc><c>   4</c><c>Cs</c><c>    132.90000000</c><c>      9.00000000</c><c>  PAW_PBE Cs_sv 08Apr2002               </c></rc>
    <rc><c>   4</c><c>Pb</c><c>    207.20000000</c><c>     14.00000000</c><c>  PAW_PBE Pb_d 06Sep2000                </c></rc>
    <rc><c>  12</c><c>Br</c><c>     79.90400000</c><c>      7.00000000</c><c>  PAW_PBE Br 06Sep2000                  </c></rc>
   </set>
  </array>
 </atominfo>
 <structure name="initialpos" >
  <crystal>
   <varray name="basis" >
    <v>       8.67261813       0.00000000       0.00000000 </v>
    <v>       0.00000000      12.11672202       0.00000000 </v>
    <v>       0.00000000       0.00000000       7.73269177 </v>
   </varray>
   <i name="volume">    812.57988485 </i>
   <varray name="rec_basis" >
    <v>       0.11530543       0.00000000       0.00000000 </v>
    <v>       0.00000000       0.08253057       0.00000000 </v>
    <v>       0.00000000       0.00000000       0.12932107 </v>
   </varray>
  </crystal>
  <varray name="positions" >
   <v>       0.07286331       0.25000000       0.47024290 </v>
   <v>       0.42713669       0.75000000       0.97024290 </v>
   <v>       0.57286331       0.25000000       0.02975710 </v>
   <v>       0.92713669       0.75000000       0.52975710 </v>
   <v>       0.00000000       0.00000000       0.00000000 </v>
   <v>       0.50000000       0.00000000       0.50000000 </v>
   <v>       0.50000000       0.50000000       0.50000000 </v>
   <v>       0.00000000       0.50000000       0.00000000 </v>
   <v>       0.50691735       0.75000000       0.44969638 </v>
   <v>       0.99308265       0.25000000       0.94969638 </v>
   <v>       0.00691735       0.75000000       0.05030362 </v>
   <v>       0.49308265       0.25000000       0.55030362 </v>
   <v>       0.30401003       0.46822520       0.18394757 </v>
   <v>       0.19598997       0.53177480       0.68394757 </v>
   <v>       0.80401003       0.03177480       0.31605243 </v>
   <v>       0.69598997       0.96822520       0.81605243 </v>
   <v>       0.30401003       0.03177480       0.18394757 </v>
   <v>       0.19598997       0.96822520       0.68394757 </v>
   <v>       0.69598997       0.53177480       0.81605243 </v>
   <v>       0.80401003       0.46822520       0.31605243 </v>
  </varray>
 </structure>
 <calculation>
  <scstep>
   <time name="dav">    4.32    4.32</time>
   <time name="total">    5.55    5.57</time>
   <energy>
    <i name="alphaZ">    444.02887702 </i>
    <i name="ewald">  -9193.57922232 </i>
    <i name="hartreedc">  -3672.32820289 </i>
    <i name="XCdc">    461.64497397 </i>
    <i name="pawpsdc">  10816.98087266 </i>
    <i name="pawaedc"> -11353.96092700 </i>
    <i name="eentropy">     -0.00000000 </i>
    <i name="bandstr">   -141.08590576 </i>
    <i name="atom">  13290.28009929 </i>
    <i name="e_fr_energy">    651.98056497 </i>
    <i name="e_wo_entrp">    651.98056497 </i>
    <i name="e_0_energy">    651.98056497 </i>
   </energy>
  </scstep>
  <scstep>
   <time name="dav">    4.88    4.92</time>
   <time name="total">    4.88    4.92</time>
   <energy>
    <i name="e_fr_energy">   -578.55921557 </i>
    <i name="e_wo_entrp">   -578.55921557 </i>
    <i name="e_0_energy">   -578.55921557 </i>
   </energy>
  </scstep>
  <scstep>
   <time name="dav">    5.28    5.33</time>
   <time name="total">    5.28    5.33</time>
   <energy>
    <i name="e_fr_energy">   -749.93590095 </i>
    <i name="e_wo_entrp">   -749.93590095 </i>
    <i name="e_0_energy">   -749.93590095 </i>
   </energy>
  </scstep>
  <scstep>
   <time name="dav">    4.84    4.86</time>
   <time name="total">    4.84    4.86</time>
   <energy>
    <i name="e_fr_energy">   -754.59998414 </i>
    <i name="e_wo_entrp">   -754.59998414 </i>
    <i name="e_0_energy">   -754.59998414 </i>
   </energy>
  </scstep>
  <scstep>
   <time name="dav">    5.09    5.10</time>
   <time name="total">    6.05    6.06</time>
   <energy>
    <i name="e_fr_energy">   -754.80419231 </i>
    <i name="e_wo_entrp">   -754.80419231 </i>
    <i name="e_0_energy">   -754.80419231 </i>
   </energy>
  </scstep>
  <scstep>
   <time name="dav">    5.15    5.15</time>
   <time name="total">    7.32    7.36</time>
   <energy>
    <i name="e_fr_energy">   -714.92257069 </i>
    <i name="e_wo_entrp">   -714.92257069 </i>
    <i name="e_0_energy">   -714.92257069 </i>
   </energy>
  </scstep>
  <scstep>
   <time name="dav">    4.87    4.87</time>
   <time name="total">    7.04    7.08</time>
   <energy>
    <i name="e_fr_energy">   -714.67990380 </i>
    <i name="e_wo_entrp">   -714.67990380 </i>
    <i name="e_0_energy">   -714.67990380 </i>
   </energy>
  </scstep>
  <scstep>
   <time name="dav">    4.82    4.82</time>
   <time name="total">    6.97    7.02</time>
   <energy>
    <i name="e_fr_energy">   -714.77860229 </i>
    <i name="e_wo_entrp">   -714.77860229 </i>
    <i name="e_0_energy">   -714.77860229 </i>
   </energy>
  </scstep>
  <scstep>
   <time name="dav">    4.50    4.50</time>
   <time name="total">    6.67    6.70</time>
   <energy>
    <i name="e_fr_energy">   -714.81974950 </i>
    <i name="e_wo_entrp">   -714.81974950 </i>
    <i name="e_0_energy">   -714.81974950 </i>
   </energy>
  </scstep>
  <scstep>
   <time name="dav">    5.46    5.46</time>
   <time name="total">    7.62    7.66</time>
   <energy>
    <i name="e_fr_energy">   -714.82086757 </i>
    <i name="e_wo_entrp">   -714.82086757 </i>
    <i name="e_0_energy">   -714.82086757 </i>
   </energy>
  </scstep>
  <scstep>
   <time name="dav">    4.48    4.48</time>
   <time name="total">    6.64    6.66</time>
   <energy>
    <i name="e_fr_energy">   -714.82264979 </i>
    <i name="e_wo_entrp">   -714.82264979 </i>
    <i name="e_0_energy">   -714.82264979 </i>
   </energy>
  </scstep>
  <scstep>
   <time name="dav">    4.82    4.82</time>
   <time name="total">    7.00    7.01</time>
   <energy>
    <i name="e_fr_energy">   -714.82269039 </i>
    <i name="e_wo_entrp">   -714.82269039 </i>
    <i name="e_0_energy">   -714.82269039 </i>
   </energy>
  </scstep>
  <scstep>
   <time name="dav">    4.84    4.84</time>
   <time name="total">    6.99    7.02</time>
   <energy>
    <i name="e_fr_energy">   -714.82267602 </i>
    <i name="e_wo_entrp">   -714.82267602 </i>
    <i name="e_0_energy">   -714.82267602 </i>
   </energy>
  </scstep>
  <scstep>
   <time name="dav">    4.33    4.33</time>
   <time name="total">    6.49    6.54</time>
   <energy>
    <i name="e_fr_energy">   -714.82269535 </i>
    <i name="e_wo_entrp">   -714.82269535 </i>
    <i name="e_0_energy">   -714.82269535 </i>
   </energy>
  </scstep>
  <scstep>
   <time name="dav">    3.57    3.57</time>
   <time name="total">    5.73    5.76</time>
   <energy>
    <i name="e_fr_energy">   -714.82269638 </i>
    <i name="e_wo_entrp">   -714.82269638 </i>
    <i name="e_0_energy">   -714.82269638 </i>
   </energy>
  </scstep>
  <scstep>
   <time name="dav">    3.54    3.54</time>
   <time name="total">    5.72    5.73</time>
   <energy>
    <i name="e_fr_energy">   -714.82269393 </i>
    <i name="e_wo_entrp">   -714.82269393 </i>
    <i name="e_0_energy">   -714.82269393 </i>
   </energy>
  </scstep>
  <scstep>
   <time name="dav">    3.74    3.74</time>
   <time name="total">    4.98    5.02</time>
   <energy>
    <i name="alphaZ">    444.02887702 </i>
    <i name="ewald">  -9193.57922232 </i>
    <i name="hartreedc">  -3683.46724629 </i>
    <i name="XCdc">    480.95458182 </i>
    <i name="pawpsdc">  11488.09920834 </i>
    <i name="pawaedc"> -12023.61866776 </i>
    <i name="eentropy">     -0.00000000 </i>
    <i name="bandstr">  -1517.52032315 </i>
    <i name="atom">  13290.28009929 </i>
    <i name="e_fr_energy">   -714.82269305 </i>
    <i name="e_wo_entrp">   -714.82269305 </i>
    <i name="e_0_energy">   -714.82269305 </i>
   </energy>
  </scstep>
  <structure>
   <crystal>
    <varray name="basis" >
     <v>       8.67261813       0.00000000       0.00000000 </v>
     <v>       0.00000000      12.11672202       0.00000000 </v>
     <v>       0.00000000       0.00000000       7.73269177 </v>
    </varray>
    <i name="volume">    812.57988485 </i>
    <varray name="rec_basis" >
     <v>       0.11530543       0.00000000       0.00000000 </v>
     <v>       0.00000000       0.08253057       0.00000000 </v>
     <v>       0.00000000       0.00000000       0.12932107 </v>
    </varray>
   </crystal>
   <varray name="positions" >
    <v>       0.07286331       0.25000000       0.47024290 </v>
    <v>       0.42713669       0.75000000       0.97024290 </v>
    <v>       0.57286331       0.25000000       0.02975710 </v>
    <v>       0.92713669       0.75000000       0.52975710 </v>
    <v>       0.00000000       0.00000000       0.00000000 </v>
    <v>       0.50000000       0.00000000       0.50000000 </v>
    <v>       0.50000000       0.50000000       0.50000000 </v>
    <v>       0.00000000       0.50000000       0.00000000 </v>
    <v>       0.50691735       0.75000000       0.44969638 </v>
    <v>       0.99308265       0.25000000       0.94969638 </v>
    <v>       0.00691735       0.75000000       0.05030362 </v>
    <v>       0.49308265       0.25000000       0.55030362 </v>
    <v>       0.30401003       0.46822520       0.18394757 </v>
    <v>       0.19598997       0.53177480       0.68394757 </v>
    <v>       0.80401003       0.03177480       0.31605243 </v>
    <v>       0.69598997       0.96822520       0.81605243 </v>
    <v>       0.30401003       0.03177480       0.18394757 </v>
    <v>       0.19598997       0.96822520       0.68394757 </v>
    <v>       0.69598997       0.53177480       0.81605243 </v>
    <v>       0.80401003       0.46822520       0.31605243 </v>
   </varray>
  </structure>
  <varray name="forces" >
   <v>       0.00553847       0.00000000       0.00433603 </v>
   <v>      -0.00553847       0.00000000       0.00433603 </v>
   <v>       0.00553847      -0.00000000      -0.00433603 </v>
   <v>      -0.00553847      -0.00000000      -0.00433603 </v>
   <v>      -0.00000000       0.00000000      -0.00000000 </v>
   <v>      -0.00000000       0.00000000      -0.00000000 </v>
   <v>      -0.00000000       0.00000000      -0.00000000 </v>
   <v>      -0.00000000       0.00000000      -0.00000000 </v>
   <v>       0.01293037       0.00000000       0.00091942 </v>
   <v>      -0.01293037       0.00000000       0.00091942 </v>
   <v>       0.01293037       0.00000000      -0.00091942 </v>
   <v>      -0.01293037       0.00000000      -0.00091942 </v>
   <v>       0.00030778       0.00570759      -0.01031503 </v>
   <v>      -0.00030778      -0.00570759      -0.01031503 </v>
   <v>       0.00030778      -0.00570759       0.01031503 </v>
   <v>      -0.00030778       0.00570759       0.01031503 </v>
   <v>       0.00030778      -0.00570759      -0.01031503 </v>
   <v>      -0.00030778       0.00570759      -0.01031503 </v>
   <v>      -0.00030778      -0.00570759       0.01031503 </v>
   <v>       0.00030778       0.00570759       0.01031503 </v>
  </varray>
  <varray name="stress" >
   <v>      -6.52125850       0.00000000       0.00000000 </v>
   <v>       0.00000000     -10.31569299       0.00000000 </v>
   <v>       0.00000000       0.00000000      -1.36756799 </v>
  </varray>
  <energy>
   <i name="e_fr_energy">   -714.82269305 </i>
   <i name="e_wo_entrp">   -714.82269305 </i>
   <i name="e_0_energy">     -0.00000000 </i>
  </energy>
  <time name="totalsc">  122.83  123.38</time>
  <eigenvalues>
   <array>
    <dimension dim="1">band</dimension>
    <dimension dim="2">kpoint</dimension>
    <dimension dim="3">spin</dimension>
    <field>eigene</field>
    <field>occ</field>
    <set>
     <set comment="spin 1">
      <set comment="kpoint 1">
       <r>  -20.8569    1.0000 </r>
       <r>  -20.8555    1.0000 </r>
       <r>  -20.8528    1.0000 </r>
       <r>  -20.8520    1.0000 </r>
       <r>  -16.5866    1.0000 </r>
       <r>  -16.5866    1.0000 </r>
       <r>  -16.5861    1.0000 </r>
       <r>  -16.5612    1.0000 </r>
       <r>  -16.5463    1.0000 </r>
       <r>  -16.5173    1.0000 </r>
       <r>  -16.5068    1.0000 </r>
       <r>  -16.5065    1.0000 </r>
       <r>  -16.4683    1.0000 </r>
       <r>  -16.4678    1.0000 </r>
       <r>  -16.4674    1.0000 </r>
       <r>  -16.4670    1.0000 </r>
       <r>  -16.4501    1.0000 </r>
       <r>  -16.4498    1.0000 </r>
       <r>  -16.4495    1.0000 </r>
       <r>  -16.4488    1.0000 </r>
       <r>  -16.4418    1.0000 </r>
       <r>  -16.4414    1.0000 </r>
       <r>  -16.4412    1.0000 </r>
       <r>  -16.4409    1.0000 </r>
       <r>  -14.3483    1.0000 </r>
       <r>  -14.2050    1.0000 </r>
       <r>  -14.0745    1.0000 </r>
       <r>  -14.0671    1.0000 </r>
       <r>  -14.0319    1.0000 </r>
       <r>  -14.0198    1.0000 </r>
       <r>  -13.9924    1.0000 </r>
       <r>  -13.9866    1.0000 </r>
       <r>  -13.9799    1.0000 </r>
       <r>  -13.8016    1.0000 </r>
       <r>  -13.7851    1.0000 </r>
       <r>  -13.7841    1.0000 </r>
       <r>   -8.1968    1.0000 </r>
       <r>   -7.7738    1.0000 </r>
       <r>   -7.3060    1.0000 </r>
       <r>   -7.2852    1.0000 </r>
       <r>   -7.2818    1.0000 </r>
       <r>   -7.2652    1.0000 </r>
       <r>   -7.2634    1.0000 </r>
       <r>   -7.2609    1.0000 </r>
       <r>   -7.2528    1.0000 </r>
       <r>   -7.2393    1.0000 </r>
       <r>   -7.2386    1.0000 </r>
       <r>   -7.2374    1.0000 </r>
       <r>   -7.2209    1.0000 </r>
       <r>   -7.2202    1.0000 </r>
       <r>   -7.1940    1.0000 </r>
       <r>   -6.6895    1.0000 </r>
       <r>   -3.3622    1.0000 </r>
       <r>   -3.2926    1.0000 </r>
       <r>   -3.2042    1.0000 </r>
       <r>   -3.1941    1.0000 </r>
       <r>   -3.1490    1.0000 </r>
       <r>   -2.9667    1.0000 </r>
       <r>   -2.1942    1.0000 </r>
       <r>   -1.9634    1.0000 </r>
       <r>   -1.9631    1.0000 </r>
       <r>   -1.8840    1.0000 </r>
       <r>   -1.8359    1.0000 </r>
       <r>   -1.6782    1.0000 </r>
       <r>   -1.6475    1.0000 </r>
       <r>   -1.6139    1.0000 </r>
       <r>   -1.5703    1.0000 </r>
       <r>   -1.5640    1.0000 </r>
       <r>   -1.4932    1.0000 </r>
       <r>   -1.4908    1.0000 </r>
       <r>   -1.4858    1.0000 </r>
       <r>   -1.4821    1.0000 </r>
       <r>   -1.4443    1.0000 </r>
       <r>   -1.4156    1.0000 </r>
       <r>   -1.3678    1.0000 </r>
       <r>   -1.3565    1.0000 </r>
       <r>   -1.3465    1.0000 </r>
       <r>   -1.2013    1.0000 </r>
       <r>   -1.2011    1.0000 </r>
       <r>   -1.1332    1.0000 </r>
       <r>   -1.0683    1.0000 </r>
       <r>   -1.0262    1.0000 </r>
       <r>   -1.0115    1.0000 </r>
       <r>   -0.9788    1.0000 </r>
       <r>   -0.8469    1.0000 </r>
       <r>   -0.7033    1.0000 </r>
       <r>   -0.2528    1.0000 </r>
       <r>    0.2369    1.0000 </r>
       <r>    2.5110    0.0000 </r>
       <r>    2.5703    0.0000 </r>
       <r>    2.9536    0.0000 </r>
       <r>    2.9769    0.0000 </r>
       <r>    3.2125    0.0000 </r>
       <r>    3.3542    0.0000 </r>
       <r>    4.8365    0.0000 </r>
       <r>    5.2464    0.0000 </r>
       <r>    5.5876    0.0000 </r>
       <r>    5.8540    0.0000 </r>
       <r>    5.9008    0.0000 </r>
       <r>    5.9339    0.0000 </r>
       <r>    5.9553    0.0000 </r>
       <r>    6.0847    0.0000 </r>
       <r>    6.1508    0.0000 </r>
       <r>    6.1588    0.0000 </r>
       <r>    6.3411    0.0000 </r>
       <r>    6.3557    0.0000 </r>
       <r>    6.5275    0.0000 </r>
       <r>    6.6772    0.0000 </r>
       <r>    6.8974    0.0000 </r>
       <r>    6.9737    0.0000 </r>
       <r>    7.0187    0.0000 </r>
       <r>    7.0266    0.0000 </r>
      </set>
      <set comment="kpoint 2">
       <r>  -20.8558    1.0000 </r>
       <r>  -20.8547    1.0000 </r>
       <r>  -20.8539    1.0000 </r>
       <r>  -20.8528    1.0000 </r>
       <r>  -16.5798    1.0000 </r>
       <r>  -16.5678    1.0000 </r>
       <r>  -16.5674    1.0000 </r>
       <r>  -16.5669    1.0000 </r>
       <r>  -16.5389    1.0000 </r>
       <r>  -16.5275    1.0000 </r>
       <r>  -16.5275    1.0000 </r>
       <r>  -16.5245    1.0000 </r>
       <r>  -16.4683    1.0000 </r>
       <r>  -16.4681    1.0000 </r>
       <r>  -16.4673    1.0000 </r>
       <r>  -16.4670    1.0000 </r>
       <r>  -16.4501    1.0000 </r>
       <r>  -16.4497    1.0000 </r>
       <r>  -16.4496    1.0000 </r>
       <r>  -16.4493    1.0000 </r>
       <r>  -16.4417    1.0000 </r>
       <r>  -16.4414    1.0000 </r>
       <r>  -16.4413    1.0000 </r>
       <r>  -16.4411    1.0000 </r>
       <r>  -14.3044    1.0000 </r>
       <r>  -14.1874    1.0000 </r>
       <r>  -14.1728    1.0000 </r>
       <r>  -14.1039    1.0000 </r>
       <r>  -14.0257    1.0000 </r>
       <r>  -14.0217    1.0000 </r>
       <r>  -13.9398    1.0000 </r>
       <r>  -13.9397    1.0000 </r>
       <r>  -13.8917    1.0000 </r>
       <r>  -13.8371    1.0000 </r>
       <r>  -13.8358    1.0000 </r>
       <r>  -13.8226    1.0000 </r>
       <r>   -7.9919    1.0000 </r>
       <r>   -7.5667    1.0000 </r>
       <r>   -7.5243    1.0000 </r>
       <r>   -7.3083    1.0000 </r>
       <r>   -7.2800    1.0000 </r>
       <r>   -7.2776    1.0000 </r>
       <r>   -7.2620    1.0000 </r>
       <r>   -7.2614    1.0000 </r>
       <r>   -7.2552    1.0000 </r>
       <r>   -7.2469    1.0000 </r>
       <r>   -7.2385    1.0000 </r>
       <r>   -7.2260    1.0000 </r>
       <r>   -7.2229    1.0000 </r>
       <r>   -7.2219    1.0000 </r>
       <r>   -7.2043    1.0000 </r>
       <r>   -7.0171    1.0000 </r>
       <r>   -3.1844    1.0000 </r>
       <r>   -3.0967    1.0000 </r>
       <r>   -2.9374    1.0000 </r>
       <r>   -2.8277    1.0000 </r>
       <r>   -2.8201    1.0000 </r>
       <r>   -2.8082    1.0000 </r>
       <r>   -2.2737    1.0000 </r>
       <r>   -2.1481    1.0000 </r>
       <r>   -2.1320    1.0000 </r>
       <r>   -2.0163    1.0000 </r>
       <r>   -2.0151    1.0000 </r>
       <r>   -2.0134    1.0000 </r>
       <r>   -1.7969    1.0000 </r>
       <r>   -1.6975    1.0000 </r>
       <r>   -1.6958    1.0000 </r>
       <r>   -1.6512    1.0000 </r>
       <r>   -1.5137    1.0000 </r>
       <r>   -1.5125    1.0000 </r>
       <r>   -1.4716    1.0000 </r>
       <r>   -1.4516    1.0000 </r>
       <r>   -1.3812    1.0000 </r>
       <r>   -1.3696    1.0000 </r>
       <r>   -1.3680    1.0000 </r>
       <r>   -1.3356    1.0000 </r>
       <r>   -1.2880    1.0000 </r>
       <r>   -1.2705    1.0000 </r>
       <r>   -1.2500    1.0000 </r>
       <r>   -1.1262    1.0000 </r>
       <r>   -1.0979    1.0000 </r>
       <r>   -1.0954    1.0000 </r>
       <r>   -1.0364    1.0000 </r>
       <r>   -1.0245    1.0000 </r>
       <r>   -0.7921    1.0000 </r>
       <r>   -0.6694    1.0000 </r>
       <r>   -0.5795    1.0000 </r>
       <r>   -0.2168    1.0000 </r>
       <r>    2.6800    0.0000 </r>
       <r>    3.0252    0.0000 </r>
       <r>    3.2906    0.0000 </r>
       <r>    3.6396    0.0000 </r>
       <r>    3.8114    0.0000 </r>
       <r>    4.1467    0.0000 </r>
       <r>    4.7074    0.0000 </r>
       <r>    5.0498    0.0000 </r>
       <r>    5.1678    0.0000 </r>
       <r>    5.1980    0.0000 </r>
       <r>    5.4759    0.0000 </r>
       <r>    5.7295    0.0000 </r>
       <r>    5.8267    0.0000 </r>
       <r>    6.1583    0.0000 </r>
       <r>    6.3200    0.0000 </r>
       <r>    6.3311    0.0000 </r>
       <r>    6.3540    0.0000 </r>
       <r>    6.3662    0.0000 </r>
       <r>    6.5455    0.0000 </r>
       <r>    6.5974    0.0000 </r>
       <r>    6.9186    0.0000 </r>
       <r>    6.9692    0.0000 </r>
       <r>    6.9693    0.0000 </r>
       <r>    7.1715    0.0000 </r>
      </set>
      <set comment="kpoint 3">
       <r>  -20.8565    1.0000 </r>
       <r>  -20.8561    1.0000 </r>
       <r>  -20.8526    1.0000 </r>
       <r>  -20.8523    1.0000 </r>
       <r>  -16.5867    1.0000 </r>
       <r>  -16.5867    1.0000 </r>
       <r>  -16.5666    1.0000 </r>
       <r>  -16.5666    1.0000 </r>
       <r>  -16.5393    1.0000 </r>
       <r>  -16.5393    1.0000 </r>
       <r>  -16.5066    1.0000 </r>
       <r>  -16.5066    1.0000 </r>
       <r>  -16.4680    1.0000 </r>
       <r>  -16.4680    1.0000 </r>
       <r>  -16.4674    1.0000 </r>
       <r>  -16.4674    1.0000 </r>
       <r>  -16.4500    1.0000 </r>
       <r>  -16.4500    1.0000 </r>
       <r>  -16.4494    1.0000 </r>
       <r>  -16.4494    1.0000 </r>
       <r>  -16.4416    1.0000 </r>
       <r>  -16.4416    1.0000 </r>
       <r>  -16.4411    1.0000 </r>
       <r>  -16.4411    1.0000 </r>
       <r>  -14.2982    1.0000 </r>
       <r>  -14.2982    1.0000 </r>
       <r>  -14.0708    1.0000 </r>
       <r>  -14.0708    1.0000 </r>
       <r>  -13.9995    1.0000 </r>
       <r>  -13.9995    1.0000 </r>
       <r>  -13.9961    1.0000 </r>
       <r>  -13.9961    1.0000 </r>
       <r>  -13.8885    1.0000 </r>
       <r>  -13.8885    1.0000 </r>
       <r>  -13.7846    1.0000 </r>
       <r>  -13.7846    1.0000 </r>
       <r>   -7.9995    1.0000 </r>
       <r>   -7.9995    1.0000 </r>
       <r>   -7.2959    1.0000 </r>
       <r>   -7.2955    1.0000 </r>
       <r>   -7.2770    1.0000 </r>
       <r>   -7.2767    1.0000 </r>
       <r>   -7.2543    1.0000 </r>
       <r>   -7.2539    1.0000 </r>
       <r>   -7.2417    1.0000 </r>
       <r>   -7.2414    1.0000 </r>
       <r>   -7.2347    1.0000 </r>
       <r>   -7.2345    1.0000 </r>
       <r>   -7.2275    1.0000 </r>
       <r>   -7.2273    1.0000 </r>
       <r>   -6.9824    1.0000 </r>
       <r>   -6.9824    1.0000 </r>
       <r>   -3.3218    1.0000 </r>
       <r>   -3.3218    1.0000 </r>
       <r>   -3.1533    1.0000 </r>
       <r>   -3.1533    1.0000 </r>
       <r>   -2.4874    1.0000 </r>
       <r>   -2.4874    1.0000 </r>
       <r>   -2.3009    1.0000 </r>
       <r>   -2.3009    1.0000 </r>
       <r>   -2.0812    1.0000 </r>
       <r>   -2.0812    1.0000 </r>
       <r>   -1.8215    1.0000 </r>
       <r>   -1.8215    1.0000 </r>
       <r>   -1.7724    1.0000 </r>
       <r>   -1.7724    1.0000 </r>
       <r>   -1.5791    1.0000 </r>
       <r>   -1.5791    1.0000 </r>
       <r>   -1.4894    1.0000 </r>
       <r>   -1.4894    1.0000 </r>
       <r>   -1.4878    1.0000 </r>
       <r>   -1.4878    1.0000 </r>
       <r>   -1.3815    1.0000 </r>
       <r>   -1.3815    1.0000 </r>
       <r>   -1.3479    1.0000 </r>
       <r>   -1.3479    1.0000 </r>
       <r>   -1.2525    1.0000 </r>
       <r>   -1.2525    1.0000 </r>
       <r>   -1.2160    1.0000 </r>
       <r>   -1.2160    1.0000 </r>
       <r>   -1.1488    1.0000 </r>
       <r>   -1.1488    1.0000 </r>
       <r>   -1.0041    1.0000 </r>
       <r>   -1.0041    1.0000 </r>
       <r>   -0.8392    1.0000 </r>
       <r>   -0.8392    1.0000 </r>
       <r>   -0.1470    1.0000 </r>
       <r>   -0.1470    1.0000 </r>
       <r>    2.7745    0.0000 </r>
       <r>    2.7745    0.0000 </r>
       <r>    3.1524    0.0000 </r>
       <r>    3.1524    0.0000 </r>
       <r>    3.9938    0.0000 </r>
       <r>    3.9938    0.0000 </r>
       <r>    4.5632    0.0000 </r>
       <r>    4.5632    0.0000 </r>
       <r>    5.4198    0.0000 </r>
       <r>    5.4199    0.0000 </r>
       <r>    5.6623    0.0000 </r>
       <r>    5.6623    0.0000 </r>
       <r>    6.0595    0.0000 </r>
       <r>    6.0595    0.0000 </r>
       <r>    6.1511    0.0000 </r>
       <r>    6.1511    0.0000 </r>
       <r>    6.3789    0.0000 </r>
       <r>    6.3789    0.0000 </r>
       <r>    6.6840    0.0000 </r>
       <r>    6.6840    0.0000 </r>
       <r>    6.8206    0.0000 </r>
       <r>    6.8227    0.0000 </r>
       <r>    6.9170    0.0000 </r>
       <r>    6.9706    0.0000 </r>
      </set>
      <set comment="kpoint 4">
       <r>  -20.8555    1.0000 </r>
       <r>  -20.8552    1.0000 </r>
       <r>  -20.8535    1.0000 </r>
       <r>  -20.8532    1.0000 </r>
       <r>  -16.5674    1.0000 </r>
       <r>  -16.5674    1.0000 </r>
       <r>  -16.5596    1.0000 </r>
       <r>  -16.5596    1.0000 </r>
       <r>  -16.5460    1.0000 </r>
       <r>  -16.5460    1.0000 </r>
       <r>  -16.5275    1.0000 </r>
       <r>  -16.5275    1.0000 </r>
       <r>  -16.4679    1.0000 </r>
       <r>  -16.4679    1.0000 </r>
       <r>  -16.4675    1.0000 </r>
       <r>  -16.4675    1.0000 </r>
       <r>  -16.4498    1.0000 </r>
       <r>  -16.4498    1.0000 </r>
       <r>  -16.4494    1.0000 </r>
       <r>  -16.4494    1.0000 </r>
       <r>  -16.4415    1.0000 </r>
       <r>  -16.4415    1.0000 </r>
       <r>  -16.4413    1.0000 </r>
       <r>  -16.4413    1.0000 </r>
       <r>  -14.2591    1.0000 </r>
       <r>  -14.2591    1.0000 </r>
       <r>  -14.1595    1.0000 </r>
       <r>  -14.1595    1.0000 </r>
       <r>  -13.9452    1.0000 </r>
       <r>  -13.9452    1.0000 </r>
       <r>  -13.9425    1.0000 </r>
       <r>  -13.9425    1.0000 </r>
       <r>  -13.8980    1.0000 </r>
       <r>  -13.8980    1.0000 </r>
       <r>  -13.8364    1.0000 </r>
       <r>  -13.8364    1.0000 </r>
       <r>   -7.7939    1.0000 </r>
       <r>   -7.7939    1.0000 </r>
       <r>   -7.3388    1.0000 </r>
       <r>   -7.3388    1.0000 </r>
       <r>   -7.2824    1.0000 </r>
       <r>   -7.2821    1.0000 </r>
       <r>   -7.2786    1.0000 </r>
       <r>   -7.2782    1.0000 </r>
       <r>   -7.2447    1.0000 </r>
       <r>   -7.2444    1.0000 </r>
       <r>   -7.2345    1.0000 </r>
       <r>   -7.2343    1.0000 </r>
       <r>   -7.2329    1.0000 </r>
       <r>   -7.2327    1.0000 </r>
       <r>   -7.1907    1.0000 </r>
       <r>   -7.1906    1.0000 </r>
       <r>   -2.8912    1.0000 </r>
       <r>   -2.8912    1.0000 </r>
       <r>   -2.8758    1.0000 </r>
       <r>   -2.8758    1.0000 </r>
       <r>   -2.4200    1.0000 </r>
       <r>   -2.4200    1.0000 </r>
       <r>   -2.4113    1.0000 </r>
       <r>   -2.4113    1.0000 </r>
       <r>   -2.2079    1.0000 </r>
       <r>   -2.2079    1.0000 </r>
       <r>   -2.0864    1.0000 </r>
       <r>   -2.0864    1.0000 </r>
       <r>   -1.7736    1.0000 </r>
       <r>   -1.7736    1.0000 </r>
       <r>   -1.7018    1.0000 </r>
       <r>   -1.7018    1.0000 </r>
       <r>   -1.5936    1.0000 </r>
       <r>   -1.5936    1.0000 </r>
       <r>   -1.5346    1.0000 </r>
       <r>   -1.5346    1.0000 </r>
       <r>   -1.4336    1.0000 </r>
       <r>   -1.4336    1.0000 </r>
       <r>   -1.3661    1.0000 </r>
       <r>   -1.3661    1.0000 </r>
       <r>   -1.1844    1.0000 </r>
       <r>   -1.1844    1.0000 </r>
       <r>   -1.1755    1.0000 </r>
       <r>   -1.1755    1.0000 </r>
       <r>   -1.1231    1.0000 </r>
       <r>   -1.1231    1.0000 </r>
       <r>   -1.0742    1.0000 </r>
       <r>   -1.0742    1.0000 </r>
       <r>   -0.7811    1.0000 </r>
       <r>   -0.7811    1.0000 </r>
       <r>   -0.5833    1.0000 </r>
       <r>   -0.5833    1.0000 </r>
       <r>    3.4544    0.0000 </r>
       <r>    3.4545    0.0000 </r>
       <r>    3.9526    0.0000 </r>
       <r>    3.9526    0.0000 </r>
       <r>    4.1251    0.0000 </r>
       <r>    4.1251    0.0000 </r>
       <r>    4.4019    0.0000 </r>
       <r>    4.4019    0.0000 </r>
       <r>    4.8665    0.0000 </r>
       <r>    4.8665    0.0000 </r>
       <r>    5.2721    0.0000 </r>
       <r>    5.2721    0.0000 </r>
       <r>    5.9230    0.0000 </r>
       <r>    5.9231    0.0000 </r>
       <r>    6.2496    0.0000 </r>
       <r>    6.2496    0.0000 </r>
       <r>    6.6349    0.0000 </r>
       <r>    6.6349    0.0000 </r>
       <r>    6.6487    0.0000 </r>
       <r>    6.6487    0.0000 </r>
       <r>    6.7156    0.0000 </r>
       <r>    6.7156    0.0000 </r>
       <r>    6.8083    0.0000 </r>
       <r>    6.8083    0.0000 </r>
      </set>
      <set comment="kpoint 5">
       <r>  -20.8560    1.0000 </r>
       <r>  -20.8550    1.0000 </r>
       <r>  -20.8532    1.0000 </r>
       <r>  -20.8525    1.0000 </r>
       <r>  -16.5796    1.0000 </r>
       <r>  -16.5681    1.0000 </r>
       <r>  -16.5678    1.0000 </r>
       <r>  -16.5669    1.0000 </r>
       <r>  -16.5388    1.0000 </r>
       <r>  -16.5278    1.0000 </r>
       <r>  -16.5278    1.0000 </r>
       <r>  -16.5243    1.0000 </r>
       <r>  -16.4682    1.0000 </r>
       <r>  -16.4679    1.0000 </r>
       <r>  -16.4674    1.0000 </r>
       <r>  -16.4669    1.0000 </r>
       <r>  -16.4501    1.0000 </r>
       <r>  -16.4498    1.0000 </r>
       <r>  -16.4496    1.0000 </r>
       <r>  -16.4492    1.0000 </r>
       <r>  -16.4417    1.0000 </r>
       <r>  -16.4413    1.0000 </r>
       <r>  -16.4413    1.0000 </r>
       <r>  -16.4412    1.0000 </r>
       <r>  -14.2933    1.0000 </r>
       <r>  -14.1560    1.0000 </r>
       <r>  -14.1521    1.0000 </r>
       <r>  -14.0498    1.0000 </r>
       <r>  -14.0236    1.0000 </r>
       <r>  -14.0231    1.0000 </r>
       <r>  -14.0029    1.0000 </r>
       <r>  -13.9959    1.0000 </r>
       <r>  -13.8785    1.0000 </r>
       <r>  -13.8547    1.0000 </r>
       <r>  -13.8527    1.0000 </r>
       <r>  -13.8176    1.0000 </r>
       <r>   -7.9875    1.0000 </r>
       <r>   -7.5593    1.0000 </r>
       <r>   -7.5095    1.0000 </r>
       <r>   -7.2873    1.0000 </r>
       <r>   -7.2731    1.0000 </r>
       <r>   -7.2649    1.0000 </r>
       <r>   -7.2634    1.0000 </r>
       <r>   -7.2462    1.0000 </r>
       <r>   -7.2456    1.0000 </r>
       <r>   -7.2372    1.0000 </r>
       <r>   -7.2360    1.0000 </r>
       <r>   -7.2314    1.0000 </r>
       <r>   -7.2285    1.0000 </r>
       <r>   -7.2134    1.0000 </r>
       <r>   -7.2074    1.0000 </r>
       <r>   -7.0077    1.0000 </r>
       <r>   -3.1891    1.0000 </r>
       <r>   -3.0998    1.0000 </r>
       <r>   -3.0655    1.0000 </r>
       <r>   -2.9508    1.0000 </r>
       <r>   -2.7079    1.0000 </r>
       <r>   -2.6131    1.0000 </r>
       <r>   -2.3259    1.0000 </r>
       <r>   -2.1306    1.0000 </r>
       <r>   -2.1042    1.0000 </r>
       <r>   -2.0163    1.0000 </r>
       <r>   -1.9541    1.0000 </r>
       <r>   -1.8693    1.0000 </r>
       <r>   -1.8172    1.0000 </r>
       <r>   -1.7267    1.0000 </r>
       <r>   -1.6564    1.0000 </r>
       <r>   -1.6533    1.0000 </r>
       <r>   -1.5242    1.0000 </r>
       <r>   -1.4703    1.0000 </r>
       <r>   -1.4590    1.0000 </r>
       <r>   -1.4128    1.0000 </r>
       <r>   -1.3867    1.0000 </r>
       <r>   -1.3849    1.0000 </r>
       <r>   -1.3349    1.0000 </r>
       <r>   -1.2971    1.0000 </r>
       <r>   -1.2901    1.0000 </r>
       <r>   -1.2711    1.0000 </r>
       <r>   -1.2423    1.0000 </r>
       <r>   -1.2235    1.0000 </r>
       <r>   -1.1995    1.0000 </r>
       <r>   -1.1844    1.0000 </r>
       <r>   -1.0677    1.0000 </r>
       <r>   -1.0507    1.0000 </r>
       <r>   -0.9605    1.0000 </r>
       <r>   -0.8003    1.0000 </r>
       <r>   -0.6714    1.0000 </r>
       <r>   -0.3154    1.0000 </r>
       <r>    2.6809    0.0000 </r>
       <r>    3.0228    0.0000 </r>
       <r>    3.4265    0.0000 </r>
       <r>    3.6743    0.0000 </r>
       <r>    3.7971    0.0000 </r>
       <r>    4.0063    0.0000 </r>
       <r>    4.7698    0.0000 </r>
       <r>    5.0308    0.0000 </r>
       <r>    5.0962    0.0000 </r>
       <r>    5.3970    0.0000 </r>
       <r>    5.4999    0.0000 </r>
       <r>    5.6038    0.0000 </r>
       <r>    5.7698    0.0000 </r>
       <r>    6.0486    0.0000 </r>
       <r>    6.0865    0.0000 </r>
       <r>    6.3489    0.0000 </r>
       <r>    6.4530    0.0000 </r>
       <r>    6.5323    0.0000 </r>
       <r>    6.5419    0.0000 </r>
       <r>    6.7165    0.0000 </r>
       <r>    6.8533    0.0000 </r>
       <r>    6.9713    0.0000 </r>
       <r>    6.9866    0.0000 </r>
       <r>    7.0693    0.0000 </r>
      </set>
      <set comment="kpoint 6">
       <r>  -20.8553    1.0000 </r>
       <r>  -20.8546    1.0000 </r>
       <r>  -20.8538    1.0000 </r>
       <r>  -20.8531    1.0000 </r>
       <r>  -16.5861    1.0000 </r>
       <r>  -16.5772    1.0000 </r>
       <r>  -16.5678    1.0000 </r>
       <r>  -16.5516    1.0000 </r>
       <r>  -16.5485    1.0000 </r>
       <r>  -16.5313    1.0000 </r>
       <r>  -16.5252    1.0000 </r>
       <r>  -16.5143    1.0000 </r>
       <r>  -16.4682    1.0000 </r>
       <r>  -16.4680    1.0000 </r>
       <r>  -16.4674    1.0000 </r>
       <r>  -16.4671    1.0000 </r>
       <r>  -16.4500    1.0000 </r>
       <r>  -16.4497    1.0000 </r>
       <r>  -16.4495    1.0000 </r>
       <r>  -16.4493    1.0000 </r>
       <r>  -16.4415    1.0000 </r>
       <r>  -16.4414    1.0000 </r>
       <r>  -16.4412    1.0000 </r>
       <r>  -16.4411    1.0000 </r>
       <r>  -14.2484    1.0000 </r>
       <r>  -14.1526    1.0000 </r>
       <r>  -14.1219    1.0000 </r>
       <r>  -14.0558    1.0000 </r>
       <r>  -14.0539    1.0000 </r>
       <r>  -14.0262    1.0000 </r>
       <r>  -14.0140    1.0000 </r>
       <r>  -13.9862    1.0000 </r>
       <r>  -13.9472    1.0000 </r>
       <r>  -13.9007    1.0000 </r>
       <r>  -13.8166    1.0000 </r>
       <r>  -13.7879    1.0000 </r>
       <r>   -7.8635    1.0000 </r>
       <r>   -7.6267    1.0000 </r>
       <r>   -7.4289    1.0000 </r>
       <r>   -7.2762    1.0000 </r>
       <r>   -7.2651    1.0000 </r>
       <r>   -7.2581    1.0000 </r>
       <r>   -7.2557    1.0000 </r>
       <r>   -7.2504    1.0000 </r>
       <r>   -7.2403    1.0000 </r>
       <r>   -7.2396    1.0000 </r>
       <r>   -7.2315    1.0000 </r>
       <r>   -7.2284    1.0000 </r>
       <r>   -7.2266    1.0000 </r>
       <r>   -7.2156    1.0000 </r>
       <r>   -7.2128    1.0000 </r>
       <r>   -7.1215    1.0000 </r>
       <r>   -3.1987    1.0000 </r>
       <r>   -3.1944    1.0000 </r>
       <r>   -3.1861    1.0000 </r>
       <r>   -3.0147    1.0000 </r>
       <r>   -2.8202    1.0000 </r>
       <r>   -2.6891    1.0000 </r>
       <r>   -2.2722    1.0000 </r>
       <r>   -2.1467    1.0000 </r>
       <r>   -2.0820    1.0000 </r>
       <r>   -2.0601    1.0000 </r>
       <r>   -2.0078    1.0000 </r>
       <r>   -1.7851    1.0000 </r>
       <r>   -1.7569    1.0000 </r>
       <r>   -1.6986    1.0000 </r>
       <r>   -1.5594    1.0000 </r>
       <r>   -1.5447    1.0000 </r>
       <r>   -1.4870    1.0000 </r>
       <r>   -1.4857    1.0000 </r>
       <r>   -1.4624    1.0000 </r>
       <r>   -1.4326    1.0000 </r>
       <r>   -1.4099    1.0000 </r>
       <r>   -1.3725    1.0000 </r>
       <r>   -1.3675    1.0000 </r>
       <r>   -1.3287    1.0000 </r>
       <r>   -1.3014    1.0000 </r>
       <r>   -1.2941    1.0000 </r>
       <r>   -1.2467    1.0000 </r>
       <r>   -1.2001    1.0000 </r>
       <r>   -1.1907    1.0000 </r>
       <r>   -1.1345    1.0000 </r>
       <r>   -1.1060    1.0000 </r>
       <r>   -1.0252    1.0000 </r>
       <r>   -0.9086    1.0000 </r>
       <r>   -0.7549    1.0000 </r>
       <r>   -0.5348    1.0000 </r>
       <r>   -0.2700    1.0000 </r>
       <r>    2.7549    0.0000 </r>
       <r>    2.9197    0.0000 </r>
       <r>    2.9939    0.0000 </r>
       <r>    3.3523    0.0000 </r>
       <r>    3.7828    0.0000 </r>
       <r>    4.0888    0.0000 </r>
       <r>    4.7104    0.0000 </r>
       <r>    5.1129    0.0000 </r>
       <r>    5.3139    0.0000 </r>
       <r>    5.7091    0.0000 </r>
       <r>    5.7835    0.0000 </r>
       <r>    5.7978    0.0000 </r>
       <r>    5.8960    0.0000 </r>
       <r>    6.2409    0.0000 </r>
       <r>    6.3137    0.0000 </r>
       <r>    6.4616    0.0000 </r>
       <r>    6.5711    0.0000 </r>
       <r>    6.5965    0.0000 </r>
       <r>    6.6318    0.0000 </r>
       <r>    6.7672    0.0000 </r>
       <r>    6.8761    0.0000 </r>
       <r>    6.9449    0.0000 </r>
       <r>    7.0807    0.0000 </r>
       <r>    7.1350    0.0000 </r>
      </set>
      <set comment="kpoint 7">
       <r>  -20.8556    1.0000 </r>
       <r>  -20.8553    1.0000 </r>
       <r>  -20.8531    1.0000 </r>
       <r>  -20.8528    1.0000 </r>
       <r>  -16.5677    1.0000 </r>
       <r>  -16.5677    1.0000 </r>
       <r>  -16.5594    1.0000 </r>
       <r>  -16.5594    1.0000 </r>
       <r>  -16.5459    1.0000 </r>
       <r>  -16.5459    1.0000 </r>
       <r>  -16.5278    1.0000 </r>
       <r>  -16.5278    1.0000 </r>
       <r>  -16.4678    1.0000 </r>
       <r>  -16.4678    1.0000 </r>
       <r>  -16.4676    1.0000 </r>
       <r>  -16.4676    1.0000 </r>
       <r>  -16.4499    1.0000 </r>
       <r>  -16.4499    1.0000 </r>
       <r>  -16.4494    1.0000 </r>
       <r>  -16.4494    1.0000 </r>
       <r>  -16.4416    1.0000 </r>
       <r>  -16.4416    1.0000 </r>
       <r>  -16.4413    1.0000 </r>
       <r>  -16.4413    1.0000 </r>
       <r>  -14.2475    1.0000 </r>
       <r>  -14.2475    1.0000 </r>
       <r>  -14.1221    1.0000 </r>
       <r>  -14.1221    1.0000 </r>
       <r>  -14.0003    1.0000 </r>
       <r>  -14.0003    1.0000 </r>
       <r>  -13.9311    1.0000 </r>
       <r>  -13.9311    1.0000 </r>
       <r>  -13.8934    1.0000 </r>
       <r>  -13.8934    1.0000 </r>
       <r>  -13.8552    1.0000 </r>
       <r>  -13.8552    1.0000 </r>
       <r>   -7.7880    1.0000 </r>
       <r>   -7.7880    1.0000 </r>
       <r>   -7.3157    1.0000 </r>
       <r>   -7.3156    1.0000 </r>
       <r>   -7.2852    1.0000 </r>
       <r>   -7.2849    1.0000 </r>
       <r>   -7.2569    1.0000 </r>
       <r>   -7.2568    1.0000 </r>
       <r>   -7.2368    1.0000 </r>
       <r>   -7.2368    1.0000 </r>
       <r>   -7.2336    1.0000 </r>
       <r>   -7.2332    1.0000 </r>
       <r>   -7.2230    1.0000 </r>
       <r>   -7.2227    1.0000 </r>
       <r>   -7.2053    1.0000 </r>
       <r>   -7.2049    1.0000 </r>
       <r>   -3.0111    1.0000 </r>
       <r>   -3.0111    1.0000 </r>
       <r>   -2.7487    1.0000 </r>
       <r>   -2.7487    1.0000 </r>
       <r>   -2.4246    1.0000 </r>
       <r>   -2.4246    1.0000 </r>
       <r>   -2.4015    1.0000 </r>
       <r>   -2.4015    1.0000 </r>
       <r>   -2.2270    1.0000 </r>
       <r>   -2.2270    1.0000 </r>
       <r>   -2.0124    1.0000 </r>
       <r>   -2.0124    1.0000 </r>
       <r>   -1.7371    1.0000 </r>
       <r>   -1.7371    1.0000 </r>
       <r>   -1.7052    1.0000 </r>
       <r>   -1.7051    1.0000 </r>
       <r>   -1.5444    1.0000 </r>
       <r>   -1.5444    1.0000 </r>
       <r>   -1.5278    1.0000 </r>
       <r>   -1.5278    1.0000 </r>
       <r>   -1.3885    1.0000 </r>
       <r>   -1.3885    1.0000 </r>
       <r>   -1.3664    1.0000 </r>
       <r>   -1.3664    1.0000 </r>
       <r>   -1.2341    1.0000 </r>
       <r>   -1.2341    1.0000 </r>
       <r>   -1.1726    1.0000 </r>
       <r>   -1.1726    1.0000 </r>
       <r>   -1.1672    1.0000 </r>
       <r>   -1.1672    1.0000 </r>
       <r>   -1.1151    1.0000 </r>
       <r>   -1.1151    1.0000 </r>
       <r>   -0.9293    1.0000 </r>
       <r>   -0.9293    1.0000 </r>
       <r>   -0.7358    1.0000 </r>
       <r>   -0.7358    1.0000 </r>
       <r>    3.5851    0.0000 </r>
       <r>    3.5851    0.0000 </r>
       <r>    3.8324    0.0000 </r>
       <r>    3.8324    0.0000 </r>
       <r>    4.1063    0.0000 </r>
       <r>    4.1063    0.0000 </r>
       <r>    4.4297    0.0000 </r>
       <r>    4.4297    0.0000 </r>
       <r>    4.9420    0.0000 </r>
       <r>    4.9421    0.0000 </r>
       <r>    5.2363    0.0000 </r>
       <r>    5.2363    0.0000 </r>
       <r>    5.9490    0.0000 </r>
       <r>    5.9490    0.0000 </r>
       <r>    6.1530    0.0000 </r>
       <r>    6.1530    0.0000 </r>
       <r>    6.4430    0.0000 </r>
       <r>    6.4430    0.0000 </r>
       <r>    6.5065    0.0000 </r>
       <r>    6.5065    0.0000 </r>
       <r>    6.8222    0.0000 </r>
       <r>    6.8222    0.0000 </r>
       <r>    7.1231    0.0000 </r>
       <r>    7.1235    0.0000 </r>
      </set>
      <set comment="kpoint 8">
       <r>  -20.8550    1.0000 </r>
       <r>  -20.8547    1.0000 </r>
       <r>  -20.8537    1.0000 </r>
       <r>  -20.8534    1.0000 </r>
       <r>  -16.5742    1.0000 </r>
       <r>  -16.5742    1.0000 </r>
       <r>  -16.5617    1.0000 </r>
       <r>  -16.5617    1.0000 </r>
       <r>  -16.5398    1.0000 </r>
       <r>  -16.5398    1.0000 </r>
       <r>  -16.5256    1.0000 </r>
       <r>  -16.5256    1.0000 </r>
       <r>  -16.4677    1.0000 </r>
       <r>  -16.4677    1.0000 </r>
       <r>  -16.4676    1.0000 </r>
       <r>  -16.4676    1.0000 </r>
       <r>  -16.4496    1.0000 </r>
       <r>  -16.4496    1.0000 </r>
       <r>  -16.4495    1.0000 </r>
       <r>  -16.4495    1.0000 </r>
       <r>  -16.4414    1.0000 </r>
       <r>  -16.4414    1.0000 </r>
       <r>  -16.4412    1.0000 </r>
       <r>  -16.4412    1.0000 </r>
       <r>  -14.2063    1.0000 </r>
       <r>  -14.2063    1.0000 </r>
       <r>  -14.1167    1.0000 </r>
       <r>  -14.1167    1.0000 </r>
       <r>  -14.0467    1.0000 </r>
       <r>  -14.0466    1.0000 </r>
       <r>  -13.9621    1.0000 </r>
       <r>  -13.9621    1.0000 </r>
       <r>  -13.8754    1.0000 </r>
       <r>  -13.8754    1.0000 </r>
       <r>  -13.8477    1.0000 </r>
       <r>  -13.8477    1.0000 </r>
       <r>   -7.6619    1.0000 </r>
       <r>   -7.6619    1.0000 </r>
       <r>   -7.4227    1.0000 </r>
       <r>   -7.4227    1.0000 </r>
       <r>   -7.2716    1.0000 </r>
       <r>   -7.2712    1.0000 </r>
       <r>   -7.2528    1.0000 </r>
       <r>   -7.2525    1.0000 </r>
       <r>   -7.2394    1.0000 </r>
       <r>   -7.2392    1.0000 </r>
       <r>   -7.2360    1.0000 </r>
       <r>   -7.2357    1.0000 </r>
       <r>   -7.2244    1.0000 </r>
       <r>   -7.2243    1.0000 </r>
       <r>   -7.2059    1.0000 </r>
       <r>   -7.2059    1.0000 </r>
       <r>   -3.1512    1.0000 </r>
       <r>   -3.1512    1.0000 </r>
       <r>   -2.7968    1.0000 </r>
       <r>   -2.7968    1.0000 </r>
       <r>   -2.4929    1.0000 </r>
       <r>   -2.4929    1.0000 </r>
       <r>   -2.3934    1.0000 </r>
       <r>   -2.3934    1.0000 </r>
       <r>   -2.1850    1.0000 </r>
       <r>   -2.1850    1.0000 </r>
       <r>   -2.0102    1.0000 </r>
       <r>   -2.0102    1.0000 </r>
       <r>   -1.7822    1.0000 </r>
       <r>   -1.7822    1.0000 </r>
       <r>   -1.7185    1.0000 </r>
       <r>   -1.7185    1.0000 </r>
       <r>   -1.5383    1.0000 </r>
       <r>   -1.5383    1.0000 </r>
       <r>   -1.4380    1.0000 </r>
       <r>   -1.4380    1.0000 </r>
       <r>   -1.3923    1.0000 </r>
       <r>   -1.3923    1.0000 </r>
       <r>   -1.3026    1.0000 </r>
       <r>   -1.3026    1.0000 </r>
       <r>   -1.2498    1.0000 </r>
       <r>   -1.2498    1.0000 </r>
       <r>   -1.1841    1.0000 </r>
       <r>   -1.1841    1.0000 </r>
       <r>   -1.1260    1.0000 </r>
       <r>   -1.1260    1.0000 </r>
       <r>   -1.0939    1.0000 </r>
       <r>   -1.0939    1.0000 </r>
       <r>   -0.8820    1.0000 </r>
       <r>   -0.8820    1.0000 </r>
       <r>   -0.6617    1.0000 </r>
       <r>   -0.6617    1.0000 </r>
       <r>    3.1645    0.0000 </r>
       <r>    3.1645    0.0000 </r>
       <r>    3.9226    0.0000 </r>
       <r>    3.9226    0.0000 </r>
       <r>    4.1765    0.0000 </r>
       <r>    4.1765    0.0000 </r>
       <r>    4.2969    0.0000 </r>
       <r>    4.2969    0.0000 </r>
       <r>    4.9565    0.0000 </r>
       <r>    4.9565    0.0000 </r>
       <r>    5.6335    0.0000 </r>
       <r>    5.6335    0.0000 </r>
       <r>    6.2190    0.0000 </r>
       <r>    6.2190    0.0000 </r>
       <r>    6.3311    0.0000 </r>
       <r>    6.3312    0.0000 </r>
       <r>    6.5518    0.0000 </r>
       <r>    6.5518    0.0000 </r>
       <r>    6.7137    0.0000 </r>
       <r>    6.7138    0.0000 </r>
       <r>    6.8091    0.0000 </r>
       <r>    6.8091    0.0000 </r>
       <r>    6.9929    0.0000 </r>
       <r>    6.9929    0.0000 </r>
      </set>
     </set>
    </set>
   </array>
  </eigenvalues>
  <separator name="orbital magnetization" >
   <v name="MAGDIPOLOUT">      0.00000000      0.00000000      0.00000000</v>
  </separator>
  <dos>
   <i name="efermi">      0.36410058 </i>
   <total>
    <array>
     <dimension dim="1">gridpoints</dimension>
     <dimension dim="2">spin</dimension>
     <field>energy</field>
     <field>total</field>
     <field>integrated</field>
     <set>
      <set comment="spin 1">
       <r>   -22.2583     0.0000     0.0000 </r>
       <r>   -22.1555     0.0000     0.0000 </r>
       <r>   -22.0527     0.0000     0.0000 </r>
       <r>   -21.9500     0.0000     0.0000 </r>
       <r>   -21.8472     0.0000     0.0000 </r>
       <r>   -21.7444     0.0000     0.0000 </r>
       <r>   -21.6416     0.0000     0.0000 </r>
       <r>   -21.5389     0.0000     0.0000 </r>
       <r>   -21.4361     0.0000     0.0000 </r>
       <r>   -21.3333     0.0000     0.0000 </r>
       <r>   -21.2306     0.0000     0.0000 </r>
       <r>   -21.1278     0.0000     0.0000 </r>
       <r>   -21.0250     0.0000     0.0000 </r>
       <r>   -20.9223     0.0000     0.0000 </r>
       <r>   -20.8195    77.8433     8.0000 </r>
       <r>   -20.7167     0.0000     8.0000 </r>
       <r>   -20.6139     0.0000     8.0000 </r>
       <r>   -20.5112     0.0000     8.0000 </r>
       <r>   -20.4084     0.0000     8.0000 </r>
       <r>   -20.3056     0.0000     8.0000 </r>
       <r>   -20.2029     0.0000     8.0000 </r>
       <r>   -20.1001     0.0000     8.0000 </r>
       <r>   -19.9973     0.0000     8.0000 </r>
       <r>   -19.8945     0.0000     8.0000 </r>
       <r>   -19.7918     0.0000     8.0000 </r>
       <r>   -19.6890     0.0000     8.0000 </r>
       <r>   -19.5862     0.0000     8.0000 </r>
       <r>   -19.4835     0.0000     8.0000 </r>
       <r>   -19.3807     0.0000     8.0000 </r>
       <r>   -19.2779     0.0000     8.0000 </r>
       <r>   -19.1752     0.0000     8.0000 </r>
       <r>   -19.0724     0.0000     8.0000 </r>
       <r>   -18.9696     0.0000     8.0000 </r>
       <r>   -18.8668     0.0000     8.0000 </r>
       <r>   -18.7641     0.0000     8.0000 </r>
       <r>   -18.6613     0.0000     8.0000 </r>
       <r>   -18.5585     0.0000     8.0000 </r>
       <r>   -18.4558     0.0000     8.0000 </r>
       <r>   -18.3530     0.0000     8.0000 </r>
       <r>   -18.2502     0.0000     8.0000 </r>
       <r>   -18.1474     0.0000     8.0000 </r>
       <r>   -18.0447     0.0000     8.0000 </r>
       <r>   -17.9419     0.0000     8.0000 </r>
       <r>   -17.8391     0.0000     8.0000 </r>
       <r>   -17.7364     0.0000     8.0000 </r>
       <r>   -17.6336     0.0000     8.0000 </r>
       <r>   -17.5308     0.0000     8.0000 </r>
       <r>   -17.4281     0.0000     8.0000 </r>
       <r>   -17.3253     0.0000     8.0000 </r>
       <r>   -17.2225     0.0000     8.0000 </r>
       <r>   -17.1197     0.0000     8.0000 </r>
       <r>   -17.0170     0.0000     8.0000 </r>
       <r>   -16.9142     0.0000     8.0000 </r>
       <r>   -16.8114     0.0000     8.0000 </r>
       <r>   -16.7087     0.0000     8.0000 </r>
       <r>   -16.6059     0.0286     8.0029 </r>
       <r>   -16.5031   144.3242    23.8323 </r>
       <r>   -16.4003   233.5299    48.0000 </r>
       <r>   -16.2976     0.0000    48.0000 </r>
       <r>   -16.1948     0.0000    48.0000 </r>
       <r>   -16.0920     0.0000    48.0000 </r>
       <r>   -15.9893     0.0000    48.0000 </r>
       <r>   -15.8865     0.0000    48.0000 </r>
       <r>   -15.7837     0.0000    48.0000 </r>
       <r>   -15.6810     0.0000    48.0000 </r>
       <r>   -15.5782     0.0000    48.0000 </r>
       <r>   -15.4754     0.0000    48.0000 </r>
       <r>   -15.3726     0.0000    48.0000 </r>
       <r>   -15.2699     0.0000    48.0000 </r>
       <r>   -15.1671     0.0000    48.0000 </r>
       <r>   -15.0643     0.0000    48.0000 </r>
       <r>   -14.9616     0.0000    48.0000 </r>
       <r>   -14.8588     0.0000    48.0000 </r>
       <r>   -14.7560     0.0000    48.0000 </r>
       <r>   -14.6532     0.0000    48.0000 </r>
       <r>   -14.5505     0.0000    48.0000 </r>
       <r>   -14.4477     0.0000    48.0000 </r>
       <r>   -14.3449     0.7406    48.0761 </r>
       <r>   -14.2422    17.6287    49.9228 </r>
       <r>   -14.1394    26.8511    52.8706 </r>
       <r>   -14.0366    26.0522    57.3441 </r>
       <r>   -13.9339    46.2855    64.0901 </r>
       <r>   -13.8311    52.4197    69.9428 </r>
       <r>   -13.7283     9.7304    72.0000 </r>
       <r>   -13.6255     0.0000    72.0000 </r>
       <r>   -13.5228     0.0000    72.0000 </r>
       <r>   -13.4200     0.0000    72.0000 </r>
       <r>   -13.3172     0.0000    72.0000 </r>
       <r>   -13.2145     0.0000    72.0000 </r>
       <r>   -13.1117     0.0000    72.0000 </r>
       <r>   -13.0089     0.0000    72.0000 </r>
       <r>   -12.9061     0.0000    72.0000 </r>
       <r>   -12.8034     0.0000    72.0000 </r>
       <r>   -12.7006     0.0000    72.0000 </r>
       <r>   -12.5978     0.0000    72.0000 </r>
       <r>   -12.4951     0.0000    72.0000 </r>
       <r>   -12.3923     0.0000    72.0000 </r>
       <r>   -12.2895     0.0000    72.0000 </r>
       <r>   -12.1868     0.0000    72.0000 </r>
       <r>   -12.0840     0.0000    72.0000 </r>
       <r>   -11.9812     0.0000    72.0000 </r>
       <r>   -11.8784     0.0000    72.0000 </r>
       <r>   -11.7757     0.0000    72.0000 </r>
       <r>   -11.6729     0.0000    72.0000 </r>
       <r>   -11.5701     0.0000    72.0000 </r>
       <r>   -11.4674     0.0000    72.0000 </r>
       <r>   -11.3646     0.0000    72.0000 </r>
       <r>   -11.2618     0.0000    72.0000 </r>
       <r>   -11.1590     0.0000    72.0000 </r>
       <r>   -11.0563     0.0000    72.0000 </r>
       <r>   -10.9535     0.0000    72.0000 </r>
       <r>   -10.8507     0.0000    72.0000 </r>
       <r>   -10.7480     0.0000    72.0000 </r>
       <r>   -10.6452     0.0000    72.0000 </r>
       <r>   -10.5424     0.0000    72.0000 </r>
       <r>   -10.4397     0.0000    72.0000 </r>
       <r>   -10.3369     0.0000    72.0000 </r>
       <r>   -10.2341     0.0000    72.0000 </r>
       <r>   -10.1313     0.0000    72.0000 </r>
       <r>   -10.0286     0.0000    72.0000 </r>
       <r>    -9.9258     0.0000    72.0000 </r>
       <r>    -9.8230     0.0000    72.0000 </r>
       <r>    -9.7203     0.0000    72.0000 </r>
       <r>    -9.6175     0.0000    72.0000 </r>
       <r>    -9.5147     0.0000    72.0000 </r>
       <r>    -9.4119     0.0000    72.0000 </r>
       <r>    -9.3092     0.0000    72.0000 </r>
       <r>    -9.2064     0.0000    72.0000 </r>
       <r>    -9.1036     0.0000    72.0000 </r>
       <r>    -9.0009     0.0000    72.0000 </r>
       <r>    -8.8981     0.0000    72.0000 </r>
       <r>    -8.7953     0.0000    72.0000 </r>
       <r>    -8.6926     0.0000    72.0000 </r>
       <r>    -8.5898     0.0000    72.0000 </r>
       <r>    -8.4870     0.0000    72.0000 </r>
       <r>    -8.3842     0.0000    72.0000 </r>
       <r>    -8.2815     0.0000    72.0000 </r>
       <r>    -8.1787     1.0755    72.1105 </r>
       <r>    -8.0759     0.0000    72.1111 </r>
       <r>    -7.9732     6.4321    72.7721 </r>
       <r>    -7.8704     0.7165    72.8514 </r>
       <r>    -7.7676     9.5138    74.2000 </r>
       <r>    -7.6648     2.9323    74.5236 </r>
       <r>    -7.5621     6.6761    75.7972 </r>
       <r>    -7.4593     4.3247    76.4444 </r>
       <r>    -7.3565    13.0002    77.7805 </r>
       <r>    -7.2538    82.1473    86.6645 </r>
       <r>    -7.1510    68.1111   102.7778 </r>
       <r>    -7.0482     4.3246   103.2222 </r>
       <r>    -6.9455     6.4869   103.8889 </r>
       <r>    -6.8427     0.0000   103.8889 </r>
       <r>    -6.7399     0.0000   103.8889 </r>
       <r>    -6.6371     1.0812   104.0000 </r>
       <r>    -6.5344     0.0000   104.0000 </r>
       <r>    -6.4316     0.0000   104.0000 </r>
       <r>    -6.3288     0.0000   104.0000 </r>
       <r>    -6.2261     0.0000   104.0000 </r>
       <r>    -6.1233     0.0000   104.0000 </r>
       <r>    -6.0205     0.0000   104.0000 </r>
       <r>    -5.9177     0.0000   104.0000 </r>
       <r>    -5.8150     0.0000   104.0000 </r>
       <r>    -5.7122     0.0000   104.0000 </r>
       <r>    -5.6094     0.0000   104.0000 </r>
       <r>    -5.5067     0.0000   104.0000 </r>
       <r>    -5.4039     0.0000   104.0000 </r>
       <r>    -5.3011     0.0000   104.0000 </r>
       <r>    -5.1984     0.0000   104.0000 </r>
       <r>    -5.0956     0.0000   104.0000 </r>
       <r>    -4.9928     0.0000   104.0000 </r>
       <r>    -4.8900     0.0000   104.0000 </r>
       <r>    -4.7873     0.0000   104.0000 </r>
       <r>    -4.6845     0.0000   104.0000 </r>
       <r>    -4.5817     0.0000   104.0000 </r>
       <r>    -4.4790     0.0000   104.0000 </r>
       <r>    -4.3762     0.0000   104.0000 </r>
       <r>    -4.2734     0.0000   104.0000 </r>
       <r>    -4.1707     0.0000   104.0000 </r>
       <r>    -4.0679     0.0000   104.0000 </r>
       <r>    -3.9651     0.0000   104.0000 </r>
       <r>    -3.8623     0.0000   104.0000 </r>
       <r>    -3.7596     0.0000   104.0000 </r>
       <r>    -3.6568     0.0000   104.0000 </r>
       <r>    -3.5540     0.0000   104.0000 </r>
       <r>    -3.4513     0.0000   104.0000 </r>
       <r>    -3.3485     1.0532   104.1082 </r>
       <r>    -3.2457     3.2433   104.4444 </r>
       <r>    -3.1429    29.9441   107.5218 </r>
       <r>    -3.0402     6.4873   108.3334 </r>
       <r>    -2.9374    12.9091   109.6601 </r>
       <r>    -2.8346     9.1342   110.7165 </r>
       <r>    -2.7319    15.1000   113.1074 </r>
       <r>    -2.6291     6.5116   113.7804 </r>
       <r>    -2.5263     0.0000   114.0000 </r>
       <r>    -2.4236    14.7451   115.5154 </r>
       <r>    -2.3208    10.3069   117.9481 </r>
       <r>    -2.2180    10.7029   119.3222 </r>
       <r>    -2.1152    20.6203   121.8970 </r>
       <r>    -2.0125    27.2434   124.9109 </r>
       <r>    -1.9097     4.3248   126.7778 </r>
       <r>    -1.8069     8.6278   127.6645 </r>
       <r>    -1.7042    39.9757   132.4419 </r>
       <r>    -1.6014    10.2742   134.7226 </r>
       <r>    -1.4986    39.9789   139.4420 </r>
       <r>    -1.3958    42.5370   145.4827 </r>
       <r>    -1.2931    52.5706   152.7363 </r>
       <r>    -1.1903    41.3702   158.1405 </r>
       <r>    -1.0875    46.7346   165.3587 </r>
       <r>    -0.9848    15.3463   167.9105 </r>
       <r>    -0.8820    15.1619   169.5583 </r>
       <r>    -0.7792    10.0989   171.0379 </r>
       <r>    -0.6765    10.7534   172.3275 </r>
       <r>    -0.5737     5.6640   174.1376 </r>
       <r>    -0.4709     4.3246   174.6667 </r>
       <r>    -0.3681     0.0000   174.6667 </r>
       <r>    -0.2654     5.4259   175.2243 </r>
       <r>    -0.1626     2.1914   175.6697 </r>
       <r>    -0.0598     0.0000   175.8889 </r>
       <r>     0.0429     0.0000   175.8889 </r>
       <r>     0.1457     0.0000   175.8889 </r>
       <r>     0.2485     1.0271   175.9944 </r>
       <r>     0.3513     0.0000   176.0000 </r>
       <r>     0.4540     0.0000   176.0000 </r>
       <r>     0.5568     0.0000   176.0000 </r>
       <r>     0.6596     0.0000   176.0000 </r>
       <r>     0.7623     0.0000   176.0000 </r>
       <r>     0.8651     0.0000   176.0000 </r>
       <r>     0.9679     0.0000   176.0000 </r>
       <r>     1.0706     0.0000   176.0000 </r>
       <r>     1.1734     0.0000   176.0000 </r>
       <r>     1.2762     0.0000   176.0000 </r>
       <r>     1.3790     0.0000   176.0000 </r>
       <r>     1.4817     0.0000   176.0000 </r>
       <r>     1.5845     0.0000   176.0000 </r>
       <r>     1.6873     0.0000   176.0000 </r>
       <r>     1.7900     0.0000   176.0000 </r>
       <r>     1.8928     0.0000   176.0000 </r>
       <r>     1.9956     0.0000   176.0000 </r>
       <r>     2.0984     0.0000   176.0000 </r>
       <r>     2.2011     0.0000   176.0000 </r>
       <r>     2.3039     0.0000   176.0000 </r>
       <r>     2.4067     0.0000   176.0000 </r>
       <r>     2.5094     0.4457   176.0458 </r>
       <r>     2.6122     1.0812   176.2222 </r>
       <r>     2.7150     4.3246   176.6667 </r>
       <r>     2.8177     6.4869   177.3333 </r>
       <r>     2.9205     2.3700   177.5769 </r>
       <r>     3.0233     8.4804   178.6493 </r>
       <r>     3.1261     0.0002   178.8889 </r>
       <r>     3.2288    11.8810   180.1099 </r>
       <r>     3.3316     2.1705   180.3342 </r>
       <r>     3.4344     1.8847   181.0826 </r>
       <r>     3.5371     0.0000   181.5556 </r>
       <r>     3.6399     5.4383   182.1145 </r>
       <r>     3.7427     2.1623   182.4444 </r>
       <r>     3.8455    12.8344   183.7634 </r>
       <r>     3.9482     9.7997   184.7849 </r>
       <r>     4.0510     4.3246   185.5556 </r>
       <r>     4.1538    14.7980   187.0764 </r>
       <r>     4.2565     0.0000   188.0000 </r>
       <r>     4.3593     8.6493   188.8889 </r>
       <r>     4.4621     8.6492   189.7778 </r>
       <r>     4.5648     1.2754   189.9089 </r>
       <r>     4.6676     0.0000   190.0000 </r>
       <r>     4.7704     7.6345   190.7846 </r>
       <r>     4.8732     4.6569   191.3675 </r>
       <r>     4.9759    12.9474   192.7751 </r>
       <r>     5.0787     4.3392   193.2237 </r>
       <r>     5.1815     6.4505   194.1074 </r>
       <r>     5.2842     9.5419   195.3140 </r>
       <r>     5.3870     4.4951   195.7953 </r>
       <r>     5.4898     4.4383   196.4561 </r>
       <r>     5.5926     0.9389   196.7632 </r>
       <r>     5.6953    10.9234   198.1226 </r>
       <r>     5.7981    10.7981   199.6653 </r>
       <r>     5.9009     7.0605   200.6145 </r>
       <r>     6.0036     6.4869   201.8889 </r>
       <r>     6.1064     7.5617   202.6660 </r>
       <r>     6.2092    11.5287   203.8515 </r>
       <r>     6.3119    10.6884   205.7651 </r>
       <r>     6.4147    10.8117   208.4445 </r>
       <r>     6.5175    14.9997   209.9860 </r>
       <r>     6.6203    24.0888   212.8090 </r>
       <r>     6.7230    20.8620   215.8107 </r>
       <r>     6.8258    21.7503   218.2353 </r>
       <r>     6.9286    10.6313   219.5370 </r>
       <r>     7.0313    21.3095   222.1900 </r>
       <r>     7.1341    12.4809   223.5049 </r>
       <r>     7.2369     2.1623   224.0000 </r>
       <r>     7.3397     0.0000   224.0000 </r>
       <r>     7.4424     0.0000   224.0000 </r>
       <r>     7.5452     0.0000   224.0000 </r>
       <r>     7.6480     0.0000   224.0000 </r>
       <r>     7.7507     0.0000   224.0000 </r>
       <r>     7.8535     0.0000   224.0000 </r>
       <r>     7.9563     0.0000   224.0000 </r>
       <r>     8.0590     0.0000   224.0000 </r>
       <r>     8.1618     0.0000   224.0000 </r>
       <r>     8.2646     0.0000   224.0000 </r>
       <r>     8.3674     0.0000   224.0000 </r>
       <r>     8.4701     0.0000   224.0000 </r>
       <r>     8.5729     0.0000   224.0000 </r>
      </set>
     </set>
    </array>
   </total>
   <partial>
    <array>
     <dimension dim="1">gridpoints</dimension>
     <dimension dim="2">spin</dimension>
     <dimension dim="3">ion</dimension>
     <field>energy</field>
     <field>  s  </field>
     <field>  p  </field>
     <field>  d  </field>
     <set>
      <set comment="ion 1">
       <set comment="spin 1">
        <r>   -22.2583     0.0000     0.0000     0.0000 </r>
        <r>   -22.1555     0.0000     0.0000     0.0000 </r>
        <r>   -22.0527     0.0000     0.0000     0.0000 </r>
        <r>   -21.9500     0.0000     0.0000     0.0000 </r>
        <r>   -21.8472     0.0000     0.0000     0.0000 </r>
[...]
        <r>  0.0000  0.0000  0.0004 </r>
        <r>  0.0014  0.0825  0.0010 </r>
        <r>  0.0014  0.0918  0.0009 </r>
        <r>  0.0014  0.0921  0.0009 </r>
        <r>  0.0014  0.0828  0.0010 </r>
        <r>  0.0000  0.0005  0.0020 </r>
        <r>  0.0002  0.0059  0.0002 </r>
        <r>  0.0000  0.0007  0.0017 </r>
        <r>  0.0002  0.0070  0.0001 </r>
        <r>  0.0070  0.0203  0.0036 </r>
        <r>  0.0005  0.0079  0.0003 </r>
        <r>  0.0006  0.0085  0.0003 </r>
        <r>  0.0076  0.0165  0.0040 </r>
        <r>  0.0070  0.0203  0.0036 </r>
        <r>  0.0005  0.0079  0.0003 </r>
        <r>  0.0077  0.0165  0.0040 </r>
        <r>  0.0006  0.0086  0.0003 </r>
       </set>
       <set comment="band 93">
        <r>  0.0000  0.0008  0.0015 </r>
        <r>  0.0000  0.0000  0.0004 </r>
        <r>  0.0003  0.0003  0.0004 </r>
        <r>  0.0000  0.0000  0.0002 </r>
        <r>  0.0027  0.0799  0.0011 </r>
        <r>  0.0026  0.0808  0.0011 </r>
        <r>  0.0026  0.0806  0.0011 </r>
        <r>  0.0027  0.0798  0.0011 </r>
        <r>  0.0000  0.0659  0.0002 </r>
        <r>  0.0107  0.0005  0.0042 </r>
        <r>  0.0000  0.0656  0.0001 </r>
        <r>  0.0107  0.0004  0.0042 </r>
        <r>  0.0001  0.0025  0.0009 </r>
        <r>  0.0000  0.0008  0.0017 </r>
        <r>  0.0000  0.0017  0.0021 </r>
        <r>  0.0001  0.0056  0.0008 </r>
        <r>  0.0001  0.0025  0.0009 </r>
        <r>  0.0000  0.0008  0.0017 </r>
        <r>  0.0001  0.0055  0.0008 </r>
        <r>  0.0000  0.0017  0.0021 </r>
       </set>
       <set comment="band 94">
        <r>  0.0000  0.0000  0.0002 </r>
        <r>  0.0003  0.0003  0.0004 </r>
        <r>  0.0000  0.0000  0.0004 </r>
        <r>  0.0000  0.0008  0.0015 </r>
        <r>  0.0027  0.0798  0.0011 </r>
        <r>  0.0026  0.0806  0.0011 </r>
        <r>  0.0026  0.0808  0.0011 </r>
        <r>  0.0027  0.0799  0.0011 </r>
        <r>  0.0107  0.0004  0.0042 </r>
        <r>  0.0000  0.0656  0.0001 </r>
        <r>  0.0107  0.0005  0.0042 </r>
        <r>  0.0000  0.0659  0.0002 </r>
        <r>  0.0001  0.0056  0.0008 </r>
        <r>  0.0000  0.0017  0.0021 </r>
        <r>  0.0000  0.0008  0.0017 </r>
        <r>  0.0001  0.0025  0.0009 </r>
        <r>  0.0001  0.0055  0.0008 </r>
        <r>  0.0000  0.0017  0.0021 </r>
        <r>  0.0001  0.0025  0.0009 </r>
        <r>  0.0000  0.0008  0.0017 </r>
       </set>
       <set comment="band 95">
        <r>  0.0002  0.0002  0.0002 </r>
        <r>  0.0000  0.0002  0.0002 </r>
        <r>  0.0001  0.0008  0.0010 </r>
        <r>  0.0000  0.0001  0.0003 </r>
        <r>  0.0025  0.0826  0.0011 </r>
        <r>  0.0024  0.0818  0.0011 </r>
        <r>  0.0024  0.0819  0.0011 </r>
        <r>  0.0024  0.0827  0.0011 </r>
        <r>  0.0000  0.0592  0.0001 </r>
        <r>  0.0095  0.0002  0.0043 </r>
        <r>  0.0000  0.0581  0.0003 </r>
        <r>  0.0099  0.0002  0.0044 </r>
        <r>  0.0002  0.0063  0.0019 </r>
        <r>  0.0000  0.0061  0.0009 </r>
        <r>  0.0000  0.0037  0.0005 </r>
        <r>  0.0004  0.0038  0.0016 </r>
        <r>  0.0002  0.0063  0.0019 </r>
        <r>  0.0000  0.0061  0.0009 </r>
        <r>  0.0004  0.0038  0.0016 </r>
        <r>  0.0000  0.0037  0.0005 </r>
       </set>
       <set comment="band 96">
        <r>  0.0000  0.0001  0.0003 </r>
        <r>  0.0001  0.0008  0.0010 </r>
        <r>  0.0000  0.0002  0.0002 </r>
        <r>  0.0002  0.0002  0.0002 </r>
        <r>  0.0024  0.0827  0.0011 </r>
        <r>  0.0024  0.0819  0.0011 </r>
        <r>  0.0024  0.0818  0.0011 </r>
        <r>  0.0025  0.0826  0.0011 </r>
        <r>  0.0099  0.0002  0.0044 </r>
        <r>  0.0000  0.0581  0.0003 </r>
        <r>  0.0095  0.0002  0.0043 </r>
        <r>  0.0000  0.0592  0.0001 </r>
        <r>  0.0004  0.0038  0.0016 </r>
        <r>  0.0000  0.0037  0.0005 </r>
        <r>  0.0000  0.0061  0.0009 </r>
        <r>  0.0002  0.0063  0.0019 </r>
        <r>  0.0004  0.0038  0.0016 </r>
        <r>  0.0000  0.0037  0.0005 </r>
        <r>  0.0002  0.0063  0.0019 </r>
        <r>  0.0000  0.0061  0.0009 </r>
       </set>
       <set comment="band 97">
        <r>  0.0000  0.0000  0.0013 </r>
        <r>  0.0001  0.0005  0.0004 </r>
        <r>  0.0000  0.0000  0.0030 </r>
        <r>  0.0002  0.0003  0.0005 </r>
        <r>  0.0019  0.0866  0.0009 </r>
        <r>  0.0021  0.0687  0.0009 </r>
        <r>  0.0021  0.0693  0.0009 </r>
        <r>  0.0019  0.0875  0.0009 </r>
        <r>  0.0009  0.0045  0.0005 </r>
        <r>  0.0000  0.0057  0.0027 </r>
        <r>  0.0016  0.0032  0.0009 </r>
        <r>  0.0000  0.0040  0.0028 </r>
        <r>  0.0024  0.0418  0.0019 </r>
        <r>  0.0002  0.0012  0.0021 </r>
        <r>  0.0002  0.0018  0.0019 </r>
        <r>  0.0037  0.0365  0.0017 </r>
        <r>  0.0024  0.0414  0.0019 </r>
        <r>  0.0002  0.0012  0.0021 </r>
        <r>  0.0037  0.0369  0.0017 </r>
        <r>  0.0002  0.0018  0.0020 </r>
       </set>
       <set comment="band 98">
        <r>  0.0002  0.0003  0.0005 </r>
        <r>  0.0000  0.0000  0.0030 </r>
        <r>  0.0001  0.0005  0.0004 </r>
        <r>  0.0000  0.0000  0.0013 </r>
        <r>  0.0019  0.0875  0.0009 </r>
        <r>  0.0021  0.0693  0.0009 </r>
        <r>  0.0021  0.0687  0.0009 </r>
        <r>  0.0019  0.0866  0.0009 </r>
        <r>  0.0000  0.0040  0.0028 </r>
        <r>  0.0016  0.0032  0.0009 </r>
        <r>  0.0000  0.0057  0.0027 </r>
        <r>  0.0009  0.0045  0.0005 </r>
        <r>  0.0037  0.0365  0.0017 </r>
        <r>  0.0002  0.0018  0.0019 </r>
        <r>  0.0002  0.0012  0.0021 </r>
        <r>  0.0024  0.0418  0.0019 </r>
        <r>  0.0037  0.0369  0.0017 </r>
        <r>  0.0002  0.0018  0.0020 </r>
        <r>  0.0024  0.0414  0.0019 </r>
        <r>  0.0002  0.0012  0.0021 </r>
       </set>
       <set comment="band 99">
        <r>  0.0000  0.0000  0.0023 </r>
        <r>  0.0000  0.0001  0.0012 </r>
        <r>  0.0000  0.0000  0.0024 </r>
        <r>  0.0000  0.0002  0.0010 </r>
        <r>  0.0000  0.0712  0.0005 </r>
        <r>  0.0001  0.0860  0.0004 </r>
        <r>  0.0001  0.0845  0.0005 </r>
        <r>  0.0000  0.0700  0.0005 </r>
        <r>  0.0003  0.0015  0.0006 </r>
        <r>  0.0000  0.0011  0.0038 </r>
        <r>  0.0001  0.0036  0.0003 </r>
        <r>  0.0000  0.0015  0.0037 </r>
        <r>  0.0000  0.0015  0.0025 </r>
        <r>  0.0000  0.0468  0.0018 </r>
        <r>  0.0001  0.0518  0.0012 </r>
        <r>  0.0002  0.0012  0.0027 </r>
        <r>  0.0000  0.0015  0.0025 </r>
        <r>  0.0000  0.0477  0.0018 </r>
        <r>  0.0002  0.0012  0.0026 </r>
        <r>  0.0001  0.0509  0.0012 </r>
       </set>
       <set comment="band 100">
        <r>  0.0000  0.0002  0.0010 </r>
        <r>  0.0000  0.0000  0.0024 </r>
        <r>  0.0000  0.0001  0.0012 </r>
        <r>  0.0000  0.0000  0.0023 </r>
        <r>  0.0000  0.0700  0.0005 </r>
        <r>  0.0001  0.0845  0.0005 </r>
        <r>  0.0001  0.0860  0.0004 </r>
        <r>  0.0000  0.0712  0.0005 </r>
        <r>  0.0000  0.0015  0.0037 </r>
        <r>  0.0001  0.0036  0.0003 </r>
        <r>  0.0000  0.0011  0.0038 </r>
        <r>  0.0003  0.0015  0.0006 </r>
        <r>  0.0002  0.0012  0.0027 </r>
        <r>  0.0001  0.0518  0.0012 </r>
        <r>  0.0000  0.0468  0.0018 </r>
        <r>  0.0000  0.0015  0.0025 </r>
        <r>  0.0002  0.0012  0.0026 </r>
        <r>  0.0001  0.0509  0.0012 </r>
        <r>  0.0000  0.0015  0.0025 </r>
        <r>  0.0000  0.0477  0.0018 </r>
       </set>
       <set comment="band 101">
        <r>  0.0000  0.0008  0.0133 </r>
        <r>  0.0122  0.0062  0.0111 </r>
        <r>  0.0000  0.0008  0.0107 </r>
        <r>  0.0112  0.0054  0.0045 </r>
        <r>  0.0002  0.0042  0.0002 </r>
        <r>  0.0004  0.0067  0.0004 </r>
        <r>  0.0004  0.0067  0.0004 </r>
        <r>  0.0002  0.0042  0.0002 </r>
        <r>  0.0038  0.0066  0.0037 </r>
        <r>  0.0000  0.0059  0.0002 </r>
        <r>  0.0053  0.0085  0.0034 </r>
        <r>  0.0000  0.0057  0.0002 </r>
        <r>  0.0004  0.0033  0.0005 </r>
        <r>  0.0040  0.0025  0.0023 </r>
        <r>  0.0029  0.0014  0.0013 </r>
        <r>  0.0022  0.0048  0.0019 </r>
        <r>  0.0004  0.0033  0.0005 </r>
        <r>  0.0040  0.0025  0.0023 </r>
        <r>  0.0022  0.0048  0.0019 </r>
        <r>  0.0029  0.0014  0.0013 </r>
       </set>
       <set comment="band 102">
        <r>  0.0112  0.0054  0.0045 </r>
        <r>  0.0000  0.0008  0.0107 </r>
        <r>  0.0122  0.0062  0.0111 </r>
        <r>  0.0000  0.0008  0.0133 </r>
        <r>  0.0002  0.0042  0.0002 </r>
        <r>  0.0004  0.0067  0.0004 </r>
        <r>  0.0004  0.0067  0.0004 </r>
        <r>  0.0002  0.0042  0.0002 </r>
        <r>  0.0000  0.0057  0.0002 </r>
        <r>  0.0053  0.0085  0.0034 </r>
        <r>  0.0000  0.0059  0.0002 </r>
        <r>  0.0038  0.0066  0.0037 </r>
        <r>  0.0022  0.0048  0.0019 </r>
        <r>  0.0029  0.0014  0.0013 </r>
        <r>  0.0040  0.0025  0.0023 </r>
        <r>  0.0004  0.0033  0.0005 </r>
        <r>  0.0022  0.0048  0.0019 </r>
        <r>  0.0029  0.0014  0.0013 </r>
        <r>  0.0004  0.0033  0.0005 </r>
        <r>  0.0040  0.0025  0.0023 </r>
       </set>
       <set comment="band 103">
        <r>  0.0044  0.0028  0.0491 </r>
        <r>  0.0000  0.0007  0.0012 </r>
        <r>  0.0001  0.0005  0.0535 </r>
        <r>  0.0000  0.0003  0.0051 </r>
        <r>  0.0001  0.0069  0.0004 </r>
        <r>  0.0000  0.0014  0.0003 </r>
        <r>  0.0000  0.0014  0.0003 </r>
        <r>  0.0001  0.0069  0.0004 </r>
        <r>  0.0000  0.0001  0.0002 </r>
        <r>  0.0007  0.0097  0.0063 </r>
        <r>  0.0000  0.0017  0.0003 </r>
        <r>  0.0003  0.0143  0.0065 </r>
        <r>  0.0003  0.0019  0.0017 </r>
        <r>  0.0001  0.0007  0.0009 </r>
        <r>  0.0014  0.0057  0.0018 </r>
        <r>  0.0008  0.0037  0.0010 </r>
        <r>  0.0003  0.0019  0.0017 </r>
        <r>  0.0001  0.0007  0.0009 </r>
        <r>  0.0008  0.0037  0.0010 </r>
        <r>  0.0014  0.0057  0.0018 </r>
       </set>
       <set comment="band 104">
        <r>  0.0000  0.0003  0.0051 </r>
        <r>  0.0001  0.0005  0.0535 </r>
        <r>  0.0000  0.0007  0.0012 </r>
        <r>  0.0044  0.0028  0.0491 </r>
        <r>  0.0001  0.0069  0.0004 </r>
        <r>  0.0000  0.0014  0.0003 </r>
        <r>  0.0000  0.0014  0.0003 </r>
        <r>  0.0001  0.0069  0.0004 </r>
        <r>  0.0003  0.0143  0.0065 </r>
        <r>  0.0000  0.0017  0.0003 </r>
        <r>  0.0007  0.0097  0.0063 </r>
        <r>  0.0000  0.0001  0.0002 </r>
        <r>  0.0008  0.0037  0.0010 </r>
        <r>  0.0014  0.0057  0.0018 </r>
        <r>  0.0001  0.0007  0.0009 </r>
        <r>  0.0003  0.0019  0.0017 </r>
        <r>  0.0008  0.0037  0.0010 </r>
        <r>  0.0014  0.0057  0.0018 </r>
        <r>  0.0003  0.0019  0.0017 </r>
        <r>  0.0001  0.0007  0.0009 </r>
       </set>
       <set comment="band 105">
        <r>  0.0015  0.0015  0.0278 </r>
        <r>  0.0000  0.0004  0.0250 </r>
        <r>  0.0036  0.0039  0.0300 </r>
        <r>  0.0000  0.0005  0.0293 </r>
        <r>  0.0001  0.0049  0.0010 </r>
        <r>  0.0004  0.0045  0.0008 </r>
        <r>  0.0004  0.0045  0.0008 </r>
        <r>  0.0001  0.0049  0.0010 </r>
        <r>  0.0000  0.0003  0.0007 </r>
        <r>  0.0004  0.0075  0.0022 </r>
        <r>  0.0000  0.0017  0.0015 </r>
        <r>  0.0003  0.0048  0.0025 </r>
        <r>  0.0010  0.0049  0.0036 </r>
        <r>  0.0007  0.0010  0.0024 </r>
        <r>  0.0022  0.0021  0.0024 </r>
        <r>  0.0021  0.0001  0.0025 </r>
        <r>  0.0010  0.0049  0.0036 </r>
        <r>  0.0006  0.0010  0.0024 </r>
        <r>  0.0021  0.0001  0.0025 </r>
        <r>  0.0022  0.0021  0.0024 </r>
       </set>
       <set comment="band 106">
        <r>  0.0000  0.0005  0.0293 </r>
        <r>  0.0036  0.0039  0.0300 </r>
        <r>  0.0000  0.0004  0.0250 </r>
        <r>  0.0015  0.0015  0.0278 </r>
        <r>  0.0001  0.0049  0.0010 </r>
        <r>  0.0004  0.0045  0.0008 </r>
        <r>  0.0004  0.0045  0.0008 </r>
        <r>  0.0001  0.0049  0.0010 </r>
        <r>  0.0003  0.0048  0.0025 </r>
        <r>  0.0000  0.0017  0.0015 </r>
        <r>  0.0004  0.0075  0.0022 </r>
        <r>  0.0000  0.0003  0.0007 </r>
        <r>  0.0021  0.0001  0.0025 </r>
        <r>  0.0022  0.0021  0.0024 </r>
        <r>  0.0007  0.0010  0.0024 </r>
        <r>  0.0010  0.0049  0.0036 </r>
        <r>  0.0021  0.0001  0.0025 </r>
        <r>  0.0022  0.0021  0.0024 </r>
        <r>  0.0010  0.0049  0.0036 </r>
        <r>  0.0006  0.0010  0.0024 </r>
       </set>
       <set comment="band 107">
        <r>  0.0017  0.0055  0.0276 </r>
        <r>  0.0000  0.0005  0.0292 </r>
        <r>  0.0029  0.0059  0.0265 </r>
        <r>  0.0000  0.0000  0.0210 </r>
        <r>  0.0000  0.0023  0.0008 </r>
        <r>  0.0000  0.0085  0.0006 </r>
        <r>  0.0000  0.0085  0.0006 </r>
        <r>  0.0000  0.0023  0.0008 </r>
        <r>  0.0000  0.0048  0.0016 </r>
        <r>  0.0003  0.0040  0.0032 </r>
        <r>  0.0000  0.0022  0.0010 </r>
        <r>  0.0052  0.0030  0.0039 </r>
        <r>  0.0019  0.0055  0.0042 </r>
        <r>  0.0007  0.0020  0.0011 </r>
        <r>  0.0001  0.0020  0.0019 </r>
        <r>  0.0015  0.0016  0.0027 </r>
        <r>  0.0019  0.0055  0.0042 </r>
        <r>  0.0007  0.0020  0.0011 </r>
        <r>  0.0015  0.0016  0.0027 </r>
        <r>  0.0001  0.0020  0.0019 </r>
       </set>
       <set comment="band 108">
        <r>  0.0000  0.0000  0.0210 </r>
        <r>  0.0029  0.0059  0.0265 </r>
        <r>  0.0000  0.0005  0.0292 </r>
        <r>  0.0017  0.0055  0.0276 </r>
        <r>  0.0000  0.0023  0.0008 </r>
        <r>  0.0000  0.0085  0.0006 </r>
        <r>  0.0000  0.0085  0.0006 </r>
        <r>  0.0000  0.0023  0.0008 </r>
        <r>  0.0052  0.0030  0.0039 </r>
        <r>  0.0000  0.0022  0.0010 </r>
        <r>  0.0003  0.0040  0.0032 </r>
        <r>  0.0000  0.0048  0.0016 </r>
        <r>  0.0015  0.0016  0.0027 </r>
        <r>  0.0001  0.0020  0.0019 </r>
        <r>  0.0007  0.0020  0.0011 </r>
        <r>  0.0019  0.0055  0.0042 </r>
        <r>  0.0015  0.0016  0.0027 </r>
        <r>  0.0001  0.0020  0.0019 </r>
        <r>  0.0019  0.0055  0.0042 </r>
        <r>  0.0007  0.0020  0.0011 </r>
       </set>
       <set comment="band 109">
        <r>  0.0002  0.0027  0.0710 </r>
        <r>  0.0000  0.0003  0.0333 </r>
        <r>  0.0006  0.0027  0.0199 </r>
        <r>  0.0000  0.0013  0.0136 </r>
        <r>  0.0001  0.0065  0.0006 </r>
        <r>  0.0000  0.0036  0.0010 </r>
        <r>  0.0000  0.0036  0.0010 </r>
        <r>  0.0001  0.0065  0.0006 </r>
        <r>  0.0000  0.0006  0.0012 </r>
        <r>  0.0024  0.0091  0.0032 </r>
        <r>  0.0000  0.0009  0.0005 </r>
        <r>  0.0006  0.0065  0.0006 </r>
        <r>  0.0001  0.0012  0.0029 </r>
        <r>  0.0010  0.0026  0.0040 </r>
        <r>  0.0003  0.0040  0.0058 </r>
        <r>  0.0001  0.0032  0.0008 </r>
        <r>  0.0001  0.0012  0.0029 </r>
        <r>  0.0010  0.0026  0.0040 </r>
        <r>  0.0001  0.0032  0.0008 </r>
        <r>  0.0003  0.0040  0.0058 </r>
       </set>
       <set comment="band 110">
        <r>  0.0000  0.0013  0.0136 </r>
        <r>  0.0006  0.0027  0.0199 </r>
        <r>  0.0000  0.0003  0.0333 </r>
        <r>  0.0002  0.0027  0.0710 </r>
        <r>  0.0001  0.0065  0.0006 </r>
        <r>  0.0000  0.0036  0.0010 </r>
        <r>  0.0000  0.0036  0.0010 </r>
        <r>  0.0001  0.0065  0.0006 </r>
        <r>  0.0006  0.0065  0.0006 </r>
        <r>  0.0000  0.0009  0.0005 </r>
        <r>  0.0024  0.0091  0.0032 </r>
        <r>  0.0000  0.0006  0.0012 </r>
        <r>  0.0001  0.0032  0.0008 </r>
        <r>  0.0003  0.0040  0.0058 </r>
        <r>  0.0010  0.0026  0.0040 </r>
        <r>  0.0001  0.0012  0.0029 </r>
        <r>  0.0001  0.0032  0.0008 </r>
        <r>  0.0003  0.0040  0.0058 </r>
        <r>  0.0001  0.0012  0.0029 </r>
        <r>  0.0010  0.0026  0.0040 </r>
       </set>
       <set comment="band 111">
        <r>  0.0001  0.0007  0.0458 </r>
        <r>  0.0027  0.0018  0.0366 </r>
        <r>  0.0000  0.0009  0.0213 </r>
        <r>  0.0068  0.0046  0.0154 </r>
        <r>  0.0000  0.0072  0.0015 </r>
        <r>  0.0000  0.0070  0.0013 </r>
        <r>  0.0000  0.0047  0.0016 </r>
        <r>  0.0000  0.0080  0.0013 </r>
        <r>  0.0015  0.0108  0.0030 </r>
        <r>  0.0000  0.0001  0.0023 </r>
        <r>  0.0008  0.0053  0.0027 </r>
        <r>  0.0000  0.0004  0.0012 </r>
        <r>  0.0003  0.0013  0.0036 </r>
        <r>  0.0004  0.0045  0.0042 </r>
        <r>  0.0004  0.0020  0.0024 </r>
        <r>  0.0013  0.0029  0.0030 </r>
        <r>  0.0004  0.0012  0.0042 </r>
        <r>  0.0002  0.0049  0.0038 </r>
        <r>  0.0011  0.0029  0.0024 </r>
        <r>  0.0006  0.0016  0.0028 </r>
       </set>
       <set comment="band 112">
        <r>  0.0068  0.0046  0.0154 </r>
        <r>  0.0000  0.0009  0.0213 </r>
        <r>  0.0027  0.0018  0.0365 </r>
        <r>  0.0001  0.0007  0.0459 </r>
        <r>  0.0000  0.0080  0.0013 </r>
        <r>  0.0000  0.0047  0.0016 </r>
        <r>  0.0000  0.0070  0.0013 </r>
        <r>  0.0000  0.0072  0.0015 </r>
        <r>  0.0000  0.0004  0.0012 </r>
        <r>  0.0008  0.0053  0.0027 </r>
        <r>  0.0000  0.0001  0.0023 </r>
        <r>  0.0015  0.0108  0.0030 </r>
        <r>  0.0013  0.0029  0.0030 </r>
        <r>  0.0004  0.0020  0.0024 </r>
        <r>  0.0004  0.0045  0.0042 </r>
        <r>  0.0003  0.0013  0.0036 </r>
        <r>  0.0011  0.0030  0.0024 </r>
        <r>  0.0006  0.0016  0.0028 </r>
        <r>  0.0004  0.0012  0.0042 </r>
        <r>  0.0002  0.0049  0.0038 </r>
       </set>
      </set>
     </set>
    </set>
   </array>
  </projected>
 </calculation>
 <structure name="finalpos" >
  <crystal>
   <varray name="basis" >
    <v>       8.67261813       0.00000000       0.00000000 </v>
    <v>       0.00000000      12.11672202       0.00000000 </v>
    <v>       0.00000000       0.00000000       7.73269177 </v>
   </varray>
   <i name="volume">    812.57988485 </i>
   <varray name="rec_basis" >
    <v>       0.11530543       0.00000000       0.00000000 </v>
    <v>       0.00000000       0.08253057       0.00000000 </v>
    <v>       0.00000000       0.00000000       0.12932107 </v>
   </varray>
  </crystal>
  <varray name="positions" >
   <v>       0.07286331       0.25000000       0.47024290 </v>
   <v>       0.42713669       0.75000000       0.97024290 </v>
   <v>       0.57286331       0.25000000       0.02975710 </v>
   <v>       0.92713669       0.75000000       0.52975710 </v>
   <v>       0.00000000       0.00000000       0.00000000 </v>
   <v>       0.50000000       0.00000000       0.50000000 </v>
   <v>       0.50000000       0.50000000       0.50000000 </v>
   <v>       0.00000000       0.50000000       0.00000000 </v>
   <v>       0.50691735       0.75000000       0.44969638 </v>
   <v>       0.99308265       0.25000000       0.94969638 </v>
   <v>       0.00691735       0.75000000       0.05030362 </v>
   <v>       0.49308265       0.25000000       0.55030362 </v>
   <v>       0.30401003       0.46822520       0.18394757 </v>
   <v>       0.19598997       0.53177480       0.68394757 </v>
   <v>       0.80401003       0.03177480       0.31605243 </v>
   <v>       0.69598997       0.96822520       0.81605243 </v>
   <v>       0.30401003       0.03177480       0.18394757 </v>
   <v>       0.19598997       0.96822520       0.68394757 </v>
   <v>       0.69598997       0.53177480       0.81605243 </v>
   <v>       0.80401003       0.46822520       0.31605243 </v>
  </varray>
 </structure>
</modeling>
