CsPbBr3 cubic bulk                      
           1
     8.672618    0.000000    0.000000
     0.000000   12.116722    0.000000
     0.000000    0.000000    7.732692
   Cs   Pb   Br
   4   4  12
Direct configuration=     1
   0.07286331  0.25000000  0.47024290
   0.42713669  0.75000000  0.97024290
   0.57286331  0.25000000  0.02975710
   0.92713669  0.75000000  0.52975710
   0.00000000  0.00000000  0.00000000
   0.50000000  0.00000000  0.50000000
   0.50000000  0.50000000  0.50000000
   0.00000000  0.50000000  0.00000000
   0.50691735  0.75000000  0.44969638
   0.99308265  0.25000000  0.94969638
   0.00691735  0.75000000  0.05030362
   0.49308265  0.25000000  0.55030362
   0.30401003  0.46822520  0.18394757
   0.19598997  0.53177480  0.68394757
   0.80401003  0.03177480  0.31605243
   0.69598997  0.96822520  0.81605243
   0.30401003  0.03177480  0.18394757
   0.19598997  0.96822520  0.68394757
   0.69598997  0.53177480  0.81605243
   0.80401003  0.46822520  0.31605243
