  39  39   1   0
  0.4089970E+02  0.1166870E-08  0.1172985E-08  0.1166870E-08  0.5000000E-15
   1.0000000000000000E-004
  CAR 
 CsPbBr3 cubic bulk                      
      8.05345066    -22.32724289  301      0.50891176      1.00000000
    -22.327  0.0000E+00  0.0000E+00
    -22.226  0.0000E+00  0.0000E+00
    -22.125  0.0000E+00  0.0000E+00
    -22.023  0.0000E+00  0.0000E+00
    -21.922  0.0000E+00  0.0000E+00
    -21.821  0.0000E+00  0.0000E+00
    -21.720  0.0000E+00  0.0000E+00
    -21.618  0.0000E+00  0.0000E+00
    -21.517  0.0000E+00  0.0000E+00
    -21.416  0.0000E+00  0.0000E+00
    -21.315  0.0000E+00  0.0000E+00
    -21.213  0.0000E+00  0.0000E+00
    -21.112  0.0000E+00  0.0000E+00
    -21.011  0.0000E+00  0.0000E+00
    -20.909  0.1975E+02  0.2000E+01
    -20.808  0.3796E+02  0.5844E+01
    -20.707  0.4287E+02  0.1234E+02
    -20.606  0.0000E+00  0.1600E+02
    -20.504  0.0000E+00  0.1600E+02
    -20.403  0.0000E+00  0.1600E+02
    -20.302  0.0000E+00  0.1600E+02
    -20.201  0.0000E+00  0.1600E+02
    -20.099  0.0000E+00  0.1600E+02
    -19.998  0.0000E+00  0.1600E+02
    -19.897  0.0000E+00  0.1600E+02
    -19.796  0.0000E+00  0.1600E+02
    -19.694  0.0000E+00  0.1600E+02
    -19.593  0.0000E+00  0.1600E+02
    -19.492  0.0000E+00  0.1600E+02
    -19.390  0.0000E+00  0.1600E+02
    -19.289  0.0000E+00  0.1600E+02
    -19.188  0.0000E+00  0.1600E+02
    -19.087  0.0000E+00  0.1600E+02
    -18.985  0.0000E+00  0.1600E+02
    -18.884  0.0000E+00  0.1600E+02
    -18.783  0.0000E+00  0.1600E+02
    -18.682  0.0000E+00  0.1600E+02
    -18.580  0.0000E+00  0.1600E+02
    -18.479  0.0000E+00  0.1600E+02
    -18.378  0.0000E+00  0.1600E+02
    -18.276  0.0000E+00  0.1600E+02
    -18.175  0.0000E+00  0.1600E+02
    -18.074  0.0000E+00  0.1600E+02
    -17.973  0.0000E+00  0.1600E+02
    -17.871  0.0000E+00  0.1600E+02
    -17.770  0.0000E+00  0.1600E+02
    -17.669  0.0000E+00  0.1600E+02
    -17.568  0.0000E+00  0.1600E+02
    -17.466  0.0000E+00  0.1600E+02
    -17.365  0.0000E+00  0.1600E+02
    -17.264  0.1765E-12  0.1600E+02
    -17.163  0.1975E+02  0.1800E+02
    -17.061  0.0000E+00  0.1800E+02
    -16.960  0.0000E+00  0.1800E+02
    -16.859  0.0000E+00  0.1800E+02
    -16.757  0.0000E+00  0.1800E+02
    -16.656  0.7885E+02  0.2599E+02
    -16.555  0.1004E+03  0.3617E+02
    -16.454  0.3892E+02  0.4194E+02
    -16.352  0.1607E+03  0.5828E+02
    -16.251  0.2489E+03  0.8520E+02
    -16.150  0.7900E+02  0.9400E+02
    -16.049  0.1975E+02  0.9600E+02
    -15.947  0.0000E+00  0.9600E+02
    -15.846  0.0000E+00  0.9600E+02
    -15.745  0.0000E+00  0.9600E+02
    -15.643  0.0000E+00  0.9600E+02
    -15.542  0.0000E+00  0.9600E+02
    -15.441  0.0000E+00  0.9600E+02
    -15.340  0.0000E+00  0.9600E+02
    -15.238  0.0000E+00  0.9600E+02
    -15.137  0.0000E+00  0.9600E+02
    -15.036  0.0000E+00  0.9600E+02
    -14.935  0.0000E+00  0.9600E+02
    -14.833  0.0000E+00  0.9600E+02
    -14.732  0.0000E+00  0.9600E+02
    -14.631  0.4756E+00  0.9605E+02
    -14.530  0.0000E+00  0.9800E+02
    -14.428  0.4507E-11  0.9800E+02
    -14.327  0.2060E+02  0.1001E+03
    -14.226  0.3757E+02  0.1041E+03
    -14.124  0.3445E+02  0.1087E+03
    -14.023  0.9505E+02  0.1196E+03
    -13.922  0.5279E+02  0.1261E+03
    -13.821  0.5964E+02  0.1345E+03
    -13.719  0.3783E+02  0.1393E+03
    -13.618  0.1247E+02  0.1418E+03
    -13.517  0.0000E+00  0.1420E+03
    -13.416  0.0000E+00  0.1420E+03
    -13.314  0.0000E+00  0.1420E+03
    -13.213  0.0000E+00  0.1420E+03
    -13.112  0.0000E+00  0.1420E+03
    -13.010  0.0000E+00  0.1420E+03
    -12.909  0.0000E+00  0.1420E+03
    -12.808  0.0000E+00  0.1420E+03
    -12.707  0.0000E+00  0.1420E+03
    -12.605  0.0000E+00  0.1420E+03
    -12.504  0.0000E+00  0.1420E+03
    -12.403  0.0000E+00  0.1420E+03
    -12.302  0.0000E+00  0.1420E+03
    -12.200  0.0000E+00  0.1420E+03
    -12.099  0.0000E+00  0.1420E+03
    -11.998  0.0000E+00  0.1420E+03
    -11.897  0.0000E+00  0.1420E+03
    -11.795  0.0000E+00  0.1420E+03
    -11.694  0.0000E+00  0.1420E+03
    -11.593  0.0000E+00  0.1420E+03
    -11.491  0.0000E+00  0.1420E+03
    -11.390  0.0000E+00  0.1420E+03
    -11.289  0.0000E+00  0.1420E+03
    -11.188  0.0000E+00  0.1420E+03
    -11.086  0.0000E+00  0.1420E+03
    -10.985  0.0000E+00  0.1420E+03
    -10.884  0.0000E+00  0.1420E+03
    -10.783  0.0000E+00  0.1420E+03
    -10.681  0.0000E+00  0.1420E+03
    -10.580  0.0000E+00  0.1420E+03
    -10.479  0.0000E+00  0.1420E+03
    -10.378  0.0000E+00  0.1420E+03
    -10.276  0.0000E+00  0.1420E+03
    -10.175  0.0000E+00  0.1420E+03
    -10.074  0.0000E+00  0.1420E+03
     -9.972  0.0000E+00  0.1420E+03
     -9.871  0.0000E+00  0.1420E+03
     -9.770  0.0000E+00  0.1420E+03
     -9.669  0.0000E+00  0.1420E+03
     -9.567  0.0000E+00  0.1420E+03
     -9.466  0.0000E+00  0.1420E+03
     -9.365  0.0000E+00  0.1420E+03
     -9.264  0.0000E+00  0.1420E+03
     -9.162  0.0000E+00  0.1420E+03
     -9.061  0.0000E+00  0.1420E+03
     -8.960  0.0000E+00  0.1420E+03
     -8.858  0.0000E+00  0.1420E+03
     -8.757  0.0000E+00  0.1420E+03
     -8.656  0.0000E+00  0.1420E+03
     -8.555  0.0000E+00  0.1420E+03
     -8.453  0.0000E+00  0.1420E+03
     -8.352  0.0000E+00  0.1420E+03
     -8.251  0.4395E-12  0.1420E+03
     -8.150  0.2469E+01  0.1422E+03
     -8.048  0.2091E+01  0.1425E+03
     -7.947  0.7644E+01  0.1435E+03
     -7.846  0.8251E+01  0.1446E+03
     -7.745  0.1481E+02  0.1463E+03
     -7.643  0.1949E+02  0.1485E+03
     -7.542  0.3185E+01  0.1493E+03
     -7.441  0.2058E+02  0.1521E+03
     -7.339  0.3119E+02  0.1557E+03
     -7.238  0.7736E+02  0.1653E+03
     -7.137  0.1244E+03  0.1818E+03
     -7.036  0.1544E+03  0.2041E+03
     -6.934  0.3308E+00  0.2045E+03
     -6.833  0.5928E+01  0.2056E+03
     -6.732  0.0000E+00  0.2058E+03
     -6.631  0.2083E-08  0.2058E+03
     -6.529  0.2469E+01  0.2060E+03
     -6.428  0.0000E+00  0.2060E+03
     -6.327  0.0000E+00  0.2060E+03
     -6.225  0.0000E+00  0.2060E+03
     -6.124  0.0000E+00  0.2060E+03
     -6.023  0.0000E+00  0.2060E+03
     -5.922  0.0000E+00  0.2060E+03
     -5.820  0.0000E+00  0.2060E+03
     -5.719  0.0000E+00  0.2060E+03
     -5.618  0.0000E+00  0.2060E+03
     -5.517  0.0000E+00  0.2060E+03
     -5.415  0.0000E+00  0.2060E+03
     -5.314  0.0000E+00  0.2060E+03
     -5.213  0.0000E+00  0.2060E+03
     -5.112  0.0000E+00  0.2060E+03
     -5.010  0.0000E+00  0.2060E+03
     -4.909  0.0000E+00  0.2060E+03
     -4.808  0.0000E+00  0.2060E+03
     -4.706  0.0000E+00  0.2060E+03
     -4.605  0.0000E+00  0.2060E+03
     -4.504  0.0000E+00  0.2060E+03
     -4.403  0.0000E+00  0.2060E+03
     -4.301  0.0000E+00  0.2060E+03
     -4.200  0.0000E+00  0.2060E+03
     -4.099  0.0000E+00  0.2060E+03
     -3.998  0.0000E+00  0.2060E+03
     -3.896  0.0000E+00  0.2060E+03
     -3.795  0.0000E+00  0.2060E+03
     -3.694  0.0000E+00  0.2060E+03
     -3.592  0.0000E+00  0.2060E+03
     -3.491  0.0000E+00  0.2060E+03
     -3.390  0.1293E+02  0.2073E+03
     -3.289  0.2942E+02  0.2107E+03
     -3.187  0.3588E+02  0.2146E+03
     -3.086  0.1635E+02  0.2169E+03
     -2.985  0.1344E+02  0.2194E+03
     -2.884  0.1131E+02  0.2209E+03
     -2.782  0.0000E+00  0.2210E+03
     -2.681  0.4904E+01  0.2215E+03
     -2.580  0.2794E+02  0.2251E+03
     -2.479  0.2992E+02  0.2293E+03
     -2.377  0.3495E+02  0.2333E+03
     -2.276  0.4062E+02  0.2384E+03
     -2.175  0.2598E+02  0.2421E+03
     -2.073  0.1634E+02  0.2442E+03
     -1.972  0.4586E+02  0.2501E+03
     -1.871  0.2325E+02  0.2529E+03
     -1.770  0.3696E+02  0.2572E+03
     -1.668  0.4587E+02  0.2624E+03
     -1.567  0.5000E+02  0.2696E+03
     -1.466  0.6676E+02  0.2778E+03
     -1.365  0.1065E+03  0.2905E+03
     -1.263  0.9587E+02  0.3025E+03
     -1.162  0.8177E+02  0.3125E+03
     -1.061  0.7113E+02  0.3225E+03
     -0.959  0.3716E+02  0.3278E+03
     -0.858  0.3189E+02  0.3322E+03
     -0.757  0.9875E+01  0.3343E+03
     -0.656  0.9833E+01  0.3352E+03
     -0.554  0.1266E+02  0.3370E+03
     -0.453  0.8521E+01  0.3381E+03
     -0.352  0.1462E+02  0.3400E+03
     -0.251  0.4825E+01  0.3405E+03
     -0.149  0.4937E+01  0.3410E+03
     -0.048  0.1419E-06  0.3410E+03
      0.053  0.1627E+02  0.3426E+03
      0.154  0.2469E+01  0.3430E+03
      0.256  0.2469E+01  0.3433E+03
      0.357  0.4937E+01  0.3438E+03
      0.458  0.9116E+00  0.3438E+03
      0.560  0.0000E+00  0.3440E+03
      0.661  0.0000E+00  0.3440E+03
      0.762  0.0000E+00  0.3440E+03
      0.863  0.0000E+00  0.3440E+03
      0.965  0.0000E+00  0.3440E+03
      1.066  0.0000E+00  0.3440E+03
      1.167  0.0000E+00  0.3440E+03
      1.268  0.0000E+00  0.3440E+03
      1.370  0.0000E+00  0.3440E+03
      1.471  0.0000E+00  0.3440E+03
      1.572  0.0000E+00  0.3440E+03
      1.674  0.0000E+00  0.3440E+03
      1.775  0.0000E+00  0.3440E+03
      1.876  0.0000E+00  0.3440E+03
      1.977  0.0000E+00  0.3440E+03
      2.079  0.0000E+00  0.3440E+03
      2.180  0.0000E+00  0.3440E+03
      2.281  0.0000E+00  0.3440E+03
      2.382  0.0000E+00  0.3440E+03
      2.484  0.1842E-11  0.3440E+03
      2.585  0.4474E+01  0.3445E+03
      2.686  0.7405E+01  0.3452E+03
      2.787  0.7006E+01  0.3460E+03
      2.889  0.7405E+01  0.3468E+03
      2.990  0.1900E+02  0.3487E+03
      3.091  0.3177E+01  0.3498E+03
      3.193  0.1980E+02  0.3520E+03
      3.294  0.2414E+02  0.3547E+03
      3.395  0.1529E+02  0.3563E+03
      3.496  0.4937E+01  0.3573E+03
      3.598  0.7406E+01  0.3580E+03
      3.699  0.0000E+00  0.3580E+03
      3.800  0.0000E+00  0.3580E+03
      3.901  0.0000E+00  0.3580E+03
      4.003  0.2773E-05  0.3580E+03
      4.104  0.1744E+02  0.3598E+03
      4.205  0.9981E-02  0.3600E+03
      4.306  0.8534E+01  0.3611E+03
      4.408  0.3417E+02  0.3652E+03
      4.509  0.1877E+02  0.3674E+03
      4.610  0.3527E+02  0.3713E+03
      4.712  0.2444E+02  0.3740E+03
      4.813  0.3463E+02  0.3775E+03
      4.914  0.1202E+02  0.3795E+03
      5.015  0.4937E+01  0.3802E+03
      5.117  0.0000E+00  0.3802E+03
      5.218  0.1935E+01  0.3804E+03
      5.319  0.1576E-02  0.3808E+03
      5.420  0.4580E+01  0.3812E+03
      5.522  0.9672E+01  0.3825E+03
      5.623  0.1226E+02  0.3837E+03
      5.724  0.9223E+01  0.3847E+03
      5.826  0.1513E+02  0.3865E+03
      5.927  0.2481E+02  0.3895E+03
      6.028  0.2505E+02  0.3923E+03
      6.129  0.2901E+02  0.3959E+03
      6.231  0.2524E+02  0.3993E+03
      6.332  0.4086E+02  0.4041E+03
      6.433  0.2978E+02  0.4078E+03
      6.534  0.2623E+02  0.4117E+03
      6.636  0.2860E+02  0.4154E+03
      6.737  0.2469E+01  0.4160E+03
      6.838  0.0000E+00  0.4160E+03
      6.939  0.0000E+00  0.4160E+03
      7.041  0.0000E+00  0.4160E+03
      7.142  0.0000E+00  0.4160E+03
      7.243  0.0000E+00  0.4160E+03
      7.345  0.0000E+00  0.4160E+03
      7.446  0.0000E+00  0.4160E+03
      7.547  0.0000E+00  0.4160E+03
      7.648  0.0000E+00  0.4160E+03
      7.750  0.0000E+00  0.4160E+03
      7.851  0.0000E+00  0.4160E+03
      7.952  0.0000E+00  0.4160E+03
      8.053  0.0000E+00  0.4160E+03
      8.05345066    -22.32724289  301      0.50891176      1.00000000
    -22.327  0.0000E+00  0.0000E+00  0.0000E+00
    -22.226  0.0000E+00  0.0000E+00  0.0000E+00
    -22.125  0.0000E+00  0.0000E+00  0.0000E+00
    -22.023  0.0000E+00  0.0000E+00  0.0000E+00
    -21.922  0.0000E+00  0.0000E+00  0.0000E+00
    -21.821  0.0000E+00  0.0000E+00  0.0000E+00
    -21.720  0.0000E+00  0.0000E+00  0.0000E+00
    -21.618  0.0000E+00  0.0000E+00  0.0000E+00
    -21.517  0.0000E+00  0.0000E+00  0.0000E+00
    -21.416  0.0000E+00  0.0000E+00  0.0000E+00
    -21.315  0.0000E+00  0.0000E+00  0.0000E+00
    -21.213  0.0000E+00  0.0000E+00  0.0000E+00
    -21.112  0.0000E+00  0.0000E+00  0.0000E+00
    -21.011  0.0000E+00  0.0000E+00  0.0000E+00
    -20.909  0.2107E-03  0.4792E-07  0.9195E-08
    -20.808  0.2484E+00  0.1687E-05  0.1308E-06
    -20.707  0.1473E-02  0.1566E-06  0.1977E-07
    -20.606  0.0000E+00  0.0000E+00  0.0000E+00
    -20.504  0.0000E+00  0.0000E+00  0.0000E+00
    -20.403  0.0000E+00  0.0000E+00  0.0000E+00
    -20.302  0.0000E+00  0.0000E+00  0.0000E+00
    -20.201  0.0000E+00  0.0000E+00  0.0000E+00
    -20.099  0.0000E+00  0.0000E+00  0.0000E+00
    -19.998  0.0000E+00  0.0000E+00  0.0000E+00
    -19.897  0.0000E+00  0.0000E+00  0.0000E+00
    -19.796  0.0000E+00  0.0000E+00  0.0000E+00
    -19.694  0.0000E+00  0.0000E+00  0.0000E+00
    -19.593  0.0000E+00  0.0000E+00  0.0000E+00
    -19.492  0.0000E+00  0.0000E+00  0.0000E+00
    -19.390  0.0000E+00  0.0000E+00  0.0000E+00
    -19.289  0.0000E+00  0.0000E+00  0.0000E+00
    -19.188  0.0000E+00  0.0000E+00  0.0000E+00
    -19.087  0.0000E+00  0.0000E+00  0.0000E+00
    -18.985  0.0000E+00  0.0000E+00  0.0000E+00
    -18.884  0.0000E+00  0.0000E+00  0.0000E+00
    -18.783  0.0000E+00  0.0000E+00  0.0000E+00
    -18.682  0.0000E+00  0.0000E+00  0.0000E+00
    -18.580  0.0000E+00  0.0000E+00  0.0000E+00
    -18.479  0.0000E+00  0.0000E+00  0.0000E+00
    -18.378  0.0000E+00  0.0000E+00  0.0000E+00
    -18.276  0.0000E+00  0.0000E+00  0.0000E+00
    -18.175  0.0000E+00  0.0000E+00  0.0000E+00
    -18.074  0.0000E+00  0.0000E+00  0.0000E+00
    -17.973  0.0000E+00  0.0000E+00  0.0000E+00
    -17.871  0.0000E+00  0.0000E+00  0.0000E+00
    -17.770  0.0000E+00  0.0000E+00  0.0000E+00
    -17.669  0.0000E+00  0.0000E+00  0.0000E+00
    -17.568  0.0000E+00  0.0000E+00  0.0000E+00
    -17.466  0.0000E+00  0.0000E+00  0.0000E+00
    -17.365  0.0000E+00  0.0000E+00  0.0000E+00
    -17.264  0.1802E-20  0.1394E-20  0.3564E-21
    -17.163  0.2025E-06  0.1562E-06  0.3991E-07
    -17.061  0.0000E+00  0.0000E+00  0.0000E+00
    -16.960  0.0000E+00  0.0000E+00  0.0000E+00
    -16.859  0.0000E+00  0.0000E+00  0.0000E+00
    -16.757  0.0000E+00  0.0000E+00  0.0000E+00
    -16.656  0.5198E-04  0.2890E-04  0.4868E-05
    -16.555  0.1134E-04  0.5876E-05  0.8101E-06
    -16.454  0.1219E-04  0.1237E-04  0.2844E-05
    -16.352  0.6336E-04  0.7225E-04  0.1399E-04
    -16.251  0.7968E-04  0.5379E-04  0.6841E-05
    -16.150  0.4517E-05  0.2412E-05  0.2311E-06
    -16.049  0.1419E-05  0.7610E-06  0.7542E-07
    -15.947  0.0000E+00  0.0000E+00  0.0000E+00
    -15.846  0.0000E+00  0.0000E+00  0.0000E+00
    -15.745  0.0000E+00  0.0000E+00  0.0000E+00
    -15.643  0.0000E+00  0.0000E+00  0.0000E+00
    -15.542  0.0000E+00  0.0000E+00  0.0000E+00
    -15.441  0.0000E+00  0.0000E+00  0.0000E+00
    -15.340  0.0000E+00  0.0000E+00  0.0000E+00
    -15.238  0.0000E+00  0.0000E+00  0.0000E+00
    -15.137  0.0000E+00  0.0000E+00  0.0000E+00
    -15.036  0.0000E+00  0.0000E+00  0.0000E+00
    -14.935  0.0000E+00  0.0000E+00  0.0000E+00
    -14.833  0.0000E+00  0.0000E+00  0.0000E+00
    -14.732  0.0000E+00  0.0000E+00  0.0000E+00
    -14.631  0.6152E-05  0.5211E-05  0.3320E-06
    -14.530  0.0000E+00  0.0000E+00  0.0000E+00
    -14.428  0.6783E-15  0.9525E-16  0.5798E-17
    -14.327  0.1351E-02  0.7843E-03  0.2940E-04
    -14.226  0.3167E-02  0.2978E-02  0.9791E-04
    -14.124  0.5157E-03  0.3904E-02  0.1355E-03
    -14.023  0.2790E-02  0.7342E-02  0.5834E-03
    -13.922  0.8327E-03  0.2445E-02  0.3228E-03
    -13.821  0.1217E-02  0.3205E-02  0.4147E-03
    -13.719  0.6108E-03  0.1584E-02  0.1951E-03
    -13.618  0.2202E-03  0.6845E-03  0.6781E-04
    -13.517  0.0000E+00  0.0000E+00  0.0000E+00
    -13.416  0.0000E+00  0.0000E+00  0.0000E+00
    -13.314  0.0000E+00  0.0000E+00  0.0000E+00
    -13.213  0.0000E+00  0.0000E+00  0.0000E+00
    -13.112  0.0000E+00  0.0000E+00  0.0000E+00
    -13.010  0.0000E+00  0.0000E+00  0.0000E+00
    -12.909  0.0000E+00  0.0000E+00  0.0000E+00
    -12.808  0.0000E+00  0.0000E+00  0.0000E+00
    -12.707  0.0000E+00  0.0000E+00  0.0000E+00
    -12.605  0.0000E+00  0.0000E+00  0.0000E+00
    -12.504  0.0000E+00  0.0000E+00  0.0000E+00
    -12.403  0.0000E+00  0.0000E+00  0.0000E+00
    -12.302  0.0000E+00  0.0000E+00  0.0000E+00
    -12.200  0.0000E+00  0.0000E+00  0.0000E+00
    -12.099  0.0000E+00  0.0000E+00  0.0000E+00
    -11.998  0.0000E+00  0.0000E+00  0.0000E+00
    -11.897  0.0000E+00  0.0000E+00  0.0000E+00
    -11.795  0.0000E+00  0.0000E+00  0.0000E+00
    -11.694  0.0000E+00  0.0000E+00  0.0000E+00
    -11.593  0.0000E+00  0.0000E+00  0.0000E+00
    -11.491  0.0000E+00  0.0000E+00  0.0000E+00
    -11.390  0.0000E+00  0.0000E+00  0.0000E+00
    -11.289  0.0000E+00  0.0000E+00  0.0000E+00
    -11.188  0.0000E+00  0.0000E+00  0.0000E+00
    -11.086  0.0000E+00  0.0000E+00  0.0000E+00
    -10.985  0.0000E+00  0.0000E+00  0.0000E+00
    -10.884  0.0000E+00  0.0000E+00  0.0000E+00
    -10.783  0.0000E+00  0.0000E+00  0.0000E+00
    -10.681  0.0000E+00  0.0000E+00  0.0000E+00
    -10.580  0.0000E+00  0.0000E+00  0.0000E+00
    -10.479  0.0000E+00  0.0000E+00  0.0000E+00
    -10.378  0.0000E+00  0.0000E+00  0.0000E+00
    -10.276  0.0000E+00  0.0000E+00  0.0000E+00
    -10.175  0.0000E+00  0.0000E+00  0.0000E+00
    -10.074  0.0000E+00  0.0000E+00  0.0000E+00
     -9.972  0.0000E+00  0.0000E+00  0.0000E+00
     -9.871  0.0000E+00  0.0000E+00  0.0000E+00
     -9.770  0.0000E+00  0.0000E+00  0.0000E+00
     -9.669  0.0000E+00  0.0000E+00  0.0000E+00
     -9.567  0.0000E+00  0.0000E+00  0.0000E+00
     -9.466  0.0000E+00  0.0000E+00  0.0000E+00
     -9.365  0.0000E+00  0.0000E+00  0.0000E+00
     -9.264  0.0000E+00  0.0000E+00  0.0000E+00
     -9.162  0.0000E+00  0.0000E+00  0.0000E+00
     -9.061  0.0000E+00  0.0000E+00  0.0000E+00
     -8.960  0.0000E+00  0.0000E+00  0.0000E+00
     -8.858  0.0000E+00  0.0000E+00  0.0000E+00
     -8.757  0.0000E+00  0.0000E+00  0.0000E+00
     -8.656  0.0000E+00  0.0000E+00  0.0000E+00
     -8.555  0.0000E+00  0.0000E+00  0.0000E+00
     -8.453  0.0000E+00  0.0000E+00  0.0000E+00
     -8.352  0.0000E+00  0.0000E+00  0.0000E+00
     -8.251  0.4695E-20  0.3203E-16  0.1766E-17
     -8.150  0.2637E-07  0.1799E-03  0.9923E-05
     -8.048  0.6603E-07  0.8489E-03  0.7786E-05
     -7.947  0.4982E-06  0.4901E-02  0.2107E-04
     -7.846  0.7661E-06  0.1079E-01  0.2232E-04
     -7.745  0.3381E-05  0.1767E-01  0.4479E-04
     -7.643  0.8704E-05  0.5035E-01  0.5418E-04
     -7.542  0.1022E-04  0.7070E-02  0.5447E-05
     -7.441  0.1684E-04  0.1669E+00  0.6788E-04
     -7.339  0.1368E-04  0.8005E-01  0.3013E-04
     -7.238  0.2869E-04  0.2335E+01  0.5460E-04
     -7.137  0.1695E-03  0.3265E+02  0.1487E-03
     -7.036  0.4077E-04  0.1156E+01  0.6550E-04
     -6.934  0.2896E-05  0.6793E-03  0.3413E-06
     -6.833  0.2446E-04  0.2001E-01  0.1202E-04
     -6.732  0.0000E+00  0.0000E+00  0.0000E+00
     -6.631  0.9283E-14  0.2723E-11  0.1696E-14
     -6.529  0.1100E-04  0.3227E-02  0.2010E-05
     -6.428  0.0000E+00  0.0000E+00  0.0000E+00
     -6.327  0.0000E+00  0.0000E+00  0.0000E+00
     -6.225  0.0000E+00  0.0000E+00  0.0000E+00
     -6.124  0.0000E+00  0.0000E+00  0.0000E+00
     -6.023  0.0000E+00  0.0000E+00  0.0000E+00
     -5.922  0.0000E+00  0.0000E+00  0.0000E+00
     -5.820  0.0000E+00  0.0000E+00  0.0000E+00
     -5.719  0.0000E+00  0.0000E+00  0.0000E+00
     -5.618  0.0000E+00  0.0000E+00  0.0000E+00
     -5.517  0.0000E+00  0.0000E+00  0.0000E+00
     -5.415  0.0000E+00  0.0000E+00  0.0000E+00
     -5.314  0.0000E+00  0.0000E+00  0.0000E+00
     -5.213  0.0000E+00  0.0000E+00  0.0000E+00
     -5.112  0.0000E+00  0.0000E+00  0.0000E+00
     -5.010  0.0000E+00  0.0000E+00  0.0000E+00
     -4.909  0.0000E+00  0.0000E+00  0.0000E+00
     -4.808  0.0000E+00  0.0000E+00  0.0000E+00
     -4.706  0.0000E+00  0.0000E+00  0.0000E+00
     -4.605  0.0000E+00  0.0000E+00  0.0000E+00
     -4.504  0.0000E+00  0.0000E+00  0.0000E+00
     -4.403  0.0000E+00  0.0000E+00  0.0000E+00
     -4.301  0.0000E+00  0.0000E+00  0.0000E+00
     -4.200  0.0000E+00  0.0000E+00  0.0000E+00
     -4.099  0.0000E+00  0.0000E+00  0.0000E+00
     -3.998  0.0000E+00  0.0000E+00  0.0000E+00
     -3.896  0.0000E+00  0.0000E+00  0.0000E+00
     -3.795  0.0000E+00  0.0000E+00  0.0000E+00
     -3.694  0.0000E+00  0.0000E+00  0.0000E+00
     -3.592  0.0000E+00  0.0000E+00  0.0000E+00
     -3.491  0.0000E+00  0.0000E+00  0.0000E+00
     -3.390  0.4436E-04  0.3111E-02  0.9709E-04
     -3.289  0.8490E-04  0.7367E-02  0.9536E-03
     -3.187  0.5650E-03  0.2778E-01  0.2228E-02
     -3.086  0.1677E-03  0.8962E-02  0.9375E-03
     -2.985  0.1164E-03  0.3849E-02  0.3065E-03
     -2.884  0.3143E-04  0.2662E-02  0.2040E-03
     -2.782  0.0000E+00  0.0000E+00  0.0000E+00
     -2.681  0.4013E-03  0.3908E-02  0.2182E-03
     -2.580  0.1323E-02  0.2302E-01  0.1368E-02
     -2.479  0.1013E-02  0.1997E-01  0.1262E-02
     -2.377  0.1797E-02  0.1885E-01  0.2888E-02
     -2.276  0.3149E-02  0.1805E-01  0.2634E-02
     -2.175  0.4227E-02  0.1694E-01  0.2589E-02
     -2.073  0.4974E-02  0.9921E-02  0.1073E-02
     -1.972  0.2103E-01  0.3791E-01  0.4114E-02
     -1.871  0.3889E-02  0.4241E-01  0.3306E-02
     -1.770  0.2367E-02  0.6373E-01  0.4537E-02
     -1.668  0.5246E-02  0.8795E-01  0.9234E-02
     -1.567  0.2865E-02  0.8299E-01  0.9097E-02
     -1.466  0.4510E-02  0.6666E-01  0.1424E-01
     -1.365  0.4106E-02  0.8321E-01  0.2029E-01
     -1.263  0.5758E-02  0.6895E-01  0.1533E-01
     -1.162  0.2887E-02  0.8007E-01  0.1534E-01
     -1.061  0.1256E-02  0.6393E-01  0.1156E-01
     -0.959  0.8189E-03  0.3092E-01  0.5382E-02
     -0.858  0.1451E-02  0.2060E-01  0.4629E-02
     -0.757  0.2078E-03  0.4701E-02  0.1044E-02
     -0.656  0.2388E-03  0.3096E-02  0.6484E-03
     -0.554  0.1049E-03  0.3189E-02  0.4487E-03
     -0.453  0.8974E-04  0.2929E-03  0.7341E-03
     -0.352  0.8632E-04  0.1968E-02  0.5904E-03
     -0.251  0.3311E-04  0.6909E-03  0.1563E-03
     -0.149  0.5857E-05  0.8053E-03  0.2679E-03
     -0.048  0.5458E-13  0.1221E-10  0.1502E-10
      0.053  0.1852E-04  0.1426E-02  0.1061E-02
      0.154  0.9374E-05  0.2760E-03  0.2407E-03
      0.256  0.6925E-07  0.3199E-03  0.9464E-04
      0.357  0.3234E-05  0.5713E-03  0.2056E-03
      0.458  0.6086E-06  0.5388E-04  0.4347E-04
      0.560  0.0000E+00  0.0000E+00  0.0000E+00
      0.661  0.0000E+00  0.0000E+00  0.0000E+00
      0.762  0.0000E+00  0.0000E+00  0.0000E+00
      0.863  0.0000E+00  0.0000E+00  0.0000E+00
      0.965  0.0000E+00  0.0000E+00  0.0000E+00
      1.066  0.0000E+00  0.0000E+00  0.0000E+00
      1.167  0.0000E+00  0.0000E+00  0.0000E+00
      1.268  0.0000E+00  0.0000E+00  0.0000E+00
      1.370  0.0000E+00  0.0000E+00  0.0000E+00
      1.471  0.0000E+00  0.0000E+00  0.0000E+00
      1.572  0.0000E+00  0.0000E+00  0.0000E+00
      1.674  0.0000E+00  0.0000E+00  0.0000E+00
      1.775  0.0000E+00  0.0000E+00  0.0000E+00
      1.876  0.0000E+00  0.0000E+00  0.0000E+00
      1.977  0.0000E+00  0.0000E+00  0.0000E+00
      2.079  0.0000E+00  0.0000E+00  0.0000E+00
      2.180  0.0000E+00  0.0000E+00  0.0000E+00
      2.281  0.0000E+00  0.0000E+00  0.0000E+00
      2.382  0.0000E+00  0.0000E+00  0.0000E+00
      2.484  0.7093E-16  0.2114E-15  0.4586E-16
      2.585  0.1913E-03  0.6143E-03  0.1980E-03
      2.686  0.3145E-03  0.6590E-03  0.1833E-02
      2.787  0.7770E-04  0.9364E-03  0.2740E-02
      2.889  0.2898E-04  0.7800E-03  0.2739E-02
      2.990  0.7048E-03  0.2453E-02  0.5086E-02
      3.091  0.1944E-03  0.3099E-03  0.7626E-03
      3.193  0.9195E-03  0.3290E-02  0.4556E-02
      3.294  0.1538E-02  0.5153E-02  0.4882E-02
      3.395  0.9326E-03  0.2506E-02  0.3271E-02
      3.496  0.1105E-04  0.8018E-03  0.1009E-02
      3.598  0.6324E-03  0.8652E-03  0.1354E-02
      3.699  0.0000E+00  0.0000E+00  0.0000E+00
      3.800  0.0000E+00  0.0000E+00  0.0000E+00
      3.901  0.0000E+00  0.0000E+00  0.0000E+00
      4.003  0.2810E-12  0.3729E-09  0.7833E-09
      4.104  0.1726E-02  0.8005E-02  0.2386E-01
      4.205  0.6640E-09  0.7023E-07  0.2607E-05
      4.306  0.3415E-03  0.1773E-02  0.4818E-02
      4.408  0.5535E-02  0.1149E-01  0.1735E-01
      4.509  0.9336E-03  0.4632E-02  0.1142E-01
      4.610  0.2095E-02  0.5307E-02  0.1437E-01
      4.712  0.3643E-02  0.5151E-02  0.8008E-02
      4.813  0.1905E-01  0.6450E-02  0.9736E-02
      4.914  0.1408E-02  0.2978E-02  0.5783E-02
      5.015  0.1319E-02  0.1335E-02  0.2336E-02
      5.117  0.0000E+00  0.0000E+00  0.0000E+00
      5.218  0.5519E-02  0.2856E-02  0.2927E-02
      5.319  0.1543E-05  0.2514E-05  0.5230E-05
      5.420  0.6073E-02  0.5277E-02  0.9346E-02
      5.522  0.1601E-01  0.4217E-02  0.6258E-02
      5.623  0.1422E-01  0.3503E-02  0.1189E-01
      5.724  0.3925E-02  0.2367E-02  0.8397E-02
      5.826  0.6009E-02  0.6814E-02  0.4772E-01
      5.927  0.6454E-02  0.7440E-02  0.5357E-01
      6.028  0.4104E-01  0.6922E-02  0.6625E-01
      6.129  0.4132E-01  0.1859E-01  0.2006E+00
      6.231  0.2180E-01  0.9256E-02  0.1326E+00
      6.332  0.4555E-01  0.3048E-01  0.4643E+00
      6.433  0.4362E-01  0.2729E-01  0.3481E+00
      6.534  0.1521E-01  0.2108E-01  0.2815E+00
      6.636  0.2122E-01  0.2262E-01  0.3481E+00
      6.737  0.1046E-03  0.1339E-02  0.4105E-01
      6.838  0.0000E+00  0.0000E+00  0.0000E+00
      6.939  0.0000E+00  0.0000E+00  0.0000E+00
      7.041  0.0000E+00  0.0000E+00  0.0000E+00
      7.142  0.0000E+00  0.0000E+00  0.0000E+00
      7.243  0.0000E+00  0.0000E+00  0.0000E+00
      7.345  0.0000E+00  0.0000E+00  0.0000E+00
      7.446  0.0000E+00  0.0000E+00  0.0000E+00
      7.547  0.0000E+00  0.0000E+00  0.0000E+00
      7.648  0.0000E+00  0.0000E+00  0.0000E+00
      7.750  0.0000E+00  0.0000E+00  0.0000E+00
      7.851  0.0000E+00  0.0000E+00  0.0000E+00
      7.952  0.0000E+00  0.0000E+00  0.0000E+00
      8.053  0.0000E+00  0.0000E+00  0.0000E+00
      8.05345066    -22.32724289  301      0.50891176      1.00000000
    -22.327  0.0000E+00  0.0000E+00  0.0000E+00
    -22.226  0.0000E+00  0.0000E+00  0.0000E+00
    -22.125  0.0000E+00  0.0000E+00  0.0000E+00
    -22.023  0.0000E+00  0.0000E+00  0.0000E+00
    -21.922  0.0000E+00  0.0000E+00  0.0000E+00
    -21.821  0.0000E+00  0.0000E+00  0.0000E+00
    -21.720  0.0000E+00  0.0000E+00  0.0000E+00
    -21.618  0.0000E+00  0.0000E+00  0.0000E+00
    -21.517  0.0000E+00  0.0000E+00  0.0000E+00
    -21.416  0.0000E+00  0.0000E+00  0.0000E+00
    -21.315  0.0000E+00  0.0000E+00  0.0000E+00
    -21.213  0.0000E+00  0.0000E+00  0.0000E+00
    -21.112  0.0000E+00  0.0000E+00  0.0000E+00
    -21.011  0.0000E+00  0.0000E+00  0.0000E+00
    -20.909  0.1873E-06  0.1238E-08  0.6116E-10
    -20.808  0.1592E+02  0.1350E-03  0.1821E-04
    -20.707  0.9221E-03  0.1231E-06  0.2035E-07
    -20.606  0.0000E+00  0.0000E+00  0.0000E+00
    -20.504  0.0000E+00  0.0000E+00  0.0000E+00
    -20.403  0.0000E+00  0.0000E+00  0.0000E+00
    -20.302  0.0000E+00  0.0000E+00  0.0000E+00
    -20.201  0.0000E+00  0.0000E+00  0.0000E+00
    -20.099  0.0000E+00  0.0000E+00  0.0000E+00
    -19.998  0.0000E+00  0.0000E+00  0.0000E+00
    -19.897  0.0000E+00  0.0000E+00  0.0000E+00
    -19.796  0.0000E+00  0.0000E+00  0.0000E+00
    -19.694  0.0000E+00  0.0000E+00  0.0000E+00
    -19.593  0.0000E+00  0.0000E+00  0.0000E+00
    -19.492  0.0000E+00  0.0000E+00  0.0000E+00
    -19.390  0.0000E+00  0.0000E+00  0.0000E+00
    -19.289  0.0000E+00  0.0000E+00  0.0000E+00
    -19.188  0.0000E+00  0.0000E+00  0.0000E+00
    -19.087  0.0000E+00  0.0000E+00  0.0000E+00
    -18.985  0.0000E+00  0.0000E+00  0.0000E+00
    -18.884  0.0000E+00  0.0000E+00  0.0000E+00
    -18.783  0.0000E+00  0.0000E+00  0.0000E+00
    -18.682  0.0000E+00  0.0000E+00  0.0000E+00
    -18.580  0.0000E+00  0.0000E+00  0.0000E+00
    -18.479  0.0000E+00  0.0000E+00  0.0000E+00
    -18.378  0.0000E+00  0.0000E+00  0.0000E+00
    -18.276  0.0000E+00  0.0000E+00  0.0000E+00
    -18.175  0.0000E+00  0.0000E+00  0.0000E+00
    -18.074  0.0000E+00  0.0000E+00  0.0000E+00
    -17.973  0.0000E+00  0.0000E+00  0.0000E+00
    -17.871  0.0000E+00  0.0000E+00  0.0000E+00
    -17.770  0.0000E+00  0.0000E+00  0.0000E+00
    -17.669  0.0000E+00  0.0000E+00  0.0000E+00
    -17.568  0.0000E+00  0.0000E+00  0.0000E+00
    -17.466  0.0000E+00  0.0000E+00  0.0000E+00
    -17.365  0.0000E+00  0.0000E+00  0.0000E+00
    -17.264  0.3900E-20  0.1029E-20  0.1304E-21
    -17.163  0.4345E-06  0.1145E-06  0.1455E-07
    -17.061  0.0000E+00  0.0000E+00  0.0000E+00
    -16.960  0.0000E+00  0.0000E+00  0.0000E+00
    -16.859  0.0000E+00  0.0000E+00  0.0000E+00
    -16.757  0.0000E+00  0.0000E+00  0.0000E+00
    -16.656  0.5159E-04  0.2812E-04  0.4588E-05
    -16.555  0.1426E-04  0.7283E-05  0.9543E-06
    -16.454  0.3550E-04  0.2687E-04  0.4408E-05
    -16.352  0.6085E-04  0.6348E-04  0.1197E-04
    -16.251  0.9968E-04  0.6566E-04  0.8698E-05
    -16.150  0.9098E-05  0.5975E-05  0.7530E-06
    -16.049  0.1521E-07  0.6108E-07  0.1307E-07
    -15.947  0.0000E+00  0.0000E+00  0.0000E+00
    -15.846  0.0000E+00  0.0000E+00  0.0000E+00
    -15.745  0.0000E+00  0.0000E+00  0.0000E+00
    -15.643  0.0000E+00  0.0000E+00  0.0000E+00
    -15.542  0.0000E+00  0.0000E+00  0.0000E+00
    -15.441  0.0000E+00  0.0000E+00  0.0000E+00
    -15.340  0.0000E+00  0.0000E+00  0.0000E+00
    -15.238  0.0000E+00  0.0000E+00  0.0000E+00
    -15.137  0.0000E+00  0.0000E+00  0.0000E+00
    -15.036  0.0000E+00  0.0000E+00  0.0000E+00
    -14.935  0.0000E+00  0.0000E+00  0.0000E+00
    -14.833  0.0000E+00  0.0000E+00  0.0000E+00
    -14.732  0.0000E+00  0.0000E+00  0.0000E+00
    -14.631  0.3938E-05  0.3341E-05  0.1932E-06
    -14.530  0.0000E+00  0.0000E+00  0.0000E+00
    -14.428  0.8173E-15  0.5950E-16  0.4610E-17
    -14.327  0.1632E-02  0.1275E-02  0.5330E-04
    -14.226  0.3417E-02  0.3184E-02  0.1432E-03
    -14.124  0.8354E-03  0.3672E-02  0.2321E-03
    -14.023  0.2741E-02  0.6158E-02  0.4261E-03
    -13.922  0.9874E-03  0.3547E-02  0.4060E-03
    -13.821  0.6381E-03  0.2029E-02  0.2896E-03
    -13.719  0.6981E-03  0.1825E-02  0.2513E-03
    -13.618  0.2145E-03  0.3980E-03  0.4405E-04
    -13.517  0.0000E+00  0.0000E+00  0.0000E+00
    -13.416  0.0000E+00  0.0000E+00  0.0000E+00
    -13.314  0.0000E+00  0.0000E+00  0.0000E+00