 vasp.5.4.4.18Apr17-6-g9f103f2a35 (build Jun 22 2020 09:27:21) complex           
 executed on tx2_gcc-7.3_libsci-1 date 2021.10.12  05:27:33
 running on   64 total cores
 distrk:  each k-point on   64 cores,    1 groups
 distr:  one band on NCORES_PER_BAND=   8 cores,    8 groups


--------------------------------------------------------------------------------------------------------


 INCAR:
 POTCAR:    PAW_PBE Cs_sv 08Apr2002               
 POTCAR:    PAW_PBE Pb_d 06Sep2000                
 POTCAR:    PAW_PBE Br 06Sep2000                  
 POTCAR:    PAW_PBE Cs_sv 08Apr2002               
   SHA256 =  c1463496f0f6037ed62c6012a8013a89ee9ad6ffb38599dcd6c079e7ed31779b Cs
   COPYR  = (c) Copyright 08Apr2002 Georg Kresse                                
   COPYR  = This file is part of the software VASP. Any use, copying, and all ot
   COPYR  = If you do not have a valid VASP license, you may not use, copy or di
   VRHFIN =Cs: 5s5p6s                                                           
   LEXCH  = PE                                                                  
   EATOM  =   555.6835 eV,   40.8416 Ry                                         
                                                                                
   TITEL  = PAW_PBE Cs_sv 08Apr2002                                             
   LULTRA =        F    use ultrasoft PP ?                                      
   IUNSCR =        1    unscreen: 0-lin 1-nonlin 2-no                           
   RPACOR =    2.200    partial core radius                                     
   POMASS =  132.900; ZVAL   =    9.000    mass and valenz                      
   RCORE  =    2.500    outmost cutoff radius                                   
   RWIGS  =    2.500; RWIGS  =    1.323    wigner-seitz radius (au A)           
   ENMAX  =  220.318; ENMIN  =  165.238 eV                                      
   RCLOC  =    2.207    cutoff for local pot                                    
   LCOR   =        T    correct aug charges                                     
   LPAW   =        T    paw PP                                                  
   EAUG   =  407.933                                                            
   DEXC   =    0.000                                                            
   RMAX   =    2.554    core radius for proj-oper                               
   RAUG   =    1.300    factor for augmentation sphere                          
   RDEP   =    2.590    radius for radial grids                                 
   RDEPT  =    2.117    core radius for aug-charge                              
                                                                                
   Atomic configuration                                                         
   13 entries                                                                   
     n  l   j            E        occ.                                          
     1  0  0.50    -35790.1377   2.0000                                         
     2  0  0.50     -5613.6201   2.0000                                         
     2  1  1.50     -5035.0101   6.0000                                         
     3  0  0.50     -1167.0767   2.0000                                         
     3  1  1.50      -980.9754   6.0000                                         
     3  2  2.50      -708.0703  10.0000                                         
     4  0  0.50      -220.2386   2.0000                                         
     4  1  1.50      -160.7596   6.0000                                         
     4  2  2.50       -74.2354  10.0000                                         
     5  0  0.50       -26.7287   2.0000                                         
     6  0  0.50        -2.0862   1.0000                                         
     5  1  1.50       -13.5159   6.0000                                         
     5  2  2.50        -0.4136   0.0000                                         
   Description                                                                  
     l       E           TYP  RCUT    TYP  RCUT                                 
     0    -26.7287425     23  1.900                                             
     0     -2.0862306     23  1.900                                             
     1    -13.5158719     23  2.500                                             
     1     -2.7211652     23  2.500                                             
     2     -0.4136171     23  2.500                                             
  local pseudopotential read in
  partial core-charges read in
  partial kinetic energy density read in
  atomic valenz-charges read in
  non local Contribution for L=           0  read in
    real space projection operators read in
  non local Contribution for L=           0  read in
    real space projection operators read in
  non local Contribution for L=           1  read in
    real space projection operators read in
  non local Contribution for L=           1  read in
    real space projection operators read in
  non local Contribution for L=           2  read in
    real space projection operators read in
    PAW grid and wavefunctions read in

   number of l-projection  operators is LMAX  =           5
   number of lm-projection operators is LMMAX =          13

 POTCAR:    PAW_PBE Pb_d 06Sep2000                
   SHA256 =  fb885b08f0fba73a15f6a6b0e39bd200c13ec96ef97cf3ecd8e63bade5137abd Pb
   COPYR  = (c) Copyright 06Sep2000 Georg Kresse                                
   COPYR  = This file is part of the software VASP. Any use, copying, and all ot
   COPYR  = If you do not have a valid VASP license, you may not use, copy or di
   VRHFIN =Pb:                                                                  
   LEXCH  = PE                                                                  
   EATOM  =  1661.6185 eV,  122.1255 Ry                                         
                                                                                
   TITEL  = PAW_PBE Pb_d 06Sep2000                                              
   LULTRA =        F    use ultrasoft PP ?                                      
   IUNSCR =        1    unscreen: 0-lin 1-nonlin 2-no                           
   RPACOR =    2.200    partial core radius                                     
   POMASS =  207.200; ZVAL   =   14.000    mass and valenz                      
   RCORE  =    2.500    outmost cutoff radius                                   
   RWIGS  =    3.260; RWIGS  =    1.725    wigner-seitz radius (au A)           
   ENMAX  =  237.835; ENMIN  =  178.376 eV                                      
   ICORE  =        3    local potential                                         
   LCOR   =        T    correct aug charges                                     
   LPAW   =        T    paw PP                                                  
   EAUG   =  391.914                                                            
   DEXC   =    0.000                                                            
   RMAX   =    2.565    core radius for proj-oper                               
   RAUG   =    1.300    factor for augmentation sphere                          
   RDEP   =    2.643    radius for radial grids                                 
   RDEPT  =    2.092    core radius for aug-charge                              
                                                                                
   Atomic configuration                                                         
   16 entries                                                                   
     n  l   j            E        occ.                                          
     1  0  0.50    -88091.8466   2.0000                                         
     2  0  0.50    -15753.4197   2.0000                                         
     2  1  1.50    -13508.1797   6.0000                                         
     3  0  0.50     -3781.7194   2.0000                                         
     3  1  1.50     -3138.2529   6.0000                                         
     3  2  2.50     -2483.2977  10.0000                                         
     4  0  0.50      -856.2895   2.0000                                         
     4  1  1.50      -645.4942   6.0000                                         
     4  2  2.50      -401.8768  10.0000                                         
     4  3  3.50      -132.9059  14.0000                                         
     5  0  0.50      -144.0950   2.0000                                         
     5  1  1.50       -85.7879   6.0000                                         
     5  2  2.50       -21.1769  10.0000                                         
     6  0  0.50       -12.0372   2.0000                                         
     6  1  1.50        -3.4971   2.0000                                         
     5  3  2.50        -2.7212   0.0000                                         
   Description                                                                  
     l       E           TYP  RCUT    TYP  RCUT                                 
     2    -21.1768523     23  2.500                                             
     2      1.3605826     23  2.500                                             
     0    -12.0371562     23  2.500                                             
     0     13.6058260     23  2.500                                             
     1     -3.4971339     23  2.500                                             
     1     13.6058260     23  2.500                                             
     3     -1.3605826      7  2.500                                             
  local pseudopotential read in
  partial core-charges read in
  partial kinetic energy density read in
  atomic valenz-charges read in
  non local Contribution for L=           2  read in
    real space projection operators read in
  non local Contribution for L=           2  read in
    real space projection operators read in
  non local Contribution for L=           0  read in
    real space projection operators read in
  non local Contribution for L=           0  read in
    real space projection operators read in
  non local Contribution for L=           1  read in
    real space projection operators read in
  non local Contribution for L=           1  read in
    real space projection operators read in
    PAW grid and wavefunctions read in

   number of l-projection  operators is LMAX  =           6
   number of lm-projection operators is LMMAX =          18

 POTCAR:    PAW_PBE Br 06Sep2000                  
   SHA256 =  96a73d2954943bbee26f4990d676cc6c3bf44b8dd2c75cd4b3b825d8403f0103 Br
   COPYR  = (c) Copyright 06Sep2000 Georg Kresse                                
   COPYR  = This file is part of the software VASP. Any use, copying, and all ot
   COPYR  = If you do not have a valid VASP license, you may not use, copy or di
   VRHFIN =Br: s2p5                                                             
   LEXCH  = PE                                                                  
   EATOM  =   368.4488 eV,   27.0802 Ry                                         
                                                                                
   TITEL  = PAW_PBE Br 06Sep2000                                                
   LULTRA =        F    use ultrasoft PP ?                                      
   IUNSCR =        1    unscreen: 0-lin 1-nonlin 2-no                           
   RPACOR =    1.900    partial core radius                                     
   POMASS =   79.904; ZVAL   =    7.000    mass and valenz                      
   RCORE  =    2.100    outmost cutoff radius                                   
   RWIGS  =    2.200; RWIGS  =    1.164    wigner-seitz radius (au A)           
   ENMAX  =  216.285; ENMIN  =  162.214 eV                                      
   ICORE  =        3    local potential                                         
   LCOR   =        T    correct aug charges                                     
   LPAW   =        T    paw PP                                                  
   EAUG   =  503.852                                                            
   DEXC   =    0.000                                                            
   RMAX   =    2.139    core radius for proj-oper                               
   RAUG   =    1.300    factor for augmentation sphere                          
   RDEP   =    2.186    radius for radial grids                                 
   RDEPT  =    1.890    core radius for aug-charge                              
                                                                                
   Atomic configuration                                                         
   10 entries                                                                   
     n  l   j            E        occ.                                          
     1  0  0.50    -13316.2796   2.0000                                         
     2  0  0.50     -1732.8239   2.0000                                         
     2  1  1.50     -1528.2193   6.0000                                         
     3  0  0.50      -238.0460   2.0000                                         
     3  1  1.50      -173.4609   6.0000                                         
     3  2  2.50       -66.7132  10.0000                                         
     4  0  0.50       -20.1334   2.0000                                         
     4  1  0.50        -7.8591   5.0000                                         
     4  2  2.50        -8.1635   0.0000                                         
     4  3  2.50        -8.1635   0.0000                                         
   Description                                                                  
     l       E           TYP  RCUT    TYP  RCUT                                 
     0    -20.1333652     23  2.100                                             
     0    -21.4939478     23  2.100                                             
     1     -7.8591052     23  2.100                                             
     1     -3.1608434     23  2.100                                             
     2     -8.1634956     23  2.100                                             
     3     -1.3605826      7  2.100                                             
  local pseudopotential read in
  partial core-charges read in
  partial kinetic energy density read in
  atomic valenz-charges read in
  non local Contribution for L=           0  read in
    real space projection operators read in
  non local Contribution for L=           0  read in
    real space projection operators read in
  non local Contribution for L=           1  read in
    real space projection operators read in
  non local Contribution for L=           1  read in
    real space projection operators read in
  non local Contribution for L=           2  read in
    real space projection operators read in
    PAW grid and wavefunctions read in

   number of l-projection  operators is LMAX  =           5
   number of lm-projection operators is LMMAX =          13

 Optimization of the real space projectors (new method)

 maximal supplied QI-value         = 15.12
 optimisation between [QCUT,QGAM] = [  8.77, 17.69] = [ 21.53, 87.61] Ry 
 Optimized for a Real-space Cutoff    1.85 Angstroem

   l    n(q)    QCUT    max X(q) W(low)/X(q) W(high)/X(q)  e(spline) 
   0     10     8.768    25.322    0.81E-04    0.51E-04    0.48E-06
   0     10     8.768    99.187    0.78E-04    0.50E-04    0.47E-06
   1      9     8.768    11.761    0.21E-03    0.20E-03    0.37E-06
   1      9     8.768     8.275    0.24E-03    0.22E-03    0.41E-06
   2      9     8.768     3.829    0.23E-04    0.15E-03    0.18E-06
 Optimization of the real space projectors (new method)

 maximal supplied QI-value         = 15.12
 optimisation between [QCUT,QGAM] = [  8.77, 17.69] = [ 21.53, 87.61] Ry 
 Optimized for a Real-space Cutoff    1.59 Angstroem

   l    n(q)    QCUT    max X(q) W(low)/X(q) W(high)/X(q)  e(spline) 
   2      7     8.768     3.846    0.48E-04    0.11E-03    0.11E-06
   2      7     8.768     8.593    0.20E-03    0.22E-04    0.24E-06
   0      8     8.768    20.082    0.68E-04    0.88E-04    0.41E-07
   0      8     8.768     8.597    0.89E-04    0.13E-03    0.59E-07
   1      8     8.768    33.223    0.15E-03    0.53E-04    0.87E-07
   1      8     8.768    15.899    0.14E-03    0.44E-04    0.78E-07
 Optimization of the real space projectors (new method)

 maximal supplied QI-value         = 17.95
 optimisation between [QCUT,QGAM] = [  8.80, 17.59] = [ 21.67, 86.68] Ry 
 Optimized for a Real-space Cutoff    1.59 Angstroem

   l    n(q)    QCUT    max X(q) W(low)/X(q) W(high)/X(q)  e(spline) 
   0      8     8.797   175.082    0.82E-04    0.14E-03    0.89E-07
   0      8     8.797   174.004    0.79E-04    0.14E-03    0.86E-07
   1      8     8.797    54.315    0.16E-03    0.14E-04    0.30E-06
   1      8     8.797    42.441    0.16E-03    0.14E-04    0.30E-06
   2      7     8.797     3.596    0.92E-04    0.15E-03    0.85E-07
  PAW_PBE Cs_sv 08Apr2002               :
 energy of atom  1       EATOM= -555.6835
 kinetic energy error for atom=    0.0069 (will be added to EATOM!!)
  PAW_PBE Pb_d 06Sep2000                :
 energy of atom  2       EATOM=-1661.6185
 kinetic energy error for atom=    0.0498 (will be added to EATOM!!)
  PAW_PBE Br 06Sep2000                  :
 energy of atom  3       EATOM= -368.4488
 kinetic energy error for atom=    0.0072 (will be added to EATOM!!)


 POSCAR: Cs8 Pb8 Br23                            
  positions in direct lattice
  No initial velocities read in

 METAGGA = SCAN     LMAXTAU =  6    LMIXTAU =  F

 exchange correlation table for  LEXCH =        8
   RHO(1)=    0.500       N(1)  =     2000
   RHO(2)=  100.500       N(2)  =     4000

 VTST: version 3.2, (02/03/18)

 CHAIN: initializing optimizer
 
 OPT: Using VASP Conjugate-Gradient optimizer
 CHAIN: Read ICHAIN            0

 POSCAR: Cs8 Pb8 Br23                            
  positions in direct lattice
  No initial velocities read in



--------------------------------------------------------------------------------------------------------


 ion  position               nearest neighbor table
   1  0.264  0.241  0.203-
   2  0.778  0.239  0.720-
   3  0.719  0.766  0.263-
   4  0.204  0.755  0.779-
   5  0.287  0.244  0.728-
   6  0.796  0.246  0.226-
   7  0.729  0.754  0.794-
   8  0.225  0.757  0.288-
   9  0.000  0.999  0.999-  19 2.97  21 2.98  29 2.98  34 2.99  28 3.00  31 3.00
  10  0.500  0.000  0.499-  33 2.99  27 3.00  32 3.00  30 3.01  22 3.03  20 3.03
  11  0.499  0.001  1.000-  31 2.98  29 2.99  27 3.00  23 3.00  17 3.00  33 3.01
  12  0.000  0.999  0.501-  28 2.99  24 3.00  18 3.00  34 3.00  30 3.01  32 3.01
  13  0.501  0.498  0.991-  23 2.95  17 2.97  37 2.97  35 2.99  25 2.99
  14  0.005  0.501  0.500-  36 2.95  18 2.96  24 2.96  38 2.99  26 3.01
  15  1.000  0.500  1.000-  21 2.96  19 2.97  25 3.01  26 3.02  38 3.03  35 3.04
  16  0.492  0.501  0.506-  39 2.30  37 2.91  36 2.93  20 2.96  22 2.96
  17  0.472  0.749  0.969-  13 2.97  11 3.00
  18  0.969  0.748  0.464-  14 2.96  12 3.00
  19  0.972  0.250  0.974-  15 2.97   9 2.97
  20  0.460  0.254  0.467-  16 2.96  10 3.03
  21  0.029  0.749  0.033-  15 2.96   9 2.98
  22  0.547  0.747  0.521-  16 2.96  10 3.03
  23  0.528  0.252  0.042-  13 2.95  11 3.00
  24  0.026  0.251  0.534-  14 2.96  12 3.00
  25  0.248  0.467  0.951-  13 2.99  15 3.01
  26  0.945  0.532  0.746-  14 3.01  15 3.02
  27  0.546  0.035  0.752-  11 3.00  10 3.00
  28  0.046  0.029  0.253-  12 2.99   9 3.00
  29  0.752  0.975  0.043-   9 2.98  11 2.99
  30  0.253  0.961  0.549-  12 3.01  10 3.01
  31  0.248  0.032  0.949-  11 2.98   9 3.00
  32  0.747  0.037  0.450-  10 3.00  12 3.01
  33  0.449  0.967  0.248-  10 2.99  11 3.01
  34  0.950  0.964  0.748-   9 2.99  12 3.00
  35  0.750  0.531  0.056-  13 2.99  15 3.04
  36  0.252  0.540  0.555-  16 2.93  14 2.95
  37  0.556  0.462  0.748-  16 2.91  13 2.97
  38  0.056  0.467  0.254-  14 2.99  15 3.03
  39  0.600  0.502  0.347-  16 2.30


IMPORTANT INFORMATION: All symmetrisations will be switched off!
NOSYMM: (Re-)initialisation of all symmetry stuff for point group C_1.



 KPOINTS: 1x1x1                                   

Automatic generation of k-mesh.
Space group operators:
 irot       det(A)        alpha          n_x          n_y          n_z        tau_x        tau_y        tau_z
    1     1.000000     0.000001     1.000000     0.000000     0.000000     0.000000     0.000000     0.000000
 
 Subroutine IBZKPT returns following result:
 ===========================================
 
 Found      8 irreducible k-points:
 
 Following reciprocal coordinates:
            Coordinates               Weight
  0.000000  0.000000  0.000000      1.000000
  0.500000  0.000000  0.000000      1.000000
  0.000000  0.500000  0.000000      1.000000
  0.500000  0.500000  0.000000      1.000000
  0.000000  0.000000  0.500000      1.000000
  0.500000  0.000000  0.500000      1.000000
  0.000000  0.500000  0.500000      1.000000
  0.500000  0.500000  0.500000      1.000000
 
 Following cartesian coordinates:
            Coordinates               Weight
 -0.000000  0.000000  0.000000      1.000000
  0.029563  0.000000  0.031093      1.000000
 -0.000000  0.042626  0.000000      1.000000
  0.029563  0.042626  0.031093      1.000000
 -0.029563  0.000000  0.031093      1.000000
  0.000000  0.000000  0.062187      1.000000
 -0.029563  0.042626  0.031093      1.000000
  0.000000  0.042626  0.062187      1.000000
 


--------------------------------------------------------------------------------------------------------




 Dimension of arrays:
   k-points           NKPTS =      8   k-points in BZ     NKDIM =      8   number of bands    NBANDS=    208
   number of dos      NEDOS =    301   number of ions     NIONS =     39
   non local maximal  LDIM  =      6   non local SUM 2l+1 LMDIM =     18
   total plane-waves  NPLWV = 343000
   max r-space proj   IRMAX =   5734   max aug-charges    IRDMAX=  91523
   dimension x,y,z NGX =    70 NGY =   70 NGZ =   70
   dimension x,y,z NGXF=   140 NGYF=  140 NGZF=  140
   support grid    NGXF=   280 NGYF=  280 NGZF=  280
   ions per type =               8   8  23
   NGX,Y,Z   is equivalent  to a cutoff of   9.97,  9.92,  9.97 a.u.
   NGXF,Y,Z  is equivalent  to a cutoff of  19.95, 19.84, 19.95 a.u.

 SYSTEM =  CsPbBr3 cubic bulk                      
 POSCAR =  Cs8 Pb8 Br23                            

 Startparameter for this run:
   NWRITE =      2    write-flag & timer
   PREC   = accura    normal or accurate (medium, high low for compatibility)
   ISTART =      0    job   : 0-new  1-cont  2-samecut
   ICHARG =      2    charge: 1-file 2-atom 10-const
   ISPIN  =      1    spin polarized calculation?
   LNONCOLLINEAR =      F non collinear calculations
   LSORBIT =      F    spin-orbit coupling
   INIWAV =      1    electr: 0-lowe 1-rand  2-diag
   LASPH  =      T    aspherical Exc in radial PAW
   METAGGA=      F    non-selfconsistent MetaGGA calc.

 Electronic Relaxation 1
   ENCUT  =  300.0 eV  22.05 Ry    4.70 a.u.  16.48 16.57 16.48*2*pi/ulx,y,z
   ENINI  =  300.0     initial cutoff
   ENAUG  =  503.9 eV  augmentation charge cutoff
   NELM   =    200;   NELMIN=  2; NELMDL= -5     # of ELM steps 
   EDIFF  = 0.1E-05   stopping-criterion for ELM
   LREAL  =      T    real-space projection
   NLSPLINE    = F    spline interpolate recip. space projectors
   LCOMPAT=      F    compatible to vasp.4.4
   GGA_COMPAT  = T    GGA compatible to vasp.4.4-vasp.4.6
   LMAXPAW     = -100 max onsite density
   LMAXMIX     =    2 max onsite mixed and CHGCAR
   VOSKOWN=      0    Vosko Wilk Nusair interpolation
   ROPT   =   -0.00025  -0.00025  -0.00025
 Ionic relaxation
   EDIFFG = -.1E-01   stopping-criterion for IOM
   NSW    =      0    number of steps for IOM
   NBLOCK =      1;   KBLOCK =      1    inner block; outer block 
   IBRION =     -1    ionic relax: 0-MD 1-quasi-New 2-CG
   NFREE  =      1    steps in history (QN), initial steepest desc. (CG)
   ISIF   =      2    stress and relaxation
   IWAVPR =     10    prediction:  0-non 1-charg 2-wave 3-comb
   ISYM   =      0    0-nonsym 1-usesym 2-fastsym
   LCORR  =      T    Harris-Foulkes like correction to forces

   POTIM  = 0.5000    time-step for ionic-motion
   TEIN   =    0.0    initial temperature
   TEBEG  =    0.0;   TEEND  =   0.0 temperature during run
   SMASS  =  -3.00    Nose mass-parameter (am)
   estimated Nose-frequenzy (Omega)   =  0.10E-29 period in steps =****** mass=  -0.311E-26a.u.
   SCALEE = 1.0000    scale energy and forces
   NPACO  =    256;   APACO  = 16.0  distance and # of slots for P.C.
   PSTRESS=    0.0 pullay stress

  Mass of Ions in am
   POMASS = 132.90207.20 79.90
  Ionic Valenz
   ZVAL   =   9.00 14.00  7.00
  Atomic Wigner-Seitz radii
   RWIGS  =  -1.00 -1.00 -1.00
  virtual crystal weights 
   VCA    =   1.00  1.00  1.00
   NELECT =     344.0000    total number of electrons
   NUPDOWN=       0.0000    fix difference up-down

 DOS related values:
   EMIN   =  10.00;   EMAX   =-10.00  energy-range for DOS
   EFERMI =   0.00
   ISMEAR =     0;   SIGMA  =   0.01  broadening in eV -4-tet -1-fermi 0-gaus

 Electronic relaxation 2 (details)
   IALGO  =     38    algorithm
   LDIAG  =      T    sub-space diagonalisation (order eigenvalues)
   LSUBROT=      F    optimize rotation matrix (better conditioning)
   TURBO    =      0    0=normal 1=particle mesh
   IRESTART =      0    0=no restart 2=restart with 2 vectors
   NREBOOT  =      0    no. of reboots
   NMIN     =      0    reboot dimension
   EREF     =   0.00    reference energy to select bands
   IMIX   =      4    mixing-type and parameters
     AMIX     =   0.40;   BMIX     =  1.00
     AMIX_MAG =   1.60;   BMIX_MAG =  1.00
     AMIN     =   0.10
     WC   =   100.;   INIMIX=   1;  MIXPRE=   1;  MAXMIX= -45

 Intra band minimization:
   WEIMIN = 0.0000     energy-eigenvalue tresh-hold
   EBREAK =  0.12E-08  absolut break condition
   DEPER  =   0.30     relativ break condition  

   TIME   =   0.40     timestep for ELM

  volume/ion in A,a.u.               =      40.90       276.00
  Fermi-wavevector in a.u.,A,eV,Ry     =   0.981747  1.855232 13.113654  0.963826
  Thomas-Fermi vector in A             =   2.112777

 Write flags
   LWAVE        =      F    write WAVECAR
   LDOWNSAMPLE  =      F    k-point downsampling of WAVECAR
   LCHARG       =      F    write CHGCAR
   LVTOT        =      F    write LOCPOT, total local potential
   LVHAR        =      T    write LOCPOT, Hartree potential only
   LELF         =      F    write electronic localiz. function (ELF)
   LORBIT       =     10    0 simple, 1 ext, 2 COOP (PROOUT), +10 PAW based schemes


 Dipole corrections
   LMONO  =      F    monopole corrections only (constant potential shift)
   LDIPOL =      F    correct potential (dipole corrections)
   IDIPOL =      0    1-x, 2-y, 3-z, 4-all directions 
   EPSILON=  1.0000000 bulk dielectric constant

 Exchange correlation treatment:
   GGA     =    --    GGA type
   LEXCH   =     8    internal setting for exchange type
   VOSKOWN=      0    Vosko Wilk Nusair interpolation
   LHFCALC =     F    Hartree Fock is set to
   LHFONE  =     F    Hartree Fock one center treatment
   AEXX    =    0.0000 exact exchange contribution

 Linear response parameters
   LEPSILON=     F    determine dielectric tensor
   LRPA    =     F    only Hartree local field effects (RPA)
   LNABLA  =     F    use nabla operator in PAW spheres
   LVEL    =     F    velocity operator in full k-point grid
   LINTERFAST=   F  fast interpolation
   KINTER  =     0    interpolate to denser k-point grid
   CSHIFT  =0.1000    complex shift for real part using Kramers Kronig
   OMEGAMAX=  -1.0    maximum frequency
   DEG_THRESHOLD= 0.2000000E-02 threshold for treating states as degnerate
   RTIME   =   -0.100 relaxation time in fs
  (WPLASMAI=    0.000 imaginary part of plasma frequency in eV, 0.658/RTIME)
   DFIELD  = 0.0000000 0.0000000 0.0000000 field for delta impulse in time

 Orbital magnetization related:
   ORBITALMAG=     F  switch on orbital magnetization
   LCHIMAG   =     F  perturbation theory with respect to B field
   DQ        =  0.001000  dq finite difference perturbation B field
   LLRAUG    =     F  two centre corrections for induced B field



--------------------------------------------------------------------------------------------------------


 Static calculation
 charge density and potential will be updated during run
 non-spin polarized calculation
 Variant of blocked Davidson
 Davidson routine will perform the subspace rotation
 perform sub-space diagonalisation
    after iterative eigenvector-optimisation
 modified Broyden-mixing scheme, WC =      100.0
 initial mixing is a Kerker type mixing with AMIX =  0.4000 and BMIX =      1.0000
 Hartree-type preconditioning will be used
 using additional bands           36
 real space projection scheme for non local part
 use partial core corrections
 calculate Harris-corrections to forces   (improved forces if not selfconsistent)
 use gradient corrections 
 use of overlap-Matrix (Vanderbilt PP)
 Gauss-broadening in eV      SIGMA  =   0.01


--------------------------------------------------------------------------------------------------------


  energy-cutoff  :      300.00
  volume of cell :     1595.09
      direct lattice vectors                 reciprocal lattice vectors
     8.456489000  0.000000000  8.040301000     0.059126193 -0.000000000  0.062186727
     0.000000000 11.729847000  0.000000000     0.000000000  0.085252604 -0.000000000
    -8.456489000  0.000000000  8.040301000    -0.059126193  0.000000000  0.062186727

  length of vectors
    11.668703715 11.729847000 11.668703715     0.085808482  0.085252604  0.085808482



 k-points in units of 2pi/SCALE and weight: 1x1x1                                   
  -0.00000000  0.00000000  0.00000000       0.125
   0.02956310  0.00000000  0.03109336       0.125
  -0.00000000  0.04262630  0.00000000       0.125
   0.02956310  0.04262630  0.03109336       0.125
  -0.02956310  0.00000000  0.03109336       0.125
   0.00000000  0.00000000  0.06218673       0.125
  -0.02956310  0.04262630  0.03109336       0.125
   0.00000000  0.04262630  0.06218673       0.125

 k-points in reciprocal lattice and weights: 1x1x1                                   
   0.00000000  0.00000000  0.00000000       0.125
   0.50000000  0.00000000  0.00000000       0.125
   0.00000000  0.50000000  0.00000000       0.125
   0.50000000  0.50000000  0.00000000       0.125
   0.00000000  0.00000000  0.50000000       0.125
   0.50000000  0.00000000  0.50000000       0.125
   0.00000000  0.50000000  0.50000000       0.125
   0.50000000  0.50000000  0.50000000       0.125

 position of ions in fractional coordinates (direct lattice) 
   0.26445100  0.24057600  0.20344600
   0.77772100  0.23870000  0.72013900
   0.71937300  0.76618300  0.26324000
   0.20438800  0.75460100  0.77850400
   0.28653700  0.24356300  0.72831200
   0.79632700  0.24588900  0.22559000
   0.72875400  0.75386900  0.79428500
   0.22509500  0.75670000  0.28833200
   0.00036000  0.99914500  0.99943000
   0.49986400  0.00024600  0.49941700
   0.49884100  0.00137300  0.99960400
   0.00001400  0.99927400  0.50056800
   0.50139400  0.49787300  0.99146800
   0.00482900  0.50090100  0.50007900
   0.99952000  0.50015800  0.99959000
   0.49208400  0.50096400  0.50648500
   0.47156100  0.74850300  0.96850500
   0.96902800  0.74800900  0.46397700
   0.97208700  0.24979000  0.97368100
   0.46006900  0.25358600  0.46715600
   0.02904200  0.74908100  0.03302900
   0.54656600  0.74710300  0.52102300
   0.52819300  0.25239300  0.04220000
   0.02584100  0.25137900  0.53358400
   0.24834500  0.46657500  0.95087500
   0.94541800  0.53165600  0.74592200
   0.54616100  0.03522400  0.75196600
   0.04640700  0.02861900  0.25291000
   0.75228700  0.97508200  0.04342100
   0.25250300  0.96133400  0.54920800
   0.24788500  0.03181800  0.94899700
   0.74741000  0.03730300  0.45048600
   0.44944000  0.96687100  0.24756000
   0.95010400  0.96420900  0.74779700
   0.74999900  0.53104800  0.05629600
   0.25166200  0.53977200  0.55516900
   0.55566600  0.46181500  0.74786200
   0.05554500  0.46718600  0.25366000
   0.60030500  0.50163200  0.34730500

 position of ions in cartesian coordinates  (Angst):
   0.51588811  2.82191967  3.76203272
   0.48694155  2.79991448 12.04324526
   3.85728370  8.98720936  7.90050429
  -4.85500564  8.85135428  7.90274753
  -3.73586543  2.85695672  8.15969143
   4.82643116  2.88424035  8.21652028
  -0.55416218  8.84276803 12.24569199
  -0.53476299  8.87597522  4.12810762
  -8.44862447 11.71981798  8.03861254
   0.00378005  0.00288554  8.03452002
  -4.23469680  0.01610508 12.04794883
  -4.23292939 11.72133113  4.02482996
  -4.14430539  5.83997412 12.00305983
  -4.18807618  5.87549209  4.05961230
  -0.00059195  5.86677682 16.07344613
  -0.12178190  5.87623107  8.02879533
  -4.20240147  8.77982567 11.57856410
   4.27095823  8.77403112 11.52179153
  -0.01347964  2.92999848 15.64456040
  -0.05993114  2.97452498  7.45516809
  -0.03371602  8.78660552  0.49906952
   0.21600410  8.76340388  8.58373690
   4.10979446  2.96053127  4.58613141
  -4.29372309  2.94863721  4.49794539
  -5.94093722  5.47285336  9.64208977
   1.68703573  6.23624354 13.59888269
  -1.74038772  0.41317213 10.43733182
  -1.74629035  0.33569649  2.40659877
   5.99451753 11.43756267  6.39773183
  -2.50908257 11.27630074  6.44599776
  -5.92894592  0.37322027  9.62329154
   2.51093454  0.43755848  9.63144441
   1.70719600 11.34124890  5.60408980
   1.71080692 11.31002405 13.65163511
   5.86629179  6.22911179  6.48285449
  -2.56660361  6.33144297  6.48716410
  -1.62530336  5.41701929 10.48075748
  -1.67535732  5.48002030  2.48610127
   2.13949172  5.88406661  7.61906963



--------------------------------------------------------------------------------------------------------


 k-point  1 :   0.0000 0.0000 0.0000  plane waves:   18809
 k-point  2 :   0.5000 0.0000 0.0000  plane waves:   18808
 k-point  3 :   0.0000 0.5000 0.0000  plane waves:   18794
 k-point  4 :   0.5000 0.5000 0.0000  plane waves:   18804
 k-point  5 :   0.0000 0.0000 0.5000  plane waves:   18808
 k-point  6 :   0.5000 0.0000 0.5000  plane waves:   18790
 k-point  7 :   0.0000 0.5000 0.5000  plane waves:   18804
 k-point  8 :   0.5000 0.5000 0.5000  plane waves:   18800

 maximum and minimum number of plane-waves per node :      2389     2304

 maximum number of plane-waves:     18809
 maximum index in each direction: 
   IXMAX=   16   IYMAX=   16   IZMAX=   16
   IXMIN=  -16   IYMIN=  -17   IZMIN=  -16


 real space projection operators:
  total allocation   :      16738.90 KBytes
  max/ min on nodes  :       2184.34       1821.12


 parallel 3D FFT for wavefunctions:
    minimum data exchange during FFTs selected (reduces bandwidth)
 parallel 3D FFT for charge:
    minimum data exchange during FFTs selected (reduces bandwidth)


 total amount of memory used by VASP MPI-rank0    60649. kBytes
=======================================================================

   base      :      30000. kBytes
   nonlr-proj:       6484. kBytes
   fftplans  :       8423. kBytes
   grid      :       7465. kBytes
   one-center:         77. kBytes
   wavefun   :       8200. kBytes

     INWAV:  cpu time    0.0000: real time    0.0000
 Broyden mixing: mesh for mixing (old mesh)
   NGX = 33   NGY = 33   NGZ = 33
  (NGX  =140   NGY  =140   NGZ  =140)
  gives a total of  35937 points

 initial charge density was supplied:
 charge density of overlapping atoms calculated
 number of electron     345.0000000 magnetization 
 keeping initial charge density in first step


--------------------------------------------------------------------------------------------------------


 Maximum index for non-local projection operator          732
 Maximum index for augmentation-charges         3016 (set IRDMAX)


--------------------------------------------------------------------------------------------------------


 First call to EWALD:  gamma=   0.152
 Maximum number of real-space cells 3x 3x 3
 Maximum number of reciprocal cells 3x 3x 3

    FEWALD:  cpu time    0.0038: real time    0.0038


--------------------------------------- Iteration      1(   1)  ---------------------------------------


    POTLOK:  cpu time    0.2613: real time    0.2615
    SETDIJ:  cpu time    1.2009: real time    1.2010
     EDDAV:  cpu time   16.5843: real time   16.5895
       DOS:  cpu time    0.0008: real time    0.0008
    --------------------------------------------
      LOOP:  cpu time   18.0473: real time   18.0528

 eigenvalue-minimisations  :  3480
 total energy-change (2. order) : 0.1335446E+04  (-0.1105931E+05)
 number of electron     345.0000000 magnetization 
 augmentation part      345.0000000 magnetization 

 Free energy of the ion-electron system (eV)
  ---------------------------------------------------
  alpha Z        PSCENC =       872.70583573
  Ewald energy   TEWEN  =    -17890.11055589
  -Hartree energ DENC   =     -7461.36549043
  -exchange      EXHF   =         0.00000000
  -V(xc)+E(xc)   XCENC  =       908.68821789
  PAW double counting   =     21345.28103884   -22405.85761495
  entropy T*S    EENTRO =        -0.00089502
  eigenvalues    EBANDS =      -246.01293697
  atomic energy  EATOM  =     26212.11861568
  Solvation  Ediel_sol  =         0.00000000
  ---------------------------------------------------
  free energy    TOTEN  =      1335.44621488 eV

  energy without entropy =     1335.44710991  energy(sigma->0) =     1335.44666239


--------------------------------------------------------------------------------------------------------




--------------------------------------- Iteration      1(   2)  ---------------------------------------


     EDDAV:  cpu time   18.3668: real time   18.4376
       DOS:  cpu time    0.0004: real time    0.0004
    --------------------------------------------
      LOOP:  cpu time   18.3672: real time   18.4380

 eigenvalue-minimisations  :  4080
 total energy-change (2. order) :-0.2446750E+04  (-0.2362803E+04)
 number of electron     345.0000000 magnetization 
 augmentation part      345.0000000 magnetization 

 Free energy of the ion-electron system (eV)
  ---------------------------------------------------
  alpha Z        PSCENC =       872.70583573
  Ewald energy   TEWEN  =    -17890.11055589
  -Hartree energ DENC   =     -7461.36549043
  -exchange      EXHF   =         0.00000000
  -V(xc)+E(xc)   XCENC  =       908.68821789
  PAW double counting   =     21345.28103884   -22405.85761495
  entropy T*S    EENTRO =        -0.00000000
  eigenvalues    EBANDS =     -2692.76382260
  atomic energy  EATOM  =     26212.11861568
  Solvation  Ediel_sol  =         0.00000000
  ---------------------------------------------------
  free energy    TOTEN  =     -1111.30377572 eV

  energy without entropy =    -1111.30377572  energy(sigma->0) =    -1111.30377572


--------------------------------------------------------------------------------------------------------




--------------------------------------- Iteration      1(   3)  ---------------------------------------


     EDDAV:  cpu time   19.3670: real time   19.4212
       DOS:  cpu time    0.0004: real time    0.0004
    --------------------------------------------
      LOOP:  cpu time   19.3674: real time   19.4216

 eigenvalue-minimisations  :  4432
 total energy-change (2. order) :-0.3619927E+03  (-0.3600265E+03)
 number of electron     345.0000000 magnetization 
 augmentation part      345.0000000 magnetization 

 Free energy of the ion-electron system (eV)
  ---------------------------------------------------
  alpha Z        PSCENC =       872.70583573
  Ewald energy   TEWEN  =    -17890.11055589
  -Hartree energ DENC   =     -7461.36549043
  -exchange      EXHF   =         0.00000000
  -V(xc)+E(xc)   XCENC  =       908.68821789
  PAW double counting   =     21345.28103884   -22405.85761495
  entropy T*S    EENTRO =        -0.00000000
  eigenvalues    EBANDS =     -3054.75654571
  atomic energy  EATOM  =     26212.11861568
  Solvation  Ediel_sol  =         0.00000000
  ---------------------------------------------------
  free energy    TOTEN  =     -1473.29649884 eV

  energy without entropy =    -1473.29649884  energy(sigma->0) =    -1473.29649884


--------------------------------------------------------------------------------------------------------




--------------------------------------- Iteration      1(   4)  ---------------------------------------


     EDDAV:  cpu time   17.8685: real time   17.8956
       DOS:  cpu time    0.0004: real time    0.0004
    --------------------------------------------
      LOOP:  cpu time   17.8689: real time   17.8960

 eigenvalue-minimisations  :  3920
 total energy-change (2. order) :-0.1206405E+02  (-0.1202411E+02)
 number of electron     345.0000000 magnetization 
 augmentation part      345.0000000 magnetization 

 Free energy of the ion-electron system (eV)
  ---------------------------------------------------
  alpha Z        PSCENC =       872.70583573
  Ewald energy   TEWEN  =    -17890.11055589
  -Hartree energ DENC   =     -7461.36549043
  -exchange      EXHF   =         0.00000000
  -V(xc)+E(xc)   XCENC  =       908.68821789
  PAW double counting   =     21345.28103884   -22405.85761495
  entropy T*S    EENTRO =        -0.00000000
  eigenvalues    EBANDS =     -3066.82059979
  atomic energy  EATOM  =     26212.11861568
  Solvation  Ediel_sol  =         0.00000000
  ---------------------------------------------------
  free energy    TOTEN  =     -1485.36055292 eV

  energy without entropy =    -1485.36055292  energy(sigma->0) =    -1485.36055292


--------------------------------------------------------------------------------------------------------




--------------------------------------- Iteration      1(   5)  ---------------------------------------


     EDDAV:  cpu time   19.2746: real time   19.3404
       DOS:  cpu time    0.0005: real time    0.0005
    CHARGE:  cpu time    2.7061: real time    2.7062
    MIXING:  cpu time    0.0014: real time    0.0014
    --------------------------------------------
      LOOP:  cpu time   21.9826: real time   22.0485

 eigenvalue-minimisations  :  4416
 total energy-change (2. order) :-0.5623373E+00  (-0.5620405E+00)
 number of electron     343.9999998 magnetization 
 augmentation part       -5.0848676 magnetization 

 Broyden mixing:
  rms(total) = 0.11416E+01    rms(broyden)= 0.11411E+01
  rms(prec ) = 0.14936E+01
  weight for this iteration     100.00

 Free energy of the ion-electron system (eV)
  ---------------------------------------------------
  alpha Z        PSCENC =       872.70583573
  Ewald energy   TEWEN  =    -17890.11055589
  -Hartree energ DENC   =     -7461.36549043
  -exchange      EXHF   =         0.00000000
  -V(xc)+E(xc)   XCENC  =       908.68821789
  PAW double counting   =     21345.28103884   -22405.85761495
  entropy T*S    EENTRO =        -0.00000000
  eigenvalues    EBANDS =     -3067.38293708
  atomic energy  EATOM  =     26212.11861568
  Solvation  Ediel_sol  =         0.00000000
  ---------------------------------------------------
  free energy    TOTEN  =     -1485.92289020 eV

  energy without entropy =    -1485.92289020  energy(sigma->0) =    -1485.92289020


--------------------------------------------------------------------------------------------------------




--------------------------------------- Iteration      1(   6)  ---------------------------------------


    POTLOK:  cpu time    0.2832: real time    0.3136
    SETDIJ:  cpu time    1.1977: real time    1.1977
     EDDAV:  cpu time   19.0276: real time   19.0284
       DOS:  cpu time    0.0005: real time    0.0005
    CHARGE:  cpu time    2.6992: real time    2.6994
    MIXING:  cpu time    0.0015: real time    0.0015
    --------------------------------------------
      LOOP:  cpu time   23.2098: real time   23.2410

 eigenvalue-minimisations  :  4312
 total energy-change (2. order) : 0.7766099E+02  (-0.2348271E+01)
 number of electron     343.9999998 magnetization 
 augmentation part       -3.6992122 magnetization 

 Broyden mixing:
  rms(total) = 0.79273E+00    rms(broyden)= 0.79265E+00
  rms(prec ) = 0.95959E+00
  weight for this iteration     100.00

 eigenvalues of (default mixing * dielectric matrix)
  average eigenvalue GAMMA=   1.3668
  1.3668

 Free energy of the ion-electron system (eV)
  ---------------------------------------------------
  alpha Z        PSCENC =       872.70583573
  Ewald energy   TEWEN  =    -17890.11055589
  -Hartree energ DENC   =     -7443.60984692
  -exchange      EXHF   =         0.00000000
  -V(xc)+E(xc)   XCENC  =       936.70273442
  PAW double counting   =     21696.35158130   -22755.88490512
  entropy T*S    EENTRO =        -0.00000000
  eigenvalues    EBANDS =     -3036.53536167
  atomic energy  EATOM  =     26212.11861568
  Solvation  Ediel_sol  =         0.00000000
  ---------------------------------------------------
  free energy    TOTEN  =     -1408.26190247 eV

  energy without entropy =    -1408.26190247  energy(sigma->0) =    -1408.26190247


--------------------------------------------------------------------------------------------------------




--------------------------------------- Iteration      1(   7)  ---------------------------------------


    POTLOK:  cpu time    0.2673: real time    0.3066
    SETDIJ:  cpu time    1.1970: real time    1.1970
     EDDAV:  cpu time   18.5496: real time   18.5504
       DOS:  cpu time    0.0004: real time    0.0004
    CHARGE:  cpu time    2.6959: real time    2.6960
    MIXING:  cpu time    0.0015: real time    0.0015
    --------------------------------------------
      LOOP:  cpu time   22.7117: real time   22.7519

 eigenvalue-minimisations  :  4152
 total energy-change (2. order) : 0.5133264E+00  (-0.8978463E+00)
 number of electron     343.9999998 magnetization 
 augmentation part       -3.1249189 magnetization 

 Broyden mixing:
  rms(total) = 0.38371E+00    rms(broyden)= 0.38369E+00
  rms(prec ) = 0.42272E+00
  weight for this iteration     100.00

 eigenvalues of (default mixing * dielectric matrix)
  average eigenvalue GAMMA=   1.3528
  1.1614  1.5442

 Free energy of the ion-electron system (eV)
  ---------------------------------------------------
  alpha Z        PSCENC =       872.70583573
  Ewald energy   TEWEN  =    -17890.11055589
  -Hartree energ DENC   =     -7489.37546046
  -exchange      EXHF   =         0.00000000
  -V(xc)+E(xc)   XCENC  =       942.11590015
  PAW double counting   =     22405.25921740   -23463.46656633
  entropy T*S    EENTRO =        -0.00000000
  eigenvalues    EBANDS =     -2996.99556237
  atomic energy  EATOM  =     26212.11861568
  Solvation  Ediel_sol  =         0.00000000
  ---------------------------------------------------
  free energy    TOTEN  =     -1407.74857610 eV

  energy without entropy =    -1407.74857610  energy(sigma->0) =    -1407.74857610


--------------------------------------------------------------------------------------------------------




--------------------------------------- Iteration      1(   8)  ---------------------------------------


    POTLOK:  cpu time    0.2576: real time    0.3110
    SETDIJ:  cpu time    1.1961: real time    1.1961
     EDDAV:  cpu time   18.5043: real time   18.5054
       DOS:  cpu time    0.0009: real time    0.0009
    CHARGE:  cpu time    2.6982: real time    2.6983
    MIXING:  cpu time    0.0016: real time    0.0016
    --------------------------------------------
      LOOP:  cpu time   22.6586: real time   22.7132

 eigenvalue-minimisations  :  4128
 total energy-change (2. order) :-0.1663638E+00  (-0.4717441E-01)
 number of electron     343.9999998 magnetization 
 augmentation part       -3.2203600 magnetization 

 Broyden mixing:
  rms(total) = 0.21899E+00    rms(broyden)= 0.21898E+00
  rms(prec ) = 0.24599E+00
  weight for this iteration     100.00

 eigenvalues of (default mixing * dielectric matrix)
  average eigenvalue GAMMA=   1.6845
  1.0931  1.3777  2.5828

 Free energy of the ion-electron system (eV)
  ---------------------------------------------------
  alpha Z        PSCENC =       872.70583573
  Ewald energy   TEWEN  =    -17890.11055589
  -Hartree energ DENC   =     -7494.82984492
  -exchange      EXHF   =         0.00000000
  -V(xc)+E(xc)   XCENC  =       942.76282303
  PAW double counting   =     22662.15699666   -23720.93730373
  entropy T*S    EENTRO =        -0.00000000
  eigenvalues    EBANDS =     -2991.78150646
  atomic energy  EATOM  =     26212.11861568
  Solvation  Ediel_sol  =         0.00000000
  ---------------------------------------------------
  free energy    TOTEN  =     -1407.91493991 eV

  energy without entropy =    -1407.91493991  energy(sigma->0) =    -1407.91493991


--------------------------------------------------------------------------------------------------------




--------------------------------------- Iteration      1(   9)  ---------------------------------------


    POTLOK:  cpu time    0.2502: real time    0.3128
    SETDIJ:  cpu time    1.1976: real time    1.1976
     EDDAV:  cpu time   17.8113: real time   17.8121
       DOS:  cpu time    0.0005: real time    0.0005
    CHARGE:  cpu time    2.6983: real time    2.6983
    MIXING:  cpu time    0.0017: real time    0.0017
    --------------------------------------------
      LOOP:  cpu time   21.9595: real time   22.0230

 eigenvalue-minimisations  :  3896
 total energy-change (2. order) :-0.5872428E-01  (-0.1467552E-01)
 number of electron     343.9999998 magnetization 
 augmentation part       -3.2674706 magnetization 

 Broyden mixing:
  rms(total) = 0.42387E-01    rms(broyden)= 0.42383E-01
  rms(prec ) = 0.53871E-01
  weight for this iteration     100.00

 eigenvalues of (default mixing * dielectric matrix)
  average eigenvalue GAMMA=   1.4809
  2.5039  1.2768  1.2768  0.8660

 Free energy of the ion-electron system (eV)
  ---------------------------------------------------
  alpha Z        PSCENC =       872.70583573
  Ewald energy   TEWEN  =    -17890.11055589
  -Hartree energ DENC   =     -7500.88814503
  -exchange      EXHF   =         0.00000000
  -V(xc)+E(xc)   XCENC  =       944.43436288
  PAW double counting   =     22991.36517510   -24051.23454423
  entropy T*S    EENTRO =        -0.00000000
  eigenvalues    EBANDS =     -2986.36440843
  atomic energy  EATOM  =     26212.11861568
  Solvation  Ediel_sol  =         0.00000000
  ---------------------------------------------------
  free energy    TOTEN  =     -1407.97366419 eV

  energy without entropy =    -1407.97366419  energy(sigma->0) =    -1407.97366419


--------------------------------------------------------------------------------------------------------




--------------------------------------- Iteration      1(  10)  ---------------------------------------


    POTLOK:  cpu time    0.3125: real time    0.3142
    SETDIJ:  cpu time    1.1962: real time    1.1963
     EDDAV:  cpu time   20.2026: real time   20.2035
       DOS:  cpu time    0.0004: real time    0.0004
    CHARGE:  cpu time    2.7014: real time    2.7015
    MIXING:  cpu time    0.0016: real time    0.0016
    --------------------------------------------
      LOOP:  cpu time   24.4147: real time   24.4174

 eigenvalue-minimisations  :  4728
 total energy-change (2. order) :-0.3112044E-02  (-0.1917545E-02)
 number of electron     343.9999998 magnetization 
 augmentation part       -3.2536557 magnetization 

 Broyden mixing:
  rms(total) = 0.31177E-01    rms(broyden)= 0.31176E-01
  rms(prec ) = 0.40445E-01
  weight for this iteration     100.00

 eigenvalues of (default mixing * dielectric matrix)
  average eigenvalue GAMMA=   1.3435
  2.4056  1.3645  1.3645  0.7913  0.7913

 Free energy of the ion-electron system (eV)
  ---------------------------------------------------
  alpha Z        PSCENC =       872.70583573
  Ewald energy   TEWEN  =    -17890.11055589
  -Hartree energ DENC   =     -7499.36812222
  -exchange      EXHF   =         0.00000000
  -V(xc)+E(xc)   XCENC  =       944.34633101
  PAW double counting   =     22963.37919832   -24023.28938190
  entropy T*S    EENTRO =        -0.00000000
  eigenvalues    EBANDS =     -2987.75869696
  atomic energy  EATOM  =     26212.11861568
  Solvation  Ediel_sol  =         0.00000000
  ---------------------------------------------------
  free energy    TOTEN  =     -1407.97677623 eV

  energy without entropy =    -1407.97677623  energy(sigma->0) =    -1407.97677623


--------------------------------------------------------------------------------------------------------




--------------------------------------- Iteration      1(  11)  ---------------------------------------


    POTLOK:  cpu time    0.2829: real time    0.3199
    SETDIJ:  cpu time    1.1930: real time    1.1931
     EDDAV:  cpu time   18.2269: real time   18.2277
       DOS:  cpu time    0.0004: real time    0.0004
    CHARGE:  cpu time    2.7135: real time    2.7136
    MIXING:  cpu time    0.0016: real time    0.0016
    --------------------------------------------
      LOOP:  cpu time   22.4183: real time   22.4563

 eigenvalue-minimisations  :  4032
 total energy-change (2. order) :-0.2561094E-02  (-0.3314067E-03)
 number of electron     343.9999998 magnetization 
 augmentation part       -3.2520801 magnetization 

 Broyden mixing:
  rms(total) = 0.12617E-01    rms(broyden)= 0.12617E-01
  rms(prec ) = 0.20920E-01
  weight for this iteration     100.00

 eigenvalues of (default mixing * dielectric matrix)
  average eigenvalue GAMMA=   1.6268
  2.7971  2.7971  1.2267  1.2267  0.8565  0.8565

 Free energy of the ion-electron system (eV)
  ---------------------------------------------------
  alpha Z        PSCENC =       872.70583573
  Ewald energy   TEWEN  =    -17890.11055589
  -Hartree energ DENC   =     -7498.10014939
  -exchange      EXHF   =         0.00000000
  -V(xc)+E(xc)   XCENC  =       944.31024150
  PAW double counting   =     22943.75958545   -24003.82535370
  entropy T*S    EENTRO =        -0.00000000
  eigenvalues    EBANDS =     -2988.83755670
  atomic energy  EATOM  =     26212.11861568
  Solvation  Ediel_sol  =         0.00000000
  ---------------------------------------------------
  free energy    TOTEN  =     -1407.97933732 eV

  energy without entropy =    -1407.97933732  energy(sigma->0) =    -1407.97933732


--------------------------------------------------------------------------------------------------------




--------------------------------------- Iteration      1(  12)  ---------------------------------------


    POTLOK:  cpu time    0.2574: real time    0.3102
    SETDIJ:  cpu time    1.1919: real time    1.1919
     EDDAV:  cpu time   17.1535: real time   17.1542
       DOS:  cpu time    0.0004: real time    0.0004
    CHARGE:  cpu time    2.7049: real time    2.7050
    MIXING:  cpu time    0.0019: real time    0.0019
    --------------------------------------------
      LOOP:  cpu time   21.3100: real time   21.3637

 eigenvalue-minimisations  :  3664
 total energy-change (2. order) :-0.2227309E-02  (-0.4215771E-03)
 number of electron     343.9999998 magnetization 
 augmentation part       -3.2547365 magnetization 

 Broyden mixing:
  rms(total) = 0.10348E-01    rms(broyden)= 0.10347E-01
  rms(prec ) = 0.13003E-01
  weight for this iteration     100.00

 eigenvalues of (default mixing * dielectric matrix)
  average eigenvalue GAMMA=   1.6227
  3.1462  2.5166  1.3717  1.3717  0.9468  1.0029  1.0029

 Free energy of the ion-electron system (eV)
  ---------------------------------------------------
  alpha Z        PSCENC =       872.70583573
  Ewald energy   TEWEN  =    -17890.11055589
  -Hartree energ DENC   =     -7497.70519993
  -exchange      EXHF   =         0.00000000
  -V(xc)+E(xc)   XCENC  =       944.36646092
  PAW double counting   =     22936.33577439   -23996.60589131
  entropy T*S    EENTRO =        -0.00000000
  eigenvalues    EBANDS =     -2989.08660422
  atomic energy  EATOM  =     26212.11861568
  Solvation  Ediel_sol  =         0.00000000
  ---------------------------------------------------
  free energy    TOTEN  =     -1407.98156463 eV

  energy without entropy =    -1407.98156463  energy(sigma->0) =    -1407.98156463


--------------------------------------------------------------------------------------------------------




--------------------------------------- Iteration      1(  13)  ---------------------------------------


    POTLOK:  cpu time    0.2566: real time    0.3190
    SETDIJ:  cpu time    1.1937: real time    1.1937
     EDDAV:  cpu time   19.9348: real time   19.9355
       DOS:  cpu time    0.0004: real time    0.0004
    CHARGE:  cpu time    2.7099: real time    2.7100
    MIXING:  cpu time    0.0021: real time    0.0021
    --------------------------------------------
      LOOP:  cpu time   24.0975: real time   24.1607

 eigenvalue-minimisations  :  4624
 total energy-change (2. order) : 0.4316401E-03  (-0.1636312E-03)
 number of electron     343.9999998 magnetization 
 augmentation part       -3.2558482 magnetization 

 Broyden mixing:
  rms(total) = 0.47967E-02    rms(broyden)= 0.47959E-02
  rms(prec ) = 0.56259E-02
  weight for this iteration     100.00

 eigenvalues of (default mixing * dielectric matrix)
  average eigenvalue GAMMA=   1.5356
  3.2461  2.3495  1.7258  1.0587  1.0587  1.1353  1.0122  0.6987

 Free energy of the ion-electron system (eV)
  ---------------------------------------------------
  alpha Z        PSCENC =       872.70583573
  Ewald energy   TEWEN  =    -17890.11055589
  -Hartree energ DENC   =     -7498.77816279
  -exchange      EXHF   =         0.00000000
  -V(xc)+E(xc)   XCENC  =       944.43345786
  PAW double counting   =     22940.30671492   -24000.53878266
  entropy T*S    EENTRO =        -0.00000000
  eigenvalues    EBANDS =     -2988.11825585
  atomic energy  EATOM  =     26212.11861568
  Solvation  Ediel_sol  =         0.00000000
  ---------------------------------------------------
  free energy    TOTEN  =     -1407.98113299 eV

  energy without entropy =    -1407.98113299  energy(sigma->0) =    -1407.98113299


--------------------------------------------------------------------------------------------------------




--------------------------------------- Iteration      1(  14)  ---------------------------------------


    POTLOK:  cpu time    0.2543: real time    0.3164
    SETDIJ:  cpu time    1.1922: real time    1.1923
     EDDAV:  cpu time   17.8880: real time   17.8886
       DOS:  cpu time    0.0006: real time    0.0006
    CHARGE:  cpu time    2.7135: real time    2.7136
    MIXING:  cpu time    0.0017: real time    0.0017
    --------------------------------------------
      LOOP:  cpu time   22.0503: real time   22.1132

 eigenvalue-minimisations  :  3920
 total energy-change (2. order) :-0.6963321E-05  (-0.3619366E-04)
 number of electron     343.9999998 magnetization 
 augmentation part       -3.2554519 magnetization 

 Broyden mixing:
  rms(total) = 0.29499E-02    rms(broyden)= 0.29490E-02
  rms(prec ) = 0.37499E-02
  weight for this iteration     100.00

 eigenvalues of (default mixing * dielectric matrix)
  average eigenvalue GAMMA=   1.5626
  3.2625  2.2298  2.2298  1.1776  1.1776  0.8982  0.8982  1.0948  1.0948

 Free energy of the ion-electron system (eV)
  ---------------------------------------------------
  alpha Z        PSCENC =       872.70583573
  Ewald energy   TEWEN  =    -17890.11055589
  -Hartree energ DENC   =     -7498.96638833
  -exchange      EXHF   =         0.00000000
  -V(xc)+E(xc)   XCENC  =       944.43723017
  PAW double counting   =     22940.83571472   -24001.05163634
  entropy T*S    EENTRO =        -0.00000000
  eigenvalues    EBANDS =     -2987.94995569
  atomic energy  EATOM  =     26212.11861568
  Solvation  Ediel_sol  =         0.00000000
  ---------------------------------------------------
  free energy    TOTEN  =     -1407.98113996 eV

  energy without entropy =    -1407.98113996  energy(sigma->0) =    -1407.98113996


--------------------------------------------------------------------------------------------------------




--------------------------------------- Iteration      1(  15)  ---------------------------------------


    POTLOK:  cpu time    0.2855: real time    0.3175
    SETDIJ:  cpu time    1.1938: real time    1.1938
     EDDAV:  cpu time   17.2020: real time   17.2028
       DOS:  cpu time    0.0004: real time    0.0004
    CHARGE:  cpu time    2.7093: real time    2.7094
    MIXING:  cpu time    0.0018: real time    0.0018
    --------------------------------------------
      LOOP:  cpu time   21.3928: real time   21.4258

 eigenvalue-minimisations  :  3680
 total energy-change (2. order) :-0.4329422E-05  (-0.4203391E-05)
 number of electron     343.9999998 magnetization 
 augmentation part       -3.2552366 magnetization 

 Broyden mixing:
  rms(total) = 0.15338E-02    rms(broyden)= 0.15326E-02
  rms(prec ) = 0.20660E-02
  weight for this iteration     100.00

 eigenvalues of (default mixing * dielectric matrix)
  average eigenvalue GAMMA=   1.6371
  3.8135  2.4506  2.4506  1.3901  1.3901  1.0585  1.0585  0.9560  0.9560  0.8469

 Free energy of the ion-electron system (eV)
  ---------------------------------------------------
  alpha Z        PSCENC =       872.70583573
  Ewald energy   TEWEN  =    -17890.11055589
  -Hartree energ DENC   =     -7499.08498220
  -exchange      EXHF   =         0.00000000
  -V(xc)+E(xc)   XCENC  =       944.43903208
  PAW double counting   =     22940.77811797   -24000.98876140
  entropy T*S    EENTRO =        -0.00000000
  eigenvalues    EBANDS =     -2987.83844626
  atomic energy  EATOM  =     26212.11861568
  Solvation  Ediel_sol  =         0.00000000
  ---------------------------------------------------
  free energy    TOTEN  =     -1407.98114429 eV

  energy without entropy =    -1407.98114429  energy(sigma->0) =    -1407.98114429


--------------------------------------------------------------------------------------------------------




--------------------------------------- Iteration      1(  16)  ---------------------------------------


    POTLOK:  cpu time    0.2733: real time    0.3148
    SETDIJ:  cpu time    1.1917: real time    1.1917
     EDDAV:  cpu time   18.4730: real time   18.4740
       DOS:  cpu time    0.0004: real time    0.0004
    CHARGE:  cpu time    2.7161: real time    2.7161
    MIXING:  cpu time    0.0019: real time    0.0019
    --------------------------------------------
      LOOP:  cpu time   22.6563: real time   22.6989

 eigenvalue-minimisations  :  4120
 total energy-change (2. order) :-0.5237700E-04  (-0.3532545E-05)
 number of electron     343.9999998 magnetization 
 augmentation part       -3.2548647 magnetization 

 Broyden mixing:
  rms(total) = 0.77986E-03    rms(broyden)= 0.77750E-03
  rms(prec ) = 0.91055E-03
  weight for this iteration     100.00

 eigenvalues of (default mixing * dielectric matrix)
  average eigenvalue GAMMA=   1.6882
  4.1987  2.8966  2.2088  1.9951  1.0832  1.0832  1.1463  1.1463  0.9968  0.9968
  0.8182

 Free energy of the ion-electron system (eV)
  ---------------------------------------------------
  alpha Z        PSCENC =       872.70583573
  Ewald energy   TEWEN  =    -17890.11055589
  -Hartree energ DENC   =     -7499.08939207
  -exchange      EXHF   =         0.00000000
  -V(xc)+E(xc)   XCENC  =       944.42919747
  PAW double counting   =     22939.94020941   -24000.14514702
  entropy T*S    EENTRO =        -0.00000000
  eigenvalues    EBANDS =     -2987.82995997
  atomic energy  EATOM  =     26212.11861568
  Solvation  Ediel_sol  =         0.00000000
  ---------------------------------------------------
  free energy    TOTEN  =     -1407.98119666 eV

  energy without entropy =    -1407.98119666  energy(sigma->0) =    -1407.98119666


--------------------------------------------------------------------------------------------------------




--------------------------------------- Iteration      1(  17)  ---------------------------------------


    POTLOK:  cpu time    0.2511: real time    0.3204
    SETDIJ:  cpu time    1.1937: real time    1.1938
     EDDAV:  cpu time   18.5240: real time   18.5250
       DOS:  cpu time    0.0004: real time    0.0004
    CHARGE:  cpu time    2.7087: real time    2.7089
    MIXING:  cpu time    0.0020: real time    0.0020
    --------------------------------------------
      LOOP:  cpu time   22.6799: real time   22.7503

 eigenvalue-minimisations  :  4128
 total energy-change (2. order) :-0.1362307E-05  (-0.7867213E-06)
 number of electron     343.9999998 magnetization 
 augmentation part       -3.2548201 magnetization 

 Broyden mixing:
  rms(total) = 0.46935E-03    rms(broyden)= 0.46549E-03
  rms(prec ) = 0.51639E-03
  weight for this iteration     100.00

 eigenvalues of (default mixing * dielectric matrix)
  average eigenvalue GAMMA=   1.6221
  4.2527  2.9473  2.1298  2.1298  1.1647  1.1647  1.1622  1.1622  0.9759  0.9759
  0.7831  0.6163

 Free energy of the ion-electron system (eV)
  ---------------------------------------------------
  alpha Z        PSCENC =       872.70583573
  Ewald energy   TEWEN  =    -17890.11055589
  -Hartree energ DENC   =     -7499.08284213
  -exchange      EXHF   =         0.00000000
  -V(xc)+E(xc)   XCENC  =       944.42653613
  PAW double counting   =     22940.01270906   -24000.21523297
  entropy T*S    EENTRO =        -0.00000000
  eigenvalues    EBANDS =     -2987.83626364
  atomic energy  EATOM  =     26212.11861568
  Solvation  Ediel_sol  =         0.00000000
  ---------------------------------------------------
  free energy    TOTEN  =     -1407.98119802 eV

  energy without entropy =    -1407.98119802  energy(sigma->0) =    -1407.98119802


--------------------------------------------------------------------------------------------------------




--------------------------------------- Iteration      1(  18)  ---------------------------------------


    POTLOK:  cpu time    0.3065: real time    0.3077
    SETDIJ:  cpu time    1.1928: real time    1.1928
     EDDAV:  cpu time   14.4596: real time   14.4603
       DOS:  cpu time    0.0005: real time    0.0005
    CHARGE:  cpu time    2.7174: real time    2.7175
    MIXING:  cpu time    0.0020: real time    0.0020
    --------------------------------------------
      LOOP:  cpu time   18.6787: real time   18.6809

 eigenvalue-minimisations  :  2704
 total energy-change (2. order) : 0.3137338E-05  (-0.2028436E-06)
 number of electron     343.9999998 magnetization 
 augmentation part       -3.2548733 magnetization 

 Broyden mixing:
  rms(total) = 0.25603E-03    rms(broyden)= 0.24891E-03
  rms(prec ) = 0.28621E-03
  weight for this iteration     100.00

 eigenvalues of (default mixing * dielectric matrix)
  average eigenvalue GAMMA=   1.6494
  4.5792  2.9596  2.3961  2.0336  1.2280  1.2280  1.1727  1.1727  0.9907  0.9907
  0.8125  0.9392  0.9392

 Free energy of the ion-electron system (eV)
  ---------------------------------------------------
  alpha Z        PSCENC =       872.70583573
  Ewald energy   TEWEN  =    -17890.11055589
  -Hartree energ DENC   =     -7499.08042389
  -exchange      EXHF   =         0.00000000
  -V(xc)+E(xc)   XCENC  =       944.42634513
  PAW double counting   =     22940.09016616   -24000.29266987
  entropy T*S    EENTRO =        -0.00000000
  eigenvalues    EBANDS =     -2987.83850793
  atomic energy  EATOM  =     26212.11861568
  Solvation  Ediel_sol  =         0.00000000
  ---------------------------------------------------
  free energy    TOTEN  =     -1407.98119489 eV

  energy without entropy =    -1407.98119489  energy(sigma->0) =    -1407.98119489


--------------------------------------------------------------------------------------------------------




--------------------------------------- Iteration      1(  19)  ---------------------------------------


    POTLOK:  cpu time    0.2747: real time    0.3182
    SETDIJ:  cpu time    1.1927: real time    1.1927
     EDDAV:  cpu time   13.1860: real time   13.1865
       DOS:  cpu time    0.0007: real time    0.0007
    CHARGE:  cpu time    2.7022: real time    2.7023
    MIXING:  cpu time    0.0023: real time    0.0024
    --------------------------------------------
      LOOP:  cpu time   17.3586: real time   17.4027

 eigenvalue-minimisations  :  2256
 total energy-change (2. order) : 0.4973891E-05  (-0.5383843E-07)
 number of electron     343.9999998 magnetization 
 augmentation part       -3.2548765 magnetization 

 Broyden mixing:
  rms(total) = 0.16738E-03    rms(broyden)= 0.15629E-03
  rms(prec ) = 0.17372E-03
  weight for this iteration     100.00

 eigenvalues of (default mixing * dielectric matrix)
  average eigenvalue GAMMA=   1.6136
  4.6135  2.9920  2.3566  2.0850  1.2430  1.2430  1.2310  1.2310  1.0721  1.0721
  0.9982  0.9982  0.7977  0.6566

 Free energy of the ion-electron system (eV)
  ---------------------------------------------------
  alpha Z        PSCENC =       872.70583573
  Ewald energy   TEWEN  =    -17890.11055589
  -Hartree energ DENC   =     -7499.08519573
  -exchange      EXHF   =         0.00000000
  -V(xc)+E(xc)   XCENC  =       944.42646319
  PAW double counting   =     22940.21211026   -24000.41317233
  entropy T*S    EENTRO =        -0.00000000
  eigenvalues    EBANDS =     -2987.83529082
  atomic energy  EATOM  =     26212.11861568
  Solvation  Ediel_sol  =         0.00000000
  ---------------------------------------------------
  free energy    TOTEN  =     -1407.98118991 eV

  energy without entropy =    -1407.98118991  energy(sigma->0) =    -1407.98118991


--------------------------------------------------------------------------------------------------------




--------------------------------------- Iteration      1(  20)  ---------------------------------------


    POTLOK:  cpu time    0.3035: real time    0.3068
    SETDIJ:  cpu time    1.1934: real time    1.1935
     EDDAV:  cpu time   12.7207: real time   12.7212
       DOS:  cpu time    0.0005: real time    0.0005
    CHARGE:  cpu time    2.7037: real time    2.7038
    MIXING:  cpu time    0.0025: real time    0.0025
    --------------------------------------------
      LOOP:  cpu time   16.9243: real time   16.9282

 eigenvalue-minimisations  :  2088
 total energy-change (2. order) : 0.1127799E-05  (-0.2071286E-07)
 number of electron     343.9999998 magnetization 
 augmentation part       -3.2549064 magnetization 

 Broyden mixing:
  rms(total) = 0.10967E-03    rms(broyden)= 0.91858E-04
  rms(prec ) = 0.10194E-03
  weight for this iteration     100.00
  WARNING: grid for Broyden might be to small

 eigenvalues of (default mixing * dielectric matrix)
  average eigenvalue GAMMA=   1.6087
  4.6889  2.9435  2.4856  1.8876  1.8876  1.1770  1.1770  1.2347  1.2347  0.9754
  0.9754  0.9737  0.7986  0.8451  0.8451

 Free energy of the ion-electron system (eV)
  ---------------------------------------------------
  alpha Z        PSCENC =       872.70583573
  Ewald energy   TEWEN  =    -17890.11055589
  -Hartree energ DENC   =     -7499.08755640
  -exchange      EXHF   =         0.00000000
  -V(xc)+E(xc)   XCENC  =       944.42655806
  PAW double counting   =     22940.21441753   -24000.41548654
  entropy T*S    EENTRO =        -0.00000000
  eigenvalues    EBANDS =     -2987.83301696
  atomic energy  EATOM  =     26212.11861568
  Solvation  Ediel_sol  =         0.00000000
  ---------------------------------------------------
  free energy    TOTEN  =     -1407.98118879 eV

  energy without entropy =    -1407.98118879  energy(sigma->0) =    -1407.98118879


--------------------------------------------------------------------------------------------------------




--------------------------------------- Iteration      1(  21)  ---------------------------------------


    POTLOK:  cpu time    0.2531: real time    0.3151
    SETDIJ:  cpu time    1.1995: real time    1.1995
     EDDAV:  cpu time   12.4757: real time   12.4763
       DOS:  cpu time    0.0004: real time    0.0004
    --------------------------------------------
      LOOP:  cpu time   13.9286: real time   13.9913

 eigenvalue-minimisations  :  2000
 total energy-change (2. order) : 0.2081429E-06  (-0.1011899E-07)
 number of electron     343.9999998 magnetization 
 augmentation part       -3.2549064 magnetization 

 Free energy of the ion-electron system (eV)
  ---------------------------------------------------
  alpha Z        PSCENC =       872.70583573
  Ewald energy   TEWEN  =    -17890.11055589
  -Hartree energ DENC   =     -7499.08888908
  -exchange      EXHF   =         0.00000000
  -V(xc)+E(xc)   XCENC  =       944.42670682
  PAW double counting   =     22940.21302800   -24000.41377370
  entropy T*S    EENTRO =        -0.00000000
  eigenvalues    EBANDS =     -2987.83215613
  atomic energy  EATOM  =     26212.11861568
  Solvation  Ediel_sol  =         0.00000000
  ---------------------------------------------------
  free energy    TOTEN  =     -1407.98118858 eV

  energy without entropy =    -1407.98118858  energy(sigma->0) =    -1407.98118858


--------------------------------------------------------------------------------------------------------




 average (electrostatic) potential at core
  the test charge radii are     1.1312  1.1541  1.0178
  (the norm of the test charge is              1.0000)
       1 -55.2621       2 -55.2869       3 -55.1643       4 -55.1658       5 -55.1882
       6 -55.3189       7 -55.1824       8 -55.4234       9-101.6024      10-101.5347
      11-101.6119      12-101.6249      13-101.9353      14-101.9357      15-101.7052
      16-101.4101      17 -69.0668      18 -69.0688      19 -69.0378      20 -68.8275
      21 -69.0380      22 -68.8193      23 -69.0577      24 -69.0939      25 -69.0744
      26 -69.0492      27 -68.9019      28 -69.0012      29 -68.9894      30 -68.8931
      31 -68.9799      32 -68.9094      33 -68.9182      34 -68.9769      35 -69.0057
      36 -69.2577      37 -69.2182      38 -69.0970      39 -69.7647



 E-fermi :   0.5089     XC(G=0):  -7.9507     alpha+bet : -6.9586


 k-point     1 :       0.0000    0.0000    0.0000
  band No.  band energies     occupation 
      1     -20.9463      2.00000
      2     -20.8444      2.00000
      3     -20.8176      2.00000
      4     -20.7926      2.00000
      5     -20.7153      2.00000
      6     -20.7110      2.00000
      7     -20.7070      2.00000
      8     -20.6966      2.00000
      9     -17.2096      2.00000
     10     -16.6913      2.00000
     11     -16.6886      2.00000
     12     -16.6796      2.00000
     13     -16.6763      2.00000
     14     -16.6026      2.00000
     15     -16.5972      2.00000
     16     -16.5970      2.00000
     17     -16.5910      2.00000
     18     -16.5615      2.00000
     19     -16.5503      2.00000
     20     -16.4925      2.00000
     21     -16.4649      2.00000
     22     -16.4292      2.00000
     23     -16.4135      2.00000
     24     -16.4025      2.00000
     25     -16.3922      2.00000
     26     -16.3701      2.00000
     27     -16.3675      2.00000
     28     -16.3605      2.00000
     29     -16.3528      2.00000
     30     -16.3522      2.00000
     31     -16.3102      2.00000
     32     -16.2953      2.00000
     33     -16.2920      2.00000
     34     -16.2906      2.00000
     35     -16.2838      2.00000
     36     -16.2785      2.00000
     37     -16.2745      2.00000
     38     -16.2729      2.00000
     39     -16.2691      2.00000
     40     -16.2677      2.00000
     41     -16.2617      2.00000
     42     -16.2580      2.00000
     43     -16.2542      2.00000
     44     -16.1942      2.00000
     45     -16.1915      2.00000
     46     -16.1831      2.00000
     47     -16.1783      2.00000
     48     -16.1174      2.00000
     49     -14.6172      2.00000
     50     -14.3791      2.00000
     51     -14.2596      2.00000
     52     -14.2394      2.00000
     53     -14.1480      2.00000
     54     -14.1217      2.00000
     55     -14.0953      2.00000
     56     -14.0938      2.00000
     57     -14.0840      2.00000
     58     -14.0725      2.00000
     59     -14.0542      2.00000
     60     -14.0397      2.00000
     61     -14.0247      2.00000
     62     -14.0231      2.00000
     63     -13.9434      2.00000
     64     -13.9231      2.00000
     65     -13.9193      2.00000
     66     -13.8958      2.00000
     67     -13.8652      2.00000
     68     -13.7877      2.00000
     69     -13.7738      2.00000
     70     -13.6898      2.00000
     71     -13.6182      2.00000
     72      -8.1994      2.00000
     73      -7.8031      2.00000
     74      -7.7762      2.00000
     75      -7.6635      2.00000
     76      -7.3983      2.00000
     77      -7.3683      2.00000
     78      -7.3306      2.00000
     79      -7.3131      2.00000
     80      -7.2721      2.00000
     81      -7.2600      2.00000
     82      -7.2403      2.00000
     83      -7.2265      2.00000
     84      -7.2235      2.00000
     85      -7.2098      2.00000
     86      -7.2090      2.00000
     87      -7.1873      2.00000
     88      -7.1835      2.00000
     89      -7.1608      2.00000
     90      -7.1447      2.00000
     91      -7.1406      2.00000
     92      -7.1230      2.00000
     93      -7.1205      2.00000
     94      -7.1162      2.00000
     95      -7.1100      2.00000
     96      -7.1060      2.00000
     97      -7.1053      2.00000
     98      -7.0933      2.00000
     99      -7.0917      2.00000
    100      -7.0821      2.00000
    101      -7.0744      2.00000
    102      -7.0366      2.00000
    103      -6.5879      2.00000
    104      -3.4137      2.00000
    105      -3.3827      2.00000
    106      -3.3480      2.00000
    107      -3.3159      2.00000
    108      -3.2728      2.00000
    109      -3.2624      2.00000
    110      -3.2028      2.00000
    111      -3.1675      2.00000
    112      -3.1446      2.00000
    113      -3.0706      2.00000
    114      -3.0347      2.00000
    115      -2.8967      2.00000
    116      -2.4392      2.00000
    117      -2.2331      2.00000
    118      -2.1442      2.00000
    119      -2.1135      2.00000
    120      -2.0491      2.00000
    121      -2.0161      2.00000
    122      -1.9570      2.00000
    123      -1.9237      2.00000
    124      -1.8826      2.00000
    125      -1.8383      2.00000
    126      -1.7942      2.00000
    127      -1.7448      2.00000
    128      -1.6995      2.00000
    129      -1.6549      2.00000
    130      -1.6471      2.00000
    131      -1.6247      2.00000
    132      -1.5886      2.00000
    133      -1.5432      2.00000
    134      -1.5310      2.00000
    135      -1.5113      2.00000
    136      -1.4953      2.00000
    137      -1.4887      2.00000
    138      -1.4684      2.00000
    139      -1.4499      2.00000
    140      -1.4441      2.00000
    141      -1.4217      2.00000
    142      -1.4064      2.00000
    143      -1.3981      2.00000
    144      -1.3907      2.00000
    145      -1.3865      2.00000
    146      -1.3598      2.00000
    147      -1.3527      2.00000
    148      -1.3444      2.00000
    149      -1.3142      2.00000
    150      -1.2989      2.00000
    151      -1.2907      2.00000
    152      -1.2786      2.00000
    153      -1.2651      2.00000
    154      -1.2461      2.00000
    155      -1.2333      2.00000
[...]


--------------------------------------------------------------------------------------------------------


 soft charge-density along one line, spin component           1
         0         1         2         3         4         5         6         7         8         9
 total charge-density along one line

 pseudopotential strength for first ion, spin component:           1
 17.963  -4.702   0.004   0.001  -0.000  -0.005  -0.001   0.000
 -4.702   1.240  -0.001  -0.000   0.000   0.001   0.000  -0.000
  0.004  -0.001   2.262   0.001   0.000  -2.704  -0.001  -0.001
  0.001  -0.000   0.001   2.261  -0.001  -0.001  -2.703   0.001
 -0.000   0.000   0.000  -0.001   2.261  -0.001   0.001  -2.703
 -0.005   0.001  -2.704  -0.001  -0.001   3.202   0.001   0.001
 -0.001   0.000  -0.001  -2.703   0.001   0.001   3.200  -0.001
  0.000  -0.000  -0.001   0.001  -2.703   0.001  -0.001   3.200
  0.000  -0.000   0.001   0.000   0.002  -0.001  -0.000  -0.003
  0.001  -0.000   0.002   0.002   0.000  -0.002  -0.003  -0.000
 -0.000   0.000  -0.001  -0.001   0.000   0.001   0.002  -0.000
 -0.001   0.000   0.000  -0.000   0.001  -0.000   0.000  -0.001
 -0.001   0.000  -0.002  -0.000  -0.001   0.003   0.000   0.002
 total augmentation occupancy for first ion, spin component:           1
  1.912  -0.138   0.001   0.000  -0.000   0.002   0.000  -0.000   0.001   0.001  -0.000  -0.001  -0.001
 -0.138   0.118   0.012   0.001  -0.000  -0.004  -0.001   0.001  -0.001  -0.000  -0.002   0.005   0.001
  0.001   0.012   2.020   0.003   0.001   0.006   0.002   0.001   0.003   0.004  -0.003   0.001  -0.005
  0.000   0.001   0.003   2.017  -0.002   0.002   0.004  -0.001   0.001   0.004  -0.004  -0.000  -0.001
 -0.000  -0.000   0.001  -0.002   2.016   0.001  -0.001   0.003   0.004   0.001  -0.000   0.002  -0.003
  0.002  -0.004   0.006   0.002   0.001   0.008  -0.000  -0.000  -0.002  -0.003   0.000  -0.000   0.001
  0.000  -0.001   0.002   0.004  -0.001  -0.000   0.008   0.001  -0.000  -0.001   0.003  -0.000   0.001
 -0.000   0.001   0.001  -0.001   0.003  -0.000   0.001   0.009  -0.001  -0.000  -0.001  -0.001   0.003
  0.001  -0.001   0.003   0.001   0.004  -0.002  -0.000  -0.001   0.006   0.002  -0.000   0.000   0.001
  0.001  -0.000   0.004   0.004   0.001  -0.003  -0.001  -0.000   0.002   0.004   0.000  -0.000   0.001
 -0.000  -0.002  -0.003  -0.004  -0.000   0.000   0.003  -0.001  -0.000   0.000   0.005  -0.002  -0.001
 -0.001   0.005   0.001  -0.000   0.002  -0.000  -0.000  -0.001   0.000  -0.000  -0.002   0.004   0.001
 -0.001   0.001  -0.005  -0.001  -0.003   0.001   0.001   0.003   0.001   0.001  -0.001   0.001   0.004


------------------------ aborting loop because EDIFF is reached ----------------------------------------





 total charge     

# of ion       s       p       d       tot
------------------------------------------
    1        1.786   4.717   0.018   6.521
    2        1.786   4.717   0.018   6.521
    3        1.787   4.718   0.021   6.525
    4        1.786   4.717   0.018   6.521
    5        1.785   4.716   0.017   6.519
    6        1.785   4.716   0.018   6.519
    7        1.785   4.716   0.018   6.520
    8        1.785   4.716   0.017   6.518
    9        1.554   0.422   9.835  11.811
   10        1.554   0.410   9.832  11.796
   11        1.554   0.416   9.834  11.803
   12        1.554   0.415   9.833  11.802
   13        1.536   0.427   9.829  11.792
   14        1.530   0.438   9.829  11.797
   15        1.553   0.412   9.833  11.798
   16        1.526   0.649   9.870  12.045
   17        1.614   3.280   0.006   4.901
   18        1.615   3.282   0.006   4.903
   19        1.615   3.286   0.007   4.908
   20        1.615   3.283   0.006   4.904
   21        1.615   3.285   0.007   4.906
   22        1.614   3.284   0.007   4.905
   23        1.615   3.281   0.006   4.902
   24        1.614   3.282   0.006   4.903
   25        1.614   3.277   0.006   4.898
   26        1.614   3.276   0.006   4.895
   27        1.614   3.281   0.006   4.901
   28        1.614   3.284   0.006   4.904
   29        1.614   3.286   0.006   4.906
   30        1.614   3.280   0.006   4.899
   31        1.614   3.284   0.006   4.905
   32        1.614   3.281   0.006   4.901
   33        1.614   3.282   0.006   4.902
   34        1.614   3.284   0.006   4.904
   35        1.614   3.277   0.006   4.897
   36        1.620   3.259   0.009   4.888
   37        1.619   3.266   0.008   4.893
   38        1.614   3.279   0.006   4.899
   39        1.628   3.354   0.030   5.012
--------------------------------------------------
tot         63.798 116.833  79.011 259.643

    CHARGE:  cpu time    0.3977: real time    0.3978
    FORLOC:  cpu time    0.0112: real time    0.0112
    FORNL :  cpu time    1.9103: real time    1.9103
    STRESS:  cpu time   49.8461: real time   49.8480
    FORCOR:  cpu time    0.2402: real time    0.2402
    FORHAR:  cpu time    0.0277: real time    0.0277
    MIXING:  cpu time    0.0023: real time    0.0023
    OFIELD:  cpu time    0.0001: real time    0.0001

  FORCE on cell =-STRESS in cart. coord.  units (eV):
  Direction    XX          YY          ZZ          XY          YZ          ZX
  --------------------------------------------------------------------------------------
  Alpha Z   872.70584   872.70584   872.70584
  Ewald   -5840.13117 -5634.75884 -6415.29920    31.13204     4.84496  -119.84851
  Hartree  2550.99103  2722.10605  2225.99194    19.63098     2.88912   -75.32372
  E(xc)   -1449.79781 -1449.87289 -1450.26453     0.06611    -0.01754    -0.05497
  Local   -3099.42166 -3483.47634 -2206.09674   -51.27103    -8.00827   193.64060
  n-local  1760.76264  1752.18461  1747.14187     0.24204     0.07485    -2.04597
  augment   816.93190   818.22896   816.45520     0.08354     0.06441     0.05096
  Kinetic  4396.42436  4399.97594  4403.81898     0.63832    -0.21433     0.89704
  Fock        0.00000     0.00000     0.00000     0.00000     0.00000     0.00000
  -------------------------------------------------------------------------------------
  Total       8.46512    -2.90667    -5.54664     0.52200    -0.36681    -2.68457
  in kB       8.50274    -2.91959    -5.57129     0.52432    -0.36844    -2.69650
  external pressure =        0.00 kB  Pullay stress =        0.00 kB


 VOLUME and BASIS-vectors are now :
 -----------------------------------------------------------------------------
  energy-cutoff  :      300.00
  volume of cell :     1595.09
      direct lattice vectors                 reciprocal lattice vectors
     8.456489000  0.000000000  8.040301000     0.059126193 -0.000000000  0.062186727
     0.000000000 11.729847000  0.000000000     0.000000000  0.085252604 -0.000000000
    -8.456489000  0.000000000  8.040301000    -0.059126193  0.000000000  0.062186727

  length of vectors
    11.668703715 11.729847000 11.668703715     0.085808482  0.085252604  0.085808482


 FORCES acting on ions
    electron-ion (+dipol)            ewald-force                    non-local-force                 convergence-correction
 -----------------------------------------------------------------------------------------------
   0.211E+02 -.451E+02 -.365E+02   -.210E+02 0.447E+02 0.365E+02   -.289E-01 0.358E+00 0.606E-01   -.206E-04 -.798E-05 0.245E-03
   0.718E+01 -.396E+02 0.211E+02   -.728E+01 0.392E+02 -.208E+02   0.504E-01 0.319E+00 -.281E+00   -.122E-03 -.271E-04 -.206E-03
   -.614E+01 0.344E+02 -.740E+01   0.606E+01 -.341E+02 0.752E+01   0.131E+00 -.108E+00 -.101E+00   -.211E-03 0.310E-04 0.213E-04
   -.361E+02 0.183E+02 -.149E+02   0.361E+02 -.181E+02 0.149E+02   0.862E-01 -.141E+00 -.397E-01   0.258E-03 -.106E-03 -.898E-04
   0.184E+02 -.177E+02 0.132E+02   -.182E+02 0.175E+02 -.133E+02   -.103E+00 0.190E+00 0.495E-01   0.342E-03 0.996E-04 0.254E-04
   0.562E+02 -.363E+02 -.780E+01   -.559E+02 0.359E+02 0.744E+01   -.327E+00 0.376E+00 0.329E+00   -.881E-04 -.132E-04 -.980E-05
   -.300E+02 0.221E+02 0.262E+02   0.300E+02 -.220E+02 -.263E+02   0.120E-01 -.129E+00 0.520E-01   0.758E-05 -.909E-04 -.253E-03
   -.553E+02 0.478E+02 -.115E+02   0.548E+02 -.472E+02 0.112E+02   0.465E+00 -.574E+00 0.307E+00   -.139E-03 -.473E-05 0.287E-03
   -.323E+01 0.288E+01 -.486E+01   0.342E+01 -.291E+01 0.512E+01   -.197E+00 0.239E-01 -.274E+00   -.121E-04 -.487E-04 0.426E-04
   -.451E+01 -.345E+00 -.327E+00   0.434E+01 0.394E+00 0.404E+00   0.135E+00 -.598E-01 -.646E-01   -.505E-04 -.461E-04 -.552E-04
   0.606E+01 0.756E+01 -.348E+01   -.600E+01 -.769E+01 0.371E+01   -.280E-01 0.126E+00 -.222E+00   -.210E-04 0.315E-05 0.937E-05
   0.363E+01 -.816E+01 0.140E+01   -.375E+01 0.823E+01 -.126E+01   0.127E+00 -.975E-01 -.127E+00   0.657E-04 -.129E-03 0.173E-04
   0.820E+02 -.198E+02 -.359E+02   -.854E+02 0.205E+02 0.380E+02   0.387E+01 -.817E+00 -.219E+01   0.900E-03 -.138E-03 -.563E-03
   0.562E+02 0.216E+02 0.882E+02   -.591E+02 -.223E+02 -.922E+02   0.310E+01 0.838E+00 0.444E+01   0.612E-03 0.272E-03 0.891E-03
   0.343E+01 -.262E+01 -.705E+01   -.361E+01 0.259E+01 0.692E+01   0.157E+00 0.336E-01 0.955E-01   -.880E-05 0.585E-04 0.116E-05
   0.264E+02 -.139E+01 0.413E+01   -.415E+02 0.154E+01 -.206E+01   0.943E+01 -.147E+00 -.108E+01   -.558E-03 0.617E-05 0.108E-04
   0.267E+02 0.186E+02 0.219E+02   -.268E+02 -.185E+02 -.221E+02   0.783E-01 -.450E-01 0.243E+00   0.631E-04 -.550E-04 0.187E-04
   0.204E+02 0.229E+02 0.433E+02   -.206E+02 -.229E+02 -.435E+02   0.946E-01 -.556E-01 0.239E+00   -.921E-05 -.284E-04 0.536E-04
   -.112E+02 -.138E+02 0.306E+02   0.113E+02 0.138E+02 -.308E+02   -.117E+00 0.429E-02 0.206E+00   0.139E-04 0.622E-04 0.384E-04
   -.207E+02 -.645E+01 0.372E+02   0.208E+02 0.641E+01 -.375E+02   -.238E+00 -.258E+00 0.192E+00   -.433E-04 0.694E-04 0.618E-06
   0.127E+02 0.137E+02 -.404E+02   -.129E+02 -.136E+02 0.406E+02   0.151E+00 -.267E-01 -.237E+00   -.359E-04 -.676E-04 0.181E-04
   -.698E+01 0.629E+01 -.334E+02   0.711E+01 -.623E+01 0.336E+02   -.211E+00 0.306E+00 -.155E+00   -.873E-04 -.517E-04 -.564E-04
   0.902E+01 -.175E+02 -.430E+02   -.901E+01 0.174E+02 0.434E+02   -.202E-01 0.494E-01 -.350E+00   -.548E-04 0.463E-04 -.698E-04
   -.227E+01 -.195E+02 -.142E+02   0.233E+01 0.194E+02 0.144E+02   -.675E-01 0.483E-01 -.225E+00   0.137E-03 0.432E-04 0.552E-04
   -.138E+02 0.758E+01 0.261E+00   0.140E+02 -.778E+01 -.483E+00   -.183E+00 0.194E+00 0.233E+00   0.697E-04 0.345E-04 0.582E-04
   0.178E+02 -.882E+01 0.523E+02   -.180E+02 0.900E+01 -.525E+02   0.199E+00 -.179E+00 0.216E+00   0.322E-04 0.270E-04 -.623E-04
   -.236E+02 -.181E+02 -.174E+02   0.238E+02 0.183E+02 0.176E+02   -.208E+00 -.162E+00 -.164E+00   0.537E-04 -.442E-05 -.159E-03
   -.153E+02 -.192E+02 -.285E+02   0.155E+02 0.193E+02 0.287E+02   -.167E+00 -.135E+00 -.185E+00   -.211E-04 -.428E-04 0.127E-03
   0.250E+02 0.132E+02 -.160E+02   -.252E+02 -.133E+02 0.162E+02   0.184E+00 0.126E+00 -.156E+00   -.518E-04 -.492E-04 -.730E-04
   0.127E+02 0.233E+02 -.263E+02   -.130E+02 -.235E+02 0.266E+02   0.164E+00 0.198E+00 -.274E+00   0.179E-03 -.449E-04 0.215E-04
   -.220E+02 -.150E+02 0.210E+02   0.222E+02 0.152E+02 -.212E+02   -.199E+00 -.175E+00 0.264E+00   0.486E-04 0.228E-04 0.942E-04
   -.138E+02 -.330E+02 0.256E+02   0.140E+02 0.332E+02 -.258E+02   -.147E+00 -.152E+00 0.236E+00   -.160E-03 -.587E-04 -.491E-04
   0.209E+02 0.275E+02 0.209E+02   -.210E+02 -.277E+02 -.211E+02   0.190E+00 0.124E+00 0.177E+00   -.929E-04 -.199E-04 0.129E-03
   0.147E+02 0.210E+02 0.326E+02   -.149E+02 -.212E+02 -.328E+02   0.178E+00 0.205E+00 0.243E+00   0.536E-04 -.538E-04 -.966E-04
   0.343E+02 -.142E+02 -.299E+02   -.346E+02 0.144E+02 0.303E+02   0.324E+00 -.170E+00 -.334E+00   -.115E-04 0.116E-04 -.769E-04
   0.108E+02 -.214E+02 -.181E+02   -.109E+02 0.215E+02 0.184E+02   -.729E+00 -.541E-01 -.131E+01   0.182E-03 -.311E-04 0.942E-05
   -.375E+02 0.200E+02 -.354E+02   0.377E+02 -.202E+02 0.354E+02   -.766E+00 0.107E+00 0.851E+00   0.610E-05 0.801E-04 -.157E-03
   -.162E+02 0.130E+02 -.351E+02   0.164E+02 -.132E+02 0.353E+02   -.219E+00 0.189E+00 -.170E+00   0.457E-04 0.917E-04 0.178E-03
   -.184E+03 0.158E+02 0.278E+02   0.189E+03 -.158E+02 -.287E+02   0.228E+01 -.112E+00 -.428E+00   -.269E-03 0.252E-04 -.415E-04
 -----------------------------------------------------------------------------------------------
   -.175E+02 -.259E+00 -.888E-01   -.568E-13 0.711E-13 -.284E-13   0.174E+02 0.217E+00 0.680E-01   0.100E-02 -.135E-03 0.334E-03


 POSITION                                       TOTAL-FORCE (eV/Angst)
 -----------------------------------------------------------------------------------
      0.51589      2.82192      3.76203        -0.007828     -0.057853      0.011922
      0.48694      2.79991     12.04325        -0.051785     -0.044754      0.019730
      3.85728      8.98721      7.90050         0.052815      0.171832      0.030629
     -4.85501      8.85135      7.90275         0.038256      0.000031     -0.006004
     -3.73587      2.85696      8.15969         0.051215      0.023124     -0.011868
      4.82643      2.88424      8.21652        -0.037723      0.009832     -0.017675
     -0.55416      8.84277     12.24569        -0.006933      0.006006     -0.039598
     -0.53476      8.87598      4.12811        -0.032027      0.030916      0.020387
     -8.44862     11.71982      8.03861         0.002927     -0.005736     -0.008545
      0.00378      0.00289      8.03452        -0.022994     -0.010755      0.008590
     -4.23470      0.01611     12.04795         0.020782      0.010085     -0.004405
     -4.23293     11.72133      4.02483        -0.001667     -0.024125      0.015351
     -4.14431      5.83997     12.00306         0.416446     -0.095264     -0.098300
     -4.18808      5.87549      4.05961         0.231356      0.140872      0.427957
     -0.00059      5.86678     16.07345        -0.027307      0.009012     -0.046324
     -0.12178      5.87623      8.02880        -5.762692      0.007044      1.018861
     -4.20240      8.77983     11.57856        -0.028325     -0.032968      0.013216
      4.27096      8.77403     11.52179         0.000007     -0.022139     -0.023150
     -0.01348      2.93000     15.64456        -0.002274      0.009462      0.004607
     -0.05993      2.97452      7.45517        -0.074189     -0.300229     -0.034791
     -0.03372      8.78661      0.49907        -0.002522     -0.010514      0.012655
      0.21600      8.76340      8.58374        -0.082768      0.355282      0.070131
      4.10979      2.96053      4.58613        -0.014665      0.014117      0.001676
     -4.29372      2.94864      4.49795        -0.016725      0.024295     -0.008415
     -5.94094      5.47285      9.64209        -0.011539      0.002795      0.025750
      1.68704      6.23624     13.59888         0.011008     -0.013164     -0.028492
     -1.74039      0.41317     10.43733        -0.022619      0.003663      0.029972
     -1.74629      0.33570      2.40660         0.010459      0.005951     -0.000187
      5.99452     11.43756      6.39773         0.010182      0.020845      0.003159
     -2.50908     11.27630      6.44600        -0.024801     -0.002310     -0.031976
     -5.92895      0.37322      9.62329        -0.010007     -0.006692     -0.001330
      2.51093      0.43756      9.63144         0.032143      0.029147      0.030506
      1.70720     11.34125      5.60409         0.018620     -0.031365     -0.035566
      1.71081     11.31002     13.65164        -0.005940      0.005960      0.002198
      5.86629      6.22911      6.48285         0.086651     -0.000582     -0.003548
     -2.56660      6.33144      6.48716        -0.772329     -0.001534     -0.957634
     -1.62530      5.41702     10.48076        -0.668299     -0.023215      0.863870
     -1.67536      5.48002      2.48610         0.001312      0.008898      0.012133
      2.13949      5.88407      7.61907         6.703776     -0.205971     -1.265490
 -----------------------------------------------------------------------------------
    total drift:                               -0.022122     -0.042190     -0.020428


--------------------------------------------------------------------------------------------------------



  FREE ENERGIE OF THE ION-ELECTRON SYSTEM (eV)
  ---------------------------------------------------
  free  energy   TOTEN  =     -1407.98118858 eV

  energy  without entropy=    -1407.98118858  energy(sigma->0) =    -1407.98118858



--------------------------------------------------------------------------------------------------------


    POTLOK:  cpu time    1.4341: real time    1.4341


--------------------------------------------------------------------------------------------------------


 stress matrix after NEB project (eV)
      8.46512      0.52199     -2.68457
      0.52200     -2.90667     -0.36693
     -2.68462     -0.36681     -5.54664
  FORCES: max atom, RMS     6.825284    1.470247
  FORCE total and by dimension    9.181688    6.703776
  Stress total and by dimension   11.229449    8.465121
     LOOP+:  cpu time  489.2816: real time  490.2016
    4ORBIT:  cpu time    0.0000: real time    0.0000



 total charge     

# of ion       s       p       d       tot
------------------------------------------
    1        1.786   4.717   0.018   6.521
    2        1.786   4.717   0.018   6.521
    3        1.787   4.718   0.021   6.525
    4        1.786   4.717   0.018   6.521
    5        1.785   4.716   0.017   6.519
    6        1.785   4.716   0.018   6.519
    7        1.785   4.716   0.018   6.520
    8        1.785   4.716   0.017   6.518
    9        1.554   0.422   9.835  11.811
   10        1.554   0.410   9.832  11.796
   11        1.554   0.416   9.834  11.803
   12        1.554   0.415   9.833  11.802
   13        1.536   0.427   9.829  11.792
   14        1.530   0.438   9.829  11.797
   15        1.553   0.412   9.833  11.798
   16        1.526   0.649   9.870  12.045
   17        1.614   3.280   0.006   4.901
   18        1.615   3.282   0.006   4.903
   19        1.615   3.286   0.007   4.908
   20        1.615   3.283   0.006   4.904
   21        1.615   3.285   0.007   4.906
   22        1.614   3.284   0.007   4.905
   23        1.615   3.281   0.006   4.902
   24        1.614   3.282   0.006   4.903
   25        1.614   3.277   0.006   4.898
   26        1.614   3.276   0.006   4.895
   27        1.614   3.281   0.006   4.901
   28        1.614   3.284   0.006   4.904
   29        1.614   3.286   0.006   4.906
   30        1.614   3.280   0.006   4.899
   31        1.614   3.284   0.006   4.905
   32        1.614   3.281   0.006   4.901
   33        1.614   3.282   0.006   4.902
   34        1.614   3.284   0.006   4.904
   35        1.614   3.277   0.006   4.897
   36        1.620   3.259   0.009   4.888
   37        1.619   3.266   0.008   4.893
   38        1.614   3.279   0.006   4.899
   39        1.628   3.354   0.030   5.012
--------------------------------------------------
tot         63.798 116.833  79.011 259.643


 total amount of memory used by VASP MPI-rank0    60649. kBytes
=======================================================================

   base      :      30000. kBytes
   nonlr-proj:       6484. kBytes
   fftplans  :       8423. kBytes
   grid      :       7465. kBytes
   one-center:         77. kBytes
   wavefun   :       8200. kBytes

  
  
 General timing and accounting informations for this job:
 ========================================================
  
                  Total CPU time used (sec):      501.646
                            User time (sec):      500.119
                          System time (sec):        1.528
                         Elapsed time (sec):      503.388
  
                   Maximum memory used (kb):       78376.
                   Average memory used (kb):           0.
  
                          Minor page faults:        20867
                          Major page faults:            1
                 Voluntary context switches:         2317
