<?xml version="1.0" encoding="ISO-8859-1"?>
<modeling>
 <generator>
  <i name="program" type="string">vasp </i>
  <i name="version" type="string">5.4.4.18Apr17-6-g9f103f2a35  </i>
  <i name="subversion" type="string">(build Jun 22 2020 09:27:21) complex            parallel </i>
  <i name="platform" type="string">tx2_gcc-7.3_libsci-18.07_cray-fftw-3.3.8 </i>
  <i name="date" type="string">2021 10 12 </i>
  <i name="time" type="string">05:27:33 </i>
 </generator>
 <incar>
  <i type="string" name="SYSTEM"> CsPbBr3 cubic bulk</i>
  <i type="string" name="PREC">accurate</i>
  <i type="string" name="ALGO"> NORMAL   ! Electronic minimisation algo</i>
  <i type="logical" name="ADDGRID"> T  </i>
  <i type="int" name="ISPIN">     1</i>
  <i type="int" name="NELM">   200</i>
  <i type="int" name="IBRION">     2</i>
  <i name="EDIFF">      0.00000100</i>
  <i name="EDIFFG">     -0.01000000</i>
  <i type="int" name="NSW">     0</i>
  <i type="int" name="ISIF">     2</i>
  <i type="int" name="ISYM">     0</i>
  <i name="ENCUT">    300.00000000</i>
  <i name="POTIM">      0.50000000</i>
  <i name="NUPDOWN">      0.00000000</i>
  <i name="NELECT">    344.00000000</i>
  <i type="string" name="LREAL"> AUTO</i>
  <i type="int" name="ISMEAR">     0</i>
  <i name="SIGMA">      0.01000000</i>
  <i type="logical" name="LWAVE"> F  </i>
  <i type="logical" name="LCHARG"> F  </i>
  <i type="logical" name="LVHAR"> T  </i>
  <i type="int" name="LORBIT">    10</i>
  <i type="logical" name="LASPH"> T  </i>
  <v type="int" name="KPOINT_BSE">    -1     0     0     0</v>
  <i type="int" name="NELM">   200</i>
  <i type="string" name="METAGGA"> SCAN       ! PBE exchange-correlation</i>
  <i type="logical" name="LASPH"> T  </i>
 </incar>
 <structure name="primitive_cell" >
  <crystal>
   <varray name="basis" >
    <v>       8.45648900       0.00000000       8.04030100 </v>
    <v>       0.00000000      11.72984700       0.00000000 </v>
    <v>      -8.45648900       0.00000000       8.04030100 </v>
   </varray>
   <i name="volume">   1595.08833419 </i>
   <varray name="rec_basis" >
    <v>       0.05912619      -0.00000000       0.06218673 </v>
    <v>       0.00000000       0.08525260      -0.00000000 </v>
    <v>      -0.05912619       0.00000000       0.06218673 </v>
   </varray>
  </crystal>
  <varray name="positions" >
   <v>       0.26445100       0.24057600       0.20344600 </v>
   <v>       0.04640700       0.02861900       0.25291000 </v>
   <v>       0.05554500       0.46718600       0.25366000 </v>
   <v>      -0.47180700       0.25239300       0.04220000 </v>
   <v>       0.46006900       0.25358600       0.46715600 </v>
   <v>       0.24788500       0.03181800      -0.05100300 </v>
   <v>       0.44944000      -0.03312900       0.24756000 </v>
   <v>       0.24834500       0.46657500      -0.04912500 </v>
   <v>      -0.02791300       0.24979000      -0.02631900 </v>
   <v>       0.49884100       0.00137300      -0.00039600 </v>
   <v>       0.00036000      -0.00085500      -0.00057000 </v>
   <v>      -0.49860600       0.49787300      -0.00853200 </v>
   <v>       0.02584100       0.25137900      -0.46641600 </v>
   <v>      -0.00048000      -0.49984200      -0.00041000 </v>
   <v>       0.49986400       0.00024600       0.49941700 </v>
   <v>      -0.39969500      -0.49836800       0.34730500 </v>
   <v>       0.25250300      -0.03866600      -0.45079200 </v>
   <v>       0.49208400      -0.49903600      -0.49351500 </v>
   <v>       0.25166200      -0.46022800      -0.44483100 </v>
   <v>      -0.20367300       0.24588900       0.22559000 </v>
   <v>       0.00001400      -0.00072600      -0.49943200 </v>
   <v>       0.28653700       0.24356300      -0.27168800 </v>
   <v>       0.00482900      -0.49909900      -0.49992100 </v>
   <v>       0.22509500      -0.24330000       0.28833200 </v>
   <v>      -0.25259000       0.03730300       0.45048600 </v>
   <v>       0.02904200      -0.25091900       0.03302900 </v>
   <v>      -0.45383900       0.03522400      -0.24803400 </v>
   <v>      -0.24771300      -0.02491800       0.04342100 </v>
   <v>       0.47156100      -0.25149700      -0.03149500 </v>
   <v>      -0.25000100      -0.46895200       0.05629600 </v>
   <v>      -0.44433400       0.46181500      -0.25213800 </v>
   <v>      -0.04989600      -0.03579100      -0.25220300 </v>
   <v>      -0.05458200      -0.46834400      -0.25407800 </v>
   <v>      -0.03097200      -0.25199100       0.46397700 </v>
   <v>      -0.45343400      -0.25289700      -0.47897700 </v>
   <v>       0.20438800      -0.24539900      -0.22149600 </v>
   <v>      -0.28062700      -0.23381700       0.26324000 </v>
   <v>      -0.22227900       0.23870000      -0.27986100 </v>
   <v>      -0.27124600      -0.24613100      -0.20571500 </v>
  </varray>
 </structure>
 <varray name="primitive_index" >
  <v type="int" >        1 </v>
  <v type="int" >       28 </v>
  <v type="int" >       38 </v>
  <v type="int" >       23 </v>
  <v type="int" >       20 </v>
  <v type="int" >       31 </v>
  <v type="int" >       33 </v>
  <v type="int" >       25 </v>
  <v type="int" >       19 </v>
  <v type="int" >       11 </v>
  <v type="int" >        9 </v>
  <v type="int" >       13 </v>
  <v type="int" >       24 </v>
  <v type="int" >       15 </v>
  <v type="int" >       10 </v>
  <v type="int" >       39 </v>
  <v type="int" >       30 </v>
  <v type="int" >       16 </v>
  <v type="int" >       36 </v>
  <v type="int" >        6 </v>
  <v type="int" >       12 </v>
  <v type="int" >        5 </v>
  <v type="int" >       14 </v>
  <v type="int" >        8 </v>
  <v type="int" >       32 </v>
  <v type="int" >       21 </v>
  <v type="int" >       27 </v>
  <v type="int" >       29 </v>
  <v type="int" >       17 </v>
  <v type="int" >       35 </v>
  <v type="int" >       37 </v>
  <v type="int" >       34 </v>
  <v type="int" >       26 </v>
  <v type="int" >       18 </v>
  <v type="int" >       22 </v>
  <v type="int" >        4 </v>
  <v type="int" >        3 </v>
  <v type="int" >        2 </v>
  <v type="int" >        7 </v>
 </varray>
 <kpoints>
  <generation param="Gamma">
   <v type="int" name="divisions">       2        2        2 </v>
   <v name="usershift">      0.00000000       0.00000000       0.00000000 </v>
   <v name="genvec1">      0.50000000       0.00000000       0.00000000 </v>
   <v name="genvec2">      0.00000000       0.50000000       0.00000000 </v>
   <v name="genvec3">      0.00000000       0.00000000       0.50000000 </v>
   <v name="shift">      0.00000000       0.00000000       0.00000000 </v>
  </generation>
  <varray name="kpointlist" >
   <v>       0.00000000       0.00000000       0.00000000 </v>
   <v>       0.50000000       0.00000000       0.00000000 </v>
   <v>       0.00000000       0.50000000       0.00000000 </v>
   <v>       0.50000000       0.50000000       0.00000000 </v>
   <v>       0.00000000       0.00000000       0.50000000 </v>
   <v>       0.50000000       0.00000000       0.50000000 </v>
   <v>       0.00000000       0.50000000       0.50000000 </v>
   <v>       0.50000000       0.50000000       0.50000000 </v>
  </varray>
  <varray name="weights" >
   <v>       0.12500000 </v>
   <v>       0.12500000 </v>
   <v>       0.12500000 </v>
   <v>       0.12500000 </v>
   <v>       0.12500000 </v>
   <v>       0.12500000 </v>
   <v>       0.12500000 </v>
   <v>       0.12500000 </v>
  </varray>
 </kpoints>
 <parameters>
  <separator name="general" >
   <i type="string" name="SYSTEM">CsPbBr3 cubic bulk</i>
   <i type="logical" name="LCOMPAT"> F  </i>
  </separator>
  <separator name="electronic" >
   <i type="string" name="PREC">accura</i>
   <i name="ENMAX">    300.00000000</i>
   <i name="ENAUG">    503.85200000</i>
   <i name="EDIFF">      0.00000100</i>
   <i type="int" name="IALGO">    38</i>
   <i type="int" name="IWAVPR">    10</i>
   <i type="int" name="NBANDS">   208</i>
   <i name="NELECT">    344.00000000</i>
   <i type="int" name="TURBO">     0</i>
   <i type="int" name="IRESTART">     0</i>
   <i type="int" name="NREBOOT">     0</i>
   <i type="int" name="NMIN">     0</i>
   <i name="EREF">      0.00000000</i>
   <separator name="electronic smearing" >
    <i type="int" name="ISMEAR">     0</i>
    <i name="SIGMA">      0.01000000</i>
    <i name="KSPACING">      0.50000000</i>
    <i type="logical" name="KGAMMA"> T  </i>
   </separator>
   <separator name="electronic projectors" >
    <i type="logical" name="LREAL"> T  </i>
    <v name="ROPT">     -0.00025000     -0.00025000     -0.00025000</v>
    <i type="int" name="LMAXPAW">  -100</i>
    <i type="int" name="LMAXMIX">     2</i>
    <i type="logical" name="NLSPLINE"> F  </i>
   </separator>
   <separator name="electronic startup" >
    <i type="int" name="ISTART">     0</i>
    <i type="int" name="ICHARG">     2</i>
    <i type="int" name="INIWAV">     1</i>
   </separator>
   <separator name="electronic spin" >
    <i type="int" name="ISPIN">     1</i>
    <i type="logical" name="LNONCOLLINEAR"> F  </i>
    <v name="MAGMOM">      0.00000000      0.00000000      0.00000000      0.00000000      0.00000000      0.00000000      0.00000000      0.00000000      0.00000000      0.00000000      0.00000000      0.00000000      0.00000000      0.00000000      0.00000000      0.00000000      0.00000000      0.00000000      0.00000000      0.00000000
      0.00000000      0.00000000      0.00000000      0.00000000      0.00000000      0.00000000      0.00000000      0.00000000      0.00000000      0.00000000      0.00000000      0.00000000      0.00000000      0.00000000      0.00000000      0.00000000      0.00000000      0.00000000      0.00000000</v>
    <i name="NUPDOWN">      0.00000000</i>
    <i type="logical" name="LSORBIT"> F  </i>
    <v name="SAXIS">      0.00000000      0.00000000      1.00000000</v>
    <i type="logical" name="LSPIRAL"> F  </i>
    <v name="QSPIRAL">      0.00000000      0.00000000      0.00000000</v>
    <i type="logical" name="LZEROZ"> F  </i>
   </separator>
   <separator name="electronic exchange-correlation" >
    <i type="logical" name="LASPH"> T  </i>
    <i type="logical" name="LMETAGGA"> F  </i>
   </separator>
   <separator name="electronic convergence" >
    <i type="int" name="NELM">   200</i>
    <i type="int" name="NELMDL">    -5</i>
    <i type="int" name="NELMIN">     2</i>
    <i name="ENINI">    300.00000000</i>
    <separator name="electronic convergence detail" >
     <i type="logical" name="LDIAG"> T  </i>
     <i type="logical" name="LSUBROT"> F  </i>
     <i name="WEIMIN">      0.00000000</i>
     <i name="EBREAK">      0.00000000</i>
     <i name="DEPER">      0.30000000</i>
     <i type="int" name="NRMM">     4</i>
     <i name="TIME">      0.40000000</i>
    </separator>
   </separator>
   <separator name="electronic mixer" >
    <i name="AMIX">      0.40000000</i>
    <i name="BMIX">      1.00000000</i>
    <i name="AMIN">      0.10000000</i>
    <i name="AMIX_MAG">      1.60000000</i>
    <i name="BMIX_MAG">      1.00000000</i>
    <separator name="electronic mixer details" >
     <i type="int" name="IMIX">     4</i>
     <i type="logical" name="MIXFIRST"> F  </i>
     <i type="int" name="MAXMIX">   -45</i>
     <i name="WC">    100.00000000</i>
     <i type="int" name="INIMIX">     1</i>
     <i type="int" name="MIXPRE">     1</i>
     <i type="int" name="MREMOVE">     5</i>
    </separator>
   </separator>
   <separator name="electronic dipolcorrection" >
    <i type="logical" name="LDIPOL"> F  </i>
    <i type="logical" name="LMONO"> F  </i>
    <i type="int" name="IDIPOL">     0</i>
    <i name="EPSILON">      1.00000000</i>
    <v name="DIPOL">   -100.00000000   -100.00000000   -100.00000000</v>
    <i name="EFIELD">      0.00000000</i>
   </separator>
  </separator>
  <separator name="grids" >
   <i type="int" name="NGX">    70</i>
   <i type="int" name="NGY">    70</i>
   <i type="int" name="NGZ">    70</i>
   <i type="int" name="NGXF">   140</i>
   <i type="int" name="NGYF">   140</i>
   <i type="int" name="NGZF">   140</i>
   <i type="logical" name="ADDGRID"> T  </i>
  </separator>
  <separator name="ionic" >
   <i type="int" name="NSW">     0</i>
   <i type="int" name="IBRION">    -1</i>
   <i type="int" name="MDALGO">     0</i>
   <i type="int" name="ISIF">     2</i>
   <i name="PSTRESS">      0.00000000</i>
   <i name="EDIFFG">     -0.01000000</i>
   <i type="int" name="NFREE">     1</i>
   <i name="POTIM">      0.50000000</i>
   <i name="SMASS">     -3.00000000</i>
   <i name="SCALEE">      1.00000000</i>
  </separator>
  <separator name="ionic md" >
   <i name="TEBEG">      0.00010000</i>
   <i name="TEEND">      0.00010000</i>
   <i type="int" name="NBLOCK">     1</i>
   <i type="int" name="KBLOCK">     1</i>
   <i type="int" name="NPACO">   256</i>
   <i name="APACO">     16.00000000</i>
  </separator>
  <separator name="symmetry" >
   <i type="int" name="ISYM">     0</i>
   <i name="SYMPREC">      0.00001000</i>
  </separator>
  <separator name="dos" >
   <i type="int" name="LORBIT">    10</i>
   <v name="RWIGS">     -1.00000000     -1.00000000     -1.00000000</v>
   <i type="int" name="NEDOS">   301</i>
   <i name="EMIN">     10.00000000</i>
   <i name="EMAX">    -10.00000000</i>
   <i name="EFERMI">      0.00000000</i>
  </separator>
  <separator name="writing" >
   <i type="int" name="NWRITE">     2</i>
   <i type="logical" name="LWAVE"> F  </i>
   <i type="logical" name="LDOWNSAMPLE"> F  </i>
   <i type="logical" name="LCHARG"> F  </i>
   <i type="logical" name="LPARD"> F  </i>
   <i type="logical" name="LVTOT"> F  </i>
   <i type="logical" name="LVHAR"> T  </i>
   <i type="logical" name="LELF"> F  </i>
   <i type="logical" name="LOPTICS"> F  </i>
   <v name="STM">      0.00000000      0.00000000      0.00000000      0.00000000      0.00000000      0.00000000      0.00000000</v>
  </separator>
  <separator name="performance" >
   <i type="int" name="NPAR">     8</i>
   <i type="int" name="NSIM">     4</i>
   <i type="int" name="NBLK">    -1</i>
   <i type="logical" name="LPLANE"> T  </i>
   <i type="logical" name="LSCALAPACK"> T  </i>
   <i type="logical" name="LSCAAWARE"> F  </i>
   <i type="logical" name="LSCALU"> F  </i>
   <i type="logical" name="LASYNC"> F  </i>
   <i type="logical" name="LORBITALREAL"> F  </i>
  </separator>
  <separator name="miscellaneous" >
   <i type="int" name="IDIOT">     3</i>
   <i type="int" name="ISPECIAL">     0</i>
   <i type="logical" name="LMUSIC"> F  </i>
   <v name="POMASS">    132.90000000    207.20000000     79.90400000</v>
   <v name="DARWINR">      0.00000000      0.00000000      0.00000000</v>
   <v name="DARWINV">      1.00000000      1.00000000      1.00000000</v>
   <i type="logical" name="LCORR"> T  </i>
  </separator>
  <i type="logical" name="GGA_COMPAT"> T  </i>
  <i type="logical" name="LBERRY"> F  </i>
  <i type="int" name="ICORELEVEL">     0</i>
  <i type="logical" name="LDAU"> F  </i>
  <i type="int" name="I_CONSTRAINED_M">     0</i>
  <separator name="electronic exchange-correlation" >
   <i type="string" name="GGA">--</i>
   <i type="int" name="VOSKOWN">     0</i>
   <i type="logical" name="LHFCALC"> F  </i>
   <i type="string" name="PRECFOCK"></i>
   <i type="logical" name="LSYMGRAD"> F  </i>
   <i type="logical" name="LHFONE"> F  </i>
   <i type="logical" name="LRHFCALC"> F  </i>
   <i type="logical" name="LTHOMAS"> F  </i>
   <i type="logical" name="LMODELHF"> F  </i>
   <i name="ENCUT4O">     -1.00000000</i>
   <i type="int" name="EXXOEP">     0</i>
   <i type="int" name="FOURORBIT">     0</i>
   <i name="AEXX">      0.00000000</i>
   <i name="HFALPHA">      0.00000000</i>
   <i name="MCALPHA">      0.00000000</i>
   <i name="ALDAX">      1.00000000</i>
   <i name="AGGAX">      1.00000000</i>
   <i name="ALDAC">      1.00000000</i>
   <i name="AGGAC">      1.00000000</i>
   <i type="int" name="NKREDX">     1</i>
   <i type="int" name="NKREDY">     1</i>
   <i type="int" name="NKREDZ">     1</i>
   <i type="logical" name="SHIFTRED"> F  </i>
   <i type="logical" name="ODDONLY"> F  </i>
   <i type="logical" name="EVENONLY"> F  </i>
   <i type="int" name="LMAXFOCK">     0</i>
   <i type="int" name="NMAXFOCKAE">     0</i>
   <i type="logical" name="LFOCKAEDFT"> F  </i>
   <i name="HFSCREEN">      0.00000000</i>
   <i name="HFSCREENC">      0.00000000</i>
   <i type="int" name="NBANDSGWLOW">     0</i>
  </separator>
  <separator name="vdW DFT" >
   <i type="logical" name="LUSE_VDW"> F  </i>
   <i name="Zab_VDW">     -0.84910000</i>
   <i name="PARAM1">      0.12340000</i>
   <i name="PARAM2">      1.00000000</i>
   <i name="PARAM3">      0.00000000</i>
  </separator>
  <separator name="model GW" >
   <i type="int" name="MODEL_GW">     0</i>
   <i name="MODEL_EPS0">     24.53982053</i>
   <i name="MODEL_ALPHA">      1.00000000</i>
  </separator>
  <separator name="linear response parameters" >
   <i type="logical" name="LEPSILON"> F  </i>
   <i type="logical" name="LRPA"> F  </i>
   <i type="logical" name="LNABLA"> F  </i>
   <i type="logical" name="LVEL"> F  </i>
   <i type="int" name="KINTER">     0</i>
   <i name="CSHIFT">      0.10000000</i>
   <i name="OMEGAMAX">     -1.00000000</i>
   <i name="DEG_THRESHOLD">      0.00200000</i>
   <i name="RTIME">     -0.10000000</i>
   <i name="WPLASMAI">      0.00000000</i>
   <v name="DFIELD">      0.00000000      0.00000000      0.00000000</v>
   <v name="WPLASMA">      0.00000000      0.00000000      0.00000000      0.00000000      0.00000000      0.00000000      0.00000000      0.00000000      0.00000000</v>
  </separator>
  <separator name="orbital magnetization" >
   <i type="logical" name="NUCIND"> F  </i>
   <v name="MAGPOS">      0.00000000      0.00000000      0.00000000</v>
   <i type="logical" name="LNICSALL"> T  </i>
   <i type="logical" name="ORBITALMAG"> F  </i>
   <i type="logical" name="LMAGBLOCH"> F  </i>
   <i type="logical" name="LCHIMAG"> F  </i>
   <i type="logical" name="LGAUGE"> T  </i>
   <i type="int" name="MAGATOM">     0</i>
   <v name="MAGDIPOL">      0.00000000      0.00000000      0.00000000</v>
   <v name="AVECCONST">      0.00000000      0.00000000      0.00000000</v>
  </separator>
  <separator name="response functions" >
   <i type="logical" name="LADDER"> F  </i>
   <i type="logical" name="LRPAFORCE"> F  </i>
   <i type="logical" name="LFXC"> F  </i>
   <i type="logical" name="LHARTREE"> T  </i>
   <i type="int" name="IBSE">     0</i>
   <v type="int" name="KPOINT">    -1     0     0     0</v>
   <i type="logical" name="LTCTE"> F  </i>
   <i type="logical" name="LTETE"> F  </i>
   <i type="logical" name="LTRIPLET"> F  </i>
   <i type="logical" name="LFXCEPS"> F  </i>
   <i type="logical" name="LFXHEG"> F  </i>
   <i type="int" name="NATURALO">     2</i>
   <i type="logical" name="L2ORDER"> F  </i>
   <i type="logical" name="LMP2LT"> F  </i>
   <i type="logical" name="LUSEW"> F  </i>
   <i name="ENCUTGW">     -2.00000000</i>
   <i name="ENCUTGWSOFT">     -2.00000000</i>
   <i name="ENCUTLF">     -1.00000000</i>
   <i type="int" name="LMAXMP2">    -1</i>
   <i name="SCISSOR">      0.00000000</i>
   <i type="int" name="NOMEGA">     0</i>
   <i type="int" name="NOMEGAR">     0</i>
   <i type="int" name="NBANDSGW">    -1</i>
   <i type="int" name="NBANDSO">    -1</i>
   <i type="int" name="NBANDSV">    -1</i>
   <i type="int" name="NELM">   200</i>
   <i type="int" name="NELMHF">     1</i>
   <i type="int" name="DIM">     3</i>
   <i type="int" name="ANTIRES">     0</i>
   <i name="OMEGAMAX">    -30.00000000</i>
   <i name="OMEGAMIN">    -30.00000000</i>
   <i name="OMEGATL">   -200.00000000</i>
   <i type="int" name="OMEGAGRID">   140</i>
   <i name="CSHIFT">     -0.10000000</i>
   <i type="logical" name="SELFENERGY"> F  </i>
   <i type="logical" name="LSPECTRAL"> F  </i>
   <i type="logical" name="LSPECTRALGW"> F  </i>
   <i type="logical" name="LSINGLES"> F  </i>
   <i type="logical" name="LFERMIGW"> F  </i>
   <i type="logical" name="ODDONLYGW"> F  </i>
   <i type="logical" name="EVENONLYGW"> F  </i>
   <i type="int" name="NKREDLFX">     1</i>
   <i type="int" name="NKREDLFY">     1</i>
   <i type="int" name="NKREDLFZ">     1</i>
   <i type="int" name="MAXMEM">  2800</i>
   <i type="int" name="TELESCOPE">     0</i>
   <i type="int" name="TAUPAR">     1</i>
   <i type="int" name="OMEGAPAR">    -1</i>
   <i name="LAMBDA">      1.00000000</i>
  </separator>
  <separator name="External order field" >
   <i name="OFIELD_KAPPA">      0.00000000</i>
   <v name="OFIELD_K">      0.00000000      0.00000000      0.00000000</v>
   <i name="OFIELD_Q6_NEAR">      0.00000000</i>
   <i name="OFIELD_Q6_FAR">      0.00000000</i>
   <i name="OFIELD_A">      0.00000000</i>
  </separator>
 </parameters>
 <atominfo>
  <atoms>      39 </atoms>
  <types>       3 </types>
  <array name="atoms" >
   <dimension dim="1">ion</dimension>
   <field type="string">element</field>
   <field type="int">atomtype</field>
   <set>
    <rc><c>Cs</c><c>   1</c></rc>
    <rc><c>Cs</c><c>   1</c></rc>
    <rc><c>Cs</c><c>   1</c></rc>
    <rc><c>Cs</c><c>   1</c></rc>
    <rc><c>Cs</c><c>   1</c></rc>
    <rc><c>Cs</c><c>   1</c></rc>
    <rc><c>Cs</c><c>   1</c></rc>
    <rc><c>Cs</c><c>   1</c></rc>
    <rc><c>Pb</c><c>   2</c></rc>
    <rc><c>Pb</c><c>   2</c></rc>
    <rc><c>Pb</c><c>   2</c></rc>
    <rc><c>Pb</c><c>   2</c></rc>
    <rc><c>Pb</c><c>   2</c></rc>
    <rc><c>Pb</c><c>   2</c></rc>
    <rc><c>Pb</c><c>   2</c></rc>
    <rc><c>Pb</c><c>   2</c></rc>
    <rc><c>Br</c><c>   3</c></rc>
    <rc><c>Br</c><c>   3</c></rc>
    <rc><c>Br</c><c>   3</c></rc>
    <rc><c>Br</c><c>   3</c></rc>
    <rc><c>Br</c><c>   3</c></rc>
    <rc><c>Br</c><c>   3</c></rc>
    <rc><c>Br</c><c>   3</c></rc>
    <rc><c>Br</c><c>   3</c></rc>
    <rc><c>Br</c><c>   3</c></rc>
    <rc><c>Br</c><c>   3</c></rc>
    <rc><c>Br</c><c>   3</c></rc>
    <rc><c>Br</c><c>   3</c></rc>
    <rc><c>Br</c><c>   3</c></rc>
    <rc><c>Br</c><c>   3</c></rc>
    <rc><c>Br</c><c>   3</c></rc>
    <rc><c>Br</c><c>   3</c></rc>
    <rc><c>Br</c><c>   3</c></rc>
    <rc><c>Br</c><c>   3</c></rc>
    <rc><c>Br</c><c>   3</c></rc>
    <rc><c>Br</c><c>   3</c></rc>
    <rc><c>Br</c><c>   3</c></rc>
    <rc><c>Br</c><c>   3</c></rc>
    <rc><c>Br</c><c>   3</c></rc>
   </set>
  </array>
  <array name="atomtypes" >
   <dimension dim="1">type</dimension>
   <field type="int">atomspertype</field>
   <field type="string">element</field>
   <field>mass</field>
   <field>valence</field>
   <field type="string">pseudopotential</field>
   <set>
    <rc><c>   8</c><c>Cs</c><c>    132.90000000</c><c>      9.00000000</c><c>  PAW_PBE Cs_sv 08Apr2002               </c></rc>
    <rc><c>   8</c><c>Pb</c><c>    207.20000000</c><c>     14.00000000</c><c>  PAW_PBE Pb_d 06Sep2000                </c></rc>
    <rc><c>  23</c><c>Br</c><c>     79.90400000</c><c>      7.00000000</c><c>  PAW_PBE Br 06Sep2000                  </c></rc>
   </set>
  </array>
 </atominfo>
 <structure name="initialpos" >
  <crystal>
   <varray name="basis" >
    <v>       8.45648900       0.00000000       8.04030100 </v>
    <v>       0.00000000      11.72984700       0.00000000 </v>
    <v>      -8.45648900       0.00000000       8.04030100 </v>
   </varray>
   <i name="volume">   1595.08833419 </i>
   <varray name="rec_basis" >
    <v>       0.05912619      -0.00000000       0.06218673 </v>
    <v>       0.00000000       0.08525260      -0.00000000 </v>
    <v>      -0.05912619       0.00000000       0.06218673 </v>
   </varray>
  </crystal>
  <varray name="positions" >
   <v>       0.26445100       0.24057600       0.20344600 </v>
   <v>       0.77772100       0.23870000       0.72013900 </v>
   <v>       0.71937300       0.76618300       0.26324000 </v>
   <v>       0.20438800       0.75460100       0.77850400 </v>
   <v>       0.28653700       0.24356300       0.72831200 </v>
   <v>       0.79632700       0.24588900       0.22559000 </v>
   <v>       0.72875400       0.75386900       0.79428500 </v>
   <v>       0.22509500       0.75670000       0.28833200 </v>
   <v>       0.00036000       0.99914500       0.99943000 </v>
   <v>       0.49986400       0.00024600       0.49941700 </v>
   <v>       0.49884100       0.00137300       0.99960400 </v>
   <v>       0.00001400       0.99927400       0.50056800 </v>
   <v>       0.50139400       0.49787300       0.99146800 </v>
   <v>       0.00482900       0.50090100       0.50007900 </v>
   <v>       0.99952000       0.50015800       0.99959000 </v>
   <v>       0.49208400       0.50096400       0.50648500 </v>
   <v>       0.47156100       0.74850300       0.96850500 </v>
   <v>       0.96902800       0.74800900       0.46397700 </v>
   <v>       0.97208700       0.24979000       0.97368100 </v>
   <v>       0.46006900       0.25358600       0.46715600 </v>
   <v>       0.02904200       0.74908100       0.03302900 </v>
   <v>       0.54656600       0.74710300       0.52102300 </v>
   <v>       0.52819300       0.25239300       0.04220000 </v>
   <v>       0.02584100       0.25137900       0.53358400 </v>
   <v>       0.24834500       0.46657500       0.95087500 </v>
   <v>       0.94541800       0.53165600       0.74592200 </v>
   <v>       0.54616100       0.03522400       0.75196600 </v>
   <v>       0.04640700       0.02861900       0.25291000 </v>
   <v>       0.75228700       0.97508200       0.04342100 </v>
   <v>       0.25250300       0.96133400       0.54920800 </v>
   <v>       0.24788500       0.03181800       0.94899700 </v>
   <v>       0.74741000       0.03730300       0.45048600 </v>
   <v>       0.44944000       0.96687100       0.24756000 </v>
   <v>       0.95010400       0.96420900       0.74779700 </v>
   <v>       0.74999900       0.53104800       0.05629600 </v>
   <v>       0.25166200       0.53977200       0.55516900 </v>
   <v>       0.55566600       0.46181500       0.74786200 </v>
   <v>       0.05554500       0.46718600       0.25366000 </v>
   <v>       0.60030500       0.50163200       0.34730500 </v>
  </varray>
 </structure>
 <calculation>
  <scstep>
   <time name="dav">   16.58   16.59</time>
   <time name="total">   18.05   18.05</time>
   <energy>
    <i name="alphaZ">    872.70583573 </i>
    <i name="ewald"> -17890.11055589 </i>
    <i name="hartreedc">  -7461.36549043 </i>
    <i name="XCdc">    908.68821789 </i>
    <i name="pawpsdc">  21345.28103884 </i>
    <i name="pawaedc"> -22405.85761495 </i>
    <i name="eentropy">     -0.00089502 </i>
    <i name="bandstr">   -246.01293697 </i>
    <i name="atom">  26212.11861568 </i>
    <i name="e_fr_energy">   1335.44621488 </i>
    <i name="e_wo_entrp">   1335.44710991 </i>
    <i name="e_0_energy">   1335.44666239 </i>
   </energy>
  </scstep>
  <scstep>
   <time name="dav">   18.37   18.44</time>
   <time name="total">   18.37   18.44</time>
   <energy>
    <i name="e_fr_energy">  -1111.30377572 </i>
    <i name="e_wo_entrp">  -1111.30377572 </i>
    <i name="e_0_energy">  -1111.30377572 </i>
   </energy>
  </scstep>
  <scstep>
   <time name="dav">   19.37   19.42</time>
   <time name="total">   19.37   19.42</time>
   <energy>
    <i name="e_fr_energy">  -1473.29649884 </i>
    <i name="e_wo_entrp">  -1473.29649884 </i>
    <i name="e_0_energy">  -1473.29649884 </i>
   </energy>
  </scstep>
  <scstep>
   <time name="dav">   17.87   17.90</time>
   <time name="total">   17.87   17.90</time>
   <energy>
    <i name="e_fr_energy">  -1485.36055292 </i>
    <i name="e_wo_entrp">  -1485.36055292 </i>
    <i name="e_0_energy">  -1485.36055292 </i>
   </energy>
  </scstep>
  <scstep>
   <time name="dav">   19.27   19.34</time>
   <time name="total">   21.98   22.05</time>
   <energy>
    <i name="e_fr_energy">  -1485.92289020 </i>
    <i name="e_wo_entrp">  -1485.92289020 </i>
    <i name="e_0_energy">  -1485.92289020 </i>
   </energy>
  </scstep>
  <scstep>
   <time name="dav">   19.03   19.03</time>
   <time name="total">   23.21   23.24</time>
   <energy>
    <i name="e_fr_energy">  -1408.26190247 </i>
    <i name="e_wo_entrp">  -1408.26190247 </i>
    <i name="e_0_energy">  -1408.26190247 </i>
   </energy>
  </scstep>
  <scstep>
   <time name="dav">   18.55   18.55</time>
   <time name="total">   22.71   22.75</time>
   <energy>
    <i name="e_fr_energy">  -1407.74857610 </i>
    <i name="e_wo_entrp">  -1407.74857610 </i>
    <i name="e_0_energy">  -1407.74857610 </i>
   </energy>
  </scstep>
  <scstep>
   <time name="dav">   18.50   18.51</time>
   <time name="total">   22.66   22.71</time>
   <energy>
    <i name="e_fr_energy">  -1407.91493991 </i>
    <i name="e_wo_entrp">  -1407.91493991 </i>
    <i name="e_0_energy">  -1407.91493991 </i>
   </energy>
  </scstep>
  <scstep>
   <time name="dav">   17.81   17.81</time>
   <time name="total">   21.96   22.02</time>
   <energy>
    <i name="e_fr_energy">  -1407.97366419 </i>
    <i name="e_wo_entrp">  -1407.97366419 </i>
    <i name="e_0_energy">  -1407.97366419 </i>
   </energy>
  </scstep>
  <scstep>
   <time name="dav">   20.20   20.20</time>
   <time name="total">   24.41   24.42</time>
   <energy>
    <i name="e_fr_energy">  -1407.97677623 </i>
    <i name="e_wo_entrp">  -1407.97677623 </i>
    <i name="e_0_energy">  -1407.97677623 </i>
   </energy>
  </scstep>
  <scstep>
   <time name="dav">   18.23   18.23</time>
   <time name="total">   22.42   22.46</time>
   <energy>
    <i name="e_fr_energy">  -1407.97933732 </i>
    <i name="e_wo_entrp">  -1407.97933732 </i>
    <i name="e_0_energy">  -1407.97933732 </i>
   </energy>
  </scstep>
  <scstep>
   <time name="dav">   17.15   17.15</time>
   <time name="total">   21.31   21.36</time>
   <energy>
    <i name="e_fr_energy">  -1407.98156463 </i>
    <i name="e_wo_entrp">  -1407.98156463 </i>
    <i name="e_0_energy">  -1407.98156463 </i>
   </energy>
  </scstep>
  <scstep>
   <time name="dav">   19.93   19.94</time>
   <time name="total">   24.10   24.16</time>
   <energy>
    <i name="e_fr_energy">  -1407.98113299 </i>
    <i name="e_wo_entrp">  -1407.98113299 </i>
    <i name="e_0_energy">  -1407.98113299 </i>
   </energy>
  </scstep>
  <scstep>
   <time name="dav">   17.89   17.89</time>
   <time name="total">   22.05   22.11</time>
   <energy>
    <i name="e_fr_energy">  -1407.98113996 </i>
    <i name="e_wo_entrp">  -1407.98113996 </i>
    <i name="e_0_energy">  -1407.98113996 </i>
   </energy>
  </scstep>
  <scstep>
   <time name="dav">   17.20   17.20</time>
   <time name="total">   21.39   21.43</time>
   <energy>
    <i name="e_fr_energy">  -1407.98114429 </i>
    <i name="e_wo_entrp">  -1407.98114429 </i>
    <i name="e_0_energy">  -1407.98114429 </i>
   </energy>
  </scstep>
  <scstep>
   <time name="dav">   18.47   18.47</time>
   <time name="total">   22.66   22.70</time>
   <energy>
    <i name="e_fr_energy">  -1407.98119666 </i>
    <i name="e_wo_entrp">  -1407.98119666 </i>
    <i name="e_0_energy">  -1407.98119666 </i>
   </energy>
  </scstep>
  <scstep>
   <time name="dav">   18.52   18.52</time>
   <time name="total">   22.68   22.75</time>
   <energy>
    <i name="e_fr_energy">  -1407.98119802 </i>
    <i name="e_wo_entrp">  -1407.98119802 </i>
    <i name="e_0_energy">  -1407.98119802 </i>
   </energy>
  </scstep>
  <scstep>
   <time name="dav">   14.46   14.46</time>
   <time name="total">   18.68   18.68</time>
   <energy>
    <i name="e_fr_energy">  -1407.98119489 </i>
    <i name="e_wo_entrp">  -1407.98119489 </i>
    <i name="e_0_energy">  -1407.98119489 </i>
   </energy>
  </scstep>
  <scstep>
   <time name="dav">   13.19   13.19</time>
   <time name="total">   17.36   17.40</time>
   <energy>
    <i name="e_fr_energy">  -1407.98118991 </i>
    <i name="e_wo_entrp">  -1407.98118991 </i>
    <i name="e_0_energy">  -1407.98118991 </i>
   </energy>
  </scstep>
  <scstep>
   <time name="dav">   12.72   12.72</time>
   <time name="total">   16.92   16.93</time>
   <energy>
    <i name="e_fr_energy">  -1407.98118879 </i>
    <i name="e_wo_entrp">  -1407.98118879 </i>
    <i name="e_0_energy">  -1407.98118879 </i>
   </energy>
  </scstep>
  <scstep>
   <time name="dav">   12.48   12.48</time>
   <time name="total">   13.93   13.99</time>
   <energy>
    <i name="alphaZ">    872.70583573 </i>
    <i name="ewald"> -17890.11055589 </i>
    <i name="hartreedc">  -7499.08888908 </i>
    <i name="XCdc">    944.42670682 </i>
    <i name="pawpsdc">  22940.21302800 </i>
    <i name="pawaedc"> -24000.41377370 </i>
    <i name="eentropy">     -0.00000000 </i>
    <i name="bandstr">  -2987.83215613 </i>
    <i name="atom">  26212.11861568 </i>
    <i name="e_fr_energy">  -1407.98118858 </i>
    <i name="e_wo_entrp">  -1407.98118858 </i>
    <i name="e_0_energy">  -1407.98118858 </i>
   </energy>
  </scstep>
  <structure>
   <crystal>
    <varray name="basis" >
     <v>       8.45648900       0.00000000       8.04030100 </v>
     <v>       0.00000000      11.72984700       0.00000000 </v>
     <v>      -8.45648900       0.00000000       8.04030100 </v>
    </varray>
    <i name="volume">   1595.08833419 </i>
    <varray name="rec_basis" >
     <v>       0.05912619      -0.00000000       0.06218673 </v>
     <v>       0.00000000       0.08525260      -0.00000000 </v>
     <v>      -0.05912619       0.00000000       0.06218673 </v>
    </varray>
   </crystal>
   <varray name="positions" >
    <v>       0.26445100       0.24057600       0.20344600 </v>
    <v>       0.77772100       0.23870000       0.72013900 </v>
    <v>       0.71937300       0.76618300       0.26324000 </v>
    <v>       0.20438800       0.75460100       0.77850400 </v>
    <v>       0.28653700       0.24356300       0.72831200 </v>
    <v>       0.79632700       0.24588900       0.22559000 </v>
    <v>       0.72875400       0.75386900       0.79428500 </v>
    <v>       0.22509500       0.75670000       0.28833200 </v>
    <v>       0.00036000       0.99914500       0.99943000 </v>
    <v>       0.49986400       0.00024600       0.49941700 </v>
    <v>       0.49884100       0.00137300       0.99960400 </v>
    <v>       0.00001400       0.99927400       0.50056800 </v>
    <v>       0.50139400       0.49787300       0.99146800 </v>
    <v>       0.00482900       0.50090100       0.50007900 </v>
    <v>       0.99952000       0.50015800       0.99959000 </v>
    <v>       0.49208400       0.50096400       0.50648500 </v>
    <v>       0.47156100       0.74850300       0.96850500 </v>
    <v>       0.96902800       0.74800900       0.46397700 </v>
    <v>       0.97208700       0.24979000       0.97368100 </v>
    <v>       0.46006900       0.25358600       0.46715600 </v>
    <v>       0.02904200       0.74908100       0.03302900 </v>
    <v>       0.54656600       0.74710300       0.52102300 </v>
    <v>       0.52819300       0.25239300       0.04220000 </v>
    <v>       0.02584100       0.25137900       0.53358400 </v>
    <v>       0.24834500       0.46657500       0.95087500 </v>
    <v>       0.94541800       0.53165600       0.74592200 </v>
    <v>       0.54616100       0.03522400       0.75196600 </v>
    <v>       0.04640700       0.02861900       0.25291000 </v>
    <v>       0.75228700       0.97508200       0.04342100 </v>
    <v>       0.25250300       0.96133400       0.54920800 </v>
    <v>       0.24788500       0.03181800       0.94899700 </v>
    <v>       0.74741000       0.03730300       0.45048600 </v>
    <v>       0.44944000       0.96687100       0.24756000 </v>
    <v>       0.95010400       0.96420900       0.74779700 </v>
    <v>       0.74999900       0.53104800       0.05629600 </v>
    <v>       0.25166200       0.53977200       0.55516900 </v>
    <v>       0.55566600       0.46181500       0.74786200 </v>
    <v>       0.05554500       0.46718600       0.25366000 </v>
    <v>       0.60030500       0.50163200       0.34730500 </v>
   </varray>
  </structure>
  <varray name="forces" >
   <v>      -0.00782768      -0.05785330       0.01192185 </v>
   <v>      -0.05178478      -0.04475373       0.01972992 </v>
   <v>       0.05281530       0.17183215       0.03062900 </v>
   <v>       0.03825584       0.00003130      -0.00600425 </v>
   <v>       0.05121544       0.02312393      -0.01186761 </v>
   <v>      -0.03772266       0.00983217      -0.01767453 </v>
   <v>      -0.00693283       0.00600609      -0.03959828 </v>
   <v>      -0.03202681       0.03091619       0.02038743 </v>
   <v>       0.00292685      -0.00573598      -0.00854503 </v>
   <v>      -0.02299380      -0.01075456       0.00859003 </v>
   <v>       0.02078211       0.01008518      -0.00440489 </v>
   <v>      -0.00166696      -0.02412542       0.01535095 </v>
   <v>       0.41644564      -0.09526401      -0.09830004 </v>
   <v>       0.23135619       0.14087211       0.42795664 </v>
   <v>      -0.02730684       0.00901232      -0.04632445 </v>
   <v>      -5.76269214       0.00704396       1.01886052 </v>
   <v>      -0.02832473      -0.03296817       0.01321632 </v>
   <v>       0.00000740      -0.02213919      -0.02314996 </v>
   <v>      -0.00227351       0.00946207       0.00460682 </v>
   <v>      -0.07418853      -0.30022852      -0.03479106 </v>
   <v>      -0.00252160      -0.01051431       0.01265485 </v>
   <v>      -0.08276754       0.35528171       0.07013140 </v>
   <v>      -0.01466543       0.01411713       0.00167626 </v>
   <v>      -0.01672547       0.02429486      -0.00841527 </v>
   <v>      -0.01153935       0.00279536       0.02575002 </v>
   <v>       0.01100752      -0.01316402      -0.02849233 </v>
   <v>      -0.02261883       0.00366280       0.02997156 </v>
   <v>       0.01045887       0.00595147      -0.00018743 </v>
   <v>       0.01018191       0.02084508       0.00315886 </v>
   <v>      -0.02480141      -0.00231007      -0.03197584 </v>
   <v>      -0.01000660      -0.00669227      -0.00132993 </v>
   <v>       0.03214339       0.02914663       0.03050612 </v>
   <v>       0.01861951      -0.03136521      -0.03556623 </v>
   <v>      -0.00593990       0.00595960       0.00219769 </v>
   <v>       0.08665095      -0.00058173      -0.00354768 </v>
   <v>      -0.77232876      -0.00153362      -0.95763436 </v>
   <v>      -0.66829924      -0.02321500       0.86386994 </v>
   <v>       0.00131218       0.00889778       0.01213252 </v>
   <v>       6.70377629      -0.20597077      -1.26548957 </v>
  </varray>
  <varray name="stress" >
   <v>       8.50274202       0.52430803      -2.69649860 </v>
   <v>       0.52432483      -2.91959165      -0.36856010 </v>
   <v>      -2.69655612      -0.36844414      -5.57129187 </v>
  </varray>
  <energy>
   <i name="e_fr_energy">  -1407.98118858 </i>
   <i name="e_wo_entrp">  -1407.98118858 </i>
   <i name="e_0_energy">     -0.00000000 </i>
  </energy>
  <time name="totalsc">  489.28  490.20</time>
  <eigenvalues>
   <array>
    <dimension dim="1">band</dimension>
    <dimension dim="2">kpoint</dimension>
    <dimension dim="3">spin</dimension>
    <field>eigene</field>
    <field>occ</field>
    <set>
     <set comment="spin 1">
      <set comment="kpoint 1">
       <r>  -20.9463    1.0000 </r>
       <r>  -20.8444    1.0000 </r>
       <r>  -20.8176    1.0000 </r>
       <r>  -20.7926    1.0000 </r>
       <r>  -20.7153    1.0000 </r>
       <r>  -20.7110    1.0000 </r>
       <r>  -20.7070    1.0000 </r>
       <r>  -20.6966    1.0000 </r>
       <r>  -17.2096    1.0000 </r>
       <r>  -16.6913    1.0000 </r>
       <r>  -16.6886    1.0000 </r>
       <r>  -16.6796    1.0000 </r>
       <r>  -16.6763    1.0000 </r>
       <r>  -16.6026    1.0000 </r>
       <r>  -16.5972    1.0000 </r>
       <r>  -16.5970    1.0000 </r>
       <r>  -16.5910    1.0000 </r>
       <r>  -16.5615    1.0000 </r>
       <r>  -16.5503    1.0000 </r>
       <r>  -16.4925    1.0000 </r>
       <r>  -16.4649    1.0000 </r>
       <r>  -16.4292    1.0000 </r>
       <r>  -16.4135    1.0000 </r>
       <r>  -16.4025    1.0000 </r>
       <r>  -16.3922    1.0000 </r>
       <r>  -16.3701    1.0000 </r>
       <r>  -16.3675    1.0000 </r>
       <r>  -16.3605    1.0000 </r>
       <r>  -16.3528    1.0000 </r>
       <r>  -16.3522    1.0000 </r>
       <r>  -16.3102    1.0000 </r>
       <r>  -16.2953    1.0000 </r>
       <r>  -16.2920    1.0000 </r>
       <r>  -16.2906    1.0000 </r>
       <r>  -16.2838    1.0000 </r>
       <r>  -16.2785    1.0000 </r>
       <r>  -16.2745    1.0000 </r>
       <r>  -16.2729    1.0000 </r>
       <r>  -16.2691    1.0000 </r>
       <r>  -16.2677    1.0000 </r>
       <r>  -16.2617    1.0000 </r>
       <r>  -16.2580    1.0000 </r>
       <r>  -16.2542    1.0000 </r>
       <r>  -16.1942    1.0000 </r>
       <r>  -16.1915    1.0000 </r>
       <r>  -16.1831    1.0000 </r>
       <r>  -16.1783    1.0000 </r>
       <r>  -16.1174    1.0000 </r>
       <r>  -14.6172    1.0000 </r>
       <r>  -14.3791    1.0000 </r>
       <r>  -14.2596    1.0000 </r>
       <r>  -14.2394    1.0000 </r>
       <r>  -14.1480    1.0000 </r>
       <r>  -14.1217    1.0000 </r>
       <r>  -14.0953    1.0000 </r>
       <r>  -14.0938    1.0000 </r>
       <r>  -14.0840    1.0000 </r>
       <r>  -14.0725    1.0000 </r>
       <r>  -14.0542    1.0000 </r>
       <r>  -14.0397    1.0000 </r>
       <r>  -14.0247    1.0000 </r>
       <r>  -14.0231    1.0000 </r>
       <r>  -13.9434    1.0000 </r>
       <r>  -13.9231    1.0000 </r>
       <r>  -13.9193    1.0000 </r>
       <r>  -13.8958    1.0000 </r>
       <r>  -13.8652    1.0000 </r>
       <r>  -13.7877    1.0000 </r>
       <r>  -13.7738    1.0000 </r>
       <r>  -13.6898    1.0000 </r>
       <r>  -13.6182    1.0000 </r>
       <r>   -8.1994    1.0000 </r>
       <r>   -7.8031    1.0000 </r>
       <r>   -7.7762    1.0000 </r>
       <r>   -7.6635    1.0000 </r>
       <r>   -7.3983    1.0000 </r>
       <r>   -7.3683    1.0000 </r>
       <r>   -7.3306    1.0000 </r>
       <r>   -7.3131    1.0000 </r>
       <r>   -7.2721    1.0000 </r>
       <r>   -7.2600    1.0000 </r>
       <r>   -7.2403    1.0000 </r>
       <r>   -7.2265    1.0000 </r>
       <r>   -7.2235    1.0000 </r>
       <r>   -7.2098    1.0000 </r>
       <r>   -7.2090    1.0000 </r>
       <r>   -7.1873    1.0000 </r>
       <r>   -7.1835    1.0000 </r>
       <r>   -7.1608    1.0000 </r>
       <r>   -7.1447    1.0000 </r>
       <r>   -7.1406    1.0000 </r>
       <r>   -7.1230    1.0000 </r>
       <r>   -7.1205    1.0000 </r>
       <r>   -7.1162    1.0000 </r>
       <r>   -7.1100    1.0000 </r>
       <r>   -7.1060    1.0000 </r>
       <r>   -7.1053    1.0000 </r>
       <r>   -7.0933    1.0000 </r>
       <r>   -7.0917    1.0000 </r>
       <r>   -7.0821    1.0000 </r>
       <r>   -7.0744    1.0000 </r>
       <r>   -7.0366    1.0000 </r>
       <r>   -6.5879    1.0000 </r>
       <r>   -3.4137    1.0000 </r>
       <r>   -3.3827    1.0000 </r>
       <r>   -3.3480    1.0000 </r>
       <r>   -3.3159    1.0000 </r>
       <r>   -3.2728    1.0000 </r>
       <r>   -3.2624    1.0000 </r>
       <r>   -3.2028    1.0000 </r>
       <r>   -3.1675    1.0000 </r>
       <r>   -3.1446    1.0000 </r>
       <r>   -3.0706    1.0000 </r>
       <r>   -3.0347    1.0000 </r>
       <r>   -2.8967    1.0000 </r>
       <r>   -2.4392    1.0000 </r>
       <r>   -2.2331    1.0000 </r>
       <r>   -2.1442    1.0000 </r>
       <r>   -2.1135    1.0000 </r>
       <r>   -2.0491    1.0000 </r>
       <r>   -2.0161    1.0000 </r>
       <r>   -1.9570    1.0000 </r>
       <r>   -1.9237    1.0000 </r>
       <r>   -1.8826    1.0000 </r>
       <r>   -1.8383    1.0000 </r>
       <r>   -1.7942    1.0000 </r>
       <r>   -1.7448    1.0000 </r>
       <r>   -1.6995    1.0000 </r>
       <r>   -1.6549    1.0000 </r>
       <r>   -1.6471    1.0000 </r>
       <r>   -1.6247    1.0000 </r>
       <r>   -1.5886    1.0000 </r>
       <r>   -1.5432    1.0000 </r>
       <r>   -1.5310    1.0000 </r>
       <r>   -1.5113    1.0000 </r>
       <r>   -1.4953    1.0000 </r>
       <r>   -1.4887    1.0000 </r>
       <r>   -1.4684    1.0000 </r>
       <r>   -1.4499    1.0000 </r>
       <r>   -1.4441    1.0000 </r>
       <r>   -1.4217    1.0000 </r>
       <r>   -1.4064    1.0000 </r>
       <r>   -1.3981    1.0000 </r>
       <r>   -1.3907    1.0000 </r>
       <r>   -1.3865    1.0000 </r>
       <r>   -1.3598    1.0000 </r>
       <r>   -1.3527    1.0000 </r>
       <r>   -1.3444    1.0000 </r>
       <r>   -1.3142    1.0000 </r>
       <r>   -1.2989    1.0000 </r>
       <r>   -1.2907    1.0000 </r>
       <r>   -1.2786    1.0000 </r>
       <r>   -1.2651    1.0000 </r>
       <r>   -1.2461    1.0000 </r>
       <r>   -1.2333    1.0000 </r>
       <r>   -1.2215    1.0000 </r>
       <r>   -1.1987    1.0000 </r>
       <r>   -1.1531    1.0000 </r>
       <r>   -1.1245    1.0000 </r>
       <r>   -1.0800    1.0000 </r>
       <r>   -1.0331    1.0000 </r>
       <r>   -1.0201    1.0000 </r>
       <r>   -1.0047    1.0000 </r>
       <r>   -0.9302    1.0000 </r>
       <r>   -0.8568    1.0000 </r>
       <r>   -0.8075    1.0000 </r>
       <r>   -0.6780    1.0000 </r>
       <r>   -0.5469    1.0000 </r>
       <r>   -0.2241    1.0000 </r>
       <r>   -0.2151    1.0000 </r>
       <r>    0.1055    1.0000 </r>
       <r>    0.4606    1.0000 </r>
       <r>    2.6384    0.0000 </r>
       <r>    2.7805    0.0000 </r>
       <r>    2.8096    0.0000 </r>
       <r>    2.9885    0.0000 </r>
       <r>    2.9958    0.0000 </r>
       <r>    3.0952    0.0000 </r>
       <r>    3.1876    0.0000 </r>
       <r>    3.2481    0.0000 </r>
       <r>    3.3314    0.0000 </r>
       <r>    3.5250    0.0000 </r>
       <r>    3.5295    0.0000 </r>
       <r>    3.5422    0.0000 </r>
       <r>    4.1146    0.0000 </r>
       <r>    4.7895    0.0000 </r>
       <r>    5.5119    0.0000 </r>
       <r>    5.5689    0.0000 </r>
       <r>    5.7210    0.0000 </r>
       <r>    5.8191    0.0000 </r>
       <r>    5.8607    0.0000 </r>
       <r>    5.9008    0.0000 </r>
       <r>    5.9158    0.0000 </r>
       <r>    5.9917    0.0000 </r>
       <r>    6.0577    0.0000 </r>
       <r>    6.1275    0.0000 </r>
       <r>    6.1614    0.0000 </r>
       <r>    6.2098    0.0000 </r>
       <r>    6.2285    0.0000 </r>
       <r>    6.2676    0.0000 </r>
       <r>    6.2935    0.0000 </r>
       <r>    6.3323    0.0000 </r>
       <r>    6.4012    0.0000 </r>
       <r>    6.4624    0.0000 </r>
       <r>    6.5275    0.0000 </r>
       <r>    6.5760    0.0000 </r>
       <r>    6.6136    0.0000 </r>
       <r>    6.6242    0.0000 </r>
      </set>
      <set comment="kpoint 2">
       <r>  -20.9463    1.0000 </r>
       <r>  -20.8444    1.0000 </r>
       <r>  -20.8176    1.0000 </r>
       <r>  -20.7927    1.0000 </r>
       <r>  -20.7153    1.0000 </r>
       <r>  -20.7110    1.0000 </r>
       <r>  -20.7070    1.0000 </r>
       <r>  -20.6966    1.0000 </r>
       <r>  -17.2096    1.0000 </r>
       <r>  -16.6913    1.0000 </r>
       <r>  -16.6884    1.0000 </r>
       <r>  -16.6793    1.0000 </r>
       <r>  -16.6736    1.0000 </r>
       <r>  -16.6026    1.0000 </r>
       <r>  -16.5973    1.0000 </r>
       <r>  -16.5970    1.0000 </r>
       <r>  -16.5909    1.0000 </r>
       <r>  -16.5615    1.0000 </r>
       <r>  -16.5503    1.0000 </r>
       <r>  -16.4931    1.0000 </r>
       <r>  -16.4676    1.0000 </r>
       <r>  -16.4248    1.0000 </r>
       <r>  -16.3963    1.0000 </r>
       <r>  -16.3945    1.0000 </r>
       <r>  -16.3908    1.0000 </r>
       <r>  -16.3847    1.0000 </r>
       <r>  -16.3700    1.0000 </r>
       <r>  -16.3607    1.0000 </r>
       <r>  -16.3582    1.0000 </r>
       <r>  -16.3528    1.0000 </r>
       <r>  -16.3127    1.0000 </r>
       <r>  -16.2987    1.0000 </r>
       <r>  -16.2949    1.0000 </r>
       <r>  -16.2908    1.0000 </r>
       <r>  -16.2838    1.0000 </r>
       <r>  -16.2785    1.0000 </r>
       <r>  -16.2746    1.0000 </r>
       <r>  -16.2729    1.0000 </r>
       <r>  -16.2691    1.0000 </r>
       <r>  -16.2677    1.0000 </r>
       <r>  -16.2617    1.0000 </r>
       <r>  -16.2580    1.0000 </r>
       <r>  -16.2548    1.0000 </r>
       <r>  -16.1942    1.0000 </r>
       <r>  -16.1915    1.0000 </r>
       <r>  -16.1831    1.0000 </r>
       <r>  -16.1783    1.0000 </r>
       <r>  -16.1174    1.0000 </r>
       <r>  -14.6166    1.0000 </r>
       <r>  -14.3637    1.0000 </r>
       <r>  -14.2910    1.0000 </r>
       <r>  -14.2295    1.0000 </r>
       <r>  -14.1463    1.0000 </r>
       <r>  -14.1433    1.0000 </r>
       <r>  -14.1216    1.0000 </r>
       <r>  -14.0937    1.0000 </r>
       <r>  -14.0919    1.0000 </r>
       <r>  -14.0850    1.0000 </r>
       <r>  -14.0740    1.0000 </r>
       <r>  -14.0295    1.0000 </r>
       <r>  -14.0183    1.0000 </r>
       <r>  -13.9620    1.0000 </r>
       <r>  -13.9395    1.0000 </r>
       <r>  -13.9265    1.0000 </r>
       <r>  -13.8660    1.0000 </r>
       <r>  -13.8604    1.0000 </r>
       <r>  -13.8529    1.0000 </r>
       <r>  -13.8129    1.0000 </r>
       <r>  -13.7744    1.0000 </r>
       <r>  -13.7432    1.0000 </r>
       <r>  -13.6231    1.0000 </r>
       <r>   -8.0525    1.0000 </r>
       <r>   -7.9663    1.0000 </r>
       <r>   -7.6720    1.0000 </r>
       <r>   -7.5180    1.0000 </r>
       <r>   -7.4588    1.0000 </r>
       <r>   -7.4391    1.0000 </r>
       <r>   -7.3719    1.0000 </r>
       <r>   -7.3312    1.0000 </r>
       <r>   -7.3078    1.0000 </r>
       <r>   -7.2693    1.0000 </r>
       <r>   -7.2543    1.0000 </r>
       <r>   -7.2383    1.0000 </r>
       <r>   -7.2220    1.0000 </r>
       <r>   -7.2115    1.0000 </r>
       <r>   -7.2045    1.0000 </r>
       <r>   -7.1970    1.0000 </r>
       <r>   -7.1865    1.0000 </r>
       <r>   -7.1709    1.0000 </r>
       <r>   -7.1435    1.0000 </r>
       <r>   -7.1287    1.0000 </r>
       <r>   -7.1261    1.0000 </r>
       <r>   -7.1237    1.0000 </r>
       <r>   -7.1154    1.0000 </r>
       <r>   -7.1098    1.0000 </r>
       <r>   -7.1034    1.0000 </r>
       <r>   -7.0991    1.0000 </r>
       <r>   -7.0928    1.0000 </r>
       <r>   -7.0883    1.0000 </r>
       <r>   -7.0825    1.0000 </r>
       <r>   -7.0789    1.0000 </r>
       <r>   -6.9172    1.0000 </r>
       <r>   -6.8505    1.0000 </r>
       <r>   -3.4150    1.0000 </r>
       <r>   -3.3640    1.0000 </r>
       <r>   -3.3496    1.0000 </r>
       <r>   -3.2665    1.0000 </r>
       <r>   -3.2611    1.0000 </r>
       <r>   -3.2592    1.0000 </r>
       <r>   -3.1339    1.0000 </r>
       <r>   -3.1068    1.0000 </r>
       <r>   -2.9736    1.0000 </r>
       <r>   -2.5393    1.0000 </r>
       <r>   -2.4943    1.0000 </r>
       <r>   -2.4516    1.0000 </r>
       <r>   -2.4250    1.0000 </r>
       <r>   -2.3588    1.0000 </r>
       <r>   -2.3342    1.0000 </r>
       <r>   -2.3117    1.0000 </r>
       <r>   -2.1854    1.0000 </r>
       <r>   -2.0693    1.0000 </r>
       <r>   -2.0532    1.0000 </r>
       <r>   -2.0488    1.0000 </r>
       <r>   -2.0083    1.0000 </r>
       <r>   -1.9429    1.0000 </r>
       <r>   -1.8811    1.0000 </r>
       <r>   -1.8257    1.0000 </r>
       <r>   -1.8059    1.0000 </r>
       <r>   -1.7914    1.0000 </r>
       <r>   -1.6937    1.0000 </r>
       <r>   -1.6647    1.0000 </r>
       <r>   -1.6034    1.0000 </r>
       <r>   -1.5861    1.0000 </r>
       <r>   -1.5749    1.0000 </r>
       <r>   -1.5309    1.0000 </r>
       <r>   -1.5258    1.0000 </r>
       <r>   -1.4949    1.0000 </r>
       <r>   -1.4623    1.0000 </r>
       <r>   -1.4549    1.0000 </r>
       <r>   -1.4439    1.0000 </r>
       <r>   -1.4238    1.0000 </r>
       <r>   -1.3995    1.0000 </r>
       <r>   -1.3932    1.0000 </r>
       <r>   -1.3905    1.0000 </r>
       <r>   -1.3798    1.0000 </r>
       <r>   -1.3623    1.0000 </r>
       <r>   -1.3344    1.0000 </r>
       <r>   -1.3313    1.0000 </r>
       <r>   -1.3126    1.0000 </r>
       <r>   -1.2992    1.0000 </r>
       <r>   -1.2800    1.0000 </r>
       <r>   -1.2646    1.0000 </r>
       <r>   -1.2482    1.0000 </r>
       <r>   -1.2319    1.0000 </r>
       <r>   -1.2051    1.0000 </r>
       <r>   -1.1979    1.0000 </r>
       <r>   -1.1779    1.0000 </r>
       <r>   -1.1544    1.0000 </r>
       <r>   -1.1363    1.0000 </r>
       <r>   -1.1024    1.0000 </r>
       <r>   -1.0666    1.0000 </r>
       <r>   -1.0587    1.0000 </r>
       <r>   -1.0270    1.0000 </r>
       <r>   -0.9371    1.0000 </r>
       <r>   -0.9013    1.0000 </r>
       <r>   -0.8743    1.0000 </r>
       <r>   -0.6629    1.0000 </r>
       <r>   -0.5974    1.0000 </r>
       <r>   -0.5316    1.0000 </r>
       <r>   -0.2627    1.0000 </r>
       <r>   -0.0105    1.0000 </r>
       <r>    0.2861    1.0000 </r>
       <r>    2.7428    0.0000 </r>
       <r>    2.8570    0.0000 </r>
       <r>    2.9110    0.0000 </r>
       <r>    2.9794    0.0000 </r>
       <r>    3.1270    0.0000 </r>
       <r>    3.2861    0.0000 </r>
       <r>    3.3255    0.0000 </r>
       <r>    3.3805    0.0000 </r>
       <r>    3.4490    0.0000 </r>
       <r>    4.0703    0.0000 </r>
       <r>    4.3163    0.0000 </r>
       <r>    4.3382    0.0000 </r>
       <r>    4.5594    0.0000 </r>
       <r>    4.6326    0.0000 </r>
       <r>    4.8124    0.0000 </r>
       <r>    4.8427    0.0000 </r>
       <r>    5.2148    0.0000 </r>
       <r>    5.4683    0.0000 </r>
       <r>    5.5834    0.0000 </r>
       <r>    5.8066    0.0000 </r>
       <r>    5.8703    0.0000 </r>
       <r>    5.9064    0.0000 </r>
       <r>    5.9699    0.0000 </r>
       <r>    6.0384    0.0000 </r>
       <r>    6.0781    0.0000 </r>
       <r>    6.1511    0.0000 </r>
       <r>    6.1879    0.0000 </r>
       <r>    6.2000    0.0000 </r>
       <r>    6.2331    0.0000 </r>
       <r>    6.2529    0.0000 </r>
       <r>    6.3627    0.0000 </r>
       <r>    6.3944    0.0000 </r>
       <r>    6.4865    0.0000 </r>
       <r>    6.5522    0.0000 </r>
       <r>    6.5753    0.0000 </r>
       <r>    6.6306    0.0000 </r>
      </set>
      <set comment="kpoint 3">
       <r>  -20.9463    1.0000 </r>
       <r>  -20.8444    1.0000 </r>
       <r>  -20.8176    1.0000 </r>
       <r>  -20.7926    1.0000 </r>
       <r>  -20.7152    1.0000 </r>
       <r>  -20.7110    1.0000 </r>
       <r>  -20.7070    1.0000 </r>
       <r>  -20.6966    1.0000 </r>
       <r>  -17.2096    1.0000 </r>
       <r>  -16.6881    1.0000 </r>
       <r>  -16.6872    1.0000 </r>
       <r>  -16.6794    1.0000 </r>
       <r>  -16.6749    1.0000 </r>
       <r>  -16.6026    1.0000 </r>
       <r>  -16.5972    1.0000 </r>
       <r>  -16.5970    1.0000 </r>
       <r>  -16.5909    1.0000 </r>
       <r>  -16.5615    1.0000 </r>
       <r>  -16.5503    1.0000 </r>
       <r>  -16.4801    1.0000 </r>
       <r>  -16.4647    1.0000 </r>
       <r>  -16.4305    1.0000 </r>
       <r>  -16.4198    1.0000 </r>
       <r>  -16.4058    1.0000 </r>
       <r>  -16.3954    1.0000 </r>
       <r>  -16.3743    1.0000 </r>
       <r>  -16.3700    1.0000 </r>
       <r>  -16.3606    1.0000 </r>
       <r>  -16.3528    1.0000 </r>
       <r>  -16.3527    1.0000 </r>
       <r>  -16.2970    1.0000 </r>
       <r>  -16.2923    1.0000 </r>
       <r>  -16.2915    1.0000 </r>
       <r>  -16.2906    1.0000 </r>
       <r>  -16.2837    1.0000 </r>
       <r>  -16.2784    1.0000 </r>
       <r>  -16.2745    1.0000 </r>
       <r>  -16.2729    1.0000 </r>
       <r>  -16.2718    1.0000 </r>
       <r>  -16.2690    1.0000 </r>
       <r>  -16.2677    1.0000 </r>
       <r>  -16.2617    1.0000 </r>
       <r>  -16.2580    1.0000 </r>
       <r>  -16.1942    1.0000 </r>
       <r>  -16.1915    1.0000 </r>
       <r>  -16.1831    1.0000 </r>
       <r>  -16.1783    1.0000 </r>
       <r>  -16.1173    1.0000 </r>
       <r>  -14.6186    1.0000 </r>
       <r>  -14.3577    1.0000 </r>
       <r>  -14.2946    1.0000 </r>
       <r>  -14.2388    1.0000 </r>
       <r>  -14.1978    1.0000 </r>
       <r>  -14.1666    1.0000 </r>
       <r>  -14.1116    1.0000 </r>
       <r>  -14.0851    1.0000 </r>
       <r>  -14.0570    1.0000 </r>
       <r>  -14.0474    1.0000 </r>
       <r>  -14.0349    1.0000 </r>
       <r>  -14.0273    1.0000 </r>
       <r>  -14.0214    1.0000 </r>
       <r>  -13.9847    1.0000 </r>
       <r>  -13.9409    1.0000 </r>
       <r>  -13.9210    1.0000 </r>
       <r>  -13.8934    1.0000 </r>
       <r>  -13.8718    1.0000 </r>
       <r>  -13.8440    1.0000 </r>
       <r>  -13.8285    1.0000 </r>
       <r>  -13.7299    1.0000 </r>
       <r>  -13.6993    1.0000 </r>
       <r>  -13.6912    1.0000 </r>
       <r>   -8.0016    1.0000 </r>
       <r>   -7.9152    1.0000 </r>
       <r>   -7.6510    1.0000 </r>
       <r>   -7.6256    1.0000 </r>
       <r>   -7.4443    1.0000 </r>
       <r>   -7.3927    1.0000 </r>
       <r>   -7.3756    1.0000 </r>
       <r>   -7.3324    1.0000 </r>
       <r>   -7.3018    1.0000 </r>
       <r>   -7.2775    1.0000 </r>
       <r>   -7.2592    1.0000 </r>
       <r>   -7.2381    1.0000 </r>
       <r>   -7.2243    1.0000 </r>
       <r>   -7.2101    1.0000 </r>
       <r>   -7.2037    1.0000 </r>
       <r>   -7.1881    1.0000 </r>
       <r>   -7.1851    1.0000 </r>
       <r>   -7.1800    1.0000 </r>
       <r>   -7.1628    1.0000 </r>
       <r>   -7.1416    1.0000 </r>
       <r>   -7.1303    1.0000 </r>
       <r>   -7.1207    1.0000 </r>
       <r>   -7.1163    1.0000 </r>
       <r>   -7.1088    1.0000 </r>
       <r>   -7.1035    1.0000 </r>
       <r>   -7.0989    1.0000 </r>
       <r>   -7.0979    1.0000 </r>
       <r>   -7.0932    1.0000 </r>
       <r>   -7.0845    1.0000 </r>
       <r>   -7.0800    1.0000 </r>
       <r>   -7.0531    1.0000 </r>
       <r>   -6.8315    1.0000 </r>
       <r>   -3.4159    1.0000 </r>
       <r>   -3.2349    1.0000 </r>
       <r>   -3.2247    1.0000 </r>
       <r>   -3.2084    1.0000 </r>
       <r>   -3.2010    1.0000 </r>
       <r>   -3.0733    1.0000 </r>
       <r>   -3.0504    1.0000 </r>
       <r>   -2.9831    1.0000 </r>
       <r>   -2.8856    1.0000 </r>
       <r>   -2.5607    1.0000 </r>
       <r>   -2.5216    1.0000 </r>
       <r>   -2.5042    1.0000 </r>
       <r>   -2.4691    1.0000 </r>
       <r>   -2.4402    1.0000 </r>
       <r>   -2.4054    1.0000 </r>
       <r>   -2.3295    1.0000 </r>
       <r>   -2.3093    1.0000 </r>
       <r>   -2.1068    1.0000 </r>
       <r>   -2.0723    1.0000 </r>
       <r>   -2.0089    1.0000 </r>
       <r>   -1.9927    1.0000 </r>
       <r>   -1.9764    1.0000 </r>
       <r>   -1.9283    1.0000 </r>
       <r>   -1.9059    1.0000 </r>
       <r>   -1.8453    1.0000 </r>
       <r>   -1.7552    1.0000 </r>
       <r>   -1.7390    1.0000 </r>
       <r>   -1.7099    1.0000 </r>
       <r>   -1.6710    1.0000 </r>
       <r>   -1.6501    1.0000 </r>
       <r>   -1.5927    1.0000 </r>
       <r>   -1.5147    1.0000 </r>
       <r>   -1.4973    1.0000 </r>
       <r>   -1.4757    1.0000 </r>
       <r>   -1.4544    1.0000 </r>
       <r>   -1.4354    1.0000 </r>
       <r>   -1.4267    1.0000 </r>
       <r>   -1.4062    1.0000 </r>
       <r>   -1.3960    1.0000 </r>
       <r>   -1.3873    1.0000 </r>
       <r>   -1.3867    1.0000 </r>
       <r>   -1.3611    1.0000 </r>
       <r>   -1.3510    1.0000 </r>
       <r>   -1.3355    1.0000 </r>
       <r>   -1.3135    1.0000 </r>
       <r>   -1.3013    1.0000 </r>
       <r>   -1.2927    1.0000 </r>
       <r>   -1.2802    1.0000 </r>
       <r>   -1.2731    1.0000 </r>
       <r>   -1.2662    1.0000 </r>
       <r>   -1.2397    1.0000 </r>
       <r>   -1.2278    1.0000 </r>
       <r>   -1.1933    1.0000 </r>
       <r>   -1.1816    1.0000 </r>
       <r>   -1.1380    1.0000 </r>
       <r>   -1.1303    1.0000 </r>
       <r>   -1.1198    1.0000 </r>
       <r>   -1.0962    1.0000 </r>
       <r>   -1.0450    1.0000 </r>
       <r>   -1.0159    1.0000 </r>
       <r>   -0.9711    1.0000 </r>
       <r>   -0.9518    1.0000 </r>
       <r>   -0.8596    1.0000 </r>
       <r>   -0.8045    1.0000 </r>
       <r>   -0.5695    1.0000 </r>
       <r>   -0.5206    1.0000 </r>
       <r>   -0.3937    1.0000 </r>
       <r>    0.0185    1.0000 </r>
       <r>    0.0515    1.0000 </r>
       <r>    2.7624    0.0000 </r>
       <r>    2.9183    0.0000 </r>
       <r>    2.9592    0.0000 </r>
       <r>    3.1451    0.0000 </r>
       <r>    3.1591    0.0000 </r>
       <r>    3.2698    0.0000 </r>
       <r>    3.4019    0.0000 </r>
       <r>    3.4057    0.0000 </r>
       <r>    4.0517    0.0000 </r>
       <r>    4.3116    0.0000 </r>
       <r>    4.3866    0.0000 </r>
       <r>    4.5608    0.0000 </r>
       <r>    4.5984    0.0000 </r>
       <r>    4.6462    0.0000 </r>
       <r>    4.7750    0.0000 </r>
       <r>    4.8768    0.0000 </r>
       <r>    4.9283    0.0000 </r>
       <r>    5.2264    0.0000 </r>
       <r>    5.5474    0.0000 </r>
       <r>    5.6821    0.0000 </r>
       <r>    5.7336    0.0000 </r>
       <r>    5.7889    0.0000 </r>
       <r>    5.8073    0.0000 </r>
       <r>    6.0083    0.0000 </r>
       <r>    6.0596    0.0000 </r>
       <r>    6.1004    0.0000 </r>
       <r>    6.1904    0.0000 </r>
       <r>    6.2463    0.0000 </r>
       <r>    6.2950    0.0000 </r>
       <r>    6.3351    0.0000 </r>
       <r>    6.3654    0.0000 </r>
       <r>    6.4403    0.0000 </r>
       <r>    6.5127    0.0000 </r>
       <r>    6.5833    0.0000 </r>
       <r>    6.6480    0.0000 </r>
       <r>    6.6725    0.0000 </r>
      </set>
      <set comment="kpoint 4">
       <r>  -20.9463    1.0000 </r>
       <r>  -20.8444    1.0000 </r>
       <r>  -20.8176    1.0000 </r>
       <r>  -20.7927    1.0000 </r>
       <r>  -20.7152    1.0000 </r>
       <r>  -20.7109    1.0000 </r>
       <r>  -20.7070    1.0000 </r>
       <r>  -20.6966    1.0000 </r>
       <r>  -17.2096    1.0000 </r>
       <r>  -16.6881    1.0000 </r>
       <r>  -16.6868    1.0000 </r>
       <r>  -16.6792    1.0000 </r>
       <r>  -16.6722    1.0000 </r>
       <r>  -16.6026    1.0000 </r>
       <r>  -16.5973    1.0000 </r>
       <r>  -16.5970    1.0000 </r>
       <r>  -16.5910    1.0000 </r>
       <r>  -16.5615    1.0000 </r>
       <r>  -16.5504    1.0000 </r>
       <r>  -16.4810    1.0000 </r>
       <r>  -16.4676    1.0000 </r>
       <r>  -16.4280    1.0000 </r>
       <r>  -16.3996    1.0000 </r>
       <r>  -16.3982    1.0000 </r>
       <r>  -16.3943    1.0000 </r>
       <r>  -16.3907    1.0000 </r>
       <r>  -16.3700    1.0000 </r>
       <r>  -16.3607    1.0000 </r>
       <r>  -16.3597    1.0000 </r>
       <r>  -16.3528    1.0000 </r>
       <r>  -16.3010    1.0000 </r>
       <r>  -16.2970    1.0000 </r>
       <r>  -16.2919    1.0000 </r>
       <r>  -16.2908    1.0000 </r>
       <r>  -16.2839    1.0000 </r>
       <r>  -16.2785    1.0000 </r>
       <r>  -16.2746    1.0000 </r>
       <r>  -16.2729    1.0000 </r>
       <r>  -16.2718    1.0000 </r>
       <r>  -16.2691    1.0000 </r>
       <r>  -16.2677    1.0000 </r>
       <r>  -16.2617    1.0000 </r>
       <r>  -16.2580    1.0000 </r>
       <r>  -16.1943    1.0000 </r>
       <r>  -16.1915    1.0000 </r>
       <r>  -16.1831    1.0000 </r>
       <r>  -16.1783    1.0000 </r>
       <r>  -16.1173    1.0000 </r>
       <r>  -14.6182    1.0000 </r>
       <r>  -14.3483    1.0000 </r>
       <r>  -14.2696    1.0000 </r>
       <r>  -14.2637    1.0000 </r>
       <r>  -14.2161    1.0000 </r>
       <r>  -14.2010    1.0000 </r>
       <r>  -14.1379    1.0000 </r>
       <r>  -14.0867    1.0000 </r>
       <r>  -14.0795    1.0000 </r>
       <r>  -14.0365    1.0000 </r>
       <r>  -14.0321    1.0000 </r>
       <r>  -14.0218    1.0000 </r>
       <r>  -13.9457    1.0000 </r>
       <r>  -13.9413    1.0000 </r>
       <r>  -13.9144    1.0000 </r>
       <r>  -13.9115    1.0000 </r>
       <r>  -13.9068    1.0000 </r>
       <r>  -13.8798    1.0000 </r>
       <r>  -13.8720    1.0000 </r>
       <r>  -13.7866    1.0000 </r>
       <r>  -13.7674    1.0000 </r>
       <r>  -13.7239    1.0000 </r>
       <r>  -13.6991    1.0000 </r>
       <r>   -7.9059    1.0000 </r>
       <r>   -7.7642    1.0000 </r>
       <r>   -7.7207    1.0000 </r>
       <r>   -7.6536    1.0000 </r>
       <r>   -7.5289    1.0000 </r>
       <r>   -7.3822    1.0000 </r>
       <r>   -7.3411    1.0000 </r>
       <r>   -7.3151    1.0000 </r>
       <r>   -7.3075    1.0000 </r>
       <r>   -7.2605    1.0000 </r>
       <r>   -7.2548    1.0000 </r>
       <r>   -7.2398    1.0000 </r>
       <r>   -7.2332    1.0000 </r>
       <r>   -7.2194    1.0000 </r>
       <r>   -7.2154    1.0000 </r>
       <r>   -7.1930    1.0000 </r>
       <r>   -7.1891    1.0000 </r>
       <r>   -7.1801    1.0000 </r>
       <r>   -7.1685    1.0000 </r>
       <r>   -7.1458    1.0000 </r>
       <r>   -7.1309    1.0000 </r>
       <r>   -7.1261    1.0000 </r>
       <r>   -7.1158    1.0000 </r>
       <r>   -7.1116    1.0000 </r>
       <r>   -7.1078    1.0000 </r>
       <r>   -7.1039    1.0000 </r>
       <r>   -7.0994    1.0000 </r>
       <r>   -7.0948    1.0000 </r>
       <r>   -7.0880    1.0000 </r>
       <r>   -7.0806    1.0000 </r>
       <r>   -7.0626    1.0000 </r>
       <r>   -7.0526    1.0000 </r>
       <r>   -3.4165    1.0000 </r>
       <r>   -3.2207    1.0000 </r>
       <r>   -3.1868    1.0000 </r>
       <r>   -3.1024    1.0000 </r>
       <r>   -3.0208    1.0000 </r>
       <r>   -2.9258    1.0000 </r>
       <r>   -2.6746    1.0000 </r>
       <r>   -2.6562    1.0000 </r>
       <r>   -2.6101    1.0000 </r>
       <r>   -2.5680    1.0000 </r>
       <r>   -2.5475    1.0000 </r>
       <r>   -2.4665    1.0000 </r>
       <r>   -2.3986    1.0000 </r>
       <r>   -2.3787    1.0000 </r>
       <r>   -2.3522    1.0000 </r>
       <r>   -2.3425    1.0000 </r>
       <r>   -2.3081    1.0000 </r>
       <r>   -2.2935    1.0000 </r>
       <r>   -2.2688    1.0000 </r>
       <r>   -2.2328    1.0000 </r>
       <r>   -2.0321    1.0000 </r>
       <r>   -2.0247    1.0000 </r>
       <r>   -2.0187    1.0000 </r>
       <r>   -1.8985    1.0000 </r>
       <r>   -1.8781    1.0000 </r>
       <r>   -1.7848    1.0000 </r>
       <r>   -1.7407    1.0000 </r>
       <r>   -1.7303    1.0000 </r>
       <r>   -1.7065    1.0000 </r>
       <r>   -1.6649    1.0000 </r>
       <r>   -1.6541    1.0000 </r>
       <r>   -1.6195    1.0000 </r>
       <r>   -1.6054    1.0000 </r>
       <r>   -1.5697    1.0000 </r>
       <r>   -1.5321    1.0000 </r>
       <r>   -1.5158    1.0000 </r>
       <r>   -1.4939    1.0000 </r>
       <r>   -1.4484    1.0000 </r>
       <r>   -1.4399    1.0000 </r>
       <r>   -1.4079    1.0000 </r>
       <r>   -1.3749    1.0000 </r>
       <r>   -1.3709    1.0000 </r>
       <r>   -1.3521    1.0000 </r>
       <r>   -1.3249    1.0000 </r>
       <r>   -1.3158    1.0000 </r>
       <r>   -1.2913    1.0000 </r>
       <r>   -1.2724    1.0000 </r>
       <r>   -1.2528    1.0000 </r>
       <r>   -1.2410    1.0000 </r>
       <r>   -1.2082    1.0000 </r>
       <r>   -1.1952    1.0000 </r>
       <r>   -1.1934    1.0000 </r>
       <r>   -1.1617    1.0000 </r>
       <r>   -1.1513    1.0000 </r>
       <r>   -1.1382    1.0000 </r>
       <r>   -1.1332    1.0000 </r>
       <r>   -1.1231    1.0000 </r>
       <r>   -1.0954    1.0000 </r>
       <r>   -1.0636    1.0000 </r>
       <r>   -1.0274    1.0000 </r>
       <r>   -0.9879    1.0000 </r>
       <r>   -0.9459    1.0000 </r>
       <r>   -0.9408    1.0000 </r>
       <r>   -0.8528    1.0000 </r>
       <r>   -0.7879    1.0000 </r>
       <r>   -0.6109    1.0000 </r>
       <r>   -0.4413    1.0000 </r>
       <r>   -0.3624    1.0000 </r>
       <r>    0.0128    1.0000 </r>
       <r>    2.8102    0.0000 </r>
       <r>    2.9959    0.0000 </r>
       <r>    3.1882    0.0000 </r>
       <r>    3.2265    0.0000 </r>
       <r>    3.2533    0.0000 </r>
       <r>    4.0361    0.0000 </r>
       <r>    4.3298    0.0000 </r>
       <r>    4.3710    0.0000 </r>
       <r>    4.3836    0.0000 </r>
       <r>    4.4296    0.0000 </r>
       <r>    4.4401    0.0000 </r>
       <r>    4.4928    0.0000 </r>
       <r>    4.5117    0.0000 </r>
       <r>    4.5800    0.0000 </r>
       <r>    4.7357    0.0000 </r>
       <r>    4.7447    0.0000 </r>
       <r>    4.7811    0.0000 </r>
       <r>    4.8088    0.0000 </r>
       <r>    4.8582    0.0000 </r>
       <r>    4.9663    0.0000 </r>
       <r>    5.3420    0.0000 </r>
       <r>    5.6579    0.0000 </r>
       <r>    5.7786    0.0000 </r>
       <r>    5.9096    0.0000 </r>
       <r>    5.9576    0.0000 </r>
       <r>    6.0143    0.0000 </r>
       <r>    6.0624    0.0000 </r>
       <r>    6.1338    0.0000 </r>
       <r>    6.2536    0.0000 </r>
       <r>    6.2768    0.0000 </r>
       <r>    6.2906    0.0000 </r>
       <r>    6.3896    0.0000 </r>
       <r>    6.4400    0.0000 </r>
       <r>    6.4758    0.0000 </r>
       <r>    6.4951    0.0000 </r>
       <r>    6.6070    0.0000 </r>
      </set>
      <set comment="kpoint 5">
       <r>  -20.9463    1.0000 </r>
       <r>  -20.8444    1.0000 </r>
       <r>  -20.8176    1.0000 </r>
       <r>  -20.7926    1.0000 </r>
       <r>  -20.7153    1.0000 </r>
       <r>  -20.7108    1.0000 </r>
       <r>  -20.7072    1.0000 </r>
       <r>  -20.6966    1.0000 </r>
       <r>  -17.2096    1.0000 </r>
       <r>  -16.6905    1.0000 </r>
       <r>  -16.6885    1.0000 </r>
       <r>  -16.6771    1.0000 </r>
       <r>  -16.6766    1.0000 </r>
       <r>  -16.6026    1.0000 </r>
       <r>  -16.5972    1.0000 </r>
       <r>  -16.5970    1.0000 </r>
       <r>  -16.5910    1.0000 </r>
       <r>  -16.5615    1.0000 </r>
       <r>  -16.5504    1.0000 </r>
       <r>  -16.4934    1.0000 </r>
       <r>  -16.4673    1.0000 </r>
       <r>  -16.4186    1.0000 </r>
       <r>  -16.4091    1.0000 </r>
       <r>  -16.3966    1.0000 </r>
       <r>  -16.3862    1.0000 </r>
       <r>  -16.3829    1.0000 </r>
       <r>  -16.3700    1.0000 </r>
       <r>  -16.3607    1.0000 </r>
       <r>  -16.3543    1.0000 </r>
       <r>  -16.3527    1.0000 </r>
       <r>  -16.3131    1.0000 </r>
       <r>  -16.2996    1.0000 </r>
       <r>  -16.2953    1.0000 </r>
       <r>  -16.2907    1.0000 </r>
       <r>  -16.2838    1.0000 </r>
       <r>  -16.2785    1.0000 </r>
       <r>  -16.2745    1.0000 </r>
       <r>  -16.2730    1.0000 </r>
       <r>  -16.2691    1.0000 </r>
       <r>  -16.2677    1.0000 </r>
       <r>  -16.2617    1.0000 </r>
       <r>  -16.2580    1.0000 </r>
       <r>  -16.2548    1.0000 </r>
       <r>  -16.1943    1.0000 </r>
       <r>  -16.1915    1.0000 </r>
       <r>  -16.1831    1.0000 </r>
       <r>  -16.1783    1.0000 </r>
       <r>  -16.1174    1.0000 </r>
       <r>  -14.6147    1.0000 </r>
       <r>  -14.3514    1.0000 </r>
       <r>  -14.3251    1.0000 </r>
       <r>  -14.2127    1.0000 </r>
       <r>  -14.1509    1.0000 </r>
       <r>  -14.1498    1.0000 </r>
       <r>  -14.1198    1.0000 </r>
       <r>  -14.0941    1.0000 </r>
       <r>  -14.0935    1.0000 </r>
       <r>  -14.0737    1.0000 </r>
       <r>  -14.0410    1.0000 </r>
       <r>  -14.0380    1.0000 </r>
       <r>  -14.0292    1.0000 </r>
       <r>  -13.9749    1.0000 </r>
       <r>  -13.9315    1.0000 </r>
       <r>  -13.9206    1.0000 </r>
       <r>  -13.8785    1.0000 </r>
       <r>  -13.8655    1.0000 </r>
       <r>  -13.8582    1.0000 </r>
       <r>  -13.8072    1.0000 </r>
       <r>  -13.7688    1.0000 </r>
       <r>  -13.7419    1.0000 </r>
       <r>  -13.6244    1.0000 </r>
       <r>   -8.0402    1.0000 </r>
       <r>   -7.9675    1.0000 </r>
       <r>   -7.6817    1.0000 </r>
       <r>   -7.5161    1.0000 </r>
       <r>   -7.4613    1.0000 </r>
       <r>   -7.4357    1.0000 </r>
       <r>   -7.3723    1.0000 </r>
       <r>   -7.3309    1.0000 </r>
       <r>   -7.3015    1.0000 </r>
       <r>   -7.2677    1.0000 </r>
       <r>   -7.2563    1.0000 </r>
       <r>   -7.2360    1.0000 </r>
       <r>   -7.2233    1.0000 </r>
       <r>   -7.2180    1.0000 </r>
       <r>   -7.2035    1.0000 </r>
       <r>   -7.1891    1.0000 </r>
       <r>   -7.1868    1.0000 </r>
       <r>   -7.1736    1.0000 </r>
       <r>   -7.1357    1.0000 </r>
       <r>   -7.1323    1.0000 </r>
       <r>   -7.1291    1.0000 </r>
       <r>   -7.1251    1.0000 </r>
       <r>   -7.1179    1.0000 </r>
       <r>   -7.1163    1.0000 </r>
       <r>   -7.1071    1.0000 </r>
       <r>   -7.1020    1.0000 </r>
       <r>   -7.0907    1.0000 </r>
       <r>   -7.0858    1.0000 </r>
       <r>   -7.0818    1.0000 </r>
       <r>   -7.0773    1.0000 </r>
       <r>   -6.9263    1.0000 </r>
       <r>   -6.8535    1.0000 </r>
       <r>   -3.4029    1.0000 </r>
       <r>   -3.3577    1.0000 </r>
       <r>   -3.3257    1.0000 </r>
       <r>   -3.2984    1.0000 </r>
       <r>   -3.2612    1.0000 </r>
       <r>   -3.2234    1.0000 </r>
       <r>   -3.1185    1.0000 </r>
       <r>   -3.0817    1.0000 </r>
       <r>   -3.0004    1.0000 </r>
       <r>   -2.5701    1.0000 </r>
       <r>   -2.5098    1.0000 </r>
       <r>   -2.4348    1.0000 </r>
       <r>   -2.4314    1.0000 </r>
       <r>   -2.3774    1.0000 </r>
       <r>   -2.3173    1.0000 </r>
       <r>   -2.2748    1.0000 </r>
       <r>   -2.1809    1.0000 </r>
       <r>   -2.0673    1.0000 </r>
       <r>   -2.0614    1.0000 </r>
       <r>   -2.0389    1.0000 </r>
       <r>   -2.0005    1.0000 </r>
       <r>   -1.9791    1.0000 </r>
       <r>   -1.8740    1.0000 </r>
       <r>   -1.8299    1.0000 </r>
       <r>   -1.8041    1.0000 </r>
       <r>   -1.7945    1.0000 </r>
       <r>   -1.7286    1.0000 </r>
       <r>   -1.6798    1.0000 </r>
       <r>   -1.6485    1.0000 </r>
       <r>   -1.5880    1.0000 </r>
       <r>   -1.5576    1.0000 </r>
       <r>   -1.5297    1.0000 </r>
       <r>   -1.5061    1.0000 </r>
       <r>   -1.4767    1.0000 </r>
       <r>   -1.4568    1.0000 </r>
       <r>   -1.4373    1.0000 </r>
       <r>   -1.4302    1.0000 </r>
       <r>   -1.4218    1.0000 </r>
       <r>   -1.4119    1.0000 </r>
       <r>   -1.3941    1.0000 </r>
       <r>   -1.3842    1.0000 </r>
       <r>   -1.3800    1.0000 </r>
       <r>   -1.3697    1.0000 </r>
       <r>   -1.3631    1.0000 </r>
       <r>   -1.3364    1.0000 </r>
       <r>   -1.3196    1.0000 </r>
       <r>   -1.2967    1.0000 </r>
       <r>   -1.2706    1.0000 </r>
       <r>   -1.2384    1.0000 </r>
       <r>   -1.2277    1.0000 </r>
       <r>   -1.2150    1.0000 </r>
       <r>   -1.2110    1.0000 </r>
       <r>   -1.1902    1.0000 </r>
       <r>   -1.1802    1.0000 </r>
       <r>   -1.1679    1.0000 </r>
       <r>   -1.1526    1.0000 </r>
       <r>   -1.0986    1.0000 </r>
       <r>   -1.0898    1.0000 </r>
       <r>   -1.0571    1.0000 </r>
       <r>   -1.0464    1.0000 </r>
       <r>   -0.9768    1.0000 </r>
       <r>   -0.8984    1.0000 </r>
       <r>   -0.8453    1.0000 </r>
       <r>   -0.6448    1.0000 </r>
       <r>   -0.5880    1.0000 </r>
       <r>   -0.5311    1.0000 </r>
       <r>   -0.2715    1.0000 </r>
       <r>   -0.0062    1.0000 </r>
       <r>    0.2998    1.0000 </r>
       <r>    2.5337    0.0000 </r>
       <r>    2.9146    0.0000 </r>
       <r>    2.9291    0.0000 </r>
       <r>    2.9875    0.0000 </r>
       <r>    3.1725    0.0000 </r>
       <r>    3.2840    0.0000 </r>
       <r>    3.3656    0.0000 </r>
       <r>    3.3790    0.0000 </r>
       <r>    3.4302    0.0000 </r>
       <r>    4.0466    0.0000 </r>
       <r>    4.2674    0.0000 </r>
       <r>    4.3353    0.0000 </r>
       <r>    4.5725    0.0000 </r>
       <r>    4.6025    0.0000 </r>
       <r>    4.7994    0.0000 </r>
       <r>    4.8230    0.0000 </r>
       <r>    5.4301    0.0000 </r>
       <r>    5.4942    0.0000 </r>
       <r>    5.5858    0.0000 </r>
       <r>    5.8291    0.0000 </r>
       <r>    5.8563    0.0000 </r>
       <r>    5.9021    0.0000 </r>
       <r>    6.0332    0.0000 </r>
       <r>    6.0508    0.0000 </r>
       <r>    6.0983    0.0000 </r>
       <r>    6.1194    0.0000 </r>
       <r>    6.1871    0.0000 </r>
       <r>    6.2350    0.0000 </r>
       <r>    6.2856    0.0000 </r>
       <r>    6.2983    0.0000 </r>
       <r>    6.3461    0.0000 </r>
       <r>    6.4390    0.0000 </r>
       <r>    6.4831    0.0000 </r>
       <r>    6.5364    0.0000 </r>
       <r>    6.5670    0.0000 </r>
       <r>    6.6143    0.0000 </r>
      </set>
      <set comment="kpoint 6">
       <r>  -20.9463    1.0000 </r>
       <r>  -20.8444    1.0000 </r>
       <r>  -20.8176    1.0000 </r>
       <r>  -20.7926    1.0000 </r>
       <r>  -20.7153    1.0000 </r>
       <r>  -20.7107    1.0000 </r>
       <r>  -20.7072    1.0000 </r>
       <r>  -20.6966    1.0000 </r>
       <r>  -17.2095    1.0000 </r>
       <r>  -16.6905    1.0000 </r>
       <r>  -16.6884    1.0000 </r>
       <r>  -16.6770    1.0000 </r>
       <r>  -16.6736    1.0000 </r>
       <r>  -16.6026    1.0000 </r>
       <r>  -16.5973    1.0000 </r>
       <r>  -16.5970    1.0000 </r>
       <r>  -16.5909    1.0000 </r>
       <r>  -16.5615    1.0000 </r>
       <r>  -16.5503    1.0000 </r>
       <r>  -16.4939    1.0000 </r>
       <r>  -16.4703    1.0000 </r>
       <r>  -16.4086    1.0000 </r>
       <r>  -16.3937    1.0000 </r>
       <r>  -16.3889    1.0000 </r>
       <r>  -16.3850    1.0000 </r>
       <r>  -16.3829    1.0000 </r>
       <r>  -16.3816    1.0000 </r>
       <r>  -16.3700    1.0000 </r>
       <r>  -16.3606    1.0000 </r>
       <r>  -16.3528    1.0000 </r>
       <r>  -16.3136    1.0000 </r>
       <r>  -16.3070    1.0000 </r>
       <r>  -16.2955    1.0000 </r>
       <r>  -16.2907    1.0000 </r>
       <r>  -16.2839    1.0000 </r>
       <r>  -16.2785    1.0000 </r>
       <r>  -16.2746    1.0000 </r>
       <r>  -16.2730    1.0000 </r>
       <r>  -16.2691    1.0000 </r>
       <r>  -16.2677    1.0000 </r>
       <r>  -16.2617    1.0000 </r>
       <r>  -16.2581    1.0000 </r>
       <r>  -16.2555    1.0000 </r>
       <r>  -16.1942    1.0000 </r>
       <r>  -16.1915    1.0000 </r>
       <r>  -16.1831    1.0000 </r>
       <r>  -16.1783    1.0000 </r>
       <r>  -16.1175    1.0000 </r>
       <r>  -14.6144    1.0000 </r>
       <r>  -14.3462    1.0000 </r>
       <r>  -14.2911    1.0000 </r>
       <r>  -14.2740    1.0000 </r>
       <r>  -14.1796    1.0000 </r>
       <r>  -14.1281    1.0000 </r>
       <r>  -14.1248    1.0000 </r>
       <r>  -14.1171    1.0000 </r>
       <r>  -14.0931    1.0000 </r>
       <r>  -14.0908    1.0000 </r>
       <r>  -14.0482    1.0000 </r>
       <r>  -14.0363    1.0000 </r>
       <r>  -13.9966    1.0000 </r>
       <r>  -13.9398    1.0000 </r>
       <r>  -13.8879    1.0000 </r>
       <r>  -13.8758    1.0000 </r>
       <r>  -13.8651    1.0000 </r>
       <r>  -13.8583    1.0000 </r>
       <r>  -13.8382    1.0000 </r>
       <r>  -13.8221    1.0000 </r>
       <r>  -13.8132    1.0000 </r>
       <r>  -13.7893    1.0000 </r>
       <r>  -13.6317    1.0000 </r>
       <r>   -7.9380    1.0000 </r>
       <r>   -7.8180    1.0000 </r>
       <r>   -7.7739    1.0000 </r>
       <r>   -7.7178    1.0000 </r>
       <r>   -7.3826    1.0000 </r>
       <r>   -7.3356    1.0000 </r>
       <r>   -7.3290    1.0000 </r>
       <r>   -7.3038    1.0000 </r>
       <r>   -7.2876    1.0000 </r>
       <r>   -7.2584    1.0000 </r>
       <r>   -7.2562    1.0000 </r>
       <r>   -7.2359    1.0000 </r>
       <r>   -7.2311    1.0000 </r>
       <r>   -7.2122    1.0000 </r>
       <r>   -7.2041    1.0000 </r>
       <r>   -7.2023    1.0000 </r>
       <r>   -7.1923    1.0000 </r>
       <r>   -7.1772    1.0000 </r>
       <r>   -7.1675    1.0000 </r>
       <r>   -7.1539    1.0000 </r>
[...]
        <r>  0.0000  0.0017  0.0002 </r>
        <r>  0.0006  0.0031  0.0011 </r>
        <r>  0.0010  0.0014  0.0006 </r>
        <r>  0.0001  0.0005  0.0011 </r>
        <r>  0.0014  0.0010  0.0008 </r>
        <r>  0.0000  0.0088  0.0006 </r>
        <r>  0.0046  0.0049  0.0007 </r>
        <r>  0.0001  0.0025  0.0006 </r>
        <r>  0.0000  0.0014  0.0016 </r>
       </set>
       <set comment="band 199">
        <r>  0.0082  0.0012  0.0065 </r>
        <r>  0.0002  0.0000  0.0061 </r>
        <r>  0.0014  0.0010  0.0132 </r>
        <r>  0.0013  0.0002  0.0038 </r>
        <r>  0.0001  0.0003  0.0067 </r>
        <r>  0.0054  0.0013  0.0055 </r>
        <r>  0.0003  0.0002  0.0052 </r>
        <r>  0.0000  0.0012  0.0121 </r>
        <r>  0.0000  0.0006  0.0000 </r>
        <r>  0.0000  0.0052  0.0001 </r>
        <r>  0.0000  0.0013  0.0004 </r>
        <r>  0.0000  0.0018  0.0002 </r>
        <r>  0.0001  0.0072  0.0010 </r>
        <r>  0.0001  0.0098  0.0005 </r>
        <r>  0.0000  0.0022  0.0005 </r>
        <r>  0.0001  0.0050  0.0022 </r>
        <r>  0.0012  0.0017  0.0018 </r>
        <r>  0.0000  0.0014  0.0021 </r>
        <r>  0.0004  0.0006  0.0007 </r>
        <r>  0.0000  0.0063  0.0010 </r>
        <r>  0.0000  0.0016  0.0003 </r>
        <r>  0.0000  0.0076  0.0010 </r>
        <r>  0.0000  0.0008  0.0016 </r>
        <r>  0.0014  0.0012  0.0020 </r>
        <r>  0.0002  0.0012  0.0004 </r>
        <r>  0.0000  0.0018  0.0017 </r>
        <r>  0.0000  0.0001  0.0003 </r>
        <r>  0.0002  0.0034  0.0003 </r>
        <r>  0.0000  0.0016  0.0004 </r>
        <r>  0.0001  0.0003  0.0002 </r>
        <r>  0.0009  0.0005  0.0010 </r>
        <r>  0.0008  0.0018  0.0003 </r>
        <r>  0.0004  0.0024  0.0014 </r>
        <r>  0.0000  0.0010  0.0001 </r>
        <r>  0.0000  0.0022  0.0002 </r>
        <r>  0.0010  0.0019  0.0011 </r>
        <r>  0.0001  0.0026  0.0013 </r>
        <r>  0.0041  0.0025  0.0037 </r>
        <r>  0.0000  0.0031  0.0029 </r>
       </set>
       <set comment="band 200">
        <r>  0.0039  0.0005  0.0010 </r>
        <r>  0.0001  0.0012  0.0060 </r>
        <r>  0.0004  0.0013  0.0046 </r>
        <r>  0.0033  0.0000  0.0066 </r>
        <r>  0.0002  0.0004  0.0060 </r>
        <r>  0.0066  0.0015  0.0030 </r>
        <r>  0.0072  0.0015  0.0094 </r>
        <r>  0.0027  0.0011  0.0074 </r>
        <r>  0.0000  0.0035  0.0000 </r>
        <r>  0.0000  0.0031  0.0002 </r>
        <r>  0.0000  0.0030  0.0001 </r>
        <r>  0.0000  0.0041  0.0000 </r>
        <r>  0.0002  0.0113  0.0003 </r>
        <r>  0.0000  0.0047  0.0003 </r>
        <r>  0.0000  0.0035  0.0002 </r>
        <r>  0.0001  0.0066  0.0001 </r>
        <r>  0.0001  0.0053  0.0019 </r>
        <r>  0.0003  0.0044  0.0010 </r>
        <r>  0.0001  0.0034  0.0007 </r>
        <r>  0.0013  0.0025  0.0017 </r>
        <r>  0.0016  0.0003  0.0013 </r>
        <r>  0.0009  0.0038  0.0031 </r>
        <r>  0.0013  0.0018  0.0023 </r>
        <r>  0.0000  0.0023  0.0010 </r>
        <r>  0.0000  0.0018  0.0001 </r>
        <r>  0.0012  0.0016  0.0015 </r>
        <r>  0.0003  0.0038  0.0009 </r>
        <r>  0.0002  0.0025  0.0004 </r>
        <r>  0.0001  0.0041  0.0002 </r>
        <r>  0.0000  0.0026  0.0004 </r>
        <r>  0.0003  0.0004  0.0007 </r>
        <r>  0.0022  0.0010  0.0015 </r>
        <r>  0.0012  0.0009  0.0012 </r>
        <r>  0.0010  0.0021  0.0008 </r>
        <r>  0.0015  0.0005  0.0017 </r>
        <r>  0.0001  0.0001  0.0006 </r>
        <r>  0.0007  0.0007  0.0011 </r>
        <r>  0.0002  0.0044  0.0004 </r>
        <r>  0.0002  0.0029  0.0012 </r>
       </set>
       <set comment="band 201">
        <r>  0.0000  0.0012  0.0167 </r>
        <r>  0.0025  0.0009  0.0116 </r>
        <r>  0.0000  0.0008  0.0127 </r>
        <r>  0.0001  0.0006  0.0031 </r>
        <r>  0.0043  0.0010  0.0047 </r>
        <r>  0.0001  0.0004  0.0144 </r>
        <r>  0.0000  0.0002  0.0053 </r>
        <r>  0.0005  0.0004  0.0230 </r>
        <r>  0.0000  0.0041  0.0001 </r>
        <r>  0.0000  0.0019  0.0001 </r>
        <r>  0.0000  0.0006  0.0002 </r>
        <r>  0.0000  0.0044  0.0008 </r>
        <r>  0.0001  0.0090  0.0004 </r>
        <r>  0.0001  0.0003  0.0005 </r>
        <r>  0.0000  0.0074  0.0005 </r>
        <r>  0.0000  0.0031  0.0012 </r>
        <r>  0.0001  0.0000  0.0006 </r>
        <r>  0.0002  0.0049  0.0010 </r>
        <r>  0.0005  0.0027  0.0022 </r>
        <r>  0.0002  0.0012  0.0007 </r>
        <r>  0.0003  0.0036  0.0007 </r>
        <r>  0.0001  0.0022  0.0010 </r>
        <r>  0.0006  0.0019  0.0019 </r>
        <r>  0.0012  0.0023  0.0014 </r>
        <r>  0.0019  0.0013  0.0033 </r>
        <r>  0.0006  0.0009  0.0011 </r>
        <r>  0.0000  0.0012  0.0007 </r>
        <r>  0.0001  0.0013  0.0009 </r>
        <r>  0.0005  0.0012  0.0015 </r>
        <r>  0.0004  0.0006  0.0009 </r>
        <r>  0.0002  0.0003  0.0008 </r>
        <r>  0.0002  0.0003  0.0012 </r>
        <r>  0.0006  0.0005  0.0005 </r>
        <r>  0.0001  0.0002  0.0004 </r>
        <r>  0.0000  0.0016  0.0014 </r>
        <r>  0.0016  0.0010  0.0015 </r>
        <r>  0.0002  0.0009  0.0009 </r>
        <r>  0.0004  0.0065  0.0020 </r>
        <r>  0.0002  0.0006  0.0027 </r>
       </set>
       <set comment="band 202">
        <r>  0.0033  0.0001  0.0130 </r>
        <r>  0.0006  0.0000  0.0027 </r>
        <r>  0.0066  0.0010  0.0115 </r>
        <r>  0.0027  0.0008  0.0112 </r>
        <r>  0.0034  0.0007  0.0014 </r>
        <r>  0.0001  0.0005  0.0060 </r>
        <r>  0.0004  0.0007  0.0043 </r>
        <r>  0.0000  0.0004  0.0166 </r>
        <r>  0.0000  0.0040  0.0001 </r>
        <r>  0.0000  0.0044  0.0001 </r>
        <r>  0.0000  0.0034  0.0001 </r>
        <r>  0.0000  0.0044  0.0002 </r>
        <r>  0.0000  0.0156  0.0002 </r>
        <r>  0.0000  0.0131  0.0008 </r>
        <r>  0.0000  0.0018  0.0002 </r>
        <r>  0.0000  0.0089  0.0006 </r>
        <r>  0.0001  0.0017  0.0008 </r>
        <r>  0.0005  0.0031  0.0025 </r>
        <r>  0.0005  0.0020  0.0003 </r>
        <r>  0.0001  0.0036  0.0006 </r>
        <r>  0.0009  0.0018  0.0024 </r>
        <r>  0.0008  0.0012  0.0014 </r>
        <r>  0.0003  0.0009  0.0003 </r>
        <r>  0.0002  0.0039  0.0008 </r>
        <r>  0.0011  0.0023  0.0027 </r>
        <r>  0.0000  0.0023  0.0002 </r>
        <r>  0.0000  0.0020  0.0004 </r>
        <r>  0.0000  0.0022  0.0018 </r>
        <r>  0.0000  0.0026  0.0002 </r>
        <r>  0.0006  0.0008  0.0011 </r>
        <r>  0.0009  0.0007  0.0009 </r>
        <r>  0.0003  0.0008  0.0006 </r>
        <r>  0.0008  0.0004  0.0030 </r>
        <r>  0.0000  0.0007  0.0004 </r>
        <r>  0.0012  0.0092  0.0017 </r>
        <r>  0.0001  0.0015  0.0025 </r>
        <r>  0.0009  0.0003  0.0007 </r>
        <r>  0.0009  0.0010  0.0013 </r>
        <r>  0.0025  0.0012  0.0019 </r>
       </set>
       <set comment="band 203">
        <r>  0.0000  0.0006  0.0160 </r>
        <r>  0.0017  0.0007  0.0087 </r>
        <r>  0.0000  0.0004  0.0051 </r>
        <r>  0.0010  0.0007  0.0094 </r>
        <r>  0.0058  0.0017  0.0170 </r>
        <r>  0.0005  0.0006  0.0180 </r>
        <r>  0.0043  0.0002  0.0029 </r>
        <r>  0.0000  0.0004  0.0047 </r>
        <r>  0.0000  0.0027  0.0005 </r>
        <r>  0.0001  0.0028  0.0004 </r>
        <r>  0.0000  0.0007  0.0001 </r>
        <r>  0.0000  0.0029  0.0003 </r>
        <r>  0.0001  0.0038  0.0004 </r>
        <r>  0.0000  0.0069  0.0009 </r>
        <r>  0.0000  0.0061  0.0001 </r>
        <r>  0.0000  0.0048  0.0005 </r>
        <r>  0.0006  0.0019  0.0011 </r>
        <r>  0.0000  0.0016  0.0004 </r>
        <r>  0.0021  0.0035  0.0030 </r>
        <r>  0.0000  0.0005  0.0018 </r>
        <r>  0.0000  0.0012  0.0009 </r>
        <r>  0.0014  0.0012  0.0017 </r>
        <r>  0.0004  0.0033  0.0014 </r>
        <r>  0.0009  0.0036  0.0034 </r>
        <r>  0.0009  0.0044  0.0013 </r>
        <r>  0.0014  0.0004  0.0020 </r>
        <r>  0.0011  0.0006  0.0011 </r>
        <r>  0.0001  0.0003  0.0009 </r>
        <r>  0.0008  0.0010  0.0008 </r>
        <r>  0.0000  0.0013  0.0005 </r>
        <r>  0.0003  0.0027  0.0012 </r>
        <r>  0.0000  0.0011  0.0004 </r>
        <r>  0.0003  0.0004  0.0005 </r>
        <r>  0.0006  0.0025  0.0004 </r>
        <r>  0.0000  0.0008  0.0002 </r>
        <r>  0.0002  0.0070  0.0008 </r>
        <r>  0.0011  0.0011  0.0009 </r>
        <r>  0.0004  0.0013  0.0011 </r>
        <r>  0.0002  0.0003  0.0012 </r>
       </set>
       <set comment="band 204">
        <r>  0.0035  0.0006  0.0051 </r>
        <r>  0.0048  0.0004  0.0027 </r>
        <r>  0.0021  0.0003  0.0101 </r>
        <r>  0.0007  0.0004  0.0109 </r>
        <r>  0.0004  0.0005  0.0138 </r>
        <r>  0.0010  0.0007  0.0088 </r>
        <r>  0.0065  0.0006  0.0025 </r>
        <r>  0.0025  0.0005  0.0022 </r>
        <r>  0.0000  0.0196  0.0000 </r>
        <r>  0.0000  0.0121  0.0001 </r>
        <r>  0.0001  0.0022  0.0001 </r>
        <r>  0.0000  0.0012  0.0003 </r>
        <r>  0.0001  0.0065  0.0001 </r>
        <r>  0.0000  0.0080  0.0001 </r>
        <r>  0.0000  0.0014  0.0002 </r>
        <r>  0.0001  0.0126  0.0008 </r>
        <r>  0.0000  0.0020  0.0010 </r>
        <r>  0.0016  0.0032  0.0016 </r>
        <r>  0.0009  0.0010  0.0015 </r>
        <r>  0.0007  0.0013  0.0018 </r>
        <r>  0.0004  0.0019  0.0012 </r>
        <r>  0.0010  0.0023  0.0007 </r>
        <r>  0.0014  0.0012  0.0015 </r>
        <r>  0.0005  0.0046  0.0011 </r>
        <r>  0.0002  0.0004  0.0017 </r>
        <r>  0.0005  0.0015  0.0011 </r>
        <r>  0.0007  0.0022  0.0017 </r>
        <r>  0.0014  0.0045  0.0022 </r>
        <r>  0.0003  0.0019  0.0005 </r>
        <r>  0.0002  0.0012  0.0003 </r>
        <r>  0.0000  0.0034  0.0001 </r>
        <r>  0.0003  0.0040  0.0002 </r>
        <r>  0.0004  0.0033  0.0011 </r>
        <r>  0.0023  0.0022  0.0030 </r>
        <r>  0.0000  0.0001  0.0012 </r>
        <r>  0.0000  0.0021  0.0021 </r>
        <r>  0.0000  0.0035  0.0019 </r>
        <r>  0.0001  0.0016  0.0005 </r>
        <r>  0.0001  0.0025  0.0037 </r>
       </set>
       <set comment="band 205">
        <r>  0.0028  0.0015  0.0151 </r>
        <r>  0.0030  0.0009  0.0059 </r>
        <r>  0.0011  0.0012  0.0056 </r>
        <r>  0.0067  0.0007  0.0071 </r>
        <r>  0.0025  0.0006  0.0064 </r>
        <r>  0.0006  0.0007  0.0114 </r>
        <r>  0.0023  0.0004  0.0080 </r>
        <r>  0.0004  0.0006  0.0088 </r>
        <r>  0.0001  0.0024  0.0001 </r>
        <r>  0.0001  0.0076  0.0005 </r>
        <r>  0.0000  0.0039  0.0002 </r>
        <r>  0.0000  0.0100  0.0000 </r>
        <r>  0.0000  0.0053  0.0001 </r>
        <r>  0.0000  0.0043  0.0004 </r>
        <r>  0.0000  0.0029  0.0001 </r>
        <r>  0.0000  0.0098  0.0002 </r>
        <r>  0.0018  0.0010  0.0022 </r>
        <r>  0.0004  0.0017  0.0016 </r>
        <r>  0.0014  0.0004  0.0017 </r>
        <r>  0.0004  0.0035  0.0012 </r>
        <r>  0.0002  0.0040  0.0006 </r>
        <r>  0.0006  0.0026  0.0013 </r>
        <r>  0.0001  0.0053  0.0008 </r>
        <r>  0.0010  0.0022  0.0013 </r>
        <r>  0.0008  0.0001  0.0016 </r>
        <r>  0.0005  0.0006  0.0019 </r>
        <r>  0.0014  0.0005  0.0021 </r>
        <r>  0.0016  0.0020  0.0017 </r>
        <r>  0.0004  0.0021  0.0006 </r>
        <r>  0.0020  0.0014  0.0029 </r>
        <r>  0.0002  0.0027  0.0011 </r>
        <r>  0.0003  0.0046  0.0008 </r>
        <r>  0.0003  0.0072  0.0003 </r>
        <r>  0.0001  0.0014  0.0003 </r>
        <r>  0.0003  0.0015  0.0011 </r>
        <r>  0.0001  0.0013  0.0002 </r>
        <r>  0.0006  0.0011  0.0009 </r>
        <r>  0.0001  0.0021  0.0013 </r>
        <r>  0.0000  0.0002  0.0008 </r>
       </set>
       <set comment="band 206">
        <r>  0.0001  0.0002  0.0089 </r>
        <r>  0.0001  0.0007  0.0085 </r>
        <r>  0.0085  0.0010  0.0130 </r>
        <r>  0.0014  0.0005  0.0052 </r>
        <r>  0.0004  0.0001  0.0060 </r>
        <r>  0.0017  0.0003  0.0127 </r>
        <r>  0.0011  0.0015  0.0125 </r>
        <r>  0.0010  0.0015  0.0204 </r>
        <r>  0.0000  0.0030  0.0004 </r>
        <r>  0.0000  0.0012  0.0002 </r>
        <r>  0.0000  0.0117  0.0000 </r>
        <r>  0.0000  0.0036  0.0001 </r>
        <r>  0.0000  0.0041  0.0001 </r>
        <r>  0.0001  0.0029  0.0005 </r>
        <r>  0.0000  0.0039  0.0002 </r>
        <r>  0.0001  0.0022  0.0007 </r>
        <r>  0.0000  0.0052  0.0013 </r>
        <r>  0.0002  0.0008  0.0010 </r>
        <r>  0.0001  0.0052  0.0010 </r>
        <r>  0.0003  0.0006  0.0006 </r>
        <r>  0.0019  0.0013  0.0034 </r>
        <r>  0.0010  0.0021  0.0015 </r>
        <r>  0.0001  0.0008  0.0006 </r>
        <r>  0.0000  0.0010  0.0004 </r>
        <r>  0.0004  0.0027  0.0003 </r>
        <r>  0.0000  0.0002  0.0009 </r>
        <r>  0.0001  0.0009  0.0010 </r>
        <r>  0.0001  0.0012  0.0009 </r>
        <r>  0.0035  0.0029  0.0043 </r>
        <r>  0.0001  0.0011  0.0003 </r>
        <r>  0.0013  0.0054  0.0017 </r>
        <r>  0.0003  0.0003  0.0011 </r>
        <r>  0.0001  0.0012  0.0018 </r>
        <r>  0.0004  0.0011  0.0008 </r>
        <r>  0.0007  0.0044  0.0020 </r>
        <r>  0.0003  0.0008  0.0010 </r>
        <r>  0.0000  0.0008  0.0004 </r>
        <r>  0.0000  0.0008  0.0008 </r>
        <r>  0.0000  0.0028  0.0013 </r>
       </set>
       <set comment="band 207">
        <r>  0.0000  0.0008  0.0051 </r>
        <r>  0.0004  0.0001  0.0207 </r>
        <r>  0.0008  0.0007  0.0094 </r>
        <r>  0.0009  0.0001  0.0102 </r>
        <r>  0.0005  0.0011  0.0133 </r>
        <r>  0.0051  0.0004  0.0237 </r>
        <r>  0.0000  0.0005  0.0091 </r>
        <r>  0.0007  0.0002  0.0191 </r>
        <r>  0.0000  0.0021  0.0006 </r>
        <r>  0.0000  0.0027  0.0001 </r>
        <r>  0.0001  0.0080  0.0003 </r>
        <r>  0.0000  0.0063  0.0002 </r>
        <r>  0.0000  0.0007  0.0002 </r>
        <r>  0.0001  0.0006  0.0002 </r>
        <r>  0.0000  0.0066  0.0002 </r>
        <r>  0.0001  0.0034  0.0005 </r>
        <r>  0.0001  0.0013  0.0009 </r>
        <r>  0.0000  0.0018  0.0002 </r>
        <r>  0.0001  0.0018  0.0012 </r>
        <r>  0.0001  0.0028  0.0005 </r>
        <r>  0.0004  0.0021  0.0010 </r>
        <r>  0.0001  0.0008  0.0004 </r>
        <r>  0.0010  0.0010  0.0020 </r>
        <r>  0.0001  0.0004  0.0014 </r>
        <r>  0.0001  0.0005  0.0005 </r>
        <r>  0.0007  0.0014  0.0015 </r>
        <r>  0.0001  0.0018  0.0016 </r>
        <r>  0.0028  0.0007  0.0025 </r>
        <r>  0.0005  0.0016  0.0017 </r>
        <r>  0.0002  0.0033  0.0005 </r>
        <r>  0.0000  0.0006  0.0015 </r>
        <r>  0.0004  0.0020  0.0030 </r>
        <r>  0.0004  0.0017  0.0003 </r>
        <r>  0.0001  0.0031  0.0016 </r>
        <r>  0.0002  0.0003  0.0014 </r>
        <r>  0.0021  0.0006  0.0022 </r>
        <r>  0.0001  0.0006  0.0015 </r>
        <r>  0.0001  0.0019  0.0021 </r>
        <r>  0.0001  0.0009  0.0010 </r>
       </set>
       <set comment="band 208">
        <r>  0.0000  0.0005  0.0127 </r>
        <r>  0.0004  0.0003  0.0175 </r>
        <r>  0.0001  0.0004  0.0031 </r>
        <r>  0.0003  0.0010  0.0226 </r>
        <r>  0.0010  0.0002  0.0108 </r>
        <r>  0.0003  0.0005  0.0130 </r>
        <r>  0.0006  0.0007  0.0211 </r>
        <r>  0.0001  0.0002  0.0260 </r>
        <r>  0.0000  0.0018  0.0006 </r>
        <r>  0.0000  0.0018  0.0006 </r>
        <r>  0.0000  0.0011  0.0005 </r>
        <r>  0.0000  0.0036  0.0004 </r>
        <r>  0.0000  0.0016  0.0005 </r>
        <r>  0.0000  0.0063  0.0003 </r>
        <r>  0.0000  0.0015  0.0005 </r>
        <r>  0.0001  0.0047  0.0004 </r>
        <r>  0.0000  0.0021  0.0014 </r>
        <r>  0.0012  0.0012  0.0016 </r>
        <r>  0.0002  0.0012  0.0006 </r>
        <r>  0.0003  0.0005  0.0008 </r>
        <r>  0.0008  0.0014  0.0025 </r>
        <r>  0.0002  0.0017  0.0005 </r>
        <r>  0.0002  0.0009  0.0010 </r>
        <r>  0.0004  0.0007  0.0015 </r>
        <r>  0.0000  0.0007  0.0009 </r>
        <r>  0.0010  0.0017  0.0025 </r>
        <r>  0.0000  0.0008  0.0019 </r>
        <r>  0.0010  0.0007  0.0026 </r>
        <r>  0.0003  0.0000  0.0011 </r>
        <r>  0.0006  0.0004  0.0023 </r>
        <r>  0.0000  0.0014  0.0019 </r>
        <r>  0.0002  0.0010  0.0005 </r>
        <r>  0.0001  0.0008  0.0012 </r>
        <r>  0.0002  0.0023  0.0035 </r>
        <r>  0.0002  0.0004  0.0006 </r>
        <r>  0.0004  0.0028  0.0005 </r>
        <r>  0.0004  0.0023  0.0015 </r>
        <r>  0.0005  0.0018  0.0019 </r>
        <r>  0.0003  0.0005  0.0008 </r>
       </set>
      </set>
     </set>
    </set>
   </array>
  </projected>
 </calculation>
 <structure name="finalpos" >
  <crystal>
   <varray name="basis" >
    <v>       8.45648900       0.00000000       8.04030100 </v>
    <v>       0.00000000      11.72984700       0.00000000 </v>
    <v>      -8.45648900       0.00000000       8.04030100 </v>
   </varray>
   <i name="volume">   1595.08833419 </i>
   <varray name="rec_basis" >
    <v>       0.05912619      -0.00000000       0.06218673 </v>
    <v>       0.00000000       0.08525260      -0.00000000 </v>
    <v>      -0.05912619       0.00000000       0.06218673 </v>
   </varray>
  </crystal>
  <varray name="positions" >
   <v>       0.26445100       0.24057600       0.20344600 </v>
   <v>       0.77772100       0.23870000       0.72013900 </v>
   <v>       0.71937300       0.76618300       0.26324000 </v>
   <v>       0.20438800       0.75460100       0.77850400 </v>
   <v>       0.28653700       0.24356300       0.72831200 </v>
   <v>       0.79632700       0.24588900       0.22559000 </v>
   <v>       0.72875400       0.75386900       0.79428500 </v>
   <v>       0.22509500       0.75670000       0.28833200 </v>
   <v>       0.00036000       0.99914500       0.99943000 </v>
   <v>       0.49986400       0.00024600       0.49941700 </v>
   <v>       0.49884100       0.00137300       0.99960400 </v>
   <v>       0.00001400       0.99927400       0.50056800 </v>
   <v>       0.50139400       0.49787300       0.99146800 </v>
   <v>       0.00482900       0.50090100       0.50007900 </v>
   <v>       0.99952000       0.50015800       0.99959000 </v>
   <v>       0.49208400       0.50096400       0.50648500 </v>
   <v>       0.47156100       0.74850300       0.96850500 </v>
   <v>       0.96902800       0.74800900       0.46397700 </v>
   <v>       0.97208700       0.24979000       0.97368100 </v>
   <v>       0.46006900       0.25358600       0.46715600 </v>
   <v>       0.02904200       0.74908100       0.03302900 </v>
   <v>       0.54656600       0.74710300       0.52102300 </v>
   <v>       0.52819300       0.25239300       0.04220000 </v>
   <v>       0.02584100       0.25137900       0.53358400 </v>
   <v>       0.24834500       0.46657500       0.95087500 </v>
   <v>       0.94541800       0.53165600       0.74592200 </v>
   <v>       0.54616100       0.03522400       0.75196600 </v>
   <v>       0.04640700       0.02861900       0.25291000 </v>
   <v>       0.75228700       0.97508200       0.04342100 </v>
   <v>       0.25250300       0.96133400       0.54920800 </v>
   <v>       0.24788500       0.03181800       0.94899700 </v>
   <v>       0.74741000       0.03730300       0.45048600 </v>
   <v>       0.44944000       0.96687100       0.24756000 </v>
   <v>       0.95010400       0.96420900       0.74779700 </v>
   <v>       0.74999900       0.53104800       0.05629600 </v>
   <v>       0.25166200       0.53977200       0.55516900 </v>
   <v>       0.55566600       0.46181500       0.74786200 </v>
   <v>       0.05554500       0.46718600       0.25366000 </v>
   <v>       0.60030500       0.50163200       0.34730500 </v>
  </varray>
 </structure>
</modeling>
