CsPbBr3 cubic bulk                      
           1
     8.456489    0.000000    8.040301
     0.000000   11.729847    0.000000
    -8.456489    0.000000    8.040301
   Cs   Pb   Br
   8   8  23
Direct configuration=     1
   0.26445100  0.24057600  0.20344600
   0.77772100  0.23870000  0.72013900
   0.71937300  0.76618300  0.26324000
   0.20438800  0.75460100  0.77850400
   0.28653700  0.24356300  0.72831200
   0.79632700  0.24588900  0.22559000
   0.72875400  0.75386900  0.79428500
   0.22509500  0.75670000  0.28833200
   0.00036000  0.99914500  0.99943000
   0.49986400  0.00024600  0.49941700
   0.49884100  0.00137300  0.99960400
   0.00001400  0.99927400  0.50056800
   0.50139400  0.49787300  0.99146800
   0.00482900  0.50090100  0.50007900
   0.99952000  0.50015800  0.99959000
   0.49208400  0.50096400  0.50648500
   0.47156100  0.74850300  0.96850500
   0.96902800  0.74800900  0.46397700
   0.97208700  0.24979000  0.97368100
   0.46006900  0.25358600  0.46715600
   0.02904200  0.74908100  0.03302900
   0.54656600  0.74710300  0.52102300
   0.52819300  0.25239300  0.04220000
   0.02584100  0.25137900  0.53358400
   0.24834500  0.46657500  0.95087500
   0.94541800  0.53165600  0.74592200
   0.54616100  0.03522400  0.75196600
   0.04640700  0.02861900  0.25291000
   0.75228700  0.97508200  0.04342100
   0.25250300  0.96133400  0.54920800
   0.24788500  0.03181800  0.94899700
   0.74741000  0.03730300  0.45048600
   0.44944000  0.96687100  0.24756000
   0.95010400  0.96420900  0.74779700
   0.74999900  0.53104800  0.05629600
   0.25166200  0.53977200  0.55516900
   0.55566600  0.46181500  0.74786200
   0.05554500  0.46718600  0.25366000
   0.60030500  0.50163200  0.34730500
