  39  39   1   0
  0.4103261E+02  0.1166835E-08  0.1176381E-08  0.1166835E-08  0.5000000E-15
   1.0000000000000000E-004
  CAR 
 CsPbBr3 cubic bulk                      
      7.95770868    -22.65344250  301      0.33043018      1.00000000
    -22.653  0.0000E+00  0.0000E+00
    -22.551  0.0000E+00  0.0000E+00
    -22.449  0.0000E+00  0.0000E+00
    -22.347  0.0000E+00  0.0000E+00
    -22.245  0.0000E+00  0.0000E+00
    -22.143  0.0000E+00  0.0000E+00
    -22.041  0.0000E+00  0.0000E+00
    -21.939  0.0000E+00  0.0000E+00
    -21.837  0.0000E+00  0.0000E+00
    -21.735  0.0000E+00  0.0000E+00
    -21.633  0.0000E+00  0.0000E+00
    -21.531  0.0000E+00  0.0000E+00
    -21.429  0.0000E+00  0.0000E+00
    -21.327  0.0000E+00  0.0000E+00
    -21.225  0.1960E+02  0.2000E+01
    -21.123  0.0000E+00  0.2000E+01
    -21.021  0.3757E+02  0.5833E+01
    -20.919  0.3920E+02  0.1000E+02
    -20.817  0.3920E+02  0.1400E+02
    -20.715  0.0000E+00  0.1400E+02
    -20.613  0.0000E+00  0.1400E+02
    -20.511  0.0000E+00  0.1400E+02
    -20.409  0.0000E+00  0.1400E+02
    -20.307  0.0000E+00  0.1400E+02
    -20.205  0.0000E+00  0.1400E+02
    -20.103  0.0000E+00  0.1400E+02
    -20.000  0.0000E+00  0.1400E+02
    -19.898  0.0000E+00  0.1400E+02
    -19.796  0.0000E+00  0.1400E+02
    -19.694  0.0000E+00  0.1400E+02
    -19.592  0.0000E+00  0.1400E+02
    -19.490  0.0000E+00  0.1400E+02
    -19.388  0.0000E+00  0.1400E+02
    -19.286  0.0000E+00  0.1400E+02
    -19.184  0.0000E+00  0.1400E+02
    -19.082  0.0000E+00  0.1400E+02
    -18.980  0.0000E+00  0.1400E+02
    -18.878  0.0000E+00  0.1400E+02
    -18.776  0.0000E+00  0.1400E+02
    -18.674  0.0000E+00  0.1400E+02
    -18.572  0.0000E+00  0.1400E+02
    -18.470  0.0000E+00  0.1400E+02
    -18.368  0.0000E+00  0.1400E+02
    -18.266  0.0000E+00  0.1400E+02
    -18.164  0.0000E+00  0.1400E+02
    -18.062  0.0000E+00  0.1400E+02
    -17.960  0.0000E+00  0.1400E+02
    -17.858  0.0000E+00  0.1400E+02
    -17.756  0.0000E+00  0.1400E+02
    -17.654  0.0000E+00  0.1400E+02
    -17.552  0.0000E+00  0.1400E+02
    -17.450  0.0000E+00  0.1400E+02
    -17.348  0.0000E+00  0.1400E+02
    -17.245  0.0000E+00  0.1400E+02
    -17.143  0.0000E+00  0.1400E+02
    -17.041  0.0000E+00  0.1400E+02
    -16.939  0.0000E+00  0.1400E+02
    -16.837  0.1705E-02  0.1400E+02
    -16.735  0.1187E+03  0.2611E+02
    -16.633  0.2175E+03  0.5219E+02
    -16.531  0.1052E+03  0.6474E+02
    -16.429  0.1526E+03  0.8407E+02
    -16.327  0.0000E+00  0.9400E+02
    -16.225  0.0000E+00  0.9400E+02
    -16.123  0.0000E+00  0.9400E+02
    -16.021  0.0000E+00  0.9400E+02
    -15.919  0.0000E+00  0.9400E+02
    -15.817  0.0000E+00  0.9400E+02
    -15.715  0.0000E+00  0.9400E+02
    -15.613  0.0000E+00  0.9400E+02
    -15.511  0.0000E+00  0.9400E+02
    -15.409  0.0000E+00  0.9400E+02
    -15.307  0.0000E+00  0.9400E+02
    -15.205  0.0000E+00  0.9400E+02
    -15.103  0.0000E+00  0.9400E+02
    -15.001  0.0000E+00  0.9400E+02
    -14.899  0.0000E+00  0.9400E+02
    -14.797  0.0000E+00  0.9400E+02
    -14.695  0.1230E-02  0.9400E+02
    -14.593  0.3920E+02  0.9800E+02
    -14.490  0.5803E+01  0.9859E+02
    -14.388  0.2825E+02  0.1019E+03
    -14.286  0.6452E+02  0.1093E+03
    -14.184  0.4363E+02  0.1145E+03
    -14.082  0.7391E+02  0.1225E+03
    -13.980  0.4674E+02  0.1295E+03
    -13.878  0.4948E+02  0.1355E+03
    -13.776  0.3185E+02  0.1400E+03
    -13.674  0.1960E+02  0.1420E+03
    -13.572  0.0000E+00  0.1420E+03
    -13.470  0.0000E+00  0.1420E+03
    -13.368  0.0000E+00  0.1420E+03
    -13.266  0.0000E+00  0.1420E+03
    -13.164  0.0000E+00  0.1420E+03
    -13.062  0.0000E+00  0.1420E+03
    -12.960  0.0000E+00  0.1420E+03
    -12.858  0.0000E+00  0.1420E+03
    -12.756  0.0000E+00  0.1420E+03
    -12.654  0.0000E+00  0.1420E+03
    -12.552  0.0000E+00  0.1420E+03
    -12.450  0.0000E+00  0.1420E+03
    -12.348  0.0000E+00  0.1420E+03
    -12.246  0.0000E+00  0.1420E+03
    -12.144  0.0000E+00  0.1420E+03
    -12.042  0.0000E+00  0.1420E+03
    -11.940  0.0000E+00  0.1420E+03
    -11.838  0.0000E+00  0.1420E+03
    -11.735  0.0000E+00  0.1420E+03
    -11.633  0.0000E+00  0.1420E+03
    -11.531  0.0000E+00  0.1420E+03
    -11.429  0.0000E+00  0.1420E+03
    -11.327  0.0000E+00  0.1420E+03
    -11.225  0.0000E+00  0.1420E+03
    -11.123  0.0000E+00  0.1420E+03
    -11.021  0.0000E+00  0.1420E+03
    -10.919  0.0000E+00  0.1420E+03
    -10.817  0.0000E+00  0.1420E+03
    -10.715  0.0000E+00  0.1420E+03
    -10.613  0.0000E+00  0.1420E+03
    -10.511  0.0000E+00  0.1420E+03
    -10.409  0.0000E+00  0.1420E+03
    -10.307  0.0000E+00  0.1420E+03
    -10.205  0.0000E+00  0.1420E+03
    -10.103  0.0000E+00  0.1420E+03
    -10.001  0.0000E+00  0.1420E+03
     -9.899  0.0000E+00  0.1420E+03
     -9.797  0.0000E+00  0.1420E+03
     -9.695  0.0000E+00  0.1420E+03
     -9.593  0.0000E+00  0.1420E+03
     -9.491  0.0000E+00  0.1420E+03
     -9.389  0.0000E+00  0.1420E+03
     -9.287  0.0000E+00  0.1420E+03
     -9.185  0.0000E+00  0.1420E+03
     -9.082  0.0000E+00  0.1420E+03
     -8.980  0.0000E+00  0.1420E+03
     -8.878  0.0000E+00  0.1420E+03
     -8.776  0.0000E+00  0.1420E+03
     -8.674  0.0000E+00  0.1420E+03
     -8.572  0.0000E+00  0.1420E+03
     -8.470  0.0000E+00  0.1420E+03
     -8.368  0.2450E+01  0.1422E+03
     -8.266  0.7380E+00  0.1423E+03
     -8.164  0.7656E+01  0.1433E+03
     -8.062  0.3449E+01  0.1439E+03
     -7.960  0.1062E+02  0.1453E+03
     -7.858  0.1517E+02  0.1473E+03
     -7.756  0.2350E+02  0.1499E+03
     -7.654  0.3881E+02  0.1545E+03
     -7.552  0.2498E+02  0.1583E+03
     -7.450  0.5197E+02  0.1638E+03
     -7.348  0.1175E+03  0.1807E+03
     -7.246  0.1061E+03  0.1956E+03
     -7.144  0.2450E+01  0.1985E+03
     -7.042  0.8617E+01  0.1994E+03
     -6.940  0.2450E+01  0.1997E+03
     -6.838  0.0000E+00  0.1998E+03
     -6.736  0.2273E+01  0.2000E+03
     -6.634  0.0000E+00  0.2000E+03
     -6.532  0.0000E+00  0.2000E+03
     -6.430  0.0000E+00  0.2000E+03
     -6.327  0.0000E+00  0.2000E+03
     -6.225  0.0000E+00  0.2000E+03
     -6.123  0.0000E+00  0.2000E+03
     -6.021  0.0000E+00  0.2000E+03
     -5.919  0.0000E+00  0.2000E+03
     -5.817  0.0000E+00  0.2000E+03
     -5.715  0.0000E+00  0.2000E+03
     -5.613  0.0000E+00  0.2000E+03
     -5.511  0.0000E+00  0.2000E+03
     -5.409  0.0000E+00  0.2000E+03
     -5.307  0.0000E+00  0.2000E+03
     -5.205  0.0000E+00  0.2000E+03
     -5.103  0.0000E+00  0.2000E+03
     -5.001  0.0000E+00  0.2000E+03
     -4.899  0.0000E+00  0.2000E+03
     -4.797  0.0000E+00  0.2000E+03
     -4.695  0.0000E+00  0.2000E+03
     -4.593  0.0000E+00  0.2000E+03
     -4.491  0.0000E+00  0.2000E+03
     -4.389  0.0000E+00  0.2000E+03
     -4.287  0.0000E+00  0.2000E+03
     -4.185  0.0000E+00  0.2000E+03
     -4.083  0.0000E+00  0.2000E+03
     -3.981  0.0000E+00  0.2000E+03
     -3.879  0.0000E+00  0.2000E+03
     -3.777  0.0000E+00  0.2000E+03
     -3.675  0.0000E+00  0.2000E+03
     -3.572  0.4799E+01  0.2005E+03
     -3.470  0.2450E+02  0.2035E+03
     -3.368  0.1272E+02  0.2048E+03
     -3.266  0.2827E+02  0.2089E+03
     -3.164  0.1715E+02  0.2113E+03
     -3.062  0.1170E+02  0.2124E+03
     -2.960  0.7522E+01  0.2133E+03
     -2.858  0.9243E+01  0.2144E+03
     -2.756  0.4115E+02  0.2192E+03
     -2.654  0.1955E+02  0.2220E+03
     -2.552  0.2990E+02  0.2266E+03
     -2.450  0.2464E+02  0.2303E+03
     -2.348  0.2673E+02  0.2345E+03
     -2.246  0.4216E+02  0.2393E+03
     -2.144  0.2983E+02  0.2435E+03
     -2.042  0.1657E+02  0.2457E+03
     -1.940  0.3188E+02  0.2503E+03
     -1.838  0.5809E+02  0.2572E+03
     -1.736  0.5645E+02  0.2648E+03
     -1.634  0.6552E+02  0.2729E+03
     -1.532  0.8154E+02  0.2836E+03
     -1.430  0.7307E+02  0.2940E+03
     -1.328  0.7587E+02  0.3042E+03
     -1.226  0.6975E+02  0.3139E+03
     -1.124  0.7548E+02  0.3237E+03
     -1.022  0.2729E+02  0.3278E+03
     -0.920  0.3994E+02  0.3326E+03
     -0.817  0.2422E+02  0.3352E+03
     -0.715  0.1734E+02  0.3378E+03
     -0.613  0.1655E+02  0.3397E+03
     -0.511  0.7861E+01  0.3408E+03
     -0.409  0.1466E+01  0.3414E+03
     -0.307  0.7471E+01  0.3423E+03
     -0.205  0.4699E+01  0.3430E+03
     -0.103  0.2524E+01  0.3433E+03
     -0.001  0.2450E+01  0.3438E+03
      0.101  0.0000E+00  0.3438E+03
      0.203  0.1322E-04  0.3438E+03
      0.305  0.2450E+01  0.3440E+03
      0.407  0.0000E+00  0.3440E+03
      0.509  0.0000E+00  0.3440E+03
      0.611  0.0000E+00  0.3440E+03
      0.713  0.0000E+00  0.3440E+03
      0.815  0.0000E+00  0.3440E+03
      0.917  0.0000E+00  0.3440E+03
      1.019  0.0000E+00  0.3440E+03
      1.121  0.0000E+00  0.3440E+03
      1.223  0.0000E+00  0.3440E+03
      1.325  0.0000E+00  0.3440E+03
      1.427  0.0000E+00  0.3440E+03
      1.529  0.0000E+00  0.3440E+03
      1.631  0.0000E+00  0.3440E+03
      1.733  0.0000E+00  0.3440E+03
      1.835  0.0000E+00  0.3440E+03
      1.938  0.0000E+00  0.3440E+03
      2.040  0.0000E+00  0.3440E+03
      2.142  0.0000E+00  0.3440E+03
      2.244  0.0000E+00  0.3440E+03
      2.346  0.0000E+00  0.3440E+03
      2.448  0.0000E+00  0.3440E+03
      2.550  0.1125E+01  0.3441E+03
      2.652  0.3659E+01  0.3446E+03
      2.754  0.1225E+02  0.3460E+03
      2.856  0.1380E+02  0.3477E+03
      2.958  0.1462E+02  0.3492E+03
      3.060  0.1324E+02  0.3516E+03
      3.162  0.1574E+02  0.3536E+03
      3.264  0.9800E+01  0.3550E+03
      3.366  0.6402E+01  0.3557E+03
      3.468  0.2450E+01  0.3560E+03
      3.570  0.0000E+00  0.3560E+03
      3.672  0.0000E+00  0.3560E+03
      3.774  0.0000E+00  0.3560E+03
      3.876  0.2223E+01  0.3562E+03
      3.978  0.1305E+02  0.3581E+03
      4.080  0.1402E+02  0.3602E+03
      4.182  0.1982E+02  0.3628E+03
      4.284  0.3271E+02  0.3663E+03
      4.386  0.2694E+02  0.3695E+03
      4.488  0.2458E+02  0.3728E+03
      4.590  0.2354E+02  0.3759E+03
      4.693  0.1273E+02  0.3778E+03
      4.795  0.1699E+02  0.3797E+03
      4.897  0.6300E-04  0.3798E+03
      4.999  0.4900E+01  0.3802E+03
      5.101  0.1772E-12  0.3802E+03
      5.203  0.2450E+01  0.3805E+03
      5.305  0.5937E+01  0.3811E+03
      5.407  0.1053E+02  0.3823E+03
      5.509  0.2125E+02  0.3854E+03
      5.611  0.1349E+02  0.3869E+03
      5.713  0.1516E+02  0.3885E+03
      5.815  0.1100E+02  0.3904E+03
      5.917  0.3293E+02  0.3944E+03
      6.019  0.2411E+02  0.3977E+03
      6.121  0.2762E+02  0.4011E+03
      6.223  0.1957E+02  0.4035E+03
      6.325  0.3427E+02  0.4070E+03
      6.427  0.2848E+02  0.4114E+03
      6.529  0.2443E+02  0.4152E+03
      6.631  0.4900E+01  0.4160E+03
      6.733  0.0000E+00  0.4160E+03
      6.835  0.0000E+00  0.4160E+03
      6.937  0.0000E+00  0.4160E+03
      7.039  0.0000E+00  0.4160E+03
      7.141  0.0000E+00  0.4160E+03
      7.243  0.0000E+00  0.4160E+03
      7.345  0.0000E+00  0.4160E+03
      7.448  0.0000E+00  0.4160E+03
      7.550  0.0000E+00  0.4160E+03
      7.652  0.0000E+00  0.4160E+03
      7.754  0.0000E+00  0.4160E+03
      7.856  0.0000E+00  0.4160E+03
      7.958  0.0000E+00  0.4160E+03
      7.95770868    -22.65344250  301      0.33043018      1.00000000
    -22.653  0.0000E+00  0.0000E+00  0.0000E+00
    -22.551  0.0000E+00  0.0000E+00  0.0000E+00
    -22.449  0.0000E+00  0.0000E+00  0.0000E+00
    -22.347  0.0000E+00  0.0000E+00  0.0000E+00
    -22.245  0.0000E+00  0.0000E+00  0.0000E+00
    -22.143  0.0000E+00  0.0000E+00  0.0000E+00
    -22.041  0.0000E+00  0.0000E+00  0.0000E+00
    -21.939  0.0000E+00  0.0000E+00  0.0000E+00
    -21.837  0.0000E+00  0.0000E+00  0.0000E+00
    -21.735  0.0000E+00  0.0000E+00  0.0000E+00
    -21.633  0.0000E+00  0.0000E+00  0.0000E+00
    -21.531  0.0000E+00  0.0000E+00  0.0000E+00
    -21.429  0.0000E+00  0.0000E+00  0.0000E+00
    -21.327  0.0000E+00  0.0000E+00  0.0000E+00
    -21.225  0.2553E-06  0.2429E-08  0.3618E-10
    -21.123  0.0000E+00  0.0000E+00  0.0000E+00
    -21.021  0.1862E-02  0.1809E-06  0.2087E-07
    -20.919  0.1739E+02  0.1775E-04  0.3207E-05
    -20.817  0.1803E-02  0.2717E-06  0.2886E-07
    -20.715  0.0000E+00  0.0000E+00  0.0000E+00
    -20.613  0.0000E+00  0.0000E+00  0.0000E+00
    -20.511  0.0000E+00  0.0000E+00  0.0000E+00
    -20.409  0.0000E+00  0.0000E+00  0.0000E+00
    -20.307  0.0000E+00  0.0000E+00  0.0000E+00
    -20.205  0.0000E+00  0.0000E+00  0.0000E+00
    -20.103  0.0000E+00  0.0000E+00  0.0000E+00
    -20.000  0.0000E+00  0.0000E+00  0.0000E+00
    -19.898  0.0000E+00  0.0000E+00  0.0000E+00
    -19.796  0.0000E+00  0.0000E+00  0.0000E+00
    -19.694  0.0000E+00  0.0000E+00  0.0000E+00
    -19.592  0.0000E+00  0.0000E+00  0.0000E+00
    -19.490  0.0000E+00  0.0000E+00  0.0000E+00
    -19.388  0.0000E+00  0.0000E+00  0.0000E+00
    -19.286  0.0000E+00  0.0000E+00  0.0000E+00
    -19.184  0.0000E+00  0.0000E+00  0.0000E+00
    -19.082  0.0000E+00  0.0000E+00  0.0000E+00
    -18.980  0.0000E+00  0.0000E+00  0.0000E+00
    -18.878  0.0000E+00  0.0000E+00  0.0000E+00
    -18.776  0.0000E+00  0.0000E+00  0.0000E+00
    -18.674  0.0000E+00  0.0000E+00  0.0000E+00
    -18.572  0.0000E+00  0.0000E+00  0.0000E+00
    -18.470  0.0000E+00  0.0000E+00  0.0000E+00
    -18.368  0.0000E+00  0.0000E+00  0.0000E+00
    -18.266  0.0000E+00  0.0000E+00  0.0000E+00
    -18.164  0.0000E+00  0.0000E+00  0.0000E+00
    -18.062  0.0000E+00  0.0000E+00  0.0000E+00
    -17.960  0.0000E+00  0.0000E+00  0.0000E+00
    -17.858  0.0000E+00  0.0000E+00  0.0000E+00
    -17.756  0.0000E+00  0.0000E+00  0.0000E+00
    -17.654  0.0000E+00  0.0000E+00  0.0000E+00
    -17.552  0.0000E+00  0.0000E+00  0.0000E+00
    -17.450  0.0000E+00  0.0000E+00  0.0000E+00
    -17.348  0.0000E+00  0.0000E+00  0.0000E+00
    -17.245  0.0000E+00  0.0000E+00  0.0000E+00
    -17.143  0.0000E+00  0.0000E+00  0.0000E+00
    -17.041  0.0000E+00  0.0000E+00  0.0000E+00
    -16.939  0.0000E+00  0.0000E+00  0.0000E+00
    -16.837  0.4334E-10  0.3735E-09  0.1657E-09
    -16.735  0.3726E-04  0.4812E-04  0.1289E-04
    -16.633  0.8077E-04  0.4007E-04  0.4763E-05
    -16.531  0.7405E-04  0.3982E-04  0.6393E-05
    -16.429  0.2478E-05  0.2112E-05  0.2440E-06
    -16.327  0.0000E+00  0.0000E+00  0.0000E+00
    -16.225  0.0000E+00  0.0000E+00  0.0000E+00
    -16.123  0.0000E+00  0.0000E+00  0.0000E+00
    -16.021  0.0000E+00  0.0000E+00  0.0000E+00
    -15.919  0.0000E+00  0.0000E+00  0.0000E+00
    -15.817  0.0000E+00  0.0000E+00  0.0000E+00
    -15.715  0.0000E+00  0.0000E+00  0.0000E+00
    -15.613  0.0000E+00  0.0000E+00  0.0000E+00
    -15.511  0.0000E+00  0.0000E+00  0.0000E+00
    -15.409  0.0000E+00  0.0000E+00  0.0000E+00
    -15.307  0.0000E+00  0.0000E+00  0.0000E+00
    -15.205  0.0000E+00  0.0000E+00  0.0000E+00
    -15.103  0.0000E+00  0.0000E+00  0.0000E+00
    -15.001  0.0000E+00  0.0000E+00  0.0000E+00
    -14.899  0.0000E+00  0.0000E+00  0.0000E+00
    -14.797  0.0000E+00  0.0000E+00  0.0000E+00
    -14.695  0.1419E-06  0.4517E-08  0.1066E-08
    -14.593  0.9663E-03  0.8540E-03  0.3525E-04
    -14.490  0.1325E-02  0.2300E-03  0.5402E-05
    -14.388  0.6516E-02  0.7027E-03  0.3712E-04
    -14.286  0.1566E-02  0.1479E-01  0.1633E-03
    -14.184  0.1291E-03  0.2787E-02  0.9730E-03
    -14.082  0.2627E-02  0.7068E-02  0.6475E-03
    -13.980  0.6979E-03  0.1792E-02  0.2948E-03
    -13.878  0.3549E-03  0.1075E-02  0.1215E-03
    -13.776  0.1767E-03  0.5058E-03  0.3768E-04
    -13.674  0.1794E-04  0.9093E-04  0.1978E-04
    -13.572  0.0000E+00  0.0000E+00  0.0000E+00
    -13.470  0.0000E+00  0.0000E+00  0.0000E+00
    -13.368  0.0000E+00  0.0000E+00  0.0000E+00
    -13.266  0.0000E+00  0.0000E+00  0.0000E+00
    -13.164  0.0000E+00  0.0000E+00  0.0000E+00
    -13.062  0.0000E+00  0.0000E+00  0.0000E+00
    -12.960  0.0000E+00  0.0000E+00  0.0000E+00
    -12.858  0.0000E+00  0.0000E+00  0.0000E+00
    -12.756  0.0000E+00  0.0000E+00  0.0000E+00
    -12.654  0.0000E+00  0.0000E+00  0.0000E+00
    -12.552  0.0000E+00  0.0000E+00  0.0000E+00
    -12.450  0.0000E+00  0.0000E+00  0.0000E+00
    -12.348  0.0000E+00  0.0000E+00  0.0000E+00
    -12.246  0.0000E+00  0.0000E+00  0.0000E+00
    -12.144  0.0000E+00  0.0000E+00  0.0000E+00
    -12.042  0.0000E+00  0.0000E+00  0.0000E+00
    -11.940  0.0000E+00  0.0000E+00  0.0000E+00
    -11.838  0.0000E+00  0.0000E+00  0.0000E+00
    -11.735  0.0000E+00  0.0000E+00  0.0000E+00
    -11.633  0.0000E+00  0.0000E+00  0.0000E+00
    -11.531  0.0000E+00  0.0000E+00  0.0000E+00
    -11.429  0.0000E+00  0.0000E+00  0.0000E+00
    -11.327  0.0000E+00  0.0000E+00  0.0000E+00
    -11.225  0.0000E+00  0.0000E+00  0.0000E+00
    -11.123  0.0000E+00  0.0000E+00  0.0000E+00
    -11.021  0.0000E+00  0.0000E+00  0.0000E+00
    -10.919  0.0000E+00  0.0000E+00  0.0000E+00
    -10.817  0.0000E+00  0.0000E+00  0.0000E+00
    -10.715  0.0000E+00  0.0000E+00  0.0000E+00
    -10.613  0.0000E+00  0.0000E+00  0.0000E+00
    -10.511  0.0000E+00  0.0000E+00  0.0000E+00
    -10.409  0.0000E+00  0.0000E+00  0.0000E+00
    -10.307  0.0000E+00  0.0000E+00  0.0000E+00
    -10.205  0.0000E+00  0.0000E+00  0.0000E+00
    -10.103  0.0000E+00  0.0000E+00  0.0000E+00
    -10.001  0.0000E+00  0.0000E+00  0.0000E+00
     -9.899  0.0000E+00  0.0000E+00  0.0000E+00
     -9.797  0.0000E+00  0.0000E+00  0.0000E+00
     -9.695  0.0000E+00  0.0000E+00  0.0000E+00
     -9.593  0.0000E+00  0.0000E+00  0.0000E+00
     -9.491  0.0000E+00  0.0000E+00  0.0000E+00
     -9.389  0.0000E+00  0.0000E+00  0.0000E+00
     -9.287  0.0000E+00  0.0000E+00  0.0000E+00
     -9.185  0.0000E+00  0.0000E+00  0.0000E+00
     -9.082  0.0000E+00  0.0000E+00  0.0000E+00
     -8.980  0.0000E+00  0.0000E+00  0.0000E+00
     -8.878  0.0000E+00  0.0000E+00  0.0000E+00
     -8.776  0.0000E+00  0.0000E+00  0.0000E+00
     -8.674  0.0000E+00  0.0000E+00  0.0000E+00
     -8.572  0.0000E+00  0.0000E+00  0.0000E+00
     -8.470  0.0000E+00  0.0000E+00  0.0000E+00
     -8.368  0.1897E-13  0.2850E-04  0.7730E-05
     -8.266  0.3376E-14  0.1575E-03  0.9538E-06
     -8.164  0.2382E-06  0.1722E-02  0.2262E-04
     -8.062  0.1228E-07  0.6470E-03  0.8736E-05
     -7.960  0.8098E-07  0.4899E-02  0.3024E-04
     -7.858  0.6263E-05  0.1284E-01  0.3970E-04
     -7.756  0.1869E-05  0.4206E-01  0.3090E-04
     -7.654  0.7327E-05  0.4922E-01  0.2238E-04
     -7.552  0.4525E-04  0.2424E+00  0.4984E-04
     -7.450  0.2396E-04  0.6115E+00  0.4862E-04
     -7.348  0.8142E-04  0.3329E+02  0.6777E-04
     -7.246  0.6078E-04  0.2698E+01  0.4821E-04
     -7.144  0.2451E-05  0.3157E-01  0.8143E-06
     -7.042  0.7934E-04  0.4485E-01  0.1953E-04
     -6.940  0.4605E-04  0.9510E-03  0.4063E-05
     -6.838  0.0000E+00  0.0000E+00  0.0000E+00
     -6.736  0.3601E-04  0.2892E-02  0.1148E-05
     -6.634  0.0000E+00  0.0000E+00  0.0000E+00
     -6.532  0.0000E+00  0.0000E+00  0.0000E+00
     -6.430  0.0000E+00  0.0000E+00  0.0000E+00
     -6.327  0.0000E+00  0.0000E+00  0.0000E+00
     -6.225  0.0000E+00  0.0000E+00  0.0000E+00
     -6.123  0.0000E+00  0.0000E+00  0.0000E+00
     -6.021  0.0000E+00  0.0000E+00  0.0000E+00
     -5.919  0.0000E+00  0.0000E+00  0.0000E+00
     -5.817  0.0000E+00  0.0000E+00  0.0000E+00
     -5.715  0.0000E+00  0.0000E+00  0.0000E+00
     -5.613  0.0000E+00  0.0000E+00  0.0000E+00
     -5.511  0.0000E+00  0.0000E+00  0.0000E+00
     -5.409  0.0000E+00  0.0000E+00  0.0000E+00
     -5.307  0.0000E+00  0.0000E+00  0.0000E+00
     -5.205  0.0000E+00  0.0000E+00  0.0000E+00
     -5.103  0.0000E+00  0.0000E+00  0.0000E+00
     -5.001  0.0000E+00  0.0000E+00  0.0000E+00
     -4.899  0.0000E+00  0.0000E+00  0.0000E+00
     -4.797  0.0000E+00  0.0000E+00  0.0000E+00
     -4.695  0.0000E+00  0.0000E+00  0.0000E+00
     -4.593  0.0000E+00  0.0000E+00  0.0000E+00
     -4.491  0.0000E+00  0.0000E+00  0.0000E+00
     -4.389  0.0000E+00  0.0000E+00  0.0000E+00
     -4.287  0.0000E+00  0.0000E+00  0.0000E+00
     -4.185  0.0000E+00  0.0000E+00  0.0000E+00
     -4.083  0.0000E+00  0.0000E+00  0.0000E+00
     -3.981  0.0000E+00  0.0000E+00  0.0000E+00
     -3.879  0.0000E+00  0.0000E+00  0.0000E+00
     -3.777  0.0000E+00  0.0000E+00  0.0000E+00
     -3.675  0.0000E+00  0.0000E+00  0.0000E+00
     -3.572  0.4542E-08  0.3533E-02  0.7515E-04
     -3.470  0.1863E-05  0.1261E-01  0.1244E-02
     -3.368  0.1478E-03  0.1209E-01  0.1467E-02
     -3.266  0.2867E-03  0.1552E-01  0.1702E-02
     -3.164  0.9324E-04  0.4833E-02  0.1178E-02
     -3.062  0.7725E-04  0.6216E-03  0.6878E-03
     -2.960  0.3519E-03  0.1349E-01  0.3105E-03
     -2.858  0.9821E-03  0.1408E-01  0.3771E-03
     -2.756  0.1076E-02  0.3837E-01  0.2022E-02
     -2.654  0.2821E-03  0.1435E-01  0.2303E-02
     -2.552  0.3582E-02  0.1663E-01  0.2852E-02
     -2.450  0.1791E-02  0.1808E-01  0.3135E-02
     -2.348  0.2618E-02  0.1424E-01  0.3241E-02
     -2.246  0.2489E-01  0.3751E-01  0.4050E-02
     -2.144  0.1759E-01  0.2507E-01  0.4015E-02
     -2.042  0.1493E-02  0.7057E-01  0.2082E-02
     -1.940  0.2060E-02  0.6656E-01  0.5660E-02
     -1.838  0.3105E-02  0.8668E-01  0.1381E-01
     -1.736  0.3485E-02  0.1450E+00  0.1014E-01
     -1.634  0.2682E-02  0.6209E-01  0.2182E-01
     -1.532  0.5586E-02  0.9277E-01  0.1804E-01
     -1.430  0.3104E-02  0.1390E+00  0.1778E-01
     -1.328  0.2770E-02  0.5778E-01  0.1142E-01
     -1.226  0.4033E-03  0.3027E-01  0.8712E-02
     -1.124  0.1034E-02  0.3609E-01  0.6727E-02
     -1.022  0.6232E-03  0.1398E-01  0.2933E-02
     -0.920  0.5511E-03  0.1598E-01  0.3351E-02
     -0.817  0.5284E-03  0.1179E-01  0.1986E-02
     -0.715  0.1705E-03  0.2078E-02  0.1226E-02
     -0.613  0.2314E-03  0.3031E-02  0.1136E-02
     -0.511  0.7804E-05  0.1125E-02  0.5275E-03
     -0.409  0.4695E-12  0.9340E-04  0.5571E-04
     -0.307  0.1394E-04  0.8319E-03  0.3587E-03
     -0.205  0.1428E-12  0.2096E-03  0.3742E-03
     -0.103  0.2321E-06  0.4903E-03  0.1506E-03
     -0.001  0.2931E-13  0.1074E-03  0.2962E-03
      0.101  0.0000E+00  0.0000E+00  0.0000E+00
      0.203  0.1323E-19  0.2481E-09  0.9571E-09
      0.305  0.2451E-14  0.4596E-04  0.1773E-03
      0.407  0.0000E+00  0.0000E+00  0.0000E+00
      0.509  0.0000E+00  0.0000E+00  0.0000E+00
      0.611  0.0000E+00  0.0000E+00  0.0000E+00
      0.713  0.0000E+00  0.0000E+00  0.0000E+00
      0.815  0.0000E+00  0.0000E+00  0.0000E+00
      0.917  0.0000E+00  0.0000E+00  0.0000E+00
      1.019  0.0000E+00  0.0000E+00  0.0000E+00
      1.121  0.0000E+00  0.0000E+00  0.0000E+00
      1.223  0.0000E+00  0.0000E+00  0.0000E+00
      1.325  0.0000E+00  0.0000E+00  0.0000E+00
      1.427  0.0000E+00  0.0000E+00  0.0000E+00
      1.529  0.0000E+00  0.0000E+00  0.0000E+00
      1.631  0.0000E+00  0.0000E+00  0.0000E+00
      1.733  0.0000E+00  0.0000E+00  0.0000E+00
      1.835  0.0000E+00  0.0000E+00  0.0000E+00
      1.938  0.0000E+00  0.0000E+00  0.0000E+00
      2.040  0.0000E+00  0.0000E+00  0.0000E+00
      2.142  0.0000E+00  0.0000E+00  0.0000E+00
      2.244  0.0000E+00  0.0000E+00  0.0000E+00
      2.346  0.0000E+00  0.0000E+00  0.0000E+00
      2.448  0.0000E+00  0.0000E+00  0.0000E+00
      2.550  0.3298E-09  0.8287E-06  0.3653E-03
      2.652  0.2112E-04  0.1074E-03  0.9579E-03
      2.754  0.1307E-03  0.2976E-03  0.4153E-02
      2.856  0.1203E-03  0.2400E-02  0.3336E-02
      2.958  0.7267E-03  0.2115E-02  0.2921E-02
      3.060  0.2875E-03  0.1651E-02  0.2602E-02
      3.162  0.9628E-03  0.3388E-02  0.2469E-02
      3.264  0.2342E-03  0.9818E-03  0.2296E-02
      3.366  0.4756E-03  0.9401E-03  0.1154E-02
      3.468  0.1893E-03  0.5381E-04  0.5289E-03
      3.570  0.0000E+00  0.0000E+00  0.0000E+00
      3.672  0.0000E+00  0.0000E+00  0.0000E+00
      3.774  0.0000E+00  0.0000E+00  0.0000E+00
      3.876  0.1093E-03  0.8662E-03  0.4401E-03
      3.978  0.8629E-04  0.1453E-02  0.5599E-02
      4.080  0.2363E-03  0.5111E-03  0.5776E-02
      4.182  0.4660E-03  0.2128E-02  0.1065E-01
      4.284  0.9340E-03  0.2811E-02  0.5872E-02
      4.386  0.1406E-02  0.6897E-02  0.1017E-01
      4.488  0.2592E-02  0.4533E-02  0.1124E-01
      4.590  0.2658E-02  0.7278E-02  0.8587E-02
      4.693  0.3235E-03  0.3333E-02  0.1013E-01
      4.795  0.1668E-01  0.2656E-02  0.1006E-01
      4.897  0.1173E-07  0.1856E-07  0.6034E-07
      4.999  0.1078E-02  0.1512E-02  0.4437E-02
      5.101  0.5073E-25  0.1239E-17  0.1467E-15
      5.203  0.7014E-12  0.1712E-04  0.2028E-02
      5.305  0.1252E-01  0.7961E-04  0.2085E-02
      5.407  0.2102E-01  0.3260E-02  0.8347E-02
      5.509  0.1478E-02  0.6788E-02  0.1351E-01
      5.611  0.1866E-02  0.8467E-02  0.9455E-02
      5.713  0.1880E-02  0.7189E-02  0.1711E-01
      5.815  0.6006E-02  0.4092E-02  0.4232E-01
      5.917  0.4020E-01  0.2164E-01  0.1134E+00
      6.019  0.5077E-01  0.1384E-01  0.1867E+00
      6.121  0.2201E-01  0.1365E-01  0.3938E+00
      6.223  0.5824E-01  0.8909E-02  0.3086E+00
      6.325  0.1253E-01  0.3496E-01  0.5003E+00
      6.427  0.1834E-01  0.2216E-01  0.4264E+00
      6.529  0.1827E-01  0.1378E-01  0.5034E+00
      6.631  0.1897E-02  0.4940E-02  0.5649E-01
      6.733  0.0000E+00  0.0000E+00  0.0000E+00
      6.835  0.0000E+00  0.0000E+00  0.0000E+00
      6.937  0.0000E+00  0.0000E+00  0.0000E+00
      7.039  0.0000E+00  0.0000E+00  0.0000E+00
      7.141  0.0000E+00  0.0000E+00  0.0000E+00
      7.243  0.0000E+00  0.0000E+00  0.0000E+00
      7.345  0.0000E+00  0.0000E+00  0.0000E+00
      7.448  0.0000E+00  0.0000E+00  0.0000E+00
      7.550  0.0000E+00  0.0000E+00  0.0000E+00
      7.652  0.0000E+00  0.0000E+00  0.0000E+00
      7.754  0.0000E+00  0.0000E+00  0.0000E+00
      7.856  0.0000E+00  0.0000E+00  0.0000E+00
      7.958  0.0000E+00  0.0000E+00  0.0000E+00
      7.95770868    -22.65344250  301      0.33043018      1.00000000
    -22.653  0.0000E+00  0.0000E+00  0.0000E+00
    -22.551  0.0000E+00  0.0000E+00  0.0000E+00
    -22.449  0.0000E+00  0.0000E+00  0.0000E+00
    -22.347  0.0000E+00  0.0000E+00  0.0000E+00
    -22.245  0.0000E+00  0.0000E+00  0.0000E+00
    -22.143  0.0000E+00  0.0000E+00  0.0000E+00
    -22.041  0.0000E+00  0.0000E+00  0.0000E+00
    -21.939  0.0000E+00  0.0000E+00  0.0000E+00
    -21.837  0.0000E+00  0.0000E+00  0.0000E+00
    -21.735  0.0000E+00  0.0000E+00  0.0000E+00
    -21.633  0.0000E+00  0.0000E+00  0.0000E+00
    -21.531  0.0000E+00  0.0000E+00  0.0000E+00
    -21.429  0.0000E+00  0.0000E+00  0.0000E+00
    -21.327  0.0000E+00  0.0000E+00  0.0000E+00
    -21.225  0.9189E-07  0.4135E-08  0.1903E-09
    -21.123  0.0000E+00  0.0000E+00  0.0000E+00
    -21.021  0.2650E-03  0.6549E-07  0.1336E-07
    -20.919  0.1329E-02  0.7095E-08  0.1091E-08
    -20.817  0.1739E+02  0.4658E-04  0.6236E-05
    -20.715  0.0000E+00  0.0000E+00  0.0000E+00
    -20.613  0.0000E+00  0.0000E+00  0.0000E+00
    -20.511  0.0000E+00  0.0000E+00  0.0000E+00
    -20.409  0.0000E+00  0.0000E+00  0.0000E+00
    -20.307  0.0000E+00  0.0000E+00  0.0000E+00
    -20.205  0.0000E+00  0.0000E+00  0.0000E+00
    -20.103  0.0000E+00  0.0000E+00  0.0000E+00
    -20.000  0.0000E+00  0.0000E+00  0.0000E+00
    -19.898  0.0000E+00  0.0000E+00  0.0000E+00
    -19.796  0.0000E+00  0.0000E+00  0.0000E+00
    -19.694  0.0000E+00  0.0000E+00  0.0000E+00
    -19.592  0.0000E+00  0.0000E+00  0.0000E+00
    -19.490  0.0000E+00  0.0000E+00  0.0000E+00
    -19.388  0.0000E+00  0.0000E+00  0.0000E+00
    -19.286  0.0000E+00  0.0000E+00  0.0000E+00
    -19.184  0.0000E+00  0.0000E+00  0.0000E+00
    -19.082  0.0000E+00  0.0000E+00  0.0000E+00
    -18.980  0.0000E+00  0.0000E+00  0.0000E+00
    -18.878  0.0000E+00  0.0000E+00  0.0000E+00
    -18.776  0.0000E+00  0.0000E+00  0.0000E+00
    -18.674  0.0000E+00  0.0000E+00  0.0000E+00
    -18.572  0.0000E+00  0.0000E+00  0.0000E+00
    -18.470  0.0000E+00  0.0000E+00  0.0000E+00
    -18.368  0.0000E+00  0.0000E+00  0.0000E+00
    -18.266  0.0000E+00  0.0000E+00  0.0000E+00
    -18.164  0.0000E+00  0.0000E+00  0.0000E+00
    -18.062  0.0000E+00  0.0000E+00  0.0000E+00
    -17.960  0.0000E+00  0.0000E+00  0.0000E+00
    -17.858  0.0000E+00  0.0000E+00  0.0000E+00
    -17.756  0.0000E+00  0.0000E+00  0.0000E+00
    -17.654  0.0000E+00  0.0000E+00  0.0000E+00
    -17.552  0.0000E+00  0.0000E+00  0.0000E+00
    -17.450  0.0000E+00  0.0000E+00  0.0000E+00
    -17.348  0.0000E+00  0.0000E+00  0.0000E+00
    -17.245  0.0000E+00  0.0000E+00  0.0000E+00
    -17.143  0.0000E+00  0.0000E+00  0.0000E+00
    -17.041  0.0000E+00  0.0000E+00  0.0000E+00
    -16.939  0.0000E+00  0.0000E+00  0.0000E+00
    -16.837  0.3397E-08  0.1135E-08  0.1451E-09
    -16.735  0.8275E-04  0.4084E-04  0.6477E-05
    -16.633  0.8351E-05  0.4496E-05  0.5902E-06
    -16.531  0.5368E-04  0.5499E-04  0.1240E-04
    -16.429  0.4810E-04  0.3162E-04  0.3686E-05
    -16.327  0.0000E+00  0.0000E+00  0.0000E+00
    -16.225  0.0000E+00  0.0000E+00  0.0000E+00
    -16.123  0.0000E+00  0.0000E+00  0.0000E+00
    -16.021  0.0000E+00  0.0000E+00  0.0000E+00
    -15.919  0.0000E+00  0.0000E+00  0.0000E+00
    -15.817  0.0000E+00  0.0000E+00  0.0000E+00
    -15.715  0.0000E+00  0.0000E+00  0.0000E+00
    -15.613  0.0000E+00  0.0000E+00  0.0000E+00
    -15.511  0.0000E+00  0.0000E+00  0.0000E+00
    -15.409  0.0000E+00  0.0000E+00  0.0000E+00
    -15.307  0.0000E+00  0.0000E+00  0.0000E+00
    -15.205  0.0000E+00  0.0000E+00  0.0000E+00
    -15.103  0.0000E+00  0.0000E+00  0.0000E+00
    -15.001  0.0000E+00  0.0000E+00  0.0000E+00
    -14.899  0.0000E+00  0.0000E+00  0.0000E+00
    -14.797  0.0000E+00  0.0000E+00  0.0000E+00
    -14.695  0.5738E-07  0.7703E-08  0.2606E-09
    -14.593  0.7047E-03  0.3150E-03  0.9161E-05
    -14.490  0.1496E-05  0.1152E-03  0.3176E-05
    -14.388  0.1135E-02  0.1142E-02  0.6884E-04
    -14.286  0.3383E-02  0.4993E-02  0.2711E-03
    -14.184  0.1737E-02  0.3253E-02  0.1667E-03
    -14.082  0.2830E-02  0.5773E-02  0.3057E-03
    -13.980  0.7221E-03  0.6428E-02  0.3407E-03
    -13.878  0.2038E-02  0.5057E-02  0.7222E-03
    -13.776  0.2415E-03  0.1452E-02  0.2702E-03
    -13.674  0.2125E-03  0.3953E-03  0.2099E-04
    -13.572  0.0000E+00  0.0000E+00  0.0000E+00