 vasp.5.4.4.18Apr17-6-g9f103f2a35 (build Jun 22 2020 09:27:21) complex           
 executed on tx2_gcc-7.3_libsci-1 date 2021.10.12  05:44:47
 running on   64 total cores
 distrk:  each k-point on   64 cores,    1 groups
 distr:  one band on NCORES_PER_BAND=   8 cores,    8 groups


--------------------------------------------------------------------------------------------------------


 INCAR:
 POTCAR:    PAW_PBE Cs_sv 08Apr2002               
 POTCAR:    PAW_PBE Pb_d 06Sep2000                
 POTCAR:    PAW_PBE Br 06Sep2000                  
 POTCAR:    PAW_PBE Cs_sv 08Apr2002               
 POTCAR:    PAW_PBE Cs_sv 08Apr2002               
   SHA256 =  c1463496f0f6037ed62c6012a8013a89ee9ad6ffb38599dcd6c079e7ed31779b Cs
   COPYR  = (c) Copyright 08Apr2002 Georg Kresse                                
   COPYR  = This file is part of the software VASP. Any use, copying, and all ot
   COPYR  = If you do not have a valid VASP license, you may not use, copy or di
   VRHFIN =Cs: 5s5p6s                                                           
   LEXCH  = PE                                                                  
   EATOM  =   555.6835 eV,   40.8416 Ry                                         
                                                                                
   TITEL  = PAW_PBE Cs_sv 08Apr2002                                             
   LULTRA =        F    use ultrasoft PP ?                                      
   IUNSCR =        1    unscreen: 0-lin 1-nonlin 2-no                           
   RPACOR =    2.200    partial core radius                                     
   POMASS =  132.900; ZVAL   =    9.000    mass and valenz                      
   RCORE  =    2.500    outmost cutoff radius                                   
   RWIGS  =    2.500; RWIGS  =    1.323    wigner-seitz radius (au A)           
   ENMAX  =  220.318; ENMIN  =  165.238 eV                                      
   RCLOC  =    2.207    cutoff for local pot                                    
   LCOR   =        T    correct aug charges                                     
   LPAW   =        T    paw PP                                                  
   EAUG   =  407.933                                                            
   DEXC   =    0.000                                                            
   RMAX   =    2.554    core radius for proj-oper                               
   RAUG   =    1.300    factor for augmentation sphere                          
   RDEP   =    2.590    radius for radial grids                                 
   RDEPT  =    2.117    core radius for aug-charge                              
                                                                                
   Atomic configuration                                                         
   13 entries                                                                   
     n  l   j            E        occ.                                          
     1  0  0.50    -35790.1377   2.0000                                         
     2  0  0.50     -5613.6201   2.0000                                         
     2  1  1.50     -5035.0101   6.0000                                         
     3  0  0.50     -1167.0767   2.0000                                         
     3  1  1.50      -980.9754   6.0000                                         
     3  2  2.50      -708.0703  10.0000                                         
     4  0  0.50      -220.2386   2.0000                                         
     4  1  1.50      -160.7596   6.0000                                         
     4  2  2.50       -74.2354  10.0000                                         
     5  0  0.50       -26.7287   2.0000                                         
     6  0  0.50        -2.0862   1.0000                                         
     5  1  1.50       -13.5159   6.0000                                         
     5  2  2.50        -0.4136   0.0000                                         
   Description                                                                  
     l       E           TYP  RCUT    TYP  RCUT                                 
     0    -26.7287425     23  1.900                                             
     0     -2.0862306     23  1.900                                             
     1    -13.5158719     23  2.500                                             
     1     -2.7211652     23  2.500                                             
     2     -0.4136171     23  2.500                                             
  local pseudopotential read in
  partial core-charges read in
  partial kinetic energy density read in
  atomic valenz-charges read in
  non local Contribution for L=           0  read in
    real space projection operators read in
  non local Contribution for L=           0  read in
    real space projection operators read in
  non local Contribution for L=           1  read in
    real space projection operators read in
  non local Contribution for L=           1  read in
    real space projection operators read in
  non local Contribution for L=           2  read in
    real space projection operators read in
    PAW grid and wavefunctions read in

   number of l-projection  operators is LMAX  =           5
   number of lm-projection operators is LMMAX =          13

 POTCAR:    PAW_PBE Pb_d 06Sep2000                
   SHA256 =  fb885b08f0fba73a15f6a6b0e39bd200c13ec96ef97cf3ecd8e63bade5137abd Pb
   COPYR  = (c) Copyright 06Sep2000 Georg Kresse                                
   COPYR  = This file is part of the software VASP. Any use, copying, and all ot
   COPYR  = If you do not have a valid VASP license, you may not use, copy or di
   VRHFIN =Pb:                                                                  
   LEXCH  = PE                                                                  
   EATOM  =  1661.6185 eV,  122.1255 Ry                                         
                                                                                
   TITEL  = PAW_PBE Pb_d 06Sep2000                                              
   LULTRA =        F    use ultrasoft PP ?                                      
   IUNSCR =        1    unscreen: 0-lin 1-nonlin 2-no                           
   RPACOR =    2.200    partial core radius                                     
   POMASS =  207.200; ZVAL   =   14.000    mass and valenz                      
   RCORE  =    2.500    outmost cutoff radius                                   
   RWIGS  =    3.260; RWIGS  =    1.725    wigner-seitz radius (au A)           
   ENMAX  =  237.835; ENMIN  =  178.376 eV                                      
   ICORE  =        3    local potential                                         
   LCOR   =        T    correct aug charges                                     
   LPAW   =        T    paw PP                                                  
   EAUG   =  391.914                                                            
   DEXC   =    0.000                                                            
   RMAX   =    2.565    core radius for proj-oper                               
   RAUG   =    1.300    factor for augmentation sphere                          
   RDEP   =    2.643    radius for radial grids                                 
   RDEPT  =    2.092    core radius for aug-charge                              
                                                                                
   Atomic configuration                                                         
   16 entries                                                                   
     n  l   j            E        occ.                                          
     1  0  0.50    -88091.8466   2.0000                                         
     2  0  0.50    -15753.4197   2.0000                                         
     2  1  1.50    -13508.1797   6.0000                                         
     3  0  0.50     -3781.7194   2.0000                                         
     3  1  1.50     -3138.2529   6.0000                                         
     3  2  2.50     -2483.2977  10.0000                                         
     4  0  0.50      -856.2895   2.0000                                         
     4  1  1.50      -645.4942   6.0000                                         
     4  2  2.50      -401.8768  10.0000                                         
     4  3  3.50      -132.9059  14.0000                                         
     5  0  0.50      -144.0950   2.0000                                         
     5  1  1.50       -85.7879   6.0000                                         
     5  2  2.50       -21.1769  10.0000                                         
     6  0  0.50       -12.0372   2.0000                                         
     6  1  1.50        -3.4971   2.0000                                         
     5  3  2.50        -2.7212   0.0000                                         
   Description                                                                  
     l       E           TYP  RCUT    TYP  RCUT                                 
     2    -21.1768523     23  2.500                                             
     2      1.3605826     23  2.500                                             
     0    -12.0371562     23  2.500                                             
     0     13.6058260     23  2.500                                             
     1     -3.4971339     23  2.500                                             
     1     13.6058260     23  2.500                                             
     3     -1.3605826      7  2.500                                             
  local pseudopotential read in
  partial core-charges read in
  partial kinetic energy density read in
  atomic valenz-charges read in
  non local Contribution for L=           2  read in
    real space projection operators read in
  non local Contribution for L=           2  read in
    real space projection operators read in
  non local Contribution for L=           0  read in
    real space projection operators read in
  non local Contribution for L=           0  read in
    real space projection operators read in
  non local Contribution for L=           1  read in
    real space projection operators read in
  non local Contribution for L=           1  read in
    real space projection operators read in
    PAW grid and wavefunctions read in

   number of l-projection  operators is LMAX  =           6
   number of lm-projection operators is LMMAX =          18

 POTCAR:    PAW_PBE Br 06Sep2000                  
   SHA256 =  96a73d2954943bbee26f4990d676cc6c3bf44b8dd2c75cd4b3b825d8403f0103 Br
   COPYR  = (c) Copyright 06Sep2000 Georg Kresse                                
   COPYR  = This file is part of the software VASP. Any use, copying, and all ot
   COPYR  = If you do not have a valid VASP license, you may not use, copy or di
   VRHFIN =Br: s2p5                                                             
   LEXCH  = PE                                                                  
   EATOM  =   368.4488 eV,   27.0802 Ry                                         
                                                                                
   TITEL  = PAW_PBE Br 06Sep2000                                                
   LULTRA =        F    use ultrasoft PP ?                                      
   IUNSCR =        1    unscreen: 0-lin 1-nonlin 2-no                           
   RPACOR =    1.900    partial core radius                                     
   POMASS =   79.904; ZVAL   =    7.000    mass and valenz                      
   RCORE  =    2.100    outmost cutoff radius                                   
   RWIGS  =    2.200; RWIGS  =    1.164    wigner-seitz radius (au A)           
   ENMAX  =  216.285; ENMIN  =  162.214 eV                                      
   ICORE  =        3    local potential                                         
   LCOR   =        T    correct aug charges                                     
   LPAW   =        T    paw PP                                                  
   EAUG   =  503.852                                                            
   DEXC   =    0.000                                                            
   RMAX   =    2.139    core radius for proj-oper                               
   RAUG   =    1.300    factor for augmentation sphere                          
   RDEP   =    2.186    radius for radial grids                                 
   RDEPT  =    1.890    core radius for aug-charge                              
                                                                                
   Atomic configuration                                                         
   10 entries                                                                   
     n  l   j            E        occ.                                          
     1  0  0.50    -13316.2796   2.0000                                         
     2  0  0.50     -1732.8239   2.0000                                         
     2  1  1.50     -1528.2193   6.0000                                         
     3  0  0.50      -238.0460   2.0000                                         
     3  1  1.50      -173.4609   6.0000                                         
     3  2  2.50       -66.7132  10.0000                                         
     4  0  0.50       -20.1334   2.0000                                         
     4  1  0.50        -7.8591   5.0000                                         
     4  2  2.50        -8.1635   0.0000                                         
     4  3  2.50        -8.1635   0.0000                                         
   Description                                                                  
     l       E           TYP  RCUT    TYP  RCUT                                 
     0    -20.1333652     23  2.100                                             
     0    -21.4939478     23  2.100                                             
     1     -7.8591052     23  2.100                                             
     1     -3.1608434     23  2.100                                             
     2     -8.1634956     23  2.100                                             
     3     -1.3605826      7  2.100                                             
  local pseudopotential read in
  partial core-charges read in
  partial kinetic energy density read in
  atomic valenz-charges read in
  non local Contribution for L=           0  read in
    real space projection operators read in
  non local Contribution for L=           0  read in
    real space projection operators read in
  non local Contribution for L=           1  read in
    real space projection operators read in
  non local Contribution for L=           1  read in
    real space projection operators read in
  non local Contribution for L=           2  read in
    real space projection operators read in
    PAW grid and wavefunctions read in

   number of l-projection  operators is LMAX  =           5
   number of lm-projection operators is LMMAX =          13

 POTCAR:    PAW_PBE Cs_sv 08Apr2002               
   SHA256 =  c1463496f0f6037ed62c6012a8013a89ee9ad6ffb38599dcd6c079e7ed31779b Cs
   COPYR  = (c) Copyright 08Apr2002 Georg Kresse                                
   COPYR  = This file is part of the software VASP. Any use, copying, and all ot
   COPYR  = If you do not have a valid VASP license, you may not use, copy or di
   VRHFIN =Cs: 5s5p6s                                                           
   LEXCH  = PE                                                                  
   EATOM  =   555.6835 eV,   40.8416 Ry                                         
                                                                                
   TITEL  = PAW_PBE Cs_sv 08Apr2002                                             
   LULTRA =        F    use ultrasoft PP ?                                      
   IUNSCR =        1    unscreen: 0-lin 1-nonlin 2-no                           
   RPACOR =    2.200    partial core radius                                     
   POMASS =  132.900; ZVAL   =    9.000    mass and valenz                      
   RCORE  =    2.500    outmost cutoff radius                                   
   RWIGS  =    2.500; RWIGS  =    1.323    wigner-seitz radius (au A)           
   ENMAX  =  220.318; ENMIN  =  165.238 eV                                      
   RCLOC  =    2.207    cutoff for local pot                                    
   LCOR   =        T    correct aug charges                                     
   LPAW   =        T    paw PP                                                  
   EAUG   =  407.933                                                            
   DEXC   =    0.000                                                            
   RMAX   =    2.554    core radius for proj-oper                               
   RAUG   =    1.300    factor for augmentation sphere                          
   RDEP   =    2.590    radius for radial grids                                 
   RDEPT  =    2.117    core radius for aug-charge                              
                                                                                
   Atomic configuration                                                         
   13 entries                                                                   
     n  l   j            E        occ.                                          
     1  0  0.50    -35790.1377   2.0000                                         
     2  0  0.50     -5613.6201   2.0000                                         
     2  1  1.50     -5035.0101   6.0000                                         
     3  0  0.50     -1167.0767   2.0000                                         
     3  1  1.50      -980.9754   6.0000                                         
     3  2  2.50      -708.0703  10.0000                                         
     4  0  0.50      -220.2386   2.0000                                         
     4  1  1.50      -160.7596   6.0000                                         
     4  2  2.50       -74.2354  10.0000                                         
     5  0  0.50       -26.7287   2.0000                                         
     6  0  0.50        -2.0862   1.0000                                         
     5  1  1.50       -13.5159   6.0000                                         
     5  2  2.50        -0.4136   0.0000                                         
   Description                                                                  
     l       E           TYP  RCUT    TYP  RCUT                                 
     0    -26.7287425     23  1.900                                             
     0     -2.0862306     23  1.900                                             
     1    -13.5158719     23  2.500                                             
     1     -2.7211652     23  2.500                                             
     2     -0.4136171     23  2.500                                             
  local pseudopotential read in
  partial core-charges read in
  partial kinetic energy density read in
  atomic valenz-charges read in
  non local Contribution for L=           0  read in
    real space projection operators read in
  non local Contribution for L=           0  read in
    real space projection operators read in
  non local Contribution for L=           1  read in
    real space projection operators read in
  non local Contribution for L=           1  read in
    real space projection operators read in
  non local Contribution for L=           2  read in
    real space projection operators read in
    PAW grid and wavefunctions read in

   number of l-projection  operators is LMAX  =           5
   number of lm-projection operators is LMMAX =          13

 Optimization of the real space projectors (new method)

 maximal supplied QI-value         = 15.12
 optimisation between [QCUT,QGAM] = [  8.77, 17.69] = [ 21.53, 87.61] Ry 
 Optimized for a Real-space Cutoff    1.85 Angstroem

   l    n(q)    QCUT    max X(q) W(low)/X(q) W(high)/X(q)  e(spline) 
   0     10     8.768    25.322    0.81E-04    0.51E-04    0.48E-06
   0     10     8.768    99.187    0.78E-04    0.50E-04    0.47E-06
   1      9     8.768    11.761    0.21E-03    0.20E-03    0.37E-06
   1      9     8.768     8.275    0.24E-03    0.22E-03    0.41E-06
   2      9     8.768     3.829    0.23E-04    0.15E-03    0.18E-06
 Optimization of the real space projectors (new method)

 maximal supplied QI-value         = 15.12
 optimisation between [QCUT,QGAM] = [  8.77, 17.69] = [ 21.53, 87.61] Ry 
 Optimized for a Real-space Cutoff    1.59 Angstroem

   l    n(q)    QCUT    max X(q) W(low)/X(q) W(high)/X(q)  e(spline) 
   2      7     8.768     3.846    0.48E-04    0.11E-03    0.11E-06
   2      7     8.768     8.593    0.20E-03    0.22E-04    0.24E-06
   0      8     8.768    20.082    0.68E-04    0.88E-04    0.41E-07
   0      8     8.768     8.597    0.89E-04    0.13E-03    0.59E-07
   1      8     8.768    33.223    0.15E-03    0.53E-04    0.87E-07
   1      8     8.768    15.899    0.14E-03    0.44E-04    0.78E-07
 Optimization of the real space projectors (new method)

 maximal supplied QI-value         = 17.95
 optimisation between [QCUT,QGAM] = [  8.80, 17.59] = [ 21.67, 86.68] Ry 
 Optimized for a Real-space Cutoff    1.59 Angstroem

   l    n(q)    QCUT    max X(q) W(low)/X(q) W(high)/X(q)  e(spline) 
   0      8     8.797   175.082    0.82E-04    0.14E-03    0.89E-07
   0      8     8.797   174.004    0.79E-04    0.14E-03    0.86E-07
   1      8     8.797    54.315    0.16E-03    0.14E-04    0.30E-06
   1      8     8.797    42.441    0.16E-03    0.14E-04    0.30E-06
   2      7     8.797     3.596    0.92E-04    0.15E-03    0.85E-07
 Optimization of the real space projectors (new method)

 maximal supplied QI-value         = 15.12
 optimisation between [QCUT,QGAM] = [  8.77, 17.69] = [ 21.53, 87.61] Ry 
 Optimized for a Real-space Cutoff    1.85 Angstroem

   l    n(q)    QCUT    max X(q) W(low)/X(q) W(high)/X(q)  e(spline) 
   0     10     8.768    25.322    0.81E-04    0.51E-04    0.48E-06
   0     10     8.768    99.187    0.78E-04    0.50E-04    0.47E-06
   1      9     8.768    11.761    0.21E-03    0.20E-03    0.37E-06
   1      9     8.768     8.275    0.24E-03    0.22E-03    0.41E-06
   2      9     8.768     3.829    0.23E-04    0.15E-03    0.18E-06
  PAW_PBE Cs_sv 08Apr2002               :
 energy of atom  1       EATOM= -555.6835
 kinetic energy error for atom=    0.0069 (will be added to EATOM!!)
  PAW_PBE Pb_d 06Sep2000                :
 energy of atom  2       EATOM=-1661.6185
 kinetic energy error for atom=    0.0498 (will be added to EATOM!!)
  PAW_PBE Br 06Sep2000                  :
 energy of atom  3       EATOM= -368.4488
 kinetic energy error for atom=    0.0072 (will be added to EATOM!!)
  PAW_PBE Cs_sv 08Apr2002               :
 energy of atom  4       EATOM= -555.6835
 kinetic energy error for atom=    0.0069 (will be added to EATOM!!)


 POSCAR: Cs7 Pb8 Br24                            
  positions in direct lattice
  No initial velocities read in

 METAGGA = SCAN     LMAXTAU =  6    LMIXTAU =  F

 exchange correlation table for  LEXCH =        8
   RHO(1)=    0.500       N(1)  =     2000
   RHO(2)=  100.500       N(2)  =     4000

 VTST: version 3.2, (02/03/18)

 CHAIN: initializing optimizer
 
 OPT: Using VASP Conjugate-Gradient optimizer
 CHAIN: Read ICHAIN            0

 POSCAR: Cs7 Pb8 Br24                            
  positions in direct lattice
  No initial velocities read in



--------------------------------------------------------------------------------------------------------


 ion  position               nearest neighbor table
   1  0.270  0.250  0.198-
   2  0.774  0.250  0.717-
   3  0.209  0.750  0.764-
   4  0.294  0.250  0.738-
   5  0.791  0.250  0.224-
   6  0.244  0.750  0.277-
   7  0.996  0.996  0.997-  19 2.97  29 2.98  34 3.00  17 3.02  31 3.03  28 3.04
   8  0.499  0.003  0.499-  18 2.98  20 2.99  27 2.99  33 2.99  32 3.01  30 3.02
   9  0.505  0.996  0.999-  15 2.97  29 2.97  33 3.01  27 3.02  21 3.02  31 3.06
  10  0.003  0.002  0.500-  30 2.96  22 2.98  34 3.00  16 3.00  28 3.02  32 3.05
  11  0.505  0.504  0.999-  15 2.97  35 2.97  25 3.01  37 3.02  21 3.02  23 3.06
  12  0.003  0.498  0.500-  36 2.96  22 2.98  26 3.00  16 3.00  38 3.02  24 3.05
  13  0.996  0.504  0.997-  19 2.97  35 2.98  26 3.00  17 3.02  23 3.03  38 3.04
  14  0.499  0.497  0.499-  18 2.98  20 2.99  37 2.99  25 2.99  24 3.01  36 3.02
  15  0.456  0.750  0.970-   9 2.97  11 2.97
  16  0.004  0.750  0.465-  12 3.00  10 3.00
  17  0.972  0.250  0.969-  13 3.02   7 3.02
  18  0.449  0.250  0.467-   8 2.98  14 2.98
  19  0.047  0.750  0.029-   7 2.97  13 2.97
  20  0.498  0.750  0.525-  14 2.99   8 2.99
  21  0.530  0.250  0.030-   9 3.02  11 3.02
  22  0.032  0.250  0.547-  12 2.98  10 2.98
  23  0.248  0.469  0.951-  13 3.03  11 3.06
  24  0.748  0.450  0.457-  14 3.01  12 3.05
  25  0.445  0.519  0.247-  14 2.99  11 3.01
  26  0.947  0.539  0.745-  12 3.00  13 3.00
  27  0.546  0.044  0.750-   8 2.99   9 3.02
  28  0.052  0.037  0.250-  10 3.02   7 3.04
  29  0.753  0.972  0.063-   9 2.97   7 2.98
  30  0.251  0.980  0.559-  10 2.96   8 3.02
  31  0.248  0.031  0.951-   7 3.03   9 3.06
  32  0.748  0.050  0.457-   8 3.01  10 3.05
  33  0.445  0.981  0.247-   8 2.99   9 3.01
  34  0.947  0.961  0.745-  10 3.00   7 3.00
  35  0.753  0.528  0.063-  11 2.97  13 2.98
  36  0.251  0.520  0.559-  12 2.96  14 3.02
  37  0.546  0.456  0.750-  14 2.99  11 3.02
  38  0.052  0.463  0.250-  12 3.02  13 3.04
  39  0.727  0.750  0.206-


IMPORTANT INFORMATION: All symmetrisations will be switched off!
NOSYMM: (Re-)initialisation of all symmetry stuff for point group C_1.



 KPOINTS: 1x1x1                                   

Automatic generation of k-mesh.
Space group operators:
 irot       det(A)        alpha          n_x          n_y          n_z        tau_x        tau_y        tau_z
    1     1.000000     0.000000     1.000000     0.000000     0.000000     0.000000     0.000000     0.000000
 
 Subroutine IBZKPT returns following result:
 ===========================================
 
 Found      8 irreducible k-points:
 
 Following reciprocal coordinates:
            Coordinates               Weight
  0.000000  0.000000  0.000000      1.000000
  0.500000  0.000000  0.000000      1.000000
  0.000000  0.500000  0.000000      1.000000
  0.500000  0.500000  0.000000      1.000000
  0.000000  0.000000  0.500000      1.000000
  0.500000  0.000000  0.500000      1.000000
  0.000000  0.500000  0.500000      1.000000
  0.500000  0.500000  0.500000      1.000000
 
 Following cartesian coordinates:
            Coordinates               Weight
  0.000000  0.000000  0.000000      1.000000
  0.029691  0.000000  0.030948      1.000000
  0.000000  0.042503  0.000000      1.000000
  0.029691  0.042503  0.030948      1.000000
 -0.029691  0.000000  0.030948      1.000000
  0.000000  0.000000  0.061897      1.000000
 -0.029691  0.042503  0.030948      1.000000
  0.000000  0.042503  0.061897      1.000000
 


--------------------------------------------------------------------------------------------------------




 Dimension of arrays:
   k-points           NKPTS =      8   k-points in BZ     NKDIM =      8   number of bands    NBANDS=    208
   number of dos      NEDOS =    301   number of ions     NIONS =     39
   non local maximal  LDIM  =      6   non local SUM 2l+1 LMDIM =     18
   total plane-waves  NPLWV = 343000
   max r-space proj   IRMAX =   5716   max aug-charges    IRDMAX=  91227
   dimension x,y,z NGX =    70 NGY =   70 NGZ =   70
   dimension x,y,z NGXF=   140 NGYF=  140 NGZF=  140
   support grid    NGXF=   280 NGYF=  280 NGZF=  280
   ions per type =               6   8  24   1
   NGX,Y,Z   is equivalent  to a cutoff of   9.97,  9.89,  9.97 a.u.
   NGXF,Y,Z  is equivalent  to a cutoff of  19.95, 19.78, 19.95 a.u.

 SYSTEM =  CsPbBr3 cubic bulk                      
 POSCAR =  Cs7 Pb8 Br24                            

 Startparameter for this run:
   NWRITE =      2    write-flag & timer
   PREC   = accura    normal or accurate (medium, high low for compatibility)
   ISTART =      0    job   : 0-new  1-cont  2-samecut
   ICHARG =      2    charge: 1-file 2-atom 10-const
   ISPIN  =      1    spin polarized calculation?
   LNONCOLLINEAR =      F non collinear calculations
   LSORBIT =      F    spin-orbit coupling
   INIWAV =      1    electr: 0-lowe 1-rand  2-diag
   LASPH  =      T    aspherical Exc in radial PAW
   METAGGA=      F    non-selfconsistent MetaGGA calc.

 Electronic Relaxation 1
   ENCUT  =  300.0 eV  22.05 Ry    4.70 a.u.  16.48 16.61 16.48*2*pi/ulx,y,z
   ENINI  =  300.0     initial cutoff
   ENAUG  =  503.9 eV  augmentation charge cutoff
   NELM   =    200;   NELMIN=  2; NELMDL= -5     # of ELM steps 
   EDIFF  = 0.1E-05   stopping-criterion for ELM
   LREAL  =      T    real-space projection
   NLSPLINE    = F    spline interpolate recip. space projectors
   LCOMPAT=      F    compatible to vasp.4.4
   GGA_COMPAT  = T    GGA compatible to vasp.4.4-vasp.4.6
   LMAXPAW     = -100 max onsite density
   LMAXMIX     =    2 max onsite mixed and CHGCAR
   VOSKOWN=      0    Vosko Wilk Nusair interpolation
   ROPT   =   -0.00025  -0.00025  -0.00025  -0.00025
 Ionic relaxation
   EDIFFG = -.1E-01   stopping-criterion for IOM
   NSW    =      0    number of steps for IOM
   NBLOCK =      1;   KBLOCK =      1    inner block; outer block 
   IBRION =     -1    ionic relax: 0-MD 1-quasi-New 2-CG
   NFREE  =      1    steps in history (QN), initial steepest desc. (CG)
   ISIF   =      2    stress and relaxation
   IWAVPR =     10    prediction:  0-non 1-charg 2-wave 3-comb
   ISYM   =      0    0-nonsym 1-usesym 2-fastsym
   LCORR  =      T    Harris-Foulkes like correction to forces

   POTIM  = 0.5000    time-step for ionic-motion
   TEIN   =    0.0    initial temperature
   TEBEG  =    0.0;   TEEND  =   0.0 temperature during run
   SMASS  =  -3.00    Nose mass-parameter (am)
   estimated Nose-frequenzy (Omega)   =  0.10E-29 period in steps =****** mass=  -0.311E-26a.u.
   SCALEE = 1.0000    scale energy and forces
   NPACO  =    256;   APACO  = 16.0  distance and # of slots for P.C.
   PSTRESS=    0.0 pullay stress

  Mass of Ions in am
   POMASS = 132.90207.20 79.90132.90
  Ionic Valenz
   ZVAL   =   9.00 14.00  7.00  9.00
  Atomic Wigner-Seitz radii
   RWIGS  =  -1.00 -1.00 -1.00 -1.00
  virtual crystal weights 
   VCA    =   1.00  1.00  1.00  1.00
   NELECT =     344.0000    total number of electrons
   NUPDOWN=       0.0000    fix difference up-down

 DOS related values:
   EMIN   =  10.00;   EMAX   =-10.00  energy-range for DOS
   EFERMI =   0.00
   ISMEAR =     0;   SIGMA  =   0.01  broadening in eV -4-tet -1-fermi 0-gaus

 Electronic relaxation 2 (details)
   IALGO  =     38    algorithm
   LDIAG  =      T    sub-space diagonalisation (order eigenvalues)
   LSUBROT=      F    optimize rotation matrix (better conditioning)
   TURBO    =      0    0=normal 1=particle mesh
   IRESTART =      0    0=no restart 2=restart with 2 vectors
   NREBOOT  =      0    no. of reboots
   NMIN     =      0    reboot dimension
   EREF     =   0.00    reference energy to select bands
   IMIX   =      4    mixing-type and parameters
     AMIX     =   0.40;   BMIX     =  1.00
     AMIX_MAG =   1.60;   BMIX_MAG =  1.00
     AMIN     =   0.10
     WC   =   100.;   INIMIX=   1;  MIXPRE=   1;  MAXMIX= -45

 Intra band minimization:
   WEIMIN = 0.0000     energy-eigenvalue tresh-hold
   EBREAK =  0.12E-08  absolut break condition
   DEPER  =   0.30     relativ break condition  

   TIME   =   0.40     timestep for ELM

  volume/ion in A,a.u.               =      41.03       276.90
  Fermi-wavevector in a.u.,A,eV,Ry     =   0.980685  1.853227 13.085320  0.961744
  Thomas-Fermi vector in A             =   2.111635

 Write flags
   LWAVE        =      F    write WAVECAR
   LDOWNSAMPLE  =      F    k-point downsampling of WAVECAR
   LCHARG       =      F    write CHGCAR
   LVTOT        =      F    write LOCPOT, total local potential
   LVHAR        =      T    write LOCPOT, Hartree potential only
   LELF         =      F    write electronic localiz. function (ELF)
   LORBIT       =     10    0 simple, 1 ext, 2 COOP (PROOUT), +10 PAW based schemes


 Dipole corrections
   LMONO  =      F    monopole corrections only (constant potential shift)
   LDIPOL =      F    correct potential (dipole corrections)
   IDIPOL =      0    1-x, 2-y, 3-z, 4-all directions 
   EPSILON=  1.0000000 bulk dielectric constant

 Exchange correlation treatment:
   GGA     =    --    GGA type
   LEXCH   =     8    internal setting for exchange type
   VOSKOWN=      0    Vosko Wilk Nusair interpolation
   LHFCALC =     F    Hartree Fock is set to
   LHFONE  =     F    Hartree Fock one center treatment
   AEXX    =    0.0000 exact exchange contribution

 Linear response parameters
   LEPSILON=     F    determine dielectric tensor
   LRPA    =     F    only Hartree local field effects (RPA)
   LNABLA  =     F    use nabla operator in PAW spheres
   LVEL    =     F    velocity operator in full k-point grid
   LINTERFAST=   F  fast interpolation
   KINTER  =     0    interpolate to denser k-point grid
   CSHIFT  =0.1000    complex shift for real part using Kramers Kronig
   OMEGAMAX=  -1.0    maximum frequency
   DEG_THRESHOLD= 0.2000000E-02 threshold for treating states as degnerate
   RTIME   =   -0.100 relaxation time in fs
  (WPLASMAI=    0.000 imaginary part of plasma frequency in eV, 0.658/RTIME)
   DFIELD  = 0.0000000 0.0000000 0.0000000 field for delta impulse in time

 Orbital magnetization related:
   ORBITALMAG=     F  switch on orbital magnetization
   LCHIMAG   =     F  perturbation theory with respect to B field
   DQ        =  0.001000  dq finite difference perturbation B field
   LLRAUG    =     F  two centre corrections for induced B field



--------------------------------------------------------------------------------------------------------


 Static calculation
 charge density and potential will be updated during run
 non-spin polarized calculation
 Variant of blocked Davidson
 Davidson routine will perform the subspace rotation
 perform sub-space diagonalisation
    after iterative eigenvector-optimisation
 modified Broyden-mixing scheme, WC =      100.0
 initial mixing is a Kerker type mixing with AMIX =  0.4000 and BMIX =      1.0000
 Hartree-type preconditioning will be used
 using additional bands           36
 real space projection scheme for non local part
 use partial core corrections
 calculate Harris-corrections to forces   (improved forces if not selfconsistent)
 use gradient corrections 
 use of overlap-Matrix (Vanderbilt PP)
 Gauss-broadening in eV      SIGMA  =   0.01


--------------------------------------------------------------------------------------------------------


  energy-cutoff  :      300.00
  volume of cell :     1600.27
      direct lattice vectors                 reciprocal lattice vectors
     8.420018000  0.000000000  8.077981000     0.059382296 -0.000000000  0.061896655
     0.000000000 11.763808000  0.000000000     0.000000000  0.085006488 -0.000000000
    -8.420018000  0.000000000  8.077981000    -0.059382296  0.000000000  0.061896655

  length of vectors
    11.668353789 11.763808000 11.668353789     0.085775596  0.085006488  0.085775596



 k-points in units of 2pi/SCALE and weight: 1x1x1                                   
   0.00000000  0.00000000  0.00000000       0.125
   0.02969115  0.00000000  0.03094833       0.125
   0.00000000  0.04250324  0.00000000       0.125
   0.02969115  0.04250324  0.03094833       0.125
  -0.02969115  0.00000000  0.03094833       0.125
   0.00000000  0.00000000  0.06189665       0.125
  -0.02969115  0.04250324  0.03094833       0.125
   0.00000000  0.04250324  0.06189665       0.125

 k-points in reciprocal lattice and weights: 1x1x1                                   
   0.00000000  0.00000000  0.00000000       0.125
   0.50000000  0.00000000  0.00000000       0.125
   0.00000000  0.50000000  0.00000000       0.125
   0.50000000  0.50000000  0.00000000       0.125
   0.00000000  0.00000000  0.50000000       0.125
   0.50000000  0.00000000  0.50000000       0.125
   0.00000000  0.50000000  0.50000000       0.125
   0.50000000  0.50000000  0.50000000       0.125

 position of ions in fractional coordinates (direct lattice) 
   0.26999700  0.25000100  0.19801500
   0.77380700  0.25000100  0.71743200
   0.20909100  0.75000000  0.76417000
   0.29360700  0.24999900  0.73815900
   0.79074300  0.24999900  0.22360300
   0.24424900  0.75000100  0.27714000
   0.99638500  0.99572600  0.99713300
   0.49889600  0.00315400  0.49861000
   0.50548500  0.99601100  0.99866300
   0.00327200  0.00234600  0.50028000
   0.50548600  0.50399200  0.99866500
   0.00326900  0.49765200  0.50028700
   0.99638800  0.50426900  0.99712800
   0.49889800  0.49685100  0.49860600
   0.45572100  0.75000200  0.97018500
   0.00445800  0.74999700  0.46499000
   0.97150300  0.24999800  0.96944900
   0.44949500  0.25000100  0.46718200
   0.04733500  0.75000000  0.02927100
   0.49754800  0.75000200  0.52486300
   0.52965000  0.25000100  0.03009400
   0.03160900  0.24999900  0.54659800
   0.24792600  0.46908300  0.95117500
   0.74774500  0.45029000  0.45697200
   0.44465500  0.51940400  0.24651000
   0.94663600  0.53868800  0.74497300
   0.54558900  0.04362500  0.74956700
   0.05187400  0.03696200  0.25037700
   0.75311400  0.97168600  0.06269900
   0.25112400  0.98017300  0.55885000
   0.24792700  0.03092000  0.95117400
   0.74774600  0.04971100  0.45697100
   0.44465400  0.98059600  0.24651000
   0.94663600  0.96131000  0.74497200
   0.75311600  0.52831500  0.06270000
   0.25112600  0.51982600  0.55884800
   0.54558900  0.45637600  0.74956800
   0.05187100  0.46303500  0.25037600
   0.72737600  0.74999900  0.20609900

 position of ions in cartesian coordinates  (Angst):
   0.60608974  2.94096376  3.78059204
   0.47467851  2.94096376 12.04620031
  -4.67377517  8.82285600  7.86198387
  -3.74313584  2.94094024  8.33458614
   4.77532901  2.94094024  8.19386772
  -0.27694281  8.82286776  4.21177044
  -0.00629817 11.71352948 16.10360053
   0.00240813  0.03710305  8.05783452
  -4.15256764 11.71688217 12.15047897
  -4.18481631  0.02759789  4.06768349
  -4.15257606  5.92886512 12.15050320
  -4.18490051  5.85428258  4.06771580
  -0.00623081  5.93212370 16.10358437
   0.00245865  5.84485977  8.05781836
  -4.33179614  8.82287953 11.51844158
  -3.87768773  8.82282071  3.79219202
   0.01729472  2.94092847 15.67897338
  -0.14892486  2.94096376  7.40489939
   0.15209921  8.82285600  0.61882181
  -0.22999279  8.82287953  8.25901663
   4.20627051  2.94096376  4.52160140
  -4.33621665  2.94094024  4.67074516
  -5.92136924  5.51820235  9.68631510
   2.44831389  5.29712510  9.73168104
   1.66838447  6.11016893  5.58321774
   1.69800609  6.33702220 13.66478536
  -1.71749843  0.51319612 10.46224556
  -1.67139883  0.43481387  2.44157784
   5.81330673 11.43072754  6.59012191
  -2.59105846 11.53056698  6.54295458
  -5.92135240  0.36373694  9.68631510
   2.44833073  0.58479066  9.73168104
   1.66837605 11.53554307  5.58320966
   1.69801451 11.30866627 13.66477728
   5.81331515  6.21499622  6.59014615
  -2.59102478  6.11513326  6.54295458
  -1.71750685  5.36871964 10.46225364
  -1.67141567  5.44705484  2.44154552
   4.38916172  8.82284424  7.54059331



--------------------------------------------------------------------------------------------------------


 k-point  1 :   0.0000 0.0000 0.0000  plane waves:   18901
 k-point  2 :   0.5000 0.0000 0.0000  plane waves:   18892
 k-point  3 :   0.0000 0.5000 0.0000  plane waves:   18858
 k-point  4 :   0.5000 0.5000 0.0000  plane waves:   18900
 k-point  5 :   0.0000 0.0000 0.5000  plane waves:   18892
 k-point  6 :   0.5000 0.0000 0.5000  plane waves:   18810
 k-point  7 :   0.0000 0.5000 0.5000  plane waves:   18900
 k-point  8 :   0.5000 0.5000 0.5000  plane waves:   18888

 maximum and minimum number of plane-waves per node :      2391     2328

 maximum number of plane-waves:     18901
 maximum index in each direction: 
   IXMAX=   16   IYMAX=   16   IZMAX=   16
   IXMIN=  -16   IYMIN=  -17   IZMIN=  -16


 real space projection operators:
  total allocation   :      16491.15 KBytes
  max/ min on nodes  :       2153.23       1789.38


 parallel 3D FFT for wavefunctions:
    minimum data exchange during FFTs selected (reduces bandwidth)
 parallel 3D FFT for charge:
    minimum data exchange during FFTs selected (reduces bandwidth)


 total amount of memory used by VASP MPI-rank0    61021. kBytes
=======================================================================

   base      :      30000. kBytes
   nonlr-proj:       6433. kBytes
   fftplans  :       8423. kBytes
   grid      :       7942. kBytes
   one-center:         77. kBytes
   wavefun   :       8146. kBytes

     INWAV:  cpu time    0.0000: real time    0.0000
 Broyden mixing: mesh for mixing (old mesh)
   NGX = 33   NGY = 33   NGZ = 33
  (NGX  =140   NGY  =140   NGZ  =140)
  gives a total of  35937 points

 initial charge density was supplied:
 charge density of overlapping atoms calculated
 number of electron     343.0000000 magnetization 
 keeping initial charge density in first step


--------------------------------------------------------------------------------------------------------


 Maximum index for non-local projection operator          730
 Maximum index for augmentation-charges         3138 (set IRDMAX)


--------------------------------------------------------------------------------------------------------


 First call to EWALD:  gamma=   0.152
 Maximum number of real-space cells 3x 3x 3
 Maximum number of reciprocal cells 3x 3x 3

    FEWALD:  cpu time    0.0037: real time    0.0037


--------------------------------------- Iteration      1(   1)  ---------------------------------------


    POTLOK:  cpu time    0.2630: real time    0.2810
    SETDIJ:  cpu time    1.2066: real time    1.2067
     EDDAV:  cpu time   16.4987: real time   16.5052
       DOS:  cpu time    0.0008: real time    0.0008
    --------------------------------------------
      LOOP:  cpu time   17.9691: real time   17.9936

 eigenvalue-minimisations  :  3472
 total energy-change (2. order) : 0.1354636E+04  (-0.1106014E+05)
 number of electron     343.0000000 magnetization 
 augmentation part      343.0000000 magnetization 

 Free energy of the ion-electron system (eV)
  ---------------------------------------------------
  alpha Z        PSCENC =       835.99855037
  Ewald energy   TEWEN  =    -17474.80420313
  -Hartree energ DENC   =     -7656.05663434
  -exchange      EXHF   =         0.00000000
  -V(xc)+E(xc)   XCENC  =       905.30931931
  PAW double counting   =     21217.07306836   -22257.58625956
  entropy T*S    EENTRO =        -0.00090769
  eigenvalues    EBANDS =      -240.18053733
  atomic energy  EATOM  =     26024.88362379
  Solvation  Ediel_sol  =         0.00000000
  ---------------------------------------------------
  free energy    TOTEN  =      1354.63601979 eV

  energy without entropy =     1354.63692748  energy(sigma->0) =     1354.63647363


--------------------------------------------------------------------------------------------------------




--------------------------------------- Iteration      1(   2)  ---------------------------------------


     EDDAV:  cpu time   18.3691: real time   18.4151
       DOS:  cpu time    0.0004: real time    0.0004
    --------------------------------------------
      LOOP:  cpu time   18.3695: real time   18.4154

 eigenvalue-minimisations  :  4104
 total energy-change (2. order) :-0.2444167E+04  (-0.2360642E+04)
 number of electron     343.0000000 magnetization 
 augmentation part      343.0000000 magnetization 

 Free energy of the ion-electron system (eV)
  ---------------------------------------------------
  alpha Z        PSCENC =       835.99855037
  Ewald energy   TEWEN  =    -17474.80420313
  -Hartree energ DENC   =     -7656.05663434
  -exchange      EXHF   =         0.00000000
  -V(xc)+E(xc)   XCENC  =       905.30931931
  PAW double counting   =     21217.07306836   -22257.58625956
  entropy T*S    EENTRO =        -0.00000000
  eigenvalues    EBANDS =     -2684.34853973
  atomic energy  EATOM  =     26024.88362379
  Solvation  Ediel_sol  =         0.00000000
  ---------------------------------------------------
  free energy    TOTEN  =     -1089.53107492 eV

  energy without entropy =    -1089.53107492  energy(sigma->0) =    -1089.53107492


--------------------------------------------------------------------------------------------------------




--------------------------------------- Iteration      1(   3)  ---------------------------------------


     EDDAV:  cpu time   19.2590: real time   19.2793
       DOS:  cpu time    0.0004: real time    0.0004
    --------------------------------------------
      LOOP:  cpu time   19.2594: real time   19.2797

 eigenvalue-minimisations  :  4416
 total energy-change (2. order) :-0.3632473E+03  (-0.3612221E+03)
 number of electron     343.0000000 magnetization 
 augmentation part      343.0000000 magnetization 

 Free energy of the ion-electron system (eV)
  ---------------------------------------------------
  alpha Z        PSCENC =       835.99855037
  Ewald energy   TEWEN  =    -17474.80420313
  -Hartree energ DENC   =     -7656.05663434
  -exchange      EXHF   =         0.00000000
  -V(xc)+E(xc)   XCENC  =       905.30931931
  PAW double counting   =     21217.07306836   -22257.58625956
  entropy T*S    EENTRO =        -0.00000000
  eigenvalues    EBANDS =     -3047.59579053
  atomic energy  EATOM  =     26024.88362379
  Solvation  Ediel_sol  =         0.00000000
  ---------------------------------------------------
  free energy    TOTEN  =     -1452.77832573 eV

  energy without entropy =    -1452.77832573  energy(sigma->0) =    -1452.77832573


--------------------------------------------------------------------------------------------------------




--------------------------------------- Iteration      1(   4)  ---------------------------------------


     EDDAV:  cpu time   17.9121: real time   17.9160
       DOS:  cpu time    0.0004: real time    0.0004
    --------------------------------------------
      LOOP:  cpu time   17.9125: real time   17.9164

 eigenvalue-minimisations  :  3944
 total energy-change (2. order) :-0.1232395E+02  (-0.1228878E+02)
 number of electron     343.0000000 magnetization 
 augmentation part      343.0000000 magnetization 

 Free energy of the ion-electron system (eV)
  ---------------------------------------------------
  alpha Z        PSCENC =       835.99855037
  Ewald energy   TEWEN  =    -17474.80420313
  -Hartree energ DENC   =     -7656.05663434
  -exchange      EXHF   =         0.00000000
  -V(xc)+E(xc)   XCENC  =       905.30931931
  PAW double counting   =     21217.07306836   -22257.58625956
  entropy T*S    EENTRO =        -0.00000000
  eigenvalues    EBANDS =     -3059.91974378
  atomic energy  EATOM  =     26024.88362379
  Solvation  Ediel_sol  =         0.00000000
  ---------------------------------------------------
  free energy    TOTEN  =     -1465.10227898 eV

  energy without entropy =    -1465.10227898  energy(sigma->0) =    -1465.10227898


--------------------------------------------------------------------------------------------------------




--------------------------------------- Iteration      1(   5)  ---------------------------------------


     EDDAV:  cpu time   19.2084: real time   19.2540
       DOS:  cpu time    0.0006: real time    0.0006
    CHARGE:  cpu time    2.7053: real time    2.7054
    MIXING:  cpu time    0.0015: real time    0.0015
    --------------------------------------------
      LOOP:  cpu time   21.9158: real time   21.9616

 eigenvalue-minimisations  :  4408
 total energy-change (2. order) :-0.5581349E+00  (-0.5578710E+00)
 number of electron     344.0000000 magnetization 
 augmentation part       -4.5940699 magnetization 

 Broyden mixing:
  rms(total) = 0.10233E+01    rms(broyden)= 0.10226E+01
  rms(prec ) = 0.14203E+01
  weight for this iteration     100.00

 Free energy of the ion-electron system (eV)
  ---------------------------------------------------
  alpha Z        PSCENC =       835.99855037
  Ewald energy   TEWEN  =    -17474.80420313
  -Hartree energ DENC   =     -7656.05663434
  -exchange      EXHF   =         0.00000000
  -V(xc)+E(xc)   XCENC  =       905.30931931
  PAW double counting   =     21217.07306836   -22257.58625956
  entropy T*S    EENTRO =        -0.00000000
  eigenvalues    EBANDS =     -3060.47787863
  atomic energy  EATOM  =     26024.88362379
  Solvation  Ediel_sol  =         0.00000000
  ---------------------------------------------------
  free energy    TOTEN  =     -1465.66041383 eV

  energy without entropy =    -1465.66041383  energy(sigma->0) =    -1465.66041383


--------------------------------------------------------------------------------------------------------




--------------------------------------- Iteration      1(   6)  ---------------------------------------


    POTLOK:  cpu time    0.2848: real time    0.3239
    SETDIJ:  cpu time    1.2015: real time    1.2015
     EDDAV:  cpu time   18.9690: real time   18.9700
       DOS:  cpu time    0.0004: real time    0.0004
    CHARGE:  cpu time    2.7015: real time    2.7016
    MIXING:  cpu time    0.0015: real time    0.0015
    --------------------------------------------
      LOOP:  cpu time   23.1587: real time   23.1990

 eigenvalue-minimisations  :  4328
 total energy-change (2. order) : 0.7882753E+02  (-0.2336028E+01)
 number of electron     344.0000000 magnetization 
 augmentation part       -3.1612507 magnetization 

 Broyden mixing:
  rms(total) = 0.71721E+00    rms(broyden)= 0.71711E+00
  rms(prec ) = 0.89372E+00
  weight for this iteration     100.00

 eigenvalues of (default mixing * dielectric matrix)
  average eigenvalue GAMMA=   1.1958
  1.1958

 Free energy of the ion-electron system (eV)
  ---------------------------------------------------
  alpha Z        PSCENC =       835.99855037
  Ewald energy   TEWEN  =    -17474.80420313
  -Hartree energ DENC   =     -7639.70455336
  -exchange      EXHF   =         0.00000000
  -V(xc)+E(xc)   XCENC  =       939.20936712
  PAW double counting   =     21543.57758006   -22582.57328883
  entropy T*S    EENTRO =        -0.00000000
  eigenvalues    EBANDS =     -3033.41995525
  atomic energy  EATOM  =     26024.88362379
  Solvation  Ediel_sol  =         0.00000000
  ---------------------------------------------------
  free energy    TOTEN  =     -1386.83287923 eV

  energy without entropy =    -1386.83287923  energy(sigma->0) =    -1386.83287923


--------------------------------------------------------------------------------------------------------




--------------------------------------- Iteration      1(   7)  ---------------------------------------


    POTLOK:  cpu time    0.2691: real time    0.3179
    SETDIJ:  cpu time    1.2026: real time    1.2027
     EDDAV:  cpu time   18.3218: real time   18.3225
       DOS:  cpu time    0.0004: real time    0.0004
    CHARGE:  cpu time    2.6942: real time    2.6943
    MIXING:  cpu time    0.0015: real time    0.0015
    --------------------------------------------
      LOOP:  cpu time   22.4896: real time   22.5394

 eigenvalue-minimisations  :  4104
 total energy-change (2. order) : 0.4140419E+00  (-0.9078778E+00)
 number of electron     344.0000001 magnetization 
 augmentation part       -2.5566957 magnetization 

 Broyden mixing:
  rms(total) = 0.37610E+00    rms(broyden)= 0.37609E+00
  rms(prec ) = 0.41245E+00
  weight for this iteration     100.00

 eigenvalues of (default mixing * dielectric matrix)
  average eigenvalue GAMMA=   1.2979
  1.2979  1.2979

 Free energy of the ion-electron system (eV)
  ---------------------------------------------------
  alpha Z        PSCENC =       835.99855037
  Ewald energy   TEWEN  =    -17474.80420313
  -Hartree energ DENC   =     -7680.61606643
  -exchange      EXHF   =         0.00000000
  -V(xc)+E(xc)   XCENC  =       944.53623203
  PAW double counting   =     22217.90303118   -23255.12520432
  entropy T*S    EENTRO =        -0.00000000
  eigenvalues    EBANDS =     -2999.19480079
  atomic energy  EATOM  =     26024.88362379
  Solvation  Ediel_sol  =         0.00000000
  ---------------------------------------------------
  free energy    TOTEN  =     -1386.41883730 eV

  energy without entropy =    -1386.41883730  energy(sigma->0) =    -1386.41883730


--------------------------------------------------------------------------------------------------------




--------------------------------------- Iteration      1(   8)  ---------------------------------------


    POTLOK:  cpu time    0.2851: real time    0.3143
    SETDIJ:  cpu time    1.2011: real time    1.2011
     EDDAV:  cpu time   18.1814: real time   18.1822
       DOS:  cpu time    0.0007: real time    0.0007
    CHARGE:  cpu time    2.6938: real time    2.6939
    MIXING:  cpu time    0.0015: real time    0.0015
    --------------------------------------------
      LOOP:  cpu time   22.3636: real time   22.3937

 eigenvalue-minimisations  :  4056
 total energy-change (2. order) :-0.1852099E+00  (-0.4036798E-01)
 number of electron     344.0000001 magnetization 
 augmentation part       -2.6529415 magnetization 

 Broyden mixing:
  rms(total) = 0.21961E+00    rms(broyden)= 0.21960E+00
  rms(prec ) = 0.24439E+00
  weight for this iteration     100.00

 eigenvalues of (default mixing * dielectric matrix)
  average eigenvalue GAMMA=   1.6939
  1.1469  1.2702  2.6645

 Free energy of the ion-electron system (eV)
  ---------------------------------------------------
  alpha Z        PSCENC =       835.99855037
  Ewald energy   TEWEN  =    -17474.80420313
  -Hartree energ DENC   =     -7684.46118400
  -exchange      EXHF   =         0.00000000
  -V(xc)+E(xc)   XCENC  =       945.12611295
  PAW double counting   =     22456.74002693   -23494.37753460
  entropy T*S    EENTRO =        -0.00000000
  eigenvalues    EBANDS =     -2995.70943951
  atomic energy  EATOM  =     26024.88362379
  Solvation  Ediel_sol  =         0.00000000
  ---------------------------------------------------
  free energy    TOTEN  =     -1386.60404721 eV

  energy without entropy =    -1386.60404721  energy(sigma->0) =    -1386.60404721


--------------------------------------------------------------------------------------------------------




--------------------------------------- Iteration      1(   9)  ---------------------------------------


    POTLOK:  cpu time    0.3167: real time    0.3223
    SETDIJ:  cpu time    1.1971: real time    1.1972
     EDDAV:  cpu time   17.0980: real time   17.0989
       DOS:  cpu time    0.0004: real time    0.0004
    CHARGE:  cpu time    2.6959: real time    2.6960
    MIXING:  cpu time    0.0015: real time    0.0015
    --------------------------------------------
      LOOP:  cpu time   21.3096: real time   21.3163

 eigenvalue-minimisations  :  3680
 total energy-change (2. order) :-0.8229236E-01  (-0.1728631E-01)
 number of electron     344.0000001 magnetization 
 augmentation part       -2.6959981 magnetization 

 Broyden mixing:
  rms(total) = 0.45100E-01    rms(broyden)= 0.45097E-01
  rms(prec ) = 0.50570E-01
  weight for this iteration     100.00

 eigenvalues of (default mixing * dielectric matrix)
  average eigenvalue GAMMA=   1.4588
  2.5489  1.2343  1.2343  0.8179

 Free energy of the ion-electron system (eV)
  ---------------------------------------------------
  alpha Z        PSCENC =       835.99855037
  Ewald energy   TEWEN  =    -17474.80420313
  -Hartree energ DENC   =     -7690.09958658
  -exchange      EXHF   =         0.00000000
  -V(xc)+E(xc)   XCENC  =       947.15066340
  PAW double counting   =     22809.54423235   -23848.04168821
  entropy T*S    EENTRO =        -0.00000000
  eigenvalues    EBANDS =     -2991.31793155
  atomic energy  EATOM  =     26024.88362379
  Solvation  Ediel_sol  =         0.00000000
  ---------------------------------------------------
  free energy    TOTEN  =     -1386.68633957 eV

  energy without entropy =    -1386.68633957  energy(sigma->0) =    -1386.68633957


--------------------------------------------------------------------------------------------------------




--------------------------------------- Iteration      1(  10)  ---------------------------------------


    POTLOK:  cpu time    0.2554: real time    0.3182
    SETDIJ:  cpu time    1.2001: real time    1.2002
     EDDAV:  cpu time   19.9508: real time   19.9517
       DOS:  cpu time    0.0004: real time    0.0004
    CHARGE:  cpu time    2.7017: real time    2.7018
    MIXING:  cpu time    0.0018: real time    0.0018
    --------------------------------------------
      LOOP:  cpu time   24.1102: real time   24.1741

 eigenvalue-minimisations  :  4672
 total energy-change (2. order) :-0.2389961E-02  (-0.1596104E-02)
 number of electron     344.0000001 magnetization 
 augmentation part       -2.6828575 magnetization 

 Broyden mixing:
  rms(total) = 0.28575E-01    rms(broyden)= 0.28573E-01
  rms(prec ) = 0.33521E-01
  weight for this iteration     100.00

 eigenvalues of (default mixing * dielectric matrix)
  average eigenvalue GAMMA=   1.3916
  2.1780  1.7076  1.2463  0.9129  0.9129

 Free energy of the ion-electron system (eV)
  ---------------------------------------------------
  alpha Z        PSCENC =       835.99855037
  Ewald energy   TEWEN  =    -17474.80420313
  -Hartree energ DENC   =     -7688.35620214
  -exchange      EXHF   =         0.00000000
  -V(xc)+E(xc)   XCENC  =       946.97487100
  PAW double counting   =     22778.36442272   -23816.93327424
  entropy T*S    EENTRO =        -0.00000000
  eigenvalues    EBANDS =     -2992.81651789
  atomic energy  EATOM  =     26024.88362379
  Solvation  Ediel_sol  =         0.00000000
  ---------------------------------------------------
  free energy    TOTEN  =     -1386.68872953 eV

  energy without entropy =    -1386.68872953  energy(sigma->0) =    -1386.68872953


--------------------------------------------------------------------------------------------------------




--------------------------------------- Iteration      1(  11)  ---------------------------------------


    POTLOK:  cpu time    0.3095: real time    0.3187
    SETDIJ:  cpu time    1.1977: real time    1.1977
     EDDAV:  cpu time   17.1817: real time   17.1824
       DOS:  cpu time    0.0004: real time    0.0004
    CHARGE:  cpu time    2.7116: real time    2.7118
    MIXING:  cpu time    0.0016: real time    0.0016
    --------------------------------------------
      LOOP:  cpu time   21.4025: real time   21.4126

 eigenvalue-minimisations  :  3696
 total energy-change (2. order) :-0.2440117E-02  (-0.2621472E-03)
 number of electron     344.0000001 magnetization 
 augmentation part       -2.6808391 magnetization 

 Broyden mixing:
  rms(total) = 0.11202E-01    rms(broyden)= 0.11202E-01
  rms(prec ) = 0.15459E-01
  weight for this iteration     100.00

 eigenvalues of (default mixing * dielectric matrix)
  average eigenvalue GAMMA=   1.5885
  2.7179  2.7179  1.1953  1.1953  0.8524  0.8524

 Free energy of the ion-electron system (eV)
  ---------------------------------------------------
  alpha Z        PSCENC =       835.99855037
  Ewald energy   TEWEN  =    -17474.80420313
  -Hartree energ DENC   =     -7686.42572692
  -exchange      EXHF   =         0.00000000
  -V(xc)+E(xc)   XCENC  =       946.90155595
  PAW double counting   =     22754.92037347   -23793.71563952
  entropy T*S    EENTRO =        -0.00000000
  eigenvalues    EBANDS =     -2994.44970364
  atomic energy  EATOM  =     26024.88362379
  Solvation  Ediel_sol  =         0.00000000
  ---------------------------------------------------
  free energy    TOTEN  =     -1386.69116964 eV

  energy without entropy =    -1386.69116964  energy(sigma->0) =    -1386.69116964


--------------------------------------------------------------------------------------------------------




--------------------------------------- Iteration      1(  12)  ---------------------------------------


    POTLOK:  cpu time    0.2835: real time    0.3211
    SETDIJ:  cpu time    1.1976: real time    1.1976
     EDDAV:  cpu time   17.4470: real time   17.4479
       DOS:  cpu time    0.0004: real time    0.0004
    CHARGE:  cpu time    2.7112: real time    2.7113
    MIXING:  cpu time    0.0017: real time    0.0017
    --------------------------------------------
      LOOP:  cpu time   21.6414: real time   21.6800

 eigenvalue-minimisations  :  3792
 total energy-change (2. order) :-0.1664001E-02  (-0.2128344E-03)
 number of electron     344.0000001 magnetization 
 augmentation part       -2.6842474 magnetization 

 Broyden mixing:
  rms(total) = 0.64627E-02    rms(broyden)= 0.64618E-02
  rms(prec ) = 0.82994E-02
  weight for this iteration     100.00

 eigenvalues of (default mixing * dielectric matrix)
  average eigenvalue GAMMA=   1.6228
  2.8019  2.8019  1.4167  1.4167  0.9344  0.9938  0.9938

 Free energy of the ion-electron system (eV)
  ---------------------------------------------------
  alpha Z        PSCENC =       835.99855037
  Ewald energy   TEWEN  =    -17474.80420313
  -Hartree energ DENC   =     -7685.63751057
  -exchange      EXHF   =         0.00000000
  -V(xc)+E(xc)   XCENC  =       946.97122136
  PAW double counting   =     22752.82525485   -23791.85245171
  entropy T*S    EENTRO =        -0.00000000
  eigenvalues    EBANDS =     -2995.07731860
  atomic energy  EATOM  =     26024.88362379
  Solvation  Ediel_sol  =         0.00000000
  ---------------------------------------------------
  free energy    TOTEN  =     -1386.69283364 eV

  energy without entropy =    -1386.69283364  energy(sigma->0) =    -1386.69283364


--------------------------------------------------------------------------------------------------------




--------------------------------------- Iteration      1(  13)  ---------------------------------------


    POTLOK:  cpu time    0.2502: real time    0.3227
    SETDIJ:  cpu time    1.1983: real time    1.1984
     EDDAV:  cpu time   19.2496: real time   19.2506
       DOS:  cpu time    0.0004: real time    0.0004
    CHARGE:  cpu time    2.7074: real time    2.7076
    MIXING:  cpu time    0.0020: real time    0.0020
    --------------------------------------------
      LOOP:  cpu time   23.4081: real time   23.4817

 eigenvalue-minimisations  :  4416
 total energy-change (2. order) : 0.3357836E-03  (-0.7120293E-04)
 number of electron     344.0000001 magnetization 
 augmentation part       -2.6854282 magnetization 

 Broyden mixing:
  rms(total) = 0.25831E-02    rms(broyden)= 0.25822E-02
  rms(prec ) = 0.30606E-02
  weight for this iteration     100.00

 eigenvalues of (default mixing * dielectric matrix)
  average eigenvalue GAMMA=   1.5597
  3.1010  2.1864  1.5952  1.2143  1.2143  1.2667  0.8662  1.0337

 Free energy of the ion-electron system (eV)
  ---------------------------------------------------
  alpha Z        PSCENC =       835.99855037
  Ewald energy   TEWEN  =    -17474.80420313
  -Hartree energ DENC   =     -7686.47062621
  -exchange      EXHF   =         0.00000000
  -V(xc)+E(xc)   XCENC  =       947.02535950
  PAW double counting   =     22753.10327498   -23792.10241025
  entropy T*S    EENTRO =        -0.00000000
  eigenvalues    EBANDS =     -2994.32606691
  atomic energy  EATOM  =     26024.88362379
  Solvation  Ediel_sol  =         0.00000000
  ---------------------------------------------------
  free energy    TOTEN  =     -1386.69249786 eV

  energy without entropy =    -1386.69249786  energy(sigma->0) =    -1386.69249786


--------------------------------------------------------------------------------------------------------




--------------------------------------- Iteration      1(  14)  ---------------------------------------


    POTLOK:  cpu time    0.2970: real time    0.3141
    SETDIJ:  cpu time    1.1999: real time    1.1999
     EDDAV:  cpu time   17.8057: real time   17.8067
       DOS:  cpu time    0.0006: real time    0.0006
    CHARGE:  cpu time    2.7097: real time    2.7098
    MIXING:  cpu time    0.0020: real time    0.0020
    --------------------------------------------
      LOOP:  cpu time   22.0148: real time   22.0331

 eigenvalue-minimisations  :  3912
 total energy-change (2. order) : 0.2983235E-04  (-0.1321325E-04)
 number of electron     344.0000001 magnetization 
 augmentation part       -2.6849831 magnetization 

 Broyden mixing:
  rms(total) = 0.16146E-02    rms(broyden)= 0.16134E-02
  rms(prec ) = 0.21204E-02
  weight for this iteration     100.00

 eigenvalues of (default mixing * dielectric matrix)
  average eigenvalue GAMMA=   1.5985
  3.1183  2.3920  2.3920  1.1539  1.1539  0.8973  0.8973  1.1911  1.1911

 Free energy of the ion-electron system (eV)
  ---------------------------------------------------
  alpha Z        PSCENC =       835.99855037
  Ewald energy   TEWEN  =    -17474.80420313
  -Hartree energ DENC   =     -7686.52302755
  -exchange      EXHF   =         0.00000000
  -V(xc)+E(xc)   XCENC  =       947.02986409
  PAW double counting   =     22754.97930566   -23793.96982277
  entropy T*S    EENTRO =        -0.00000000
  eigenvalues    EBANDS =     -2994.28675848
  atomic energy  EATOM  =     26024.88362379
  Solvation  Ediel_sol  =         0.00000000
  ---------------------------------------------------
  free energy    TOTEN  =     -1386.69246803 eV

  energy without entropy =    -1386.69246803  energy(sigma->0) =    -1386.69246803


--------------------------------------------------------------------------------------------------------




--------------------------------------- Iteration      1(  15)  ---------------------------------------


    POTLOK:  cpu time    0.2824: real time    0.3229
    SETDIJ:  cpu time    1.1984: real time    1.1985
     EDDAV:  cpu time   17.0425: real time   17.0437
       DOS:  cpu time    0.0006: real time    0.0006
    CHARGE:  cpu time    2.7064: real time    2.7065
    MIXING:  cpu time    0.0018: real time    0.0018
    --------------------------------------------
      LOOP:  cpu time   21.2322: real time   21.2741

 eigenvalue-minimisations  :  3648
 total energy-change (2. order) :-0.8606921E-06  (-0.1990646E-05)
 number of electron     344.0000001 magnetization 
 augmentation part       -2.6847853 magnetization 

 Broyden mixing:
  rms(total) = 0.87248E-03    rms(broyden)= 0.87057E-03
  rms(prec ) = 0.12306E-02
  weight for this iteration     100.00

 eigenvalues of (default mixing * dielectric matrix)
  average eigenvalue GAMMA=   1.5980
  3.3549  2.4366  2.1675  1.3553  1.3553  1.2267  1.2267  0.8586  0.9576  1.0407

 Free energy of the ion-electron system (eV)
  ---------------------------------------------------
  alpha Z        PSCENC =       835.99855037
  Ewald energy   TEWEN  =    -17474.80420313
  -Hartree energ DENC   =     -7686.64986339
  -exchange      EXHF   =         0.00000000
  -V(xc)+E(xc)   XCENC  =       947.03440238
  PAW double counting   =     22754.28797682   -23793.27269808
  entropy T*S    EENTRO =        -0.00000000
  eigenvalues    EBANDS =     -2994.17025765
  atomic energy  EATOM  =     26024.88362379
  Solvation  Ediel_sol  =         0.00000000
  ---------------------------------------------------
  free energy    TOTEN  =     -1386.69246889 eV

  energy without entropy =    -1386.69246889  energy(sigma->0) =    -1386.69246889


--------------------------------------------------------------------------------------------------------




--------------------------------------- Iteration      1(  16)  ---------------------------------------


    POTLOK:  cpu time    0.2778: real time    0.3152
    SETDIJ:  cpu time    1.2031: real time    1.2032
     EDDAV:  cpu time   17.6319: real time   17.6327
       DOS:  cpu time    0.0004: real time    0.0004
    CHARGE:  cpu time    2.7016: real time    2.7017
    MIXING:  cpu time    0.0019: real time    0.0019
    --------------------------------------------
      LOOP:  cpu time   21.8169: real time   21.8551

 eigenvalue-minimisations  :  3848
 total energy-change (2. order) :-0.6194134E-04  (-0.1280487E-05)
 number of electron     344.0000001 magnetization 
 augmentation part       -2.6844357 magnetization 

 Broyden mixing:
  rms(total) = 0.50448E-03    rms(broyden)= 0.50118E-03
  rms(prec ) = 0.59197E-03
  weight for this iteration     100.00

 eigenvalues of (default mixing * dielectric matrix)
  average eigenvalue GAMMA=   1.6968
  3.8666  2.9255  2.4576  1.8894  1.2023  1.2023  1.1209  1.1209  0.8655  1.0071
  1.0071

 Free energy of the ion-electron system (eV)
  ---------------------------------------------------
  alpha Z        PSCENC =       835.99855037
  Ewald energy   TEWEN  =    -17474.80420313
  -Hartree energ DENC   =     -7686.57792379
  -exchange      EXHF   =         0.00000000
  -V(xc)+E(xc)   XCENC  =       947.02732812
  PAW double counting   =     22753.53155399   -23792.51880009
  entropy T*S    EENTRO =        -0.00000000
  eigenvalues    EBANDS =     -2994.23266007
  atomic energy  EATOM  =     26024.88362379
  Solvation  Ediel_sol  =         0.00000000
  ---------------------------------------------------
  free energy    TOTEN  =     -1386.69253083 eV

  energy without entropy =    -1386.69253083  energy(sigma->0) =    -1386.69253083


--------------------------------------------------------------------------------------------------------




--------------------------------------- Iteration      1(  17)  ---------------------------------------


    POTLOK:  cpu time    0.2531: real time    0.3234
    SETDIJ:  cpu time    1.2013: real time    1.2015
     EDDAV:  cpu time   14.9860: real time   14.9866
       DOS:  cpu time    0.0004: real time    0.0004
    CHARGE:  cpu time    2.7069: real time    2.7070
    MIXING:  cpu time    0.0020: real time    0.0020
    --------------------------------------------
      LOOP:  cpu time   19.1496: real time   19.2208

 eigenvalue-minimisations  :  2912
 total energy-change (2. order) : 0.1465345E-04  (-0.2704206E-06)
 number of electron     344.0000001 magnetization 
 augmentation part       -2.6844381 magnetization 

 Broyden mixing:
  rms(total) = 0.29981E-03    rms(broyden)= 0.29426E-03
  rms(prec ) = 0.33196E-03
  weight for this iteration     100.00

 eigenvalues of (default mixing * dielectric matrix)
  average eigenvalue GAMMA=   1.6454
  3.8996  2.9792  2.3906  1.8789  1.3161  1.3161  1.1230  1.1230  1.0302  1.0302
  0.8288  0.8288

 Free energy of the ion-electron system (eV)
  ---------------------------------------------------
  alpha Z        PSCENC =       835.99855037
  Ewald energy   TEWEN  =    -17474.80420313
  -Hartree energ DENC   =     -7686.58941232
  -exchange      EXHF   =         0.00000000
  -V(xc)+E(xc)   XCENC  =       947.02628899
  PAW double counting   =     22753.95938924   -23792.94198406
  entropy T*S    EENTRO =        -0.00000000
  eigenvalues    EBANDS =     -2994.22476906
  atomic energy  EATOM  =     26024.88362379
  Solvation  Ediel_sol  =         0.00000000
  ---------------------------------------------------
  free energy    TOTEN  =     -1386.69251618 eV

  energy without entropy =    -1386.69251618  energy(sigma->0) =    -1386.69251618


--------------------------------------------------------------------------------------------------------




--------------------------------------- Iteration      1(  18)  ---------------------------------------


    POTLOK:  cpu time    0.2585: real time    0.2850
    SETDIJ:  cpu time    1.2029: real time    1.2030
     EDDAV:  cpu time   12.8857: real time   12.8863
       DOS:  cpu time    0.0004: real time    0.0004
    CHARGE:  cpu time    2.7071: real time    2.7072
    MIXING:  cpu time    0.0020: real time    0.0020
    --------------------------------------------
      LOOP:  cpu time   17.0567: real time   17.0838

 eigenvalue-minimisations  :  2168
 total energy-change (2. order) : 0.1422128E-05  (-0.9839607E-07)
 number of electron     344.0000001 magnetization 
 augmentation part       -2.6844874 magnetization 

 Broyden mixing:
  rms(total) = 0.13457E-03    rms(broyden)= 0.12171E-03
  rms(prec ) = 0.14547E-03
  weight for this iteration     100.00

 eigenvalues of (default mixing * dielectric matrix)
  average eigenvalue GAMMA=   1.6620
  4.2217  3.0207  2.3181  2.1742  1.4193  1.4193  1.1397  1.1397  1.0066  1.0066
  0.8327  0.9536  0.9536

 Free energy of the ion-electron system (eV)
  ---------------------------------------------------
  alpha Z        PSCENC =       835.99855037
  Ewald energy   TEWEN  =    -17474.80420313
  -Hartree energ DENC   =     -7686.59144860
  -exchange      EXHF   =         0.00000000
  -V(xc)+E(xc)   XCENC  =       947.02617535
  PAW double counting   =     22753.95924237   -23792.94183237
  entropy T*S    EENTRO =        -0.00000000
  eigenvalues    EBANDS =     -2994.22262254
  atomic energy  EATOM  =     26024.88362379
  Solvation  Ediel_sol  =         0.00000000
  ---------------------------------------------------
  free energy    TOTEN  =     -1386.69251476 eV

  energy without entropy =    -1386.69251476  energy(sigma->0) =    -1386.69251476


--------------------------------------------------------------------------------------------------------




--------------------------------------- Iteration      1(  19)  ---------------------------------------


    POTLOK:  cpu time    0.2592: real time    0.3182
    SETDIJ:  cpu time    1.2032: real time    1.2032
     EDDAV:  cpu time   12.6633: real time   12.6638
       DOS:  cpu time    0.0004: real time    0.0004
    --------------------------------------------
      LOOP:  cpu time   14.1259: real time   14.1855

 eigenvalue-minimisations  :  2088
 total energy-change (2. order) : 0.3292903E-06  (-0.3458732E-07)
 number of electron     344.0000001 magnetization 
 augmentation part       -2.6844874 magnetization 

 Free energy of the ion-electron system (eV)
  ---------------------------------------------------
  alpha Z        PSCENC =       835.99855037
  Ewald energy   TEWEN  =    -17474.80420313
  -Hartree energ DENC   =     -7686.58929977
  -exchange      EXHF   =         0.00000000
  -V(xc)+E(xc)   XCENC  =       947.02590536
  PAW double counting   =     22754.00981330   -23792.99206114
  entropy T*S    EENTRO =        -0.00000000
  eigenvalues    EBANDS =     -2994.22484320
  atomic energy  EATOM  =     26024.88362379
  Solvation  Ediel_sol  =         0.00000000
  ---------------------------------------------------
  free energy    TOTEN  =     -1386.69251443 eV

  energy without entropy =    -1386.69251443  energy(sigma->0) =    -1386.69251443


--------------------------------------------------------------------------------------------------------




 average (electrostatic) potential at core
  the test charge radii are     1.1312  1.1541  1.0178  1.1312
  (the norm of the test charge is              1.0000)
       1 -55.4178       2 -55.3569       3 -55.4255       4 -55.3084       5 -55.5230
       6 -55.4977       7-101.9915       8-101.7591       9-101.9877      10-101.7890
      11-101.9877      12-101.7890      13-101.9915      14-101.7592      15 -69.3032
      16 -69.0569      17 -69.2739      18 -69.0869      19 -69.4183      20 -68.8182
      21 -69.2288      22 -69.1430      23 -69.1709      24 -69.0027      25 -69.2275
      26 -68.9614      27 -69.0182      28 -69.1950      29 -69.4843      30 -69.1057
      31 -69.1709      32 -69.0026      33 -69.2274      34 -68.9612      35 -69.4842
      36 -69.1056      37 -69.0181      38 -69.1949      39 -55.6598



 E-fermi :   0.3304     XC(G=0):  -7.9259     alpha+bet : -6.8224


 k-point     1 :       0.0000    0.0000    0.0000
  band No.  band energies     occupation 
      1     -21.2620      2.00000
      2     -21.0575      2.00000
      3     -21.0306      2.00000
      4     -20.9569      2.00000
      5     -20.9547      2.00000
      6     -20.8920      2.00000
      7     -20.8478      2.00000
      8     -16.8134      2.00000
      9     -16.7886      2.00000
     10     -16.7836      2.00000
     11     -16.7617      2.00000
     12     -16.7320      2.00000
     13     -16.7305      2.00000
     14     -16.7291      2.00000
     15     -16.7198      2.00000
     16     -16.6638      2.00000
     17     -16.6624      2.00000
     18     -16.6572      2.00000
     19     -16.6560      2.00000
     20     -16.6510      2.00000
     21     -16.6505      2.00000
     22     -16.6475      2.00000
     23     -16.6472      2.00000
     24     -16.6430      2.00000
     25     -16.6424      2.00000
     26     -16.6367      2.00000
     27     -16.6359      2.00000
     28     -16.5973      2.00000
     29     -16.5688      2.00000
     30     -16.5687      2.00000
     31     -16.5488      2.00000
     32     -16.5386      2.00000
     33     -16.5186      2.00000
     34     -16.5162      2.00000
     35     -16.4867      2.00000
     36     -16.4553      2.00000
     37     -16.4539      2.00000
     38     -16.4486      2.00000
     39     -16.4478      2.00000
     40     -16.4474      2.00000
     41     -16.4467      2.00000
     42     -16.4277      2.00000
     43     -16.4276      2.00000
     44     -16.4217      2.00000
     45     -16.4188      2.00000
     46     -16.4125      2.00000
     47     -16.4116      2.00000
     48     -14.6709      2.00000
     49     -14.6235      2.00000
     50     -14.4525      2.00000
     51     -14.4149      2.00000
     52     -14.3581      2.00000
     53     -14.3210      2.00000
     54     -14.3054      2.00000
     55     -14.2891      2.00000
     56     -14.2097      2.00000
     57     -14.1911      2.00000
     58     -14.1569      2.00000
     59     -14.1473      2.00000
     60     -14.1419      2.00000
     61     -14.1286      2.00000
     62     -14.1043      2.00000
     63     -14.0597      2.00000
     64     -14.0392      2.00000
     65     -14.0321      2.00000
     66     -13.9673      2.00000
     67     -13.9626      2.00000
     68     -13.8425      2.00000
     69     -13.8298      2.00000
     70     -13.8196      2.00000
     71     -13.7074      2.00000
     72      -8.3965      2.00000
     73      -7.9575      2.00000
     74      -7.9077      2.00000
     75      -7.8927      2.00000
     76      -7.7040      2.00000
     77      -7.6980      2.00000
     78      -7.6788      2.00000
     79      -7.4815      2.00000
     80      -7.4627      2.00000
     81      -7.4556      2.00000
     82      -7.4339      2.00000
     83      -7.4334      2.00000
     84      -7.4269      2.00000
     85      -7.3882      2.00000
     86      -7.3857      2.00000
     87      -7.3835      2.00000
     88      -7.3717      2.00000
     89      -7.3597      2.00000
     90      -7.3527      2.00000
     91      -7.3325      2.00000
     92      -7.3240      2.00000
     93      -7.3133      2.00000
     94      -7.3062      2.00000
     95      -7.2755      2.00000
     96      -7.2644      2.00000
     97      -7.2589      2.00000
     98      -7.2419      2.00000
     99      -7.2374      2.00000
    100      -6.7460      2.00000
    101      -3.5959      2.00000
    102      -3.5521      2.00000
[...]


--------------------------------------------------------------------------------------------------------


 soft charge-density along one line, spin component           1
         0         1         2         3         4         5         6         7         8         9
 total charge-density along one line

 pseudopotential strength for first ion, spin component:           1
 18.037  -4.722   0.000  -0.002  -0.001  -0.000   0.003   0.001
 -4.722   1.245  -0.000   0.000   0.000   0.000  -0.001  -0.000
  0.000  -0.000   2.293   0.000   0.000  -2.749  -0.000  -0.000
 -0.002   0.000   0.000   2.295  -0.001  -0.000  -2.751   0.001
 -0.001   0.000   0.000  -0.001   2.295  -0.000   0.001  -2.751
 -0.000   0.000  -2.749  -0.000  -0.000   3.265   0.000   0.000
  0.003  -0.001  -0.000  -2.751   0.001   0.000   3.267  -0.001
  0.001  -0.000  -0.000   0.001  -2.751   0.000  -0.001   3.267
  0.000  -0.000   0.000  -0.000  -0.000  -0.000   0.000   0.000
  0.000  -0.000   0.000  -0.000  -0.000  -0.000   0.000   0.000
  0.000  -0.000  -0.000  -0.002   0.001   0.000   0.003  -0.001
 -0.001   0.000  -0.000  -0.000  -0.001   0.000   0.000   0.001
  0.001  -0.000  -0.000  -0.000  -0.001   0.000   0.001   0.002
 total augmentation occupancy for first ion, spin component:           1
  1.912  -0.140   0.000  -0.000  -0.000  -0.000  -0.001  -0.001   0.000   0.000   0.001  -0.001   0.001
 -0.140   0.133  -0.000  -0.006  -0.002   0.000   0.001   0.002  -0.000  -0.000  -0.002   0.005  -0.001
  0.000  -0.000   2.015   0.000   0.000   0.003   0.000   0.000   0.001   0.000   0.000  -0.000  -0.000
 -0.000  -0.006   0.000   2.018  -0.003   0.000   0.005  -0.002  -0.000  -0.000  -0.005  -0.000  -0.000
 -0.000  -0.002   0.000  -0.003   2.019   0.000  -0.002   0.005  -0.000  -0.000   0.001   0.000  -0.002
 -0.000   0.000   0.003   0.000   0.000   0.010  -0.000  -0.000  -0.001  -0.001  -0.000   0.000   0.000
 -0.001   0.001   0.000   0.005  -0.002  -0.000   0.009   0.001   0.000   0.000   0.003  -0.000   0.000
 -0.001   0.002   0.000  -0.002   0.005  -0.000   0.001   0.010   0.000   0.000  -0.001  -0.001   0.002
  0.000  -0.000   0.001  -0.000  -0.000  -0.001   0.000   0.000   0.007   0.002   0.000  -0.000  -0.000
  0.000  -0.000   0.000  -0.000  -0.000  -0.001   0.000   0.000   0.002   0.006   0.000  -0.000  -0.000
  0.001  -0.002   0.000  -0.005   0.001  -0.000   0.003  -0.001   0.000   0.000   0.006  -0.002  -0.000
 -0.001   0.005  -0.000  -0.000   0.000   0.000  -0.000  -0.001  -0.000  -0.000  -0.002   0.004   0.001
  0.001  -0.001  -0.000  -0.000  -0.002   0.000   0.000   0.002  -0.000  -0.000  -0.000   0.001   0.005


------------------------ aborting loop because EDIFF is reached ----------------------------------------





 total charge     

# of ion       s       p       d       tot
------------------------------------------
    1        1.787   4.722   0.022   6.530
    2        1.787   4.721   0.021   6.529
    3        1.786   4.721   0.019   6.526
    4        1.787   4.721   0.022   6.530
    5        1.786   4.721   0.021   6.528
    6        1.786   4.721   0.020   6.528
    7        1.555   0.419   9.833  11.807
    8        1.555   0.420   9.834  11.809
    9        1.555   0.420   9.833  11.808
   10        1.554   0.423   9.834  11.810
   11        1.555   0.420   9.833  11.808
   12        1.554   0.423   9.834  11.810
   13        1.555   0.419   9.833  11.807
   14        1.555   0.420   9.834  11.809
   15        1.615   3.285   0.007   4.907
   16        1.614   3.288   0.006   4.908
   17        1.614   3.290   0.006   4.910
   18        1.615   3.292   0.007   4.913
   19        1.615   3.293   0.007   4.915
   20        1.615   3.277   0.006   4.897
   21        1.614   3.290   0.006   4.910
   22        1.615   3.291   0.007   4.912
   23        1.613   3.287   0.005   4.906
   24        1.614   3.286   0.005   4.905
   25        1.614   3.291   0.006   4.911
   26        1.615   3.275   0.006   4.895
   27        1.614   3.286   0.006   4.906
   28        1.614   3.288   0.006   4.908
   29        1.617   3.311   0.008   4.936
   30        1.615   3.290   0.007   4.911
   31        1.613   3.287   0.005   4.906
   32        1.614   3.286   0.005   4.905
   33        1.614   3.291   0.006   4.911
   34        1.615   3.275   0.006   4.895
   35        1.617   3.311   0.008   4.936
   36        1.615   3.290   0.007   4.911
   37        1.614   3.286   0.006   4.906
   38        1.614   3.288   0.006   4.908
   39        1.794   4.724   0.038   6.556
--------------------------------------------------
tot         63.698 115.347  78.979 258.024

    CHARGE:  cpu time    0.3945: real time    0.3945
    FORLOC:  cpu time    0.0123: real time    0.0123
    FORNL :  cpu time    1.9077: real time    1.9078
    STRESS:  cpu time   49.9429: real time   49.9449
    FORCOR:  cpu time    0.2457: real time    0.2457
    FORHAR:  cpu time    0.0289: real time    0.0289
    MIXING:  cpu time    0.0022: real time    0.0022
    OFIELD:  cpu time    0.0000: real time    0.0000

  FORCE on cell =-STRESS in cart. coord.  units (eV):
  Direction    XX          YY          ZZ          XY          YZ          ZX
  --------------------------------------------------------------------------------------
  Alpha Z   835.99855   835.99855   835.99855
  Ewald   -5838.31373 -5668.79950 -5967.76913     0.00514    -0.00879   -83.53670
  Hartree  2578.14367  2622.66014  2485.79352     0.00414    -0.00443   -67.69110
  E(xc)   -1447.08004 -1446.69772 -1447.12836    -0.00001    -0.00002    -0.11262
  Local   -3128.27766 -3340.91191 -2907.26739    -0.00919     0.01332   152.12349
  n-local  1793.81519  1795.37214  1793.06218    -0.00002    -0.00026    -0.59516
  augment   824.99622   824.72913   824.28761     0.00001    -0.00007    -0.12821
  Kinetic  4384.93786  4388.08823  4387.68566    -0.00008    -0.00001    -0.28741
  Fock        0.00000     0.00000     0.00000     0.00000     0.00000     0.00000
  -------------------------------------------------------------------------------------
  Total       4.22006    10.43905     4.66266    -0.00001    -0.00027    -0.22771
  in kB       4.22508    10.45148     4.66821    -0.00001    -0.00027    -0.22798
  external pressure =        6.45 kB  Pullay stress =        0.00 kB


 VOLUME and BASIS-vectors are now :
 -----------------------------------------------------------------------------
  energy-cutoff  :      300.00
  volume of cell :     1600.27
      direct lattice vectors                 reciprocal lattice vectors
     8.420018000  0.000000000  8.077981000     0.059382296 -0.000000000  0.061896655
     0.000000000 11.763808000  0.000000000     0.000000000  0.085006488 -0.000000000
    -8.420018000  0.000000000  8.077981000    -0.059382296  0.000000000  0.061896655

  length of vectors
    11.668353789 11.763808000 11.668353789     0.085775596  0.085006488  0.085775596


 FORCES acting on ions
    electron-ion (+dipol)            ewald-force                    non-local-force                 convergence-correction
 -----------------------------------------------------------------------------------------------
   0.295E+02 -.471E-04 -.114E+02   -.294E+02 0.582E-04 0.116E+02   -.100E+00 -.183E-04 -.118E+00   0.358E-03 0.422E-06 -.275E-03
   0.299E+02 0.284E-02 -.877E+01   -.297E+02 -.288E-02 0.862E+01   -.188E+00 -.544E-05 0.115E+00   -.316E-03 -.528E-06 0.216E-03
   -.245E+02 0.558E-04 -.755E+01   0.245E+02 -.161E-04 0.741E+01   0.256E-01 -.341E-04 0.609E-01   -.290E-03 -.548E-06 0.115E-03
   0.273E+02 -.352E-02 0.994E+01   -.271E+02 0.352E-02 -.100E+02   -.241E+00 0.387E-04 0.314E-01   -.157E-03 -.169E-06 0.315E-03
   0.324E+02 -.152E-02 0.656E+01   -.325E+02 0.154E-02 -.649E+01   0.406E-01 0.758E-05 -.895E-02   0.317E-03 0.294E-06 -.285E-03
   -.110E+02 0.351E-02 0.316E+01   0.108E+02 -.351E-02 -.306E+01   0.658E-01 -.268E-04 -.179E-01   0.163E-03 -.224E-06 -.163E-03
   0.714E+01 0.359E+02 0.581E+02   -.723E+01 -.355E+02 -.581E+02   0.352E+00 -.271E+00 0.147E-01   -.196E-03 -.422E-03 -.449E-03
   -.426E+02 0.752E+02 -.674E+02   0.431E+02 -.758E+02 0.678E+02   -.539E+00 0.469E+00 -.134E+00   0.442E-05 -.225E-03 0.313E-03
   -.660E+02 0.516E+02 -.246E+01   0.661E+02 -.514E+02 0.211E+01   -.120E+00 -.753E-01 0.849E-01   0.578E-03 -.447E-03 0.802E-04
   0.467E+02 0.497E+02 0.457E+02   -.471E+02 -.500E+02 -.472E+02   0.119E+00 0.215E+00 0.153E+01   -.175E-03 -.155E-03 -.164E-03
   -.660E+02 -.516E+02 -.245E+01   0.661E+02 0.514E+02 0.211E+01   -.120E+00 0.751E-01 0.850E-01   0.575E-03 0.452E-03 0.847E-04
   0.467E+02 -.497E+02 0.457E+02   -.470E+02 0.500E+02 -.472E+02   0.118E+00 -.215E+00 0.153E+01   -.173E-03 0.154E-03 -.162E-03
   0.715E+01 -.359E+02 0.581E+02   -.724E+01 0.355E+02 -.581E+02   0.353E+00 0.270E+00 0.148E-01   -.191E-03 0.421E-03 -.449E-03
   -.426E+02 -.752E+02 -.674E+02   0.431E+02 0.758E+02 0.678E+02   -.538E+00 -.469E+00 -.135E+00   0.823E-05 0.223E-03 0.315E-03
   -.402E+02 0.303E-02 0.320E+02   0.401E+02 -.308E-02 -.325E+02   0.976E-01 -.354E-04 0.581E+00   0.490E-03 -.985E-06 0.283E-03
   0.388E+02 -.392E-02 0.525E+02   -.388E+02 0.400E-02 -.526E+02   -.300E-01 0.104E-04 -.761E-01   -.197E-03 -.232E-06 -.159E-04
   -.109E+02 0.191E-02 0.410E+02   0.111E+02 -.193E-02 -.412E+02   -.192E+00 0.723E-04 0.160E+00   -.211E-04 0.140E-06 -.192E-04
   -.119E+02 -.312E-02 0.300E+02   0.119E+02 0.317E-02 -.304E+02   0.313E-01 -.274E-04 0.329E+00   0.320E-04 -.118E-05 0.101E-03
   0.964E+01 0.594E-02 -.754E+01   -.950E+01 -.604E-02 0.792E+01   -.239E+00 0.220E-04 -.341E+00   -.116E-03 -.775E-06 -.507E-03
   -.105E+02 0.549E-03 -.851E+02   0.102E+02 -.557E-03 0.853E+02   0.406E+00 -.285E-04 -.301E+00   -.521E-04 0.198E-05 0.377E-03
   -.205E+02 -.104E-02 -.353E+02   0.206E+02 0.104E-02 0.355E+02   -.649E-01 0.367E-04 -.148E+00   0.187E-03 -.564E-06 -.880E-04
   0.516E+01 0.139E-02 -.292E+02   -.515E+01 -.140E-02 0.296E+02   0.203E-01 -.295E-04 -.333E+00   -.818E-04 0.337E-06 -.234E-05
   -.238E+02 0.460E+01 0.256E+02   0.240E+02 -.475E+01 -.258E+02   -.232E+00 0.170E+00 0.199E+00   -.387E-04 0.840E-04 0.539E-04
   -.790E+01 -.239E+02 0.138E+02   0.804E+01 0.237E+02 -.139E+02   -.849E-01 0.244E+00 0.128E-01   -.789E-04 0.200E-03 0.792E-04
   0.132E+02 -.268E+02 0.321E+01   -.135E+02 0.268E+02 -.347E+01   0.342E+00 0.707E-02 0.205E+00   0.286E-03 0.154E-04 -.875E-04
   0.613E+02 -.687E+02 0.634E+02   -.617E+02 0.692E+02 -.639E+02   0.293E+00 -.464E+00 0.557E+00   -.482E-03 0.313E-03 0.395E-04
   -.427E+02 0.316E+02 -.491E+02   0.429E+02 -.314E+02 0.494E+02   -.314E+00 -.136E+00 -.189E+00   -.869E-04 -.348E-03 0.367E-03
   -.724E+01 -.687E+01 -.206E+02   0.746E+01 0.704E+01 0.208E+02   -.158E+00 -.186E+00 -.264E+00   0.813E-04 -.120E-03 -.265E-03
   -.552E+00 0.271E+02 -.191E+01   0.426E+00 -.270E+02 0.213E+01   0.488E+00 0.685E+00 -.452E+00   0.410E-03 -.315E-03 -.427E-03
   0.187E+02 0.264E+02 -.334E+02   -.189E+02 -.266E+02 0.337E+02   0.187E+00 0.157E+00 -.358E+00   -.484E-04 0.970E-06 0.954E-04
   -.238E+02 -.460E+01 0.256E+02   0.240E+02 0.475E+01 -.258E+02   -.232E+00 -.170E+00 0.199E+00   -.372E-04 -.827E-04 0.543E-04
   -.789E+01 0.239E+02 0.138E+02   0.804E+01 -.237E+02 -.139E+02   -.850E-01 -.244E+00 0.127E-01   -.793E-04 -.200E-03 0.794E-04
   0.132E+02 0.268E+02 0.321E+01   -.135E+02 -.268E+02 -.347E+01   0.342E+00 -.701E-02 0.205E+00   0.284E-03 -.155E-04 -.867E-04
   0.613E+02 0.687E+02 0.634E+02   -.617E+02 -.691E+02 -.639E+02   0.293E+00 0.464E+00 0.558E+00   -.482E-03 -.312E-03 0.384E-04
   -.556E+00 -.271E+02 -.191E+01   0.430E+00 0.270E+02 0.213E+01   0.488E+00 -.686E+00 -.452E+00   0.407E-03 0.317E-03 -.428E-03
   0.187E+02 -.264E+02 -.334E+02   -.189E+02 0.266E+02 0.337E+02   0.187E+00 -.157E+00 -.358E+00   -.505E-04 -.993E-06 0.919E-04
   -.427E+02 -.316E+02 -.491E+02   0.429E+02 0.314E+02 0.494E+02   -.314E+00 0.136E+00 -.189E+00   -.862E-04 0.347E-03 0.367E-03
   -.724E+01 0.686E+01 -.206E+02   0.745E+01 -.704E+01 0.208E+02   -.158E+00 0.186E+00 -.264E+00   0.818E-04 0.121E-03 -.265E-03
   0.446E+02 -.268E-02 -.632E+02   -.447E+02 0.271E-02 0.632E+02   -.103E+01 0.727E-04 0.713E+00   0.503E-03 -.267E-05 -.530E-03
 -----------------------------------------------------------------------------------------------
   0.632E+00 0.122E-03 -.294E+01   0.995E-13 -.128E-12 -.782E-13   -.734E+00 -.138E-03 0.306E+01   0.133E-02 0.873E-07 -.120E-02


 POSITION                                       TOTAL-FORCE (eV/Angst)
 -----------------------------------------------------------------------------------
      0.60609      2.94096      3.78059        -0.012762     -0.000014      0.022621
      0.47468      2.94096     12.04620         0.046297     -0.000058     -0.050045
     -4.67378      8.82286      7.86198         0.039746      0.000005     -0.087614
     -3.74314      2.94094      8.33459         0.052871      0.000047     -0.055648
      4.77533      2.94094      8.19387        -0.040822      0.000036      0.060404
     -0.27694      8.82287      4.21177        -0.072200     -0.000030      0.077964
     -0.00630     11.71353     16.10360         0.291257      0.098676     -0.022912
      0.00241      0.03710      8.05783        -0.013817     -0.142561      0.206616
     -4.15257     11.71688     12.15048         0.003714      0.127489     -0.292340
     -4.18482      0.02760      4.06768        -0.179233     -0.059959     -0.014468
     -4.15258      5.92887     12.15050         0.003977     -0.127489     -0.292645
     -4.18490      5.85428      4.06772        -0.178899      0.059936     -0.014668
     -0.00623      5.93212     16.10358         0.291095     -0.098717     -0.022724
      0.00246      5.84486      8.05782        -0.014089      0.142584      0.206718
     -4.33180      8.82288     11.51844        -0.020459     -0.000063      0.134599
     -3.87769      8.82282      3.79219         0.004956      0.000055     -0.154396
      0.01729      2.94093     15.67897        -0.024819      0.000036      0.010035
     -0.14892      2.94096      7.40490        -0.001335      0.000025     -0.037812
      0.15210      8.82286      0.61882        -0.110369     -0.000070      0.014888
     -0.22999      8.82288      8.25902         0.118948     -0.000016     -0.070414
      4.20627      2.94096      4.52160         0.007058      0.000042      0.018444
     -4.33622      2.94094      4.67075         0.021849     -0.000040      0.017178
     -5.92137      5.51820      9.68632        -0.020525      0.028063      0.017950
      2.44831      5.29713      9.73168         0.058460      0.030092     -0.059694
      1.66838      6.11017      5.58322         0.127297      0.047400     -0.044634
      1.69801      6.33702     13.66479        -0.068568     -0.042701      0.126110
     -1.71750      0.51320     10.46225        -0.108062      0.016743      0.048813
     -1.67140      0.43481      2.44158         0.039927     -0.022862     -0.061989
      5.81331     11.43073      6.59012         0.374312      0.749004     -0.234450
     -2.59106     11.53057      6.54295         0.016490     -0.003611     -0.006569
     -5.92135      0.36374      9.68632        -0.020608     -0.028098      0.017943
      2.44833      0.58479      9.73168         0.058370     -0.030111     -0.059741
      1.66838     11.53554      5.58321         0.127318     -0.047366     -0.044608
      1.69801     11.30867     13.66478        -0.068571      0.042734      0.126183
      5.81332      6.21500      6.59015         0.374334     -0.749118     -0.234564
     -2.59102      6.11513      6.54295         0.016418      0.003629     -0.006627
     -1.71751      5.36872     10.46225        -0.108065     -0.016720      0.048776
     -1.67142      5.44705      2.44155         0.039879      0.022908     -0.061974
      4.38916      8.82284      7.54059        -1.051371      0.000100      0.775292
 -----------------------------------------------------------------------------------
    total drift:                               -0.100819     -0.000015      0.119247


--------------------------------------------------------------------------------------------------------



  FREE ENERGIE OF THE ION-ELECTRON SYSTEM (eV)
  ---------------------------------------------------
  free  energy   TOTEN  =     -1386.69251443 eV

  energy  without entropy=    -1386.69251443  energy(sigma->0) =    -1386.69251443



--------------------------------------------------------------------------------------------------------


    POTLOK:  cpu time    1.4379: real time    1.4380


--------------------------------------------------------------------------------------------------------


 stress matrix after NEB project (eV)
      4.22006     -0.00001     -0.22771
     -0.00001     10.43905     -0.00027
     -0.22779     -0.00027      4.66266
  FORCES: max atom, RMS     1.306315    0.323084
  FORCE total and by dimension    2.017659    1.051371
  Stress total and by dimension   12.191255   10.439047
     LOOP+:  cpu time  445.9850: real time  446.7336
    4ORBIT:  cpu time    0.0000: real time    0.0000



 total charge     

# of ion       s       p       d       tot
------------------------------------------
    1        1.787   4.722   0.022   6.530
    2        1.787   4.721   0.021   6.529
    3        1.786   4.721   0.019   6.526
    4        1.787   4.721   0.022   6.530
    5        1.786   4.721   0.021   6.528
    6        1.786   4.721   0.020   6.528
    7        1.555   0.419   9.833  11.807
    8        1.555   0.420   9.834  11.809
    9        1.555   0.420   9.833  11.808
   10        1.554   0.423   9.834  11.810
   11        1.555   0.420   9.833  11.808
   12        1.554   0.423   9.834  11.810
   13        1.555   0.419   9.833  11.807
   14        1.555   0.420   9.834  11.809
   15        1.615   3.285   0.007   4.907
   16        1.614   3.288   0.006   4.908
   17        1.614   3.290   0.006   4.910
   18        1.615   3.292   0.007   4.913
   19        1.615   3.293   0.007   4.915
   20        1.615   3.277   0.006   4.897
   21        1.614   3.290   0.006   4.910
   22        1.615   3.291   0.007   4.912
   23        1.613   3.287   0.005   4.906
   24        1.614   3.286   0.005   4.905
   25        1.614   3.291   0.006   4.911
   26        1.615   3.275   0.006   4.895
   27        1.614   3.286   0.006   4.906
   28        1.614   3.288   0.006   4.908
   29        1.617   3.311   0.008   4.936
   30        1.615   3.290   0.007   4.911
   31        1.613   3.287   0.005   4.906
   32        1.614   3.286   0.005   4.905
   33        1.614   3.291   0.006   4.911
   34        1.615   3.275   0.006   4.895
   35        1.617   3.311   0.008   4.936
   36        1.615   3.290   0.007   4.911
   37        1.614   3.286   0.006   4.906
   38        1.614   3.288   0.006   4.908
   39        1.794   4.724   0.038   6.556
--------------------------------------------------
tot         63.698 115.347  78.979 258.024


 total amount of memory used by VASP MPI-rank0    61021. kBytes
=======================================================================

   base      :      30000. kBytes
   nonlr-proj:       6433. kBytes
   fftplans  :       8423. kBytes
   grid      :       7942. kBytes
   one-center:         77. kBytes
   wavefun   :       8146. kBytes

  
  
 General timing and accounting informations for this job:
 ========================================================
  
                  Total CPU time used (sec):      458.441
                            User time (sec):      457.001
                          System time (sec):        1.440
                         Elapsed time (sec):      459.956
  
                   Maximum memory used (kb):       78400.
                   Average memory used (kb):           0.
  
                          Minor page faults:        20888
                          Major page faults:            0
                 Voluntary context switches:         1785
