<?xml version="1.0" encoding="ISO-8859-1"?>
<modeling>
 <generator>
  <i name="program" type="string">vasp </i>
  <i name="version" type="string">5.4.4.18Apr17-6-g9f103f2a35  </i>
  <i name="subversion" type="string">(build Jun 22 2020 09:27:21) complex            parallel </i>
  <i name="platform" type="string">tx2_gcc-7.3_libsci-18.07_cray-fftw-3.3.8 </i>
  <i name="date" type="string">2021 10 12 </i>
  <i name="time" type="string">05:44:47 </i>
 </generator>
 <incar>
  <i type="string" name="SYSTEM"> CsPbBr3 cubic bulk</i>
  <i type="string" name="PREC">accurate</i>
  <i type="string" name="ALGO"> NORMAL   ! Electronic minimisation algo</i>
  <i type="logical" name="ADDGRID"> T  </i>
  <i type="int" name="ISPIN">     1</i>
  <i type="int" name="NELM">   200</i>
  <i type="int" name="IBRION">     2</i>
  <i name="EDIFF">      0.00000100</i>
  <i name="EDIFFG">     -0.01000000</i>
  <i type="int" name="NSW">     0</i>
  <i type="int" name="ISIF">     2</i>
  <i type="int" name="ISYM">     0</i>
  <i name="ENCUT">    300.00000000</i>
  <i name="POTIM">      0.50000000</i>
  <i name="NUPDOWN">      0.00000000</i>
  <i name="NELECT">    344.00000000</i>
  <i type="string" name="LREAL"> AUTO</i>
  <i type="int" name="ISMEAR">     0</i>
  <i name="SIGMA">      0.01000000</i>
  <i type="logical" name="LWAVE"> F  </i>
  <i type="logical" name="LCHARG"> F  </i>
  <i type="logical" name="LVHAR"> T  </i>
  <i type="int" name="LORBIT">    10</i>
  <i type="logical" name="LASPH"> T  </i>
  <v type="int" name="KPOINT_BSE">    -1     0     0     0</v>
  <i type="int" name="NELM">   200</i>
  <i type="string" name="METAGGA"> SCAN       ! PBE exchange-correlation</i>
  <i type="logical" name="LASPH"> T  </i>
 </incar>
 <structure name="primitive_cell" >
  <crystal>
   <varray name="basis" >
    <v>       8.42001800       0.00000000       8.07798100 </v>
    <v>       0.00000000      11.76380800       0.00000000 </v>
    <v>      -8.42001800       0.00000000       8.07798100 </v>
   </varray>
   <i name="volume">   1600.27186790 </i>
   <varray name="rec_basis" >
    <v>       0.05938230      -0.00000000       0.06189665 </v>
    <v>       0.00000000       0.08500649      -0.00000000 </v>
    <v>      -0.05938230       0.00000000       0.06189665 </v>
   </varray>
  </crystal>
  <varray name="positions" >
   <v>       0.26999700       0.25000100       0.19801500 </v>
   <v>       0.05187100       0.46303500       0.25037600 </v>
   <v>       0.05187400       0.03696200       0.25037700 </v>
   <v>      -0.47035000       0.25000100       0.03009400 </v>
   <v>       0.44949500       0.25000100       0.46718200 </v>
   <v>       0.44465500      -0.48059600       0.24651000 </v>
   <v>       0.44465400      -0.01940400       0.24651000 </v>
   <v>       0.24792600       0.46908300      -0.04882500 </v>
   <v>       0.24792700       0.03092000      -0.04882600 </v>
   <v>      -0.02849700       0.24999800      -0.03055100 </v>
   <v>      -0.49451500      -0.00398900      -0.00133700 </v>
   <v>      -0.49451400      -0.49600800      -0.00133500 </v>
   <v>      -0.00361200      -0.49573100      -0.00287200 </v>
   <v>      -0.00361500      -0.00427400      -0.00286700 </v>
   <v>       0.03160900       0.24999900      -0.45340200 </v>
   <v>       0.49889600       0.00315400       0.49861000 </v>
   <v>       0.49889800       0.49685100       0.49860600 </v>
   <v>       0.25112600      -0.48017400      -0.44115200 </v>
   <v>       0.25112400      -0.01982700      -0.44115000 </v>
   <v>       0.29360700       0.24999900      -0.26184100 </v>
   <v>      -0.20925700       0.24999900       0.22360300 </v>
   <v>       0.00327200       0.00234600      -0.49972000 </v>
   <v>       0.00326900       0.49765200      -0.49971300 </v>
   <v>       0.24424900      -0.24999900       0.27714000 </v>
   <v>      -0.25225500       0.45029000       0.45697200 </v>
   <v>      -0.25225400       0.04971100       0.45697100 </v>
   <v>       0.04733500      -0.25000000       0.02927100 </v>
   <v>      -0.45441100       0.45637600      -0.25043200 </v>
   <v>      -0.45441100       0.04362500      -0.25043300 </v>
   <v>      -0.24688600      -0.02831400       0.06269900 </v>
   <v>      -0.24688400      -0.47168500       0.06270000 </v>
   <v>       0.45572100      -0.24999800      -0.02981500 </v>
   <v>      -0.05336400      -0.46131200      -0.25502700 </v>
   <v>      -0.05336400      -0.03869000      -0.25502800 </v>
   <v>       0.00445800      -0.25000300       0.46499000 </v>
   <v>       0.49754800      -0.24999800      -0.47513700 </v>
   <v>       0.20909100      -0.25000000      -0.23583000 </v>
   <v>      -0.22619300       0.25000100      -0.28256800 </v>
   <v>      -0.27262400      -0.25000100       0.20609900 </v>
  </varray>
 </structure>
 <varray name="primitive_index" >
  <v type="int" >        1 </v>
  <v type="int" >       38 </v>
  <v type="int" >       28 </v>
  <v type="int" >       21 </v>
  <v type="int" >       18 </v>
  <v type="int" >       25 </v>
  <v type="int" >       33 </v>
  <v type="int" >       23 </v>
  <v type="int" >       31 </v>
  <v type="int" >       17 </v>
  <v type="int" >        9 </v>
  <v type="int" >       11 </v>
  <v type="int" >       13 </v>
  <v type="int" >        7 </v>
  <v type="int" >       22 </v>
  <v type="int" >        8 </v>
  <v type="int" >       14 </v>
  <v type="int" >       36 </v>
  <v type="int" >       30 </v>
  <v type="int" >        4 </v>
  <v type="int" >        5 </v>
  <v type="int" >       10 </v>
  <v type="int" >       12 </v>
  <v type="int" >        6 </v>
  <v type="int" >       24 </v>
  <v type="int" >       32 </v>
  <v type="int" >       19 </v>
  <v type="int" >       37 </v>
  <v type="int" >       27 </v>
  <v type="int" >       29 </v>
  <v type="int" >       35 </v>
  <v type="int" >       15 </v>
  <v type="int" >       26 </v>
  <v type="int" >       34 </v>
  <v type="int" >       16 </v>
  <v type="int" >       20 </v>
  <v type="int" >        3 </v>
  <v type="int" >        2 </v>
  <v type="int" >       39 </v>
 </varray>
 <kpoints>
  <generation param="Gamma">
   <v type="int" name="divisions">       2        2        2 </v>
   <v name="usershift">      0.00000000       0.00000000       0.00000000 </v>
   <v name="genvec1">      0.50000000       0.00000000       0.00000000 </v>
   <v name="genvec2">      0.00000000       0.50000000       0.00000000 </v>
   <v name="genvec3">      0.00000000       0.00000000       0.50000000 </v>
   <v name="shift">      0.00000000       0.00000000       0.00000000 </v>
  </generation>
  <varray name="kpointlist" >
   <v>       0.00000000       0.00000000       0.00000000 </v>
   <v>       0.50000000       0.00000000       0.00000000 </v>
   <v>       0.00000000       0.50000000       0.00000000 </v>
   <v>       0.50000000       0.50000000       0.00000000 </v>
   <v>       0.00000000       0.00000000       0.50000000 </v>
   <v>       0.50000000       0.00000000       0.50000000 </v>
   <v>       0.00000000       0.50000000       0.50000000 </v>
   <v>       0.50000000       0.50000000       0.50000000 </v>
  </varray>
  <varray name="weights" >
   <v>       0.12500000 </v>
   <v>       0.12500000 </v>
   <v>       0.12500000 </v>
   <v>       0.12500000 </v>
   <v>       0.12500000 </v>
   <v>       0.12500000 </v>
   <v>       0.12500000 </v>
   <v>       0.12500000 </v>
  </varray>
 </kpoints>
 <parameters>
  <separator name="general" >
   <i type="string" name="SYSTEM">CsPbBr3 cubic bulk</i>
   <i type="logical" name="LCOMPAT"> F  </i>
  </separator>
  <separator name="electronic" >
   <i type="string" name="PREC">accura</i>
   <i name="ENMAX">    300.00000000</i>
   <i name="ENAUG">    503.85200000</i>
   <i name="EDIFF">      0.00000100</i>
   <i type="int" name="IALGO">    38</i>
   <i type="int" name="IWAVPR">    10</i>
   <i type="int" name="NBANDS">   208</i>
   <i name="NELECT">    344.00000000</i>
   <i type="int" name="TURBO">     0</i>
   <i type="int" name="IRESTART">     0</i>
   <i type="int" name="NREBOOT">     0</i>
   <i type="int" name="NMIN">     0</i>
   <i name="EREF">      0.00000000</i>
   <separator name="electronic smearing" >
    <i type="int" name="ISMEAR">     0</i>
    <i name="SIGMA">      0.01000000</i>
    <i name="KSPACING">      0.50000000</i>
    <i type="logical" name="KGAMMA"> T  </i>
   </separator>
   <separator name="electronic projectors" >
    <i type="logical" name="LREAL"> T  </i>
    <v name="ROPT">     -0.00025000     -0.00025000     -0.00025000     -0.00025000</v>
    <i type="int" name="LMAXPAW">  -100</i>
    <i type="int" name="LMAXMIX">     2</i>
    <i type="logical" name="NLSPLINE"> F  </i>
   </separator>
   <separator name="electronic startup" >
    <i type="int" name="ISTART">     0</i>
    <i type="int" name="ICHARG">     2</i>
    <i type="int" name="INIWAV">     1</i>
   </separator>
   <separator name="electronic spin" >
    <i type="int" name="ISPIN">     1</i>
    <i type="logical" name="LNONCOLLINEAR"> F  </i>
    <v name="MAGMOM">      0.00000000      0.00000000      0.00000000      0.00000000      0.00000000      0.00000000      0.00000000      0.00000000      0.00000000      0.00000000      0.00000000      0.00000000      0.00000000      0.00000000      0.00000000      0.00000000      0.00000000      0.00000000      0.00000000      0.00000000
      0.00000000      0.00000000      0.00000000      0.00000000      0.00000000      0.00000000      0.00000000      0.00000000      0.00000000      0.00000000      0.00000000      0.00000000      0.00000000      0.00000000      0.00000000      0.00000000      0.00000000      0.00000000      0.00000000</v>
    <i name="NUPDOWN">      0.00000000</i>
    <i type="logical" name="LSORBIT"> F  </i>
    <v name="SAXIS">      0.00000000      0.00000000      1.00000000</v>
    <i type="logical" name="LSPIRAL"> F  </i>
    <v name="QSPIRAL">      0.00000000      0.00000000      0.00000000</v>
    <i type="logical" name="LZEROZ"> F  </i>
   </separator>
   <separator name="electronic exchange-correlation" >
    <i type="logical" name="LASPH"> T  </i>
    <i type="logical" name="LMETAGGA"> F  </i>
   </separator>
   <separator name="electronic convergence" >
    <i type="int" name="NELM">   200</i>
    <i type="int" name="NELMDL">    -5</i>
    <i type="int" name="NELMIN">     2</i>
    <i name="ENINI">    300.00000000</i>
    <separator name="electronic convergence detail" >
     <i type="logical" name="LDIAG"> T  </i>
     <i type="logical" name="LSUBROT"> F  </i>
     <i name="WEIMIN">      0.00000000</i>
     <i name="EBREAK">      0.00000000</i>
     <i name="DEPER">      0.30000000</i>
     <i type="int" name="NRMM">     4</i>
     <i name="TIME">      0.40000000</i>
    </separator>
   </separator>
   <separator name="electronic mixer" >
    <i name="AMIX">      0.40000000</i>
    <i name="BMIX">      1.00000000</i>
    <i name="AMIN">      0.10000000</i>
    <i name="AMIX_MAG">      1.60000000</i>
    <i name="BMIX_MAG">      1.00000000</i>
    <separator name="electronic mixer details" >
     <i type="int" name="IMIX">     4</i>
     <i type="logical" name="MIXFIRST"> F  </i>
     <i type="int" name="MAXMIX">   -45</i>
     <i name="WC">    100.00000000</i>
     <i type="int" name="INIMIX">     1</i>
     <i type="int" name="MIXPRE">     1</i>
     <i type="int" name="MREMOVE">     5</i>
    </separator>
   </separator>
   <separator name="electronic dipolcorrection" >
    <i type="logical" name="LDIPOL"> F  </i>
    <i type="logical" name="LMONO"> F  </i>
    <i type="int" name="IDIPOL">     0</i>
    <i name="EPSILON">      1.00000000</i>
    <v name="DIPOL">   -100.00000000   -100.00000000   -100.00000000</v>
    <i name="EFIELD">      0.00000000</i>
   </separator>
  </separator>
  <separator name="grids" >
   <i type="int" name="NGX">    70</i>
   <i type="int" name="NGY">    70</i>
   <i type="int" name="NGZ">    70</i>
   <i type="int" name="NGXF">   140</i>
   <i type="int" name="NGYF">   140</i>
   <i type="int" name="NGZF">   140</i>
   <i type="logical" name="ADDGRID"> T  </i>
  </separator>
  <separator name="ionic" >
   <i type="int" name="NSW">     0</i>
   <i type="int" name="IBRION">    -1</i>
   <i type="int" name="MDALGO">     0</i>
   <i type="int" name="ISIF">     2</i>
   <i name="PSTRESS">      0.00000000</i>
   <i name="EDIFFG">     -0.01000000</i>
   <i type="int" name="NFREE">     1</i>
   <i name="POTIM">      0.50000000</i>
   <i name="SMASS">     -3.00000000</i>
   <i name="SCALEE">      1.00000000</i>
  </separator>
  <separator name="ionic md" >
   <i name="TEBEG">      0.00010000</i>
   <i name="TEEND">      0.00010000</i>
   <i type="int" name="NBLOCK">     1</i>
   <i type="int" name="KBLOCK">     1</i>
   <i type="int" name="NPACO">   256</i>
   <i name="APACO">     16.00000000</i>
  </separator>
  <separator name="symmetry" >
   <i type="int" name="ISYM">     0</i>
   <i name="SYMPREC">      0.00001000</i>
  </separator>
  <separator name="dos" >
   <i type="int" name="LORBIT">    10</i>
   <v name="RWIGS">     -1.00000000     -1.00000000     -1.00000000     -1.00000000</v>
   <i type="int" name="NEDOS">   301</i>
   <i name="EMIN">     10.00000000</i>
   <i name="EMAX">    -10.00000000</i>
   <i name="EFERMI">      0.00000000</i>
  </separator>
  <separator name="writing" >
   <i type="int" name="NWRITE">     2</i>
   <i type="logical" name="LWAVE"> F  </i>
   <i type="logical" name="LDOWNSAMPLE"> F  </i>
   <i type="logical" name="LCHARG"> F  </i>
   <i type="logical" name="LPARD"> F  </i>
   <i type="logical" name="LVTOT"> F  </i>
   <i type="logical" name="LVHAR"> T  </i>
   <i type="logical" name="LELF"> F  </i>
   <i type="logical" name="LOPTICS"> F  </i>
   <v name="STM">      0.00000000      0.00000000      0.00000000      0.00000000      0.00000000      0.00000000      0.00000000</v>
  </separator>
  <separator name="performance" >
   <i type="int" name="NPAR">     8</i>
   <i type="int" name="NSIM">     4</i>
   <i type="int" name="NBLK">    -1</i>
   <i type="logical" name="LPLANE"> T  </i>
   <i type="logical" name="LSCALAPACK"> T  </i>
   <i type="logical" name="LSCAAWARE"> F  </i>
   <i type="logical" name="LSCALU"> F  </i>
   <i type="logical" name="LASYNC"> F  </i>
   <i type="logical" name="LORBITALREAL"> F  </i>
  </separator>
  <separator name="miscellaneous" >
   <i type="int" name="IDIOT">     3</i>
   <i type="int" name="ISPECIAL">     0</i>
   <i type="logical" name="LMUSIC"> F  </i>
   <v name="POMASS">    132.90000000    207.20000000     79.90400000    132.90000000</v>
   <v name="DARWINR">      0.00000000      0.00000000      0.00000000      0.00000000</v>
   <v name="DARWINV">      1.00000000      1.00000000      1.00000000      1.00000000</v>
   <i type="logical" name="LCORR"> T  </i>
  </separator>
  <i type="logical" name="GGA_COMPAT"> T  </i>
  <i type="logical" name="LBERRY"> F  </i>
  <i type="int" name="ICORELEVEL">     0</i>
  <i type="logical" name="LDAU"> F  </i>
  <i type="int" name="I_CONSTRAINED_M">     0</i>
  <separator name="electronic exchange-correlation" >
   <i type="string" name="GGA">--</i>
   <i type="int" name="VOSKOWN">     0</i>
   <i type="logical" name="LHFCALC"> F  </i>
   <i type="string" name="PRECFOCK"></i>
   <i type="logical" name="LSYMGRAD"> F  </i>
   <i type="logical" name="LHFONE"> F  </i>
   <i type="logical" name="LRHFCALC"> F  </i>
   <i type="logical" name="LTHOMAS"> F  </i>
   <i type="logical" name="LMODELHF"> F  </i>
   <i name="ENCUT4O">     -1.00000000</i>
   <i type="int" name="EXXOEP">     0</i>
   <i type="int" name="FOURORBIT">     0</i>
   <i name="AEXX">      0.00000000</i>
   <i name="HFALPHA">      0.00000000</i>
   <i name="MCALPHA">      0.00000000</i>
   <i name="ALDAX">      1.00000000</i>
   <i name="AGGAX">      1.00000000</i>
   <i name="ALDAC">      1.00000000</i>
   <i name="AGGAC">      1.00000000</i>
   <i type="int" name="NKREDX">     1</i>
   <i type="int" name="NKREDY">     1</i>
   <i type="int" name="NKREDZ">     1</i>
   <i type="logical" name="SHIFTRED"> F  </i>
   <i type="logical" name="ODDONLY"> F  </i>
   <i type="logical" name="EVENONLY"> F  </i>
   <i type="int" name="LMAXFOCK">     0</i>
   <i type="int" name="NMAXFOCKAE">     0</i>
   <i type="logical" name="LFOCKAEDFT"> F  </i>
   <i name="HFSCREEN">      0.00000000</i>
   <i name="HFSCREENC">      0.00000000</i>
   <i type="int" name="NBANDSGWLOW">     0</i>
  </separator>
  <separator name="vdW DFT" >
   <i type="logical" name="LUSE_VDW"> F  </i>
   <i name="Zab_VDW">     -0.84910000</i>
   <i name="PARAM1">      0.12340000</i>
   <i name="PARAM2">      1.00000000</i>
   <i name="PARAM3">      0.00000000</i>
  </separator>
  <separator name="model GW" >
   <i type="int" name="MODEL_GW">     0</i>
   <i name="MODEL_EPS0">     24.61956720</i>
   <i name="MODEL_ALPHA">      1.00000000</i>
  </separator>
  <separator name="linear response parameters" >
   <i type="logical" name="LEPSILON"> F  </i>
   <i type="logical" name="LRPA"> F  </i>
   <i type="logical" name="LNABLA"> F  </i>
   <i type="logical" name="LVEL"> F  </i>
   <i type="int" name="KINTER">     0</i>
   <i name="CSHIFT">      0.10000000</i>
   <i name="OMEGAMAX">     -1.00000000</i>
   <i name="DEG_THRESHOLD">      0.00200000</i>
   <i name="RTIME">     -0.10000000</i>
   <i name="WPLASMAI">      0.00000000</i>
   <v name="DFIELD">      0.00000000      0.00000000      0.00000000</v>
   <v name="WPLASMA">      0.00000000      0.00000000      0.00000000      0.00000000      0.00000000      0.00000000      0.00000000      0.00000000      0.00000000</v>
  </separator>
  <separator name="orbital magnetization" >
   <i type="logical" name="NUCIND"> F  </i>
   <v name="MAGPOS">      0.00000000      0.00000000      0.00000000</v>
   <i type="logical" name="LNICSALL"> T  </i>
   <i type="logical" name="ORBITALMAG"> F  </i>
   <i type="logical" name="LMAGBLOCH"> F  </i>
   <i type="logical" name="LCHIMAG"> F  </i>
   <i type="logical" name="LGAUGE"> T  </i>
   <i type="int" name="MAGATOM">     0</i>
   <v name="MAGDIPOL">      0.00000000      0.00000000      0.00000000</v>
   <v name="AVECCONST">      0.00000000      0.00000000      0.00000000</v>
  </separator>
  <separator name="response functions" >
   <i type="logical" name="LADDER"> F  </i>
   <i type="logical" name="LRPAFORCE"> F  </i>
   <i type="logical" name="LFXC"> F  </i>
   <i type="logical" name="LHARTREE"> T  </i>
   <i type="int" name="IBSE">     0</i>
   <v type="int" name="KPOINT">    -1     0     0     0</v>
   <i type="logical" name="LTCTE"> F  </i>
   <i type="logical" name="LTETE"> F  </i>
   <i type="logical" name="LTRIPLET"> F  </i>
   <i type="logical" name="LFXCEPS"> F  </i>
   <i type="logical" name="LFXHEG"> F  </i>
   <i type="int" name="NATURALO">     2</i>
   <i type="logical" name="L2ORDER"> F  </i>
   <i type="logical" name="LMP2LT"> F  </i>
   <i type="logical" name="LUSEW"> F  </i>
   <i name="ENCUTGW">     -2.00000000</i>
   <i name="ENCUTGWSOFT">     -2.00000000</i>
   <i name="ENCUTLF">     -1.00000000</i>
   <i type="int" name="LMAXMP2">    -1</i>
   <i name="SCISSOR">      0.00000000</i>
   <i type="int" name="NOMEGA">     0</i>
   <i type="int" name="NOMEGAR">     0</i>
   <i type="int" name="NBANDSGW">    -1</i>
   <i type="int" name="NBANDSO">    -1</i>
   <i type="int" name="NBANDSV">    -1</i>
   <i type="int" name="NELM">   200</i>
   <i type="int" name="NELMHF">     1</i>
   <i type="int" name="DIM">     3</i>
   <i type="int" name="ANTIRES">     0</i>
   <i name="OMEGAMAX">    -30.00000000</i>
   <i name="OMEGAMIN">    -30.00000000</i>
   <i name="OMEGATL">   -200.00000000</i>
   <i type="int" name="OMEGAGRID">   140</i>
   <i name="CSHIFT">     -0.10000000</i>
   <i type="logical" name="SELFENERGY"> F  </i>
   <i type="logical" name="LSPECTRAL"> F  </i>
   <i type="logical" name="LSPECTRALGW"> F  </i>
   <i type="logical" name="LSINGLES"> F  </i>
   <i type="logical" name="LFERMIGW"> F  </i>
   <i type="logical" name="ODDONLYGW"> F  </i>
   <i type="logical" name="EVENONLYGW"> F  </i>
   <i type="int" name="NKREDLFX">     1</i>
   <i type="int" name="NKREDLFY">     1</i>
   <i type="int" name="NKREDLFZ">     1</i>
   <i type="int" name="MAXMEM">  2800</i>
   <i type="int" name="TELESCOPE">     0</i>
   <i type="int" name="TAUPAR">     1</i>
   <i type="int" name="OMEGAPAR">    -1</i>
   <i name="LAMBDA">      1.00000000</i>
  </separator>
  <separator name="External order field" >
   <i name="OFIELD_KAPPA">      0.00000000</i>
   <v name="OFIELD_K">      0.00000000      0.00000000      0.00000000</v>
   <i name="OFIELD_Q6_NEAR">      0.00000000</i>
   <i name="OFIELD_Q6_FAR">      0.00000000</i>
   <i name="OFIELD_A">      0.00000000</i>
  </separator>
 </parameters>
 <atominfo>
  <atoms>      39 </atoms>
  <types>       4 </types>
  <array name="atoms" >
   <dimension dim="1">ion</dimension>
   <field type="string">element</field>
   <field type="int">atomtype</field>
   <set>
    <rc><c>Cs</c><c>   1</c></rc>
    <rc><c>Cs</c><c>   1</c></rc>
    <rc><c>Cs</c><c>   1</c></rc>
    <rc><c>Cs</c><c>   1</c></rc>
    <rc><c>Cs</c><c>   1</c></rc>
    <rc><c>Cs</c><c>   1</c></rc>
    <rc><c>Pb</c><c>   2</c></rc>
    <rc><c>Pb</c><c>   2</c></rc>
    <rc><c>Pb</c><c>   2</c></rc>
    <rc><c>Pb</c><c>   2</c></rc>
    <rc><c>Pb</c><c>   2</c></rc>
    <rc><c>Pb</c><c>   2</c></rc>
    <rc><c>Pb</c><c>   2</c></rc>
    <rc><c>Pb</c><c>   2</c></rc>
    <rc><c>Br</c><c>   3</c></rc>
    <rc><c>Br</c><c>   3</c></rc>
    <rc><c>Br</c><c>   3</c></rc>
    <rc><c>Br</c><c>   3</c></rc>
    <rc><c>Br</c><c>   3</c></rc>
    <rc><c>Br</c><c>   3</c></rc>
    <rc><c>Br</c><c>   3</c></rc>
    <rc><c>Br</c><c>   3</c></rc>
    <rc><c>Br</c><c>   3</c></rc>
    <rc><c>Br</c><c>   3</c></rc>
    <rc><c>Br</c><c>   3</c></rc>
    <rc><c>Br</c><c>   3</c></rc>
    <rc><c>Br</c><c>   3</c></rc>
    <rc><c>Br</c><c>   3</c></rc>
    <rc><c>Br</c><c>   3</c></rc>
    <rc><c>Br</c><c>   3</c></rc>
    <rc><c>Br</c><c>   3</c></rc>
    <rc><c>Br</c><c>   3</c></rc>
    <rc><c>Br</c><c>   3</c></rc>
    <rc><c>Br</c><c>   3</c></rc>
    <rc><c>Br</c><c>   3</c></rc>
    <rc><c>Br</c><c>   3</c></rc>
    <rc><c>Br</c><c>   3</c></rc>
    <rc><c>Br</c><c>   3</c></rc>
    <rc><c>Cs</c><c>   4</c></rc>
   </set>
  </array>
  <array name="atomtypes" >
   <dimension dim="1">type</dimension>
   <field type="int">atomspertype</field>
   <field type="string">element</field>
   <field>mass</field>
   <field>valence</field>
   <field type="string">pseudopotential</field>
   <set>
    <rc><c>   6</c><c>Cs</c><c>    132.90000000</c><c>      9.00000000</c><c>  PAW_PBE Cs_sv 08Apr2002               </c></rc>
    <rc><c>   8</c><c>Pb</c><c>    207.20000000</c><c>     14.00000000</c><c>  PAW_PBE Pb_d 06Sep2000                </c></rc>
    <rc><c>  24</c><c>Br</c><c>     79.90400000</c><c>      7.00000000</c><c>  PAW_PBE Br 06Sep2000                  </c></rc>
    <rc><c>   1</c><c>Cs</c><c>    132.90000000</c><c>      9.00000000</c><c>  PAW_PBE Cs_sv 08Apr2002               </c></rc>
   </set>
  </array>
 </atominfo>
 <structure name="initialpos" >
  <crystal>
   <varray name="basis" >
    <v>       8.42001800       0.00000000       8.07798100 </v>
    <v>       0.00000000      11.76380800       0.00000000 </v>
    <v>      -8.42001800       0.00000000       8.07798100 </v>
   </varray>
   <i name="volume">   1600.27186790 </i>
   <varray name="rec_basis" >
    <v>       0.05938230      -0.00000000       0.06189665 </v>
    <v>       0.00000000       0.08500649      -0.00000000 </v>
    <v>      -0.05938230       0.00000000       0.06189665 </v>
   </varray>
  </crystal>
  <varray name="positions" >
   <v>       0.26999700       0.25000100       0.19801500 </v>
   <v>       0.77380700       0.25000100       0.71743200 </v>
   <v>       0.20909100       0.75000000       0.76417000 </v>
   <v>       0.29360700       0.24999900       0.73815900 </v>
   <v>       0.79074300       0.24999900       0.22360300 </v>
   <v>       0.24424900       0.75000100       0.27714000 </v>
   <v>       0.99638500       0.99572600       0.99713300 </v>
   <v>       0.49889600       0.00315400       0.49861000 </v>
   <v>       0.50548500       0.99601100       0.99866300 </v>
   <v>       0.00327200       0.00234600       0.50028000 </v>
   <v>       0.50548600       0.50399200       0.99866500 </v>
   <v>       0.00326900       0.49765200       0.50028700 </v>
   <v>       0.99638800       0.50426900       0.99712800 </v>
   <v>       0.49889800       0.49685100       0.49860600 </v>
   <v>       0.45572100       0.75000200       0.97018500 </v>
   <v>       0.00445800       0.74999700       0.46499000 </v>
   <v>       0.97150300       0.24999800       0.96944900 </v>
   <v>       0.44949500       0.25000100       0.46718200 </v>
   <v>       0.04733500       0.75000000       0.02927100 </v>
   <v>       0.49754800       0.75000200       0.52486300 </v>
   <v>       0.52965000       0.25000100       0.03009400 </v>
   <v>       0.03160900       0.24999900       0.54659800 </v>
   <v>       0.24792600       0.46908300       0.95117500 </v>
   <v>       0.74774500       0.45029000       0.45697200 </v>
   <v>       0.44465500       0.51940400       0.24651000 </v>
   <v>       0.94663600       0.53868800       0.74497300 </v>
   <v>       0.54558900       0.04362500       0.74956700 </v>
   <v>       0.05187400       0.03696200       0.25037700 </v>
   <v>       0.75311400       0.97168600       0.06269900 </v>
   <v>       0.25112400       0.98017300       0.55885000 </v>
   <v>       0.24792700       0.03092000       0.95117400 </v>
   <v>       0.74774600       0.04971100       0.45697100 </v>
   <v>       0.44465400       0.98059600       0.24651000 </v>
   <v>       0.94663600       0.96131000       0.74497200 </v>
   <v>       0.75311600       0.52831500       0.06270000 </v>
   <v>       0.25112600       0.51982600       0.55884800 </v>
   <v>       0.54558900       0.45637600       0.74956800 </v>
   <v>       0.05187100       0.46303500       0.25037600 </v>
   <v>       0.72737600       0.74999900       0.20609900 </v>
  </varray>
 </structure>
 <calculation>
  <scstep>
   <time name="dav">   16.50   16.51</time>
   <time name="total">   17.97   17.99</time>
   <energy>
    <i name="alphaZ">    835.99855037 </i>
    <i name="ewald"> -17474.80420313 </i>
    <i name="hartreedc">  -7656.05663434 </i>
    <i name="XCdc">    905.30931931 </i>
    <i name="pawpsdc">  21217.07306836 </i>
    <i name="pawaedc"> -22257.58625956 </i>
    <i name="eentropy">     -0.00090769 </i>
    <i name="bandstr">   -240.18053733 </i>
    <i name="atom">  26024.88362379 </i>
    <i name="e_fr_energy">   1354.63601979 </i>
    <i name="e_wo_entrp">   1354.63692748 </i>
    <i name="e_0_energy">   1354.63647363 </i>
   </energy>
  </scstep>
  <scstep>
   <time name="dav">   18.37   18.42</time>
   <time name="total">   18.37   18.42</time>
   <energy>
    <i name="e_fr_energy">  -1089.53107492 </i>
    <i name="e_wo_entrp">  -1089.53107492 </i>
    <i name="e_0_energy">  -1089.53107492 </i>
   </energy>
  </scstep>
  <scstep>
   <time name="dav">   19.26   19.28</time>
   <time name="total">   19.26   19.28</time>
   <energy>
    <i name="e_fr_energy">  -1452.77832573 </i>
    <i name="e_wo_entrp">  -1452.77832573 </i>
    <i name="e_0_energy">  -1452.77832573 </i>
   </energy>
  </scstep>
  <scstep>
   <time name="dav">   17.91   17.92</time>
   <time name="total">   17.91   17.92</time>
   <energy>
    <i name="e_fr_energy">  -1465.10227898 </i>
    <i name="e_wo_entrp">  -1465.10227898 </i>
    <i name="e_0_energy">  -1465.10227898 </i>
   </energy>
  </scstep>
  <scstep>
   <time name="dav">   19.21   19.25</time>
   <time name="total">   21.92   21.96</time>
   <energy>
    <i name="e_fr_energy">  -1465.66041383 </i>
    <i name="e_wo_entrp">  -1465.66041383 </i>
    <i name="e_0_energy">  -1465.66041383 </i>
   </energy>
  </scstep>
  <scstep>
   <time name="dav">   18.97   18.97</time>
   <time name="total">   23.16   23.20</time>
   <energy>
    <i name="e_fr_energy">  -1386.83287923 </i>
    <i name="e_wo_entrp">  -1386.83287923 </i>
    <i name="e_0_energy">  -1386.83287923 </i>
   </energy>
  </scstep>
  <scstep>
   <time name="dav">   18.32   18.32</time>
   <time name="total">   22.49   22.54</time>
   <energy>
    <i name="e_fr_energy">  -1386.41883730 </i>
    <i name="e_wo_entrp">  -1386.41883730 </i>
    <i name="e_0_energy">  -1386.41883730 </i>
   </energy>
  </scstep>
  <scstep>
   <time name="dav">   18.18   18.18</time>
   <time name="total">   22.36   22.39</time>
   <energy>
    <i name="e_fr_energy">  -1386.60404721 </i>
    <i name="e_wo_entrp">  -1386.60404721 </i>
    <i name="e_0_energy">  -1386.60404721 </i>
   </energy>
  </scstep>
  <scstep>
   <time name="dav">   17.10   17.10</time>
   <time name="total">   21.31   21.32</time>
   <energy>
    <i name="e_fr_energy">  -1386.68633957 </i>
    <i name="e_wo_entrp">  -1386.68633957 </i>
    <i name="e_0_energy">  -1386.68633957 </i>
   </energy>
  </scstep>
  <scstep>
   <time name="dav">   19.95   19.95</time>
   <time name="total">   24.11   24.17</time>
   <energy>
    <i name="e_fr_energy">  -1386.68872953 </i>
    <i name="e_wo_entrp">  -1386.68872953 </i>
    <i name="e_0_energy">  -1386.68872953 </i>
   </energy>
  </scstep>
  <scstep>
   <time name="dav">   17.18   17.18</time>
   <time name="total">   21.40   21.41</time>
   <energy>
    <i name="e_fr_energy">  -1386.69116964 </i>
    <i name="e_wo_entrp">  -1386.69116964 </i>
    <i name="e_0_energy">  -1386.69116964 </i>
   </energy>
  </scstep>
  <scstep>
   <time name="dav">   17.45   17.45</time>
   <time name="total">   21.64   21.68</time>
   <energy>
    <i name="e_fr_energy">  -1386.69283364 </i>
    <i name="e_wo_entrp">  -1386.69283364 </i>
    <i name="e_0_energy">  -1386.69283364 </i>
   </energy>
  </scstep>
  <scstep>
   <time name="dav">   19.25   19.25</time>
   <time name="total">   23.41   23.48</time>
   <energy>
    <i name="e_fr_energy">  -1386.69249786 </i>
    <i name="e_wo_entrp">  -1386.69249786 </i>
    <i name="e_0_energy">  -1386.69249786 </i>
   </energy>
  </scstep>
  <scstep>
   <time name="dav">   17.81   17.81</time>
   <time name="total">   22.01   22.03</time>
   <energy>
    <i name="e_fr_energy">  -1386.69246803 </i>
    <i name="e_wo_entrp">  -1386.69246803 </i>
    <i name="e_0_energy">  -1386.69246803 </i>
   </energy>
  </scstep>
  <scstep>
   <time name="dav">   17.04   17.04</time>
   <time name="total">   21.23   21.27</time>
   <energy>
    <i name="e_fr_energy">  -1386.69246889 </i>
    <i name="e_wo_entrp">  -1386.69246889 </i>
    <i name="e_0_energy">  -1386.69246889 </i>
   </energy>
  </scstep>
  <scstep>
   <time name="dav">   17.63   17.63</time>
   <time name="total">   21.82   21.86</time>
   <energy>
    <i name="e_fr_energy">  -1386.69253083 </i>
    <i name="e_wo_entrp">  -1386.69253083 </i>
    <i name="e_0_energy">  -1386.69253083 </i>
   </energy>
  </scstep>
  <scstep>
   <time name="dav">   14.99   14.99</time>
   <time name="total">   19.15   19.22</time>
   <energy>
    <i name="e_fr_energy">  -1386.69251618 </i>
    <i name="e_wo_entrp">  -1386.69251618 </i>
    <i name="e_0_energy">  -1386.69251618 </i>
   </energy>
  </scstep>
  <scstep>
   <time name="dav">   12.89   12.89</time>
   <time name="total">   17.06   17.08</time>
   <energy>
    <i name="e_fr_energy">  -1386.69251476 </i>
    <i name="e_wo_entrp">  -1386.69251476 </i>
    <i name="e_0_energy">  -1386.69251476 </i>
   </energy>
  </scstep>
  <scstep>
   <time name="dav">   12.66   12.66</time>
   <time name="total">   14.13   14.19</time>
   <energy>
    <i name="alphaZ">    835.99855037 </i>
    <i name="ewald"> -17474.80420313 </i>
    <i name="hartreedc">  -7686.58929977 </i>
    <i name="XCdc">    947.02590536 </i>
    <i name="pawpsdc">  22754.00981330 </i>
    <i name="pawaedc"> -23792.99206114 </i>
    <i name="eentropy">     -0.00000000 </i>
    <i name="bandstr">  -2994.22484320 </i>
    <i name="atom">  26024.88362379 </i>
    <i name="e_fr_energy">  -1386.69251443 </i>
    <i name="e_wo_entrp">  -1386.69251443 </i>
    <i name="e_0_energy">  -1386.69251443 </i>
   </energy>
  </scstep>
  <structure>
   <crystal>
    <varray name="basis" >
     <v>       8.42001800       0.00000000       8.07798100 </v>
     <v>       0.00000000      11.76380800       0.00000000 </v>
     <v>      -8.42001800       0.00000000       8.07798100 </v>
    </varray>
    <i name="volume">   1600.27186790 </i>
    <varray name="rec_basis" >
     <v>       0.05938230      -0.00000000       0.06189665 </v>
     <v>       0.00000000       0.08500649      -0.00000000 </v>
     <v>      -0.05938230       0.00000000       0.06189665 </v>
    </varray>
   </crystal>
   <varray name="positions" >
    <v>       0.26999700       0.25000100       0.19801500 </v>
    <v>       0.77380700       0.25000100       0.71743200 </v>
    <v>       0.20909100       0.75000000       0.76417000 </v>
    <v>       0.29360700       0.24999900       0.73815900 </v>
    <v>       0.79074300       0.24999900       0.22360300 </v>
    <v>       0.24424900       0.75000100       0.27714000 </v>
    <v>       0.99638500       0.99572600       0.99713300 </v>
    <v>       0.49889600       0.00315400       0.49861000 </v>
    <v>       0.50548500       0.99601100       0.99866300 </v>
    <v>       0.00327200       0.00234600       0.50028000 </v>
    <v>       0.50548600       0.50399200       0.99866500 </v>
    <v>       0.00326900       0.49765200       0.50028700 </v>
    <v>       0.99638800       0.50426900       0.99712800 </v>
    <v>       0.49889800       0.49685100       0.49860600 </v>
    <v>       0.45572100       0.75000200       0.97018500 </v>
    <v>       0.00445800       0.74999700       0.46499000 </v>
    <v>       0.97150300       0.24999800       0.96944900 </v>
    <v>       0.44949500       0.25000100       0.46718200 </v>
    <v>       0.04733500       0.75000000       0.02927100 </v>
    <v>       0.49754800       0.75000200       0.52486300 </v>
    <v>       0.52965000       0.25000100       0.03009400 </v>
    <v>       0.03160900       0.24999900       0.54659800 </v>
    <v>       0.24792600       0.46908300       0.95117500 </v>
    <v>       0.74774500       0.45029000       0.45697200 </v>
    <v>       0.44465500       0.51940400       0.24651000 </v>
    <v>       0.94663600       0.53868800       0.74497300 </v>
    <v>       0.54558900       0.04362500       0.74956700 </v>
    <v>       0.05187400       0.03696200       0.25037700 </v>
    <v>       0.75311400       0.97168600       0.06269900 </v>
    <v>       0.25112400       0.98017300       0.55885000 </v>
    <v>       0.24792700       0.03092000       0.95117400 </v>
    <v>       0.74774600       0.04971100       0.45697100 </v>
    <v>       0.44465400       0.98059600       0.24651000 </v>
    <v>       0.94663600       0.96131000       0.74497200 </v>
    <v>       0.75311600       0.52831500       0.06270000 </v>
    <v>       0.25112600       0.51982600       0.55884800 </v>
    <v>       0.54558900       0.45637600       0.74956800 </v>
    <v>       0.05187100       0.46303500       0.25037600 </v>
    <v>       0.72737600       0.74999900       0.20609900 </v>
   </varray>
  </structure>
  <varray name="forces" >
   <v>      -0.01276201      -0.00001397       0.02262127 </v>
   <v>       0.04629733      -0.00005763      -0.05004477 </v>
   <v>       0.03974606       0.00000533      -0.08761356 </v>
   <v>       0.05287062       0.00004677      -0.05564828 </v>
   <v>      -0.04082156       0.00003591       0.06040440 </v>
   <v>      -0.07220045      -0.00002987       0.07796394 </v>
   <v>       0.29125680       0.09867574      -0.02291204 </v>
   <v>      -0.01381682      -0.14256137       0.20661558 </v>
   <v>       0.00371374       0.12748895      -0.29233997 </v>
   <v>      -0.17923269      -0.05995883      -0.01446810 </v>
   <v>       0.00397736      -0.12748888      -0.29264468 </v>
   <v>      -0.17889895       0.05993650      -0.01466761 </v>
   <v>       0.29109509      -0.09871717      -0.02272416 </v>
   <v>      -0.01408946       0.14258377       0.20671763 </v>
   <v>      -0.02045904      -0.00006311       0.13459910 </v>
   <v>       0.00495623       0.00005502      -0.15439612 </v>
   <v>      -0.02481941       0.00003637       0.01003479 </v>
   <v>      -0.00133520       0.00002453      -0.03781235 </v>
   <v>      -0.11036934      -0.00007008       0.01488796 </v>
   <v>       0.11894830      -0.00001616      -0.07041365 </v>
   <v>       0.00705824       0.00004241       0.01844394 </v>
   <v>       0.02184919      -0.00003982       0.01717792 </v>
   <v>      -0.02052493       0.02806312       0.01795015 </v>
   <v>       0.05846029       0.03009166      -0.05969423 </v>
   <v>       0.12729681       0.04740003      -0.04463366 </v>
   <v>      -0.06856784      -0.04270090       0.12610960 </v>
   <v>      -0.10806153       0.01674289       0.04881349 </v>
   <v>       0.03992707      -0.02286175      -0.06198933 </v>
   <v>       0.37431235       0.74900398      -0.23444990 </v>
   <v>       0.01649011      -0.00361095      -0.00656948 </v>
   <v>      -0.02060773      -0.02809783       0.01794317 </v>
   <v>       0.05837037      -0.03011128      -0.05974065 </v>
   <v>       0.12731809      -0.04736571      -0.04460763 </v>
   <v>      -0.06857126       0.04273362       0.12618347 </v>
   <v>       0.37433366      -0.74911798      -0.23456379 </v>
   <v>       0.01641806       0.00362872      -0.00662703 </v>
   <v>      -0.10806545      -0.01671984       0.04877635 </v>
   <v>       0.03987884       0.02290783      -0.06197390 </v>
   <v>      -1.05137092       0.00009996       0.77529215 </v>
  </varray>
  <varray name="stress" >
   <v>       4.22508372      -0.00001278      -0.22798051 </v>
   <v>      -0.00001254      10.45147729      -0.00027268 </v>
   <v>      -0.22805908      -0.00027260       4.66820766 </v>
  </varray>
  <energy>
   <i name="e_fr_energy">  -1386.69251443 </i>
   <i name="e_wo_entrp">  -1386.69251443 </i>
   <i name="e_0_energy">     -0.00000000 </i>
  </energy>
  <time name="totalsc">  445.99  446.73</time>
  <eigenvalues>
   <array>
    <dimension dim="1">band</dimension>
    <dimension dim="2">kpoint</dimension>
    <dimension dim="3">spin</dimension>
    <field>eigene</field>
    <field>occ</field>
    <set>
     <set comment="spin 1">
      <set comment="kpoint 1">
       <r>  -21.2620    1.0000 </r>
       <r>  -21.0575    1.0000 </r>
       <r>  -21.0306    1.0000 </r>
       <r>  -20.9569    1.0000 </r>
       <r>  -20.9547    1.0000 </r>
       <r>  -20.8920    1.0000 </r>
       <r>  -20.8478    1.0000 </r>
       <r>  -16.8134    1.0000 </r>
       <r>  -16.7886    1.0000 </r>
       <r>  -16.7836    1.0000 </r>
       <r>  -16.7617    1.0000 </r>
       <r>  -16.7320    1.0000 </r>
       <r>  -16.7305    1.0000 </r>
       <r>  -16.7291    1.0000 </r>
       <r>  -16.7198    1.0000 </r>
       <r>  -16.6638    1.0000 </r>
       <r>  -16.6624    1.0000 </r>
       <r>  -16.6572    1.0000 </r>
       <r>  -16.6560    1.0000 </r>
       <r>  -16.6510    1.0000 </r>
       <r>  -16.6505    1.0000 </r>
       <r>  -16.6475    1.0000 </r>
       <r>  -16.6472    1.0000 </r>
       <r>  -16.6430    1.0000 </r>
       <r>  -16.6424    1.0000 </r>
       <r>  -16.6367    1.0000 </r>
       <r>  -16.6359    1.0000 </r>
       <r>  -16.5973    1.0000 </r>
       <r>  -16.5688    1.0000 </r>
       <r>  -16.5687    1.0000 </r>
       <r>  -16.5488    1.0000 </r>
       <r>  -16.5386    1.0000 </r>
       <r>  -16.5186    1.0000 </r>
       <r>  -16.5162    1.0000 </r>
       <r>  -16.4867    1.0000 </r>
       <r>  -16.4553    1.0000 </r>
       <r>  -16.4539    1.0000 </r>
       <r>  -16.4486    1.0000 </r>
       <r>  -16.4478    1.0000 </r>
       <r>  -16.4474    1.0000 </r>
       <r>  -16.4467    1.0000 </r>
       <r>  -16.4277    1.0000 </r>
       <r>  -16.4276    1.0000 </r>
       <r>  -16.4217    1.0000 </r>
       <r>  -16.4188    1.0000 </r>
       <r>  -16.4125    1.0000 </r>
       <r>  -16.4116    1.0000 </r>
       <r>  -14.6709    1.0000 </r>
       <r>  -14.6235    1.0000 </r>
       <r>  -14.4525    1.0000 </r>
       <r>  -14.4149    1.0000 </r>
       <r>  -14.3581    1.0000 </r>
       <r>  -14.3210    1.0000 </r>
       <r>  -14.3054    1.0000 </r>
       <r>  -14.2891    1.0000 </r>
       <r>  -14.2097    1.0000 </r>
       <r>  -14.1911    1.0000 </r>
       <r>  -14.1569    1.0000 </r>
       <r>  -14.1473    1.0000 </r>
       <r>  -14.1419    1.0000 </r>
       <r>  -14.1286    1.0000 </r>
       <r>  -14.1043    1.0000 </r>
       <r>  -14.0597    1.0000 </r>
       <r>  -14.0392    1.0000 </r>
       <r>  -14.0321    1.0000 </r>
       <r>  -13.9673    1.0000 </r>
       <r>  -13.9626    1.0000 </r>
       <r>  -13.8425    1.0000 </r>
       <r>  -13.8298    1.0000 </r>
       <r>  -13.8196    1.0000 </r>
       <r>  -13.7074    1.0000 </r>
       <r>   -8.3965    1.0000 </r>
       <r>   -7.9575    1.0000 </r>
       <r>   -7.9077    1.0000 </r>
       <r>   -7.8927    1.0000 </r>
       <r>   -7.7040    1.0000 </r>
       <r>   -7.6980    1.0000 </r>
       <r>   -7.6788    1.0000 </r>
       <r>   -7.4815    1.0000 </r>
       <r>   -7.4627    1.0000 </r>
       <r>   -7.4556    1.0000 </r>
       <r>   -7.4339    1.0000 </r>
       <r>   -7.4334    1.0000 </r>
       <r>   -7.4269    1.0000 </r>
       <r>   -7.3882    1.0000 </r>
       <r>   -7.3857    1.0000 </r>
       <r>   -7.3835    1.0000 </r>
       <r>   -7.3717    1.0000 </r>
       <r>   -7.3597    1.0000 </r>
       <r>   -7.3527    1.0000 </r>
       <r>   -7.3325    1.0000 </r>
       <r>   -7.3240    1.0000 </r>
       <r>   -7.3133    1.0000 </r>
       <r>   -7.3062    1.0000 </r>
       <r>   -7.2755    1.0000 </r>
       <r>   -7.2644    1.0000 </r>
       <r>   -7.2589    1.0000 </r>
       <r>   -7.2419    1.0000 </r>
       <r>   -7.2374    1.0000 </r>
       <r>   -6.7460    1.0000 </r>
       <r>   -3.5959    1.0000 </r>
       <r>   -3.5521    1.0000 </r>
       <r>   -3.5226    1.0000 </r>
       <r>   -3.4353    1.0000 </r>
       <r>   -3.4113    1.0000 </r>
       <r>   -3.3563    1.0000 </r>
       <r>   -3.3037    1.0000 </r>
       <r>   -3.2921    1.0000 </r>
       <r>   -3.2775    1.0000 </r>
       <r>   -3.2618    1.0000 </r>
       <r>   -3.1406    1.0000 </r>
       <r>   -3.0677    1.0000 </r>
       <r>   -2.3855    1.0000 </r>
       <r>   -2.3800    1.0000 </r>
       <r>   -2.2967    1.0000 </r>
       <r>   -2.2607    1.0000 </r>
       <r>   -2.1825    1.0000 </r>
       <r>   -2.1081    1.0000 </r>
       <r>   -2.1053    1.0000 </r>
       <r>   -2.0590    1.0000 </r>
       <r>   -2.0192    1.0000 </r>
       <r>   -1.9308    1.0000 </r>
       <r>   -1.9038    1.0000 </r>
       <r>   -1.8878    1.0000 </r>
       <r>   -1.8678    1.0000 </r>
       <r>   -1.8375    1.0000 </r>
       <r>   -1.7970    1.0000 </r>
       <r>   -1.7943    1.0000 </r>
       <r>   -1.7868    1.0000 </r>
       <r>   -1.7473    1.0000 </r>
       <r>   -1.7097    1.0000 </r>
       <r>   -1.6936    1.0000 </r>
       <r>   -1.6726    1.0000 </r>
       <r>   -1.6584    1.0000 </r>
       <r>   -1.6537    1.0000 </r>
       <r>   -1.6167    1.0000 </r>
       <r>   -1.6049    1.0000 </r>
       <r>   -1.5793    1.0000 </r>
       <r>   -1.5709    1.0000 </r>
       <r>   -1.5590    1.0000 </r>
       <r>   -1.5456    1.0000 </r>
       <r>   -1.5373    1.0000 </r>
       <r>   -1.5107    1.0000 </r>
       <r>   -1.4807    1.0000 </r>
       <r>   -1.4778    1.0000 </r>
       <r>   -1.4713    1.0000 </r>
       <r>   -1.4450    1.0000 </r>
       <r>   -1.4375    1.0000 </r>
       <r>   -1.4296    1.0000 </r>
       <r>   -1.4197    1.0000 </r>
       <r>   -1.3939    1.0000 </r>
       <r>   -1.3315    1.0000 </r>
       <r>   -1.3147    1.0000 </r>
       <r>   -1.2933    1.0000 </r>
       <r>   -1.2891    1.0000 </r>
       <r>   -1.2709    1.0000 </r>
       <r>   -1.2240    1.0000 </r>
       <r>   -1.2229    1.0000 </r>
       <r>   -1.1983    1.0000 </r>
       <r>   -1.1798    1.0000 </r>
       <r>   -1.1460    1.0000 </r>
       <r>   -1.1134    1.0000 </r>
       <r>   -1.0390    1.0000 </r>
       <r>   -0.9629    1.0000 </r>
       <r>   -0.9507    1.0000 </r>
       <r>   -0.8630    1.0000 </r>
       <r>   -0.8294    1.0000 </r>
       <r>   -0.7976    1.0000 </r>
       <r>   -0.4111    1.0000 </r>
       <r>   -0.3437    1.0000 </r>
       <r>   -0.2958    1.0000 </r>
       <r>    0.2340    1.0000 </r>
       <r>    2.5505    0.0000 </r>
       <r>    2.5726    0.0000 </r>
       <r>    2.7018    0.0000 </r>
       <r>    2.8866    0.0000 </r>
       <r>    2.9256    0.0000 </r>
       <r>    2.9642    0.0000 </r>
       <r>    2.9752    0.0000 </r>
       <r>    3.0617    0.0000 </r>
       <r>    3.1055    0.0000 </r>
       <r>    3.3230    0.0000 </r>
       <r>    3.3640    0.0000 </r>
       <r>    3.4118    0.0000 </r>
       <r>    4.7666    0.0000 </r>
       <r>    5.1529    0.0000 </r>
       <r>    5.3051    0.0000 </r>
       <r>    5.3800    0.0000 </r>
       <r>    5.5049    0.0000 </r>
       <r>    5.5729    0.0000 </r>
       <r>    5.6395    0.0000 </r>
       <r>    5.7043    0.0000 </r>
       <r>    5.8226    0.0000 </r>
       <r>    5.8385    0.0000 </r>
       <r>    5.8754    0.0000 </r>
       <r>    5.9185    0.0000 </r>
       <r>    5.9977    0.0000 </r>
       <r>    6.0521    0.0000 </r>
       <r>    6.0815    0.0000 </r>
       <r>    6.1290    0.0000 </r>
       <r>    6.1586    0.0000 </r>
       <r>    6.2615    0.0000 </r>
       <r>    6.3074    0.0000 </r>
       <r>    6.3753    0.0000 </r>
       <r>    6.3899    0.0000 </r>
       <r>    6.3916    0.0000 </r>
       <r>    6.4475    0.0000 </r>
       <r>    6.5663    0.0000 </r>
      </set>
      <set comment="kpoint 2">
       <r>  -21.2620    1.0000 </r>
       <r>  -21.0575    1.0000 </r>
       <r>  -21.0306    1.0000 </r>
       <r>  -20.9569    1.0000 </r>
       <r>  -20.9547    1.0000 </r>
       <r>  -20.8920    1.0000 </r>
       <r>  -20.8478    1.0000 </r>
       <r>  -16.8023    1.0000 </r>
       <r>  -16.7870    1.0000 </r>
       <r>  -16.7676    1.0000 </r>
       <r>  -16.7553    1.0000 </r>
       <r>  -16.7499    1.0000 </r>
       <r>  -16.7452    1.0000 </r>
       <r>  -16.7291    1.0000 </r>
       <r>  -16.7236    1.0000 </r>
       <r>  -16.6638    1.0000 </r>
       <r>  -16.6623    1.0000 </r>
       <r>  -16.6573    1.0000 </r>
       <r>  -16.6560    1.0000 </r>
       <r>  -16.6509    1.0000 </r>
       <r>  -16.6505    1.0000 </r>
       <r>  -16.6476    1.0000 </r>
       <r>  -16.6472    1.0000 </r>
       <r>  -16.6430    1.0000 </r>
       <r>  -16.6424    1.0000 </r>
       <r>  -16.6368    1.0000 </r>
       <r>  -16.6360    1.0000 </r>
       <r>  -16.5946    1.0000 </r>
       <r>  -16.5551    1.0000 </r>
       <r>  -16.5544    1.0000 </r>
       <r>  -16.5499    1.0000 </r>
       <r>  -16.5352    1.0000 </r>
       <r>  -16.5322    1.0000 </r>
       <r>  -16.5312    1.0000 </r>
       <r>  -16.4926    1.0000 </r>
       <r>  -16.4553    1.0000 </r>
       <r>  -16.4539    1.0000 </r>
       <r>  -16.4486    1.0000 </r>
       <r>  -16.4479    1.0000 </r>
       <r>  -16.4475    1.0000 </r>
       <r>  -16.4466    1.0000 </r>
       <r>  -16.4278    1.0000 </r>
       <r>  -16.4276    1.0000 </r>
       <r>  -16.4217    1.0000 </r>
       <r>  -16.4187    1.0000 </r>
       <r>  -16.4125    1.0000 </r>
       <r>  -16.4116    1.0000 </r>
       <r>  -14.6617    1.0000 </r>
       <r>  -14.6218    1.0000 </r>
       <r>  -14.5080    1.0000 </r>
       <r>  -14.3995    1.0000 </r>
       <r>  -14.3302    1.0000 </r>
       <r>  -14.3094    1.0000 </r>
       <r>  -14.3093    1.0000 </r>
       <r>  -14.2923    1.0000 </r>
       <r>  -14.2083    1.0000 </r>
       <r>  -14.1984    1.0000 </r>
       <r>  -14.1657    1.0000 </r>
       <r>  -14.1464    1.0000 </r>
       <r>  -14.1441    1.0000 </r>
       <r>  -14.1271    1.0000 </r>
       <r>  -14.1143    1.0000 </r>
       <r>  -14.0559    1.0000 </r>
       <r>  -14.0508    1.0000 </r>
       <r>  -14.0065    1.0000 </r>
       <r>  -13.9146    1.0000 </r>
       <r>  -13.9104    1.0000 </r>
       <r>  -13.8956    1.0000 </r>
       <r>  -13.8623    1.0000 </r>
       <r>  -13.8213    1.0000 </r>
       <r>  -13.7173    1.0000 </r>
       <r>   -8.1970    1.0000 </r>
       <r>   -8.1773    1.0000 </r>
       <r>   -7.7721    1.0000 </r>
       <r>   -7.7578    1.0000 </r>
       <r>   -7.7219    1.0000 </r>
       <r>   -7.6457    1.0000 </r>
       <r>   -7.6379    1.0000 </r>
       <r>   -7.6232    1.0000 </r>
       <r>   -7.6063    1.0000 </r>
       <r>   -7.4753    1.0000 </r>
       <r>   -7.4496    1.0000 </r>
       <r>   -7.4396    1.0000 </r>
       <r>   -7.4329    1.0000 </r>
       <r>   -7.4268    1.0000 </r>
       <r>   -7.4250    1.0000 </r>
       <r>   -7.3828    1.0000 </r>
       <r>   -7.3645    1.0000 </r>
       <r>   -7.3631    1.0000 </r>
       <r>   -7.3527    1.0000 </r>
       <r>   -7.3418    1.0000 </r>
       <r>   -7.3359    1.0000 </r>
       <r>   -7.3165    1.0000 </r>
       <r>   -7.2902    1.0000 </r>
       <r>   -7.2768    1.0000 </r>
       <r>   -7.2638    1.0000 </r>
       <r>   -7.2504    1.0000 </r>
       <r>   -7.2389    1.0000 </r>
       <r>   -7.0775    1.0000 </r>
       <r>   -7.0421    1.0000 </r>
       <r>   -3.5536    1.0000 </r>
       <r>   -3.5150    1.0000 </r>
       <r>   -3.3859    1.0000 </r>
       <r>   -3.3501    1.0000 </r>
       <r>   -3.3330    1.0000 </r>
       <r>   -3.2518    1.0000 </r>
       <r>   -3.2170    1.0000 </r>
       <r>   -3.1932    1.0000 </r>
       <r>   -2.8879    1.0000 </r>
       <r>   -2.8815    1.0000 </r>
       <r>   -2.7855    1.0000 </r>
       <r>   -2.6446    1.0000 </r>
       <r>   -2.5955    1.0000 </r>
       <r>   -2.5456    1.0000 </r>
       <r>   -2.4475    1.0000 </r>
       <r>   -2.4351    1.0000 </r>
       <r>   -2.2997    1.0000 </r>
       <r>   -2.2740    1.0000 </r>
       <r>   -2.2467    1.0000 </r>
       <r>   -2.2063    1.0000 </r>
       <r>   -2.1863    1.0000 </r>
       <r>   -2.1120    1.0000 </r>
       <r>   -2.0415    1.0000 </r>
       <r>   -1.9792    1.0000 </r>
       <r>   -1.9502    1.0000 </r>
       <r>   -1.8964    1.0000 </r>
       <r>   -1.8872    1.0000 </r>
       <r>   -1.8365    1.0000 </r>
       <r>   -1.8170    1.0000 </r>
       <r>   -1.7691    1.0000 </r>
       <r>   -1.7141    1.0000 </r>
       <r>   -1.6675    1.0000 </r>
       <r>   -1.6668    1.0000 </r>
       <r>   -1.6521    1.0000 </r>
       <r>   -1.6299    1.0000 </r>
       <r>   -1.6287    1.0000 </r>
       <r>   -1.6113    1.0000 </r>
       <r>   -1.5995    1.0000 </r>
       <r>   -1.5617    1.0000 </r>
       <r>   -1.5585    1.0000 </r>
       <r>   -1.5550    1.0000 </r>
       <r>   -1.5313    1.0000 </r>
       <r>   -1.5248    1.0000 </r>
       <r>   -1.5112    1.0000 </r>
       <r>   -1.4739    1.0000 </r>
       <r>   -1.4503    1.0000 </r>
       <r>   -1.4357    1.0000 </r>
       <r>   -1.4269    1.0000 </r>
       <r>   -1.4040    1.0000 </r>
       <r>   -1.3708    1.0000 </r>
       <r>   -1.3707    1.0000 </r>
       <r>   -1.3394    1.0000 </r>
       <r>   -1.3334    1.0000 </r>
       <r>   -1.3098    1.0000 </r>
       <r>   -1.2865    1.0000 </r>
       <r>   -1.2488    1.0000 </r>
       <r>   -1.2449    1.0000 </r>
       <r>   -1.2326    1.0000 </r>
       <r>   -1.2276    1.0000 </r>
       <r>   -1.1880    1.0000 </r>
       <r>   -1.1526    1.0000 </r>
       <r>   -1.1287    1.0000 </r>
       <r>   -1.1017    1.0000 </r>
       <r>   -0.9768    1.0000 </r>
       <r>   -0.9512    1.0000 </r>
       <r>   -0.9279    1.0000 </r>
       <r>   -0.7490    1.0000 </r>
       <r>   -0.7463    1.0000 </r>
       <r>   -0.6890    1.0000 </r>
       <r>   -0.6392    1.0000 </r>
       <r>   -0.2151    1.0000 </r>
       <r>   -0.0658    1.0000 </r>
       <r>    2.7105    0.0000 </r>
       <r>    2.7757    0.0000 </r>
       <r>    2.7847    0.0000 </r>
       <r>    2.8021    0.0000 </r>
       <r>    3.0962    0.0000 </r>
       <r>    3.1634    0.0000 </r>
       <r>    3.1985    0.0000 </r>
       <r>    3.2060    0.0000 </r>
       <r>    3.9026    0.0000 </r>
       <r>    4.0113    0.0000 </r>
       <r>    4.2310    0.0000 </r>
       <r>    4.2807    0.0000 </r>
       <r>    4.3524    0.0000 </r>
       <r>    4.4323    0.0000 </r>
       <r>    4.5759    0.0000 </r>
       <r>    4.6745    0.0000 </r>
       <r>    5.4070    0.0000 </r>
       <r>    5.4117    0.0000 </r>
       <r>    5.4560    0.0000 </r>
       <r>    5.4626    0.0000 </r>
       <r>    5.4650    0.0000 </r>
       <r>    5.6975    0.0000 </r>
       <r>    5.8091    0.0000 </r>
       <r>    5.8460    0.0000 </r>
       <r>    5.8757    0.0000 </r>
       <r>    6.0155    0.0000 </r>
       <r>    6.0210    0.0000 </r>
       <r>    6.0721    0.0000 </r>
       <r>    6.0920    0.0000 </r>
       <r>    6.1901    0.0000 </r>
       <r>    6.2671    0.0000 </r>
       <r>    6.3468    0.0000 </r>
       <r>    6.3985    0.0000 </r>
       <r>    6.4368    0.0000 </r>
       <r>    6.4400    0.0000 </r>
       <r>    6.5584    0.0000 </r>
      </set>
      <set comment="kpoint 3">
       <r>  -21.2620    1.0000 </r>
       <r>  -21.0575    1.0000 </r>
       <r>  -21.0306    1.0000 </r>
       <r>  -20.9569    1.0000 </r>
       <r>  -20.9546    1.0000 </r>
       <r>  -20.8920    1.0000 </r>
       <r>  -20.8478    1.0000 </r>
       <r>  -16.7988    1.0000 </r>
       <r>  -16.7951    1.0000 </r>
       <r>  -16.7602    1.0000 </r>
       <r>  -16.7508    1.0000 </r>
       <r>  -16.7506    1.0000 </r>
       <r>  -16.7444    1.0000 </r>
       <r>  -16.7302    1.0000 </r>
       <r>  -16.7299    1.0000 </r>
       <r>  -16.6631    1.0000 </r>
       <r>  -16.6630    1.0000 </r>
       <r>  -16.6566    1.0000 </r>
       <r>  -16.6564    1.0000 </r>
       <r>  -16.6508    1.0000 </r>
       <r>  -16.6507    1.0000 </r>
       <r>  -16.6474    1.0000 </r>
       <r>  -16.6473    1.0000 </r>
       <r>  -16.6427    1.0000 </r>
       <r>  -16.6427    1.0000 </r>
       <r>  -16.6365    1.0000 </r>
       <r>  -16.6362    1.0000 </r>
       <r>  -16.5749    1.0000 </r>
       <r>  -16.5723    1.0000 </r>
       <r>  -16.5631    1.0000 </r>
       <r>  -16.5604    1.0000 </r>
       <r>  -16.5311    1.0000 </r>
       <r>  -16.5269    1.0000 </r>
       <r>  -16.5107    1.0000 </r>
       <r>  -16.5061    1.0000 </r>
       <r>  -16.4547    1.0000 </r>
       <r>  -16.4544    1.0000 </r>
       <r>  -16.4481    1.0000 </r>
       <r>  -16.4481    1.0000 </r>
       <r>  -16.4473    1.0000 </r>
       <r>  -16.4470    1.0000 </r>
       <r>  -16.4277    1.0000 </r>
       <r>  -16.4277    1.0000 </r>
       <r>  -16.4208    1.0000 </r>
       <r>  -16.4193    1.0000 </r>
       <r>  -16.4120    1.0000 </r>
       <r>  -16.4120    1.0000 </r>
       <r>  -14.6579    1.0000 </r>
       <r>  -14.6447    1.0000 </r>
       <r>  -14.4459    1.0000 </r>
       <r>  -14.3992    1.0000 </r>
       <r>  -14.3834    1.0000 </r>
       <r>  -14.3420    1.0000 </r>
       <r>  -14.2964    1.0000 </r>
       <r>  -14.2855    1.0000 </r>
       <r>  -14.2049    1.0000 </r>
       <r>  -14.2028    1.0000 </r>
       <r>  -14.1590    1.0000 </r>
       <r>  -14.1475    1.0000 </r>
       <r>  -14.1247    1.0000 </r>
       <r>  -14.1008    1.0000 </r>
       <r>  -14.0884    1.0000 </r>
       <r>  -14.0812    1.0000 </r>
       <r>  -14.0565    1.0000 </r>
       <r>  -14.0365    1.0000 </r>
       <r>  -13.9285    1.0000 </r>
       <r>  -13.9037    1.0000 </r>
       <r>  -13.8933    1.0000 </r>
       <r>  -13.8311    1.0000 </r>
       <r>  -13.8250    1.0000 </r>
       <r>  -13.7318    1.0000 </r>
       <r>   -8.1738    1.0000 </r>
       <r>   -8.1592    1.0000 </r>
       <r>   -7.7945    1.0000 </r>
       <r>   -7.7457    1.0000 </r>
       <r>   -7.7170    1.0000 </r>
       <r>   -7.6609    1.0000 </r>
       <r>   -7.6221    1.0000 </r>
       <r>   -7.6212    1.0000 </r>
       <r>   -7.6209    1.0000 </r>
       <r>   -7.4755    1.0000 </r>
       <r>   -7.4481    1.0000 </r>
       <r>   -7.4422    1.0000 </r>
       <r>   -7.4349    1.0000 </r>
       <r>   -7.4260    1.0000 </r>
       <r>   -7.4152    1.0000 </r>
       <r>   -7.3826    1.0000 </r>
       <r>   -7.3601    1.0000 </r>
       <r>   -7.3569    1.0000 </r>
       <r>   -7.3524    1.0000 </r>
       <r>   -7.3476    1.0000 </r>
       <r>   -7.3391    1.0000 </r>
       <r>   -7.3148    1.0000 </r>
       <r>   -7.2886    1.0000 </r>
       <r>   -7.2722    1.0000 </r>
       <r>   -7.2653    1.0000 </r>
       <r>   -7.2550    1.0000 </r>
       <r>   -7.2429    1.0000 </r>
       <r>   -7.1030    1.0000 </r>
       <r>   -7.0913    1.0000 </r>
       <r>   -3.5419    1.0000 </r>
       <r>   -3.5179    1.0000 </r>
       <r>   -3.3658    1.0000 </r>
       <r>   -3.3583    1.0000 </r>
       <r>   -3.2724    1.0000 </r>
       <r>   -3.2340    1.0000 </r>
       <r>   -3.2335    1.0000 </r>
       <r>   -3.2014    1.0000 </r>
       <r>   -2.8017    1.0000 </r>
       <r>   -2.7538    1.0000 </r>
       <r>   -2.6982    1.0000 </r>
       <r>   -2.6569    1.0000 </r>
       <r>   -2.5926    1.0000 </r>
       <r>   -2.5255    1.0000 </r>
       <r>   -2.4398    1.0000 </r>
       <r>   -2.3536    1.0000 </r>
       <r>   -2.3138    1.0000 </r>
       <r>   -2.2641    1.0000 </r>
       <r>   -2.2477    1.0000 </r>
       <r>   -2.2127    1.0000 </r>
       <r>   -2.2062    1.0000 </r>
       <r>   -2.1822    1.0000 </r>
       <r>   -2.0373    1.0000 </r>
       <r>   -1.9692    1.0000 </r>
       <r>   -1.9604    1.0000 </r>
       <r>   -1.9535    1.0000 </r>
       <r>   -1.9515    1.0000 </r>
       <r>   -1.8687    1.0000 </r>
       <r>   -1.8369    1.0000 </r>
       <r>   -1.7864    1.0000 </r>
       <r>   -1.7464    1.0000 </r>
       <r>   -1.7177    1.0000 </r>
       <r>   -1.7107    1.0000 </r>
       <r>   -1.6679    1.0000 </r>
       <r>   -1.6480    1.0000 </r>
       <r>   -1.6255    1.0000 </r>
       <r>   -1.5928    1.0000 </r>
       <r>   -1.5818    1.0000 </r>
       <r>   -1.5693    1.0000 </r>
       <r>   -1.5449    1.0000 </r>
       <r>   -1.5322    1.0000 </r>
       <r>   -1.5211    1.0000 </r>
       <r>   -1.4962    1.0000 </r>
       <r>   -1.4902    1.0000 </r>
       <r>   -1.4901    1.0000 </r>
       <r>   -1.4726    1.0000 </r>
       <r>   -1.4307    1.0000 </r>
       <r>   -1.4079    1.0000 </r>
       <r>   -1.3994    1.0000 </r>
       <r>   -1.3888    1.0000 </r>
       <r>   -1.3607    1.0000 </r>
       <r>   -1.3443    1.0000 </r>
       <r>   -1.3368    1.0000 </r>
       <r>   -1.3140    1.0000 </r>
       <r>   -1.2944    1.0000 </r>
       <r>   -1.2681    1.0000 </r>
       <r>   -1.2482    1.0000 </r>
       <r>   -1.2252    1.0000 </r>
       <r>   -1.1970    1.0000 </r>
       <r>   -1.1755    1.0000 </r>
       <r>   -1.1651    1.0000 </r>
       <r>   -1.1232    1.0000 </r>
       <r>   -1.0785    1.0000 </r>
       <r>   -0.9865    1.0000 </r>
       <r>   -0.9560    1.0000 </r>
       <r>   -0.9334    1.0000 </r>
       <r>   -0.7992    1.0000 </r>
       <r>   -0.7966    1.0000 </r>
       <r>   -0.7554    1.0000 </r>
       <r>   -0.6656    1.0000 </r>
       <r>   -0.2526    1.0000 </r>
       <r>   -0.1689    1.0000 </r>
       <r>    2.7156    0.0000 </r>
       <r>    2.7160    0.0000 </r>
       <r>    2.8943    0.0000 </r>
       <r>    2.8959    0.0000 </r>
       <r>    3.1376    0.0000 </r>
       <r>    3.1445    0.0000 </r>
       <r>    3.1779    0.0000 </r>
       <r>    3.1861    0.0000 </r>
       <r>    4.0145    0.0000 </r>
       <r>    4.0985    0.0000 </r>
       <r>    4.3450    0.0000 </r>
       <r>    4.3841    0.0000 </r>
       <r>    4.3890    0.0000 </r>
       <r>    4.4632    0.0000 </r>
       <r>    4.6530    0.0000 </r>
       <r>    4.7840    0.0000 </r>
       <r>    5.3843    0.0000 </r>
       <r>    5.4057    0.0000 </r>
       <r>    5.4286    0.0000 </r>
       <r>    5.4472    0.0000 </r>
       <r>    5.4928    0.0000 </r>
       <r>    5.5367    0.0000 </r>
       <r>    5.7259    0.0000 </r>
       <r>    5.8428    0.0000 </r>
       <r>    5.8519    0.0000 </r>
       <r>    5.8652    0.0000 </r>
       <r>    6.0037    0.0000 </r>
       <r>    6.0779    0.0000 </r>
       <r>    6.2042    0.0000 </r>
       <r>    6.2739    0.0000 </r>
       <r>    6.3794    0.0000 </r>
       <r>    6.4069    0.0000 </r>
       <r>    6.4104    0.0000 </r>
       <r>    6.4703    0.0000 </r>
       <r>    6.5118    0.0000 </r>
       <r>    6.5375    0.0000 </r>
      </set>
      <set comment="kpoint 4">
       <r>  -21.2620    1.0000 </r>
       <r>  -21.0575    1.0000 </r>
       <r>  -21.0306    1.0000 </r>
       <r>  -20.9569    1.0000 </r>
       <r>  -20.9547    1.0000 </r>
       <r>  -20.8920    1.0000 </r>
       <r>  -20.8479    1.0000 </r>
       <r>  -16.7820    1.0000 </r>
       <r>  -16.7758    1.0000 </r>
       <r>  -16.7658    1.0000 </r>
       <r>  -16.7589    1.0000 </r>
       <r>  -16.7493    1.0000 </r>
       <r>  -16.7442    1.0000 </r>
       <r>  -16.7437    1.0000 </r>
       <r>  -16.7420    1.0000 </r>
       <r>  -16.6632    1.0000 </r>
       <r>  -16.6630    1.0000 </r>
       <r>  -16.6567    1.0000 </r>
       <r>  -16.6565    1.0000 </r>
       <r>  -16.6508    1.0000 </r>
       <r>  -16.6506    1.0000 </r>
       <r>  -16.6474    1.0000 </r>
       <r>  -16.6473    1.0000 </r>
       <r>  -16.6427    1.0000 </r>
       <r>  -16.6427    1.0000 </r>
       <r>  -16.6365    1.0000 </r>
       <r>  -16.6362    1.0000 </r>
       <r>  -16.5674    1.0000 </r>
       <r>  -16.5621    1.0000 </r>
       <r>  -16.5547    1.0000 </r>
       <r>  -16.5547    1.0000 </r>
       <r>  -16.5342    1.0000 </r>
       <r>  -16.5335    1.0000 </r>
       <r>  -16.5245    1.0000 </r>
       <r>  -16.5163    1.0000 </r>
       <r>  -16.4547    1.0000 </r>
       <r>  -16.4544    1.0000 </r>
       <r>  -16.4481    1.0000 </r>
       <r>  -16.4481    1.0000 </r>
       <r>  -16.4473    1.0000 </r>
       <r>  -16.4470    1.0000 </r>
       <r>  -16.4277    1.0000 </r>
       <r>  -16.4276    1.0000 </r>
       <r>  -16.4209    1.0000 </r>
       <r>  -16.4193    1.0000 </r>
       <r>  -16.4120    1.0000 </r>
       <r>  -16.4120    1.0000 </r>
       <r>  -14.6558    1.0000 </r>
       <r>  -14.6390    1.0000 </r>
       <r>  -14.4867    1.0000 </r>
       <r>  -14.4289    1.0000 </r>
       <r>  -14.3404    1.0000 </r>
       <r>  -14.3113    1.0000 </r>
       <r>  -14.2911    1.0000 </r>
       <r>  -14.2766    1.0000 </r>
       <r>  -14.2201    1.0000 </r>
       <r>  -14.2154    1.0000 </r>
       <r>  -14.1699    1.0000 </r>
       <r>  -14.1469    1.0000 </r>
       <r>  -14.1358    1.0000 </r>
       <r>  -14.1121    1.0000 </r>
       <r>  -14.1006    1.0000 </r>
       <r>  -14.0949    1.0000 </r>
       <r>  -13.9956    1.0000 </r>
       <r>  -13.9516    1.0000 </r>
       <r>  -13.9433    1.0000 </r>
       <r>  -13.9085    1.0000 </r>
       <r>  -13.9055    1.0000 </r>
       <r>  -13.8508    1.0000 </r>
       <r>  -13.8482    1.0000 </r>
       <r>  -13.7375    1.0000 </r>
       <r>   -7.9854    1.0000 </r>
       <r>   -7.9673    1.0000 </r>
       <r>   -7.9521    1.0000 </r>
       <r>   -7.9283    1.0000 </r>
       <r>   -7.7113    1.0000 </r>
       <r>   -7.6928    1.0000 </r>
       <r>   -7.6804    1.0000 </r>
       <r>   -7.4821    1.0000 </r>
       <r>   -7.4636    1.0000 </r>
       <r>   -7.4619    1.0000 </r>
       <r>   -7.4569    1.0000 </r>
       <r>   -7.4444    1.0000 </r>
       <r>   -7.4359    1.0000 </r>
       <r>   -7.4098    1.0000 </r>
       <r>   -7.4059    1.0000 </r>
       <r>   -7.4038    1.0000 </r>
       <r>   -7.3692    1.0000 </r>
       <r>   -7.3565    1.0000 </r>
       <r>   -7.3548    1.0000 </r>
       <r>   -7.3490    1.0000 </r>
       <r>   -7.3447    1.0000 </r>
       <r>   -7.3353    1.0000 </r>
       <r>   -7.3298    1.0000 </r>
       <r>   -7.3131    1.0000 </r>
       <r>   -7.2869    1.0000 </r>
       <r>   -7.2641    1.0000 </r>
       <r>   -7.2619    1.0000 </r>
       <r>   -7.2509    1.0000 </r>
       <r>   -7.2340    1.0000 </r>
       <r>   -3.3424    1.0000 </r>
       <r>   -3.3226    1.0000 </r>
       <r>   -3.2736    1.0000 </r>
       <r>   -3.2696    1.0000 </r>
       <r>   -3.0974    1.0000 </r>
       <r>   -2.9853    1.0000 </r>
       <r>   -2.8003    1.0000 </r>
       <r>   -2.7860    1.0000 </r>
       <r>   -2.7763    1.0000 </r>
       <r>   -2.6813    1.0000 </r>
       <r>   -2.6491    1.0000 </r>
       <r>   -2.6287    1.0000 </r>
       <r>   -2.5860    1.0000 </r>
       <r>   -2.5643    1.0000 </r>
       <r>   -2.5376    1.0000 </r>
       <r>   -2.5369    1.0000 </r>
       <r>   -2.5135    1.0000 </r>
       <r>   -2.4280    1.0000 </r>
       <r>   -2.3300    1.0000 </r>
       <r>   -2.2888    1.0000 </r>
       <r>   -2.2339    1.0000 </r>
       <r>   -2.2155    1.0000 </r>
       <r>   -2.1560    1.0000 </r>
       <r>   -2.1445    1.0000 </r>
       <r>   -2.0285    1.0000 </r>
       <r>   -2.0226    1.0000 </r>
       <r>   -1.9469    1.0000 </r>
       <r>   -1.9137    1.0000 </r>
       <r>   -1.8849    1.0000 </r>
       <r>   -1.8450    1.0000 </r>
       <r>   -1.8349    1.0000 </r>
       <r>   -1.8236    1.0000 </r>
       <r>   -1.7650    1.0000 </r>
       <r>   -1.7604    1.0000 </r>
       <r>   -1.7257    1.0000 </r>
       <r>   -1.6437    1.0000 </r>
       <r>   -1.6102    1.0000 </r>
       <r>   -1.5849    1.0000 </r>
       <r>   -1.5652    1.0000 </r>
       <r>   -1.5539    1.0000 </r>
       <r>   -1.5506    1.0000 </r>
       <r>   -1.5258    1.0000 </r>
       <r>   -1.4995    1.0000 </r>
       <r>   -1.4742    1.0000 </r>
       <r>   -1.4716    1.0000 </r>
       <r>   -1.4703    1.0000 </r>
       <r>   -1.4589    1.0000 </r>
       <r>   -1.4098    1.0000 </r>
       <r>   -1.3826    1.0000 </r>
       <r>   -1.3805    1.0000 </r>
       <r>   -1.3652    1.0000 </r>
       <r>   -1.3488    1.0000 </r>
       <r>   -1.3407    1.0000 </r>
       <r>   -1.3178    1.0000 </r>
       <r>   -1.2874    1.0000 </r>
       <r>   -1.2590    1.0000 </r>
       <r>   -1.2081    1.0000 </r>
       <r>   -1.1991    1.0000 </r>
       <r>   -1.1849    1.0000 </r>
       <r>   -1.1683    1.0000 </r>
       <r>   -1.1571    1.0000 </r>
       <r>   -1.1331    1.0000 </r>
       <r>   -1.1266    1.0000 </r>
       <r>   -1.0270    1.0000 </r>
       <r>   -0.9852    1.0000 </r>
       <r>   -0.9627    1.0000 </r>
       <r>   -0.9223    1.0000 </r>
       <r>   -0.8865    1.0000 </r>
       <r>   -0.6673    1.0000 </r>
       <r>   -0.6169    1.0000 </r>
       <r>   -0.6027    1.0000 </r>
       <r>   -0.4998    1.0000 </r>
       <r>    2.9677    0.0000 </r>
       <r>    2.9678    0.0000 </r>
       <r>    2.9832    0.0000 </r>
       <r>    2.9917    0.0000 </r>
       <r>    3.8713    0.0000 </r>
       <r>    3.9908    0.0000 </r>
       <r>    3.9983    0.0000 </r>
       <r>    4.0846    0.0000 </r>
       <r>    4.1474    0.0000 </r>
       <r>    4.2283    0.0000 </r>
       <r>    4.2542    0.0000 </r>
       <r>    4.2609    0.0000 </r>
       <r>    4.3919    0.0000 </r>
       <r>    4.4104    0.0000 </r>
       <r>    4.4400    0.0000 </r>
       <r>    4.5171    0.0000 </r>
       <r>    4.6059    0.0000 </r>
       <r>    4.6561    0.0000 </r>
       <r>    4.7463    0.0000 </r>
       <r>    4.9630    0.0000 </r>
       <r>    5.5775    0.0000 </r>
       <r>    5.6051    0.0000 </r>
       <r>    5.6068    0.0000 </r>
       <r>    5.7161    0.0000 </r>
       <r>    5.8007    0.0000 </r>
       <r>    5.9075    0.0000 </r>
       <r>    5.9392    0.0000 </r>
       <r>    5.9549    0.0000 </r>
       <r>    6.0598    0.0000 </r>
       <r>    6.1549    0.0000 </r>
       <r>    6.2548    0.0000 </r>
       <r>    6.2621    0.0000 </r>
       <r>    6.3114    0.0000 </r>
       <r>    6.3392    0.0000 </r>
       <r>    6.3921    0.0000 </r>
       <r>    6.5209    0.0000 </r>
      </set>
      <set comment="kpoint 5">
       <r>  -21.2620    1.0000 </r>
       <r>  -21.0575    1.0000 </r>
       <r>  -21.0306    1.0000 </r>
       <r>  -20.9569    1.0000 </r>
       <r>  -20.9547    1.0000 </r>
       <r>  -20.8920    1.0000 </r>
       <r>  -20.8478    1.0000 </r>
       <r>  -16.8133    1.0000 </r>
       <r>  -16.7879    1.0000 </r>
       <r>  -16.7829    1.0000 </r>
       <r>  -16.7587    1.0000 </r>
       <r>  -16.7294    1.0000 </r>
       <r>  -16.7278    1.0000 </r>
       <r>  -16.7261    1.0000 </r>
       <r>  -16.7189    1.0000 </r>
       <r>  -16.6638    1.0000 </r>
       <r>  -16.6625    1.0000 </r>
       <r>  -16.6572    1.0000 </r>
       <r>  -16.6560    1.0000 </r>
       <r>  -16.6511    1.0000 </r>
       <r>  -16.6505    1.0000 </r>
       <r>  -16.6475    1.0000 </r>
       <r>  -16.6472    1.0000 </r>
       <r>  -16.6430    1.0000 </r>
       <r>  -16.6423    1.0000 </r>
       <r>  -16.6368    1.0000 </r>
       <r>  -16.6359    1.0000 </r>
       <r>  -16.5981    1.0000 </r>
       <r>  -16.5713    1.0000 </r>
       <r>  -16.5709    1.0000 </r>
       <r>  -16.5512    1.0000 </r>
       <r>  -16.5415    1.0000 </r>
       <r>  -16.5214    1.0000 </r>
       <r>  -16.5178    1.0000 </r>
       <r>  -16.4870    1.0000 </r>
       <r>  -16.4553    1.0000 </r>
       <r>  -16.4539    1.0000 </r>
       <r>  -16.4486    1.0000 </r>
       <r>  -16.4478    1.0000 </r>
       <r>  -16.4474    1.0000 </r>
       <r>  -16.4467    1.0000 </r>
       <r>  -16.4278    1.0000 </r>
       <r>  -16.4276    1.0000 </r>
       <r>  -16.4217    1.0000 </r>
       <r>  -16.4188    1.0000 </r>
       <r>  -16.4125    1.0000 </r>
       <r>  -16.4115    1.0000 </r>
       <r>  -14.6680    1.0000 </r>
       <r>  -14.6236    1.0000 </r>
       <r>  -14.4508    1.0000 </r>
       <r>  -14.4128    1.0000 </r>
       <r>  -14.3721    1.0000 </r>
       <r>  -14.3396    1.0000 </r>
       <r>  -14.2960    1.0000 </r>
       <r>  -14.2942    1.0000 </r>
       <r>  -14.2379    1.0000 </r>
       <r>  -14.2103    1.0000 </r>
       <r>  -14.2013    1.0000 </r>
       <r>  -14.1453    1.0000 </r>
       <r>  -14.0987    1.0000 </r>
       <r>  -14.0820    1.0000 </r>
       <r>  -14.0658    1.0000 </r>
       <r>  -14.0379    1.0000 </r>
       <r>  -14.0231    1.0000 </r>
       <r>  -14.0159    1.0000 </r>
       <r>  -13.9698    1.0000 </r>
       <r>  -13.9619    1.0000 </r>
       <r>  -13.8617    1.0000 </r>
       <r>  -13.8476    1.0000 </r>
       <r>  -13.8445    1.0000 </r>
       <r>  -13.7107    1.0000 </r>
       <r>   -8.2625    1.0000 </r>
       <r>   -8.0596    1.0000 </r>
       <r>   -7.8575    1.0000 </r>
       <r>   -7.8096    1.0000 </r>
       <r>   -7.7032    1.0000 </r>
       <r>   -7.6463    1.0000 </r>
       <r>   -7.6344    1.0000 </r>
       <r>   -7.5880    1.0000 </r>
       <r>   -7.5483    1.0000 </r>
       <r>   -7.4756    1.0000 </r>
       <r>   -7.4515    1.0000 </r>
       <r>   -7.4439    1.0000 </r>
       <r>   -7.4313    1.0000 </r>
       <r>   -7.4261    1.0000 </r>
       <r>   -7.4208    1.0000 </r>
       <r>   -7.3814    1.0000 </r>
       <r>   -7.3544    1.0000 </r>
       <r>   -7.3540    1.0000 </r>
       <r>   -7.3508    1.0000 </r>
       <r>   -7.3419    1.0000 </r>
       <r>   -7.3409    1.0000 </r>
       <r>   -7.3182    1.0000 </r>
       <r>   -7.2872    1.0000 </r>
       <r>   -7.2774    1.0000 </r>
       <r>   -7.2656    1.0000 </r>
       <r>   -7.2561    1.0000 </r>
       <r>   -7.2408    1.0000 </r>
       <r>   -7.1706    1.0000 </r>
       <r>   -6.9851    1.0000 </r>
       <r>   -3.5843    1.0000 </r>
       <r>   -3.5493    1.0000 </r>
       <r>   -3.5064    1.0000 </r>
       <r>   -3.4183    1.0000 </r>
       <r>   -3.3710    1.0000 </r>
       <r>   -3.2969    1.0000 </r>
       <r>   -3.2840    1.0000 </r>
       <r>   -3.0956    1.0000 </r>
       <r>   -2.7649    1.0000 </r>
       <r>   -2.6690    1.0000 </r>
       <r>   -2.6322    1.0000 </r>
       <r>   -2.6254    1.0000 </r>
       <r>   -2.5686    1.0000 </r>
       <r>   -2.5491    1.0000 </r>
       <r>   -2.4862    1.0000 </r>
       <r>   -2.3829    1.0000 </r>
       <r>   -2.3402    1.0000 </r>
       <r>   -2.2560    1.0000 </r>
       <r>   -2.2385    1.0000 </r>
       <r>   -2.2276    1.0000 </r>
       <r>   -2.1302    1.0000 </r>
       <r>   -2.0960    1.0000 </r>
       <r>   -2.0228    1.0000 </r>
       <r>   -2.0211    1.0000 </r>
       <r>   -1.9168    1.0000 </r>
       <r>   -1.9117    1.0000 </r>
       <r>   -1.8643    1.0000 </r>
       <r>   -1.8480    1.0000 </r>
       <r>   -1.8290    1.0000 </r>
       <r>   -1.8056    1.0000 </r>
       <r>   -1.7885    1.0000 </r>
       <r>   -1.7608    1.0000 </r>
       <r>   -1.7231    1.0000 </r>
       <r>   -1.6722    1.0000 </r>
       <r>   -1.6609    1.0000 </r>
       <r>   -1.6317    1.0000 </r>
       <r>   -1.6147    1.0000 </r>
       <r>   -1.5979    1.0000 </r>
       <r>   -1.5961    1.0000 </r>
       <r>   -1.5429    1.0000 </r>
       <r>   -1.5175    1.0000 </r>
       <r>   -1.5106    1.0000 </r>
       <r>   -1.4917    1.0000 </r>
       <r>   -1.4779    1.0000 </r>
       <r>   -1.4622    1.0000 </r>
       <r>   -1.4394    1.0000 </r>
       <r>   -1.4340    1.0000 </r>
       <r>   -1.4163    1.0000 </r>
       <r>   -1.4163    1.0000 </r>
       <r>   -1.3821    1.0000 </r>
       <r>   -1.3468    1.0000 </r>
       <r>   -1.3333    1.0000 </r>
       <r>   -1.3147    1.0000 </r>
       <r>   -1.2881    1.0000 </r>
       <r>   -1.2819    1.0000 </r>
       <r>   -1.2803    1.0000 </r>
       <r>   -1.2426    1.0000 </r>
       <r>   -1.2292    1.0000 </r>
       <r>   -1.2090    1.0000 </r>
       <r>   -1.1550    1.0000 </r>
       <r>   -1.1529    1.0000 </r>
       <r>   -1.1390    1.0000 </r>
       <r>   -1.0736    1.0000 </r>
       <r>   -1.0673    1.0000 </r>
       <r>   -0.9916    1.0000 </r>
       <r>   -0.8939    1.0000 </r>
       <r>   -0.8606    1.0000 </r>
       <r>   -0.7686    1.0000 </r>
       <r>   -0.6447    1.0000 </r>
       <r>   -0.5556    1.0000 </r>
       <r>   -0.3568    1.0000 </r>
       <r>   -0.0899    1.0000 </r>
       <r>    2.6519    0.0000 </r>
       <r>    2.6774    0.0000 </r>
       <r>    2.8936    0.0000 </r>
       <r>    2.9559    0.0000 </r>
       <r>    3.0001    0.0000 </r>
       <r>    3.0319    0.0000 </r>
       <r>    3.2064    0.0000 </r>
       <r>    3.2990    0.0000 </r>
       <r>    3.9398    0.0000 </r>
       <r>    4.1353    0.0000 </r>
       <r>    4.2503    0.0000 </r>
       <r>    4.3138    0.0000 </r>
       <r>    4.4412    0.0000 </r>
       <r>    4.5197    0.0000 </r>
       <r>    4.5462    0.0000 </r>
       <r>    4.7371    0.0000 </r>
       <r>    5.2723    0.0000 </r>
       <r>    5.2936    0.0000 </r>
       <r>    5.3322    0.0000 </r>
       <r>    5.4436    0.0000 </r>
       <r>    5.5563    0.0000 </r>
       <r>    5.6578    0.0000 </r>
       <r>    5.8155    0.0000 </r>
       <r>    5.8730    0.0000 </r>
       <r>    5.9214    0.0000 </r>
       <r>    5.9519    0.0000 </r>
       <r>    6.0023    0.0000 </r>
       <r>    6.0192    0.0000 </r>
       <r>    6.0841    0.0000 </r>
       <r>    6.2950    0.0000 </r>
       <r>    6.3339    0.0000 </r>
       <r>    6.3380    0.0000 </r>
       <r>    6.4296    0.0000 </r>
       <r>    6.4608    0.0000 </r>
       <r>    6.4697    0.0000 </r>
       <r>    6.5146    0.0000 </r>
      </set>
      <set comment="kpoint 6">
       <r>  -21.2620    1.0000 </r>
       <r>  -21.0574    1.0000 </r>
       <r>  -21.0306    1.0000 </r>
       <r>  -20.9568    1.0000 </r>
       <r>  -20.9546    1.0000 </r>
       <r>  -20.8920    1.0000 </r>
       <r>  -20.8478    1.0000 </r>
       <r>  -16.8021    1.0000 </r>
       <r>  -16.7868    1.0000 </r>
       <r>  -16.7668    1.0000 </r>
       <r>  -16.7522    1.0000 </r>
       <r>  -16.7487    1.0000 </r>
       <r>  -16.7422    1.0000 </r>
       <r>  -16.7262    1.0000 </r>
       <r>  -16.7215    1.0000 </r>
       <r>  -16.6638    1.0000 </r>
       <r>  -16.6624    1.0000 </r>
       <r>  -16.6572    1.0000 </r>
       <r>  -16.6560    1.0000 </r>
       <r>  -16.6509    1.0000 </r>
       <r>  -16.6505    1.0000 </r>
       <r>  -16.6475    1.0000 </r>
       <r>  -16.6471    1.0000 </r>
       <r>  -16.6429    1.0000 </r>
       <r>  -16.6423    1.0000 </r>
       <r>  -16.6367    1.0000 </r>
       <r>  -16.6359    1.0000 </r>
       <r>  -16.5958    1.0000 </r>
       <r>  -16.5577    1.0000 </r>
       <r>  -16.5575    1.0000 </r>
       <r>  -16.5517    1.0000 </r>
       <r>  -16.5376    1.0000 </r>
       <r>  -16.5339    1.0000 </r>
       <r>  -16.5330    1.0000 </r>
       <r>  -16.4932    1.0000 </r>
       <r>  -16.4552    1.0000 </r>
       <r>  -16.4538    1.0000 </r>
       <r>  -16.4485    1.0000 </r>
       <r>  -16.4478    1.0000 </r>
       <r>  -16.4474    1.0000 </r>
       <r>  -16.4466    1.0000 </r>
       <r>  -16.4277    1.0000 </r>
       <r>  -16.4275    1.0000 </r>
       <r>  -16.4217    1.0000 </r>
       <r>  -16.4187    1.0000 </r>
       <r>  -16.4124    1.0000 </r>
       <r>  -16.4115    1.0000 </r>
       <r>  -14.6610    1.0000 </r>
       <r>  -14.6224    1.0000 </r>
       <r>  -14.4989    1.0000 </r>
       <r>  -14.3944    1.0000 </r>
       <r>  -14.3634    1.0000 </r>
       <r>  -14.3276    1.0000 </r>
       <r>  -14.2999    1.0000 </r>
       <r>  -14.2992    1.0000 </r>
       <r>  -14.2416    1.0000 </r>
       <r>  -14.2065    1.0000 </r>
       <r>  -14.2043    1.0000 </r>
       <r>  -14.1420    1.0000 </r>
       <r>  -14.0869    1.0000 </r>
       <r>  -14.0667    1.0000 </r>
       <r>  -14.0636    1.0000 </r>
       <r>  -14.0509    1.0000 </r>
       <r>  -14.0392    1.0000 </r>
       <r>  -14.0021    1.0000 </r>
       <r>  -13.9305    1.0000 </r>
       <r>  -13.9265    1.0000 </r>
       <r>  -13.9013    1.0000 </r>
       <r>  -13.8705    1.0000 </r>
       <r>  -13.8450    1.0000 </r>
       <r>  -13.7223    1.0000 </r>
       <r>   -8.0790    1.0000 </r>
       <r>   -8.0343    1.0000 </r>
       <r>   -7.8727    1.0000 </r>
       <r>   -7.8085    1.0000 </r>
       <r>   -7.7447    1.0000 </r>
       <r>   -7.7092    1.0000 </r>
       <r>   -7.6964    1.0000 </r>
       <r>   -7.5122    1.0000 </r>
       <r>   -7.5074    1.0000 </r>
       <r>   -7.4625    1.0000 </r>
       <r>   -7.4517    1.0000 </r>
       <r>   -7.4485    1.0000 </r>
       <r>   -7.4294    1.0000 </r>
       <r>   -7.4292    1.0000 </r>
       <r>   -7.4108    1.0000 </r>
       <r>   -7.3820    1.0000 </r>
       <r>   -7.3777    1.0000 </r>
       <r>   -7.3597    1.0000 </r>
       <r>   -7.3539    1.0000 </r>
       <r>   -7.3437    1.0000 </r>
       <r>   -7.3409    1.0000 </r>
       <r>   -7.3151    1.0000 </r>
       <r>   -7.2957    1.0000 </r>
       <r>   -7.2784    1.0000 </r>
       <r>   -7.2769    1.0000 </r>
       <r>   -7.2592    1.0000 </r>
       <r>   -7.2404    1.0000 </r>
       <r>   -7.2394    1.0000 </r>
       <r>   -7.2258    1.0000 </r>
       <r>   -3.5455    1.0000 </r>
[...]
        <r>  0.0001  0.0002  0.0004 </r>
        <r>  0.0012  0.0011  0.0016 </r>
        <r>  0.0008  0.0014  0.0008 </r>
        <r>  0.0000  0.0012  0.0003 </r>
        <r>  0.0003  0.0036  0.0022 </r>
        <r>  0.0002  0.0015  0.0002 </r>
        <r>  0.0003  0.0012  0.0004 </r>
        <r>  0.0013  0.0014  0.0014 </r>
        <r>  0.0000  0.0003  0.0131 </r>
       </set>
       <set comment="band 199">
        <r>  0.0011  0.0026  0.0142 </r>
        <r>  0.0070  0.0012  0.0034 </r>
        <r>  0.0000  0.0004  0.0062 </r>
        <r>  0.0025  0.0014  0.0147 </r>
        <r>  0.0101  0.0006  0.0093 </r>
        <r>  0.0000  0.0002  0.0053 </r>
        <r>  0.0000  0.0073  0.0002 </r>
        <r>  0.0000  0.0019  0.0000 </r>
        <r>  0.0000  0.0066  0.0002 </r>
        <r>  0.0000  0.0011  0.0001 </r>
        <r>  0.0000  0.0066  0.0002 </r>
        <r>  0.0000  0.0011  0.0001 </r>
        <r>  0.0000  0.0073  0.0002 </r>
        <r>  0.0000  0.0019  0.0000 </r>
        <r>  0.0000  0.0011  0.0004 </r>
        <r>  0.0000  0.0000  0.0002 </r>
        <r>  0.0054  0.0013  0.0060 </r>
        <r>  0.0003  0.0011  0.0035 </r>
        <r>  0.0000  0.0107  0.0003 </r>
        <r>  0.0000  0.0001  0.0000 </r>
        <r>  0.0026  0.0067  0.0024 </r>
        <r>  0.0000  0.0043  0.0001 </r>
        <r>  0.0020  0.0039  0.0020 </r>
        <r>  0.0000  0.0013  0.0011 </r>
        <r>  0.0001  0.0015  0.0008 </r>
        <r>  0.0003  0.0011  0.0003 </r>
        <r>  0.0002  0.0018  0.0006 </r>
        <r>  0.0006  0.0013  0.0008 </r>
        <r>  0.0004  0.0004  0.0015 </r>
        <r>  0.0000  0.0002  0.0003 </r>
        <r>  0.0020  0.0039  0.0020 </r>
        <r>  0.0000  0.0013  0.0011 </r>
        <r>  0.0001  0.0015  0.0008 </r>
        <r>  0.0003  0.0011  0.0003 </r>
        <r>  0.0004  0.0004  0.0015 </r>
        <r>  0.0000  0.0002  0.0003 </r>
        <r>  0.0002  0.0018  0.0006 </r>
        <r>  0.0006  0.0013  0.0008 </r>
        <r>  0.0000  0.0001  0.0097 </r>
       </set>
       <set comment="band 200">
        <r>  0.0000  0.0006  0.0062 </r>
        <r>  0.0000  0.0000  0.0003 </r>
        <r>  0.0052  0.0008  0.0015 </r>
        <r>  0.0000  0.0003  0.0019 </r>
        <r>  0.0000  0.0001  0.0281 </r>
        <r>  0.0114  0.0001  0.0017 </r>
        <r>  0.0000  0.0055  0.0003 </r>
        <r>  0.0000  0.0082  0.0001 </r>
        <r>  0.0000  0.0045  0.0007 </r>
        <r>  0.0000  0.0065  0.0002 </r>
        <r>  0.0000  0.0045  0.0007 </r>
        <r>  0.0000  0.0065  0.0002 </r>
        <r>  0.0000  0.0055  0.0003 </r>
        <r>  0.0000  0.0082  0.0001 </r>
        <r>  0.0000  0.0002  0.0021 </r>
        <r>  0.0023  0.0017  0.0026 </r>
        <r>  0.0000  0.0000  0.0002 </r>
        <r>  0.0000  0.0050  0.0000 </r>
        <r>  0.0000  0.0047  0.0008 </r>
        <r>  0.0011  0.0004  0.0020 </r>
        <r>  0.0000  0.0002  0.0013 </r>
        <r>  0.0000  0.0041  0.0001 </r>
        <r>  0.0000  0.0002  0.0006 </r>
        <r>  0.0000  0.0054  0.0003 </r>
        <r>  0.0015  0.0012  0.0023 </r>
        <r>  0.0002  0.0021  0.0004 </r>
        <r>  0.0001  0.0025  0.0002 </r>
        <r>  0.0017  0.0011  0.0028 </r>
        <r>  0.0004  0.0001  0.0026 </r>
        <r>  0.0016  0.0009  0.0009 </r>
        <r>  0.0000  0.0002  0.0006 </r>
        <r>  0.0000  0.0054  0.0003 </r>
        <r>  0.0015  0.0012  0.0023 </r>
        <r>  0.0002  0.0021  0.0004 </r>
        <r>  0.0004  0.0001  0.0026 </r>
        <r>  0.0016  0.0009  0.0009 </r>
        <r>  0.0001  0.0025  0.0002 </r>
        <r>  0.0017  0.0011  0.0028 </r>
        <r>  0.0000  0.0009  0.0387 </r>
       </set>
       <set comment="band 201">
        <r>  0.0209  0.0005  0.0074 </r>
        <r>  0.0000  0.0002  0.0067 </r>
        <r>  0.0000  0.0002  0.0085 </r>
        <r>  0.0000  0.0023  0.0020 </r>
        <r>  0.0022  0.0021  0.0040 </r>
        <r>  0.0000  0.0005  0.0008 </r>
        <r>  0.0000  0.0047  0.0001 </r>
        <r>  0.0000  0.0083  0.0001 </r>
        <r>  0.0000  0.0040  0.0004 </r>
        <r>  0.0000  0.0044  0.0001 </r>
        <r>  0.0000  0.0040  0.0004 </r>
        <r>  0.0000  0.0045  0.0001 </r>
        <r>  0.0000  0.0048  0.0001 </r>
        <r>  0.0000  0.0083  0.0001 </r>
        <r>  0.0000  0.0017  0.0003 </r>
        <r>  0.0000  0.0017  0.0002 </r>
        <r>  0.0004  0.0003  0.0012 </r>
        <r>  0.0034  0.0054  0.0032 </r>
        <r>  0.0000  0.0000  0.0001 </r>
        <r>  0.0000  0.0051  0.0001 </r>
        <r>  0.0038  0.0034  0.0013 </r>
        <r>  0.0009  0.0012  0.0018 </r>
        <r>  0.0010  0.0024  0.0020 </r>
        <r>  0.0003  0.0023  0.0005 </r>
        <r>  0.0016  0.0006  0.0024 </r>
        <r>  0.0000  0.0025  0.0001 </r>
        <r>  0.0000  0.0034  0.0002 </r>
        <r>  0.0009  0.0019  0.0023 </r>
        <r>  0.0000  0.0046  0.0008 </r>
        <r>  0.0010  0.0006  0.0005 </r>
        <r>  0.0010  0.0024  0.0020 </r>
        <r>  0.0003  0.0024  0.0005 </r>
        <r>  0.0016  0.0006  0.0025 </r>
        <r>  0.0000  0.0025  0.0001 </r>
        <r>  0.0000  0.0046  0.0008 </r>
        <r>  0.0010  0.0007  0.0005 </r>
        <r>  0.0000  0.0034  0.0002 </r>
        <r>  0.0009  0.0019  0.0023 </r>
        <r>  0.0000  0.0001  0.0240 </r>
       </set>
       <set comment="band 202">
        <r>  0.0000  0.0001  0.0010 </r>
        <r>  0.0000  0.0001  0.0016 </r>
        <r>  0.0001  0.0002  0.0045 </r>
        <r>  0.0000  0.0001  0.0059 </r>
        <r>  0.0000  0.0013  0.0081 </r>
        <r>  0.0087  0.0002  0.0249 </r>
        <r>  0.0000  0.0026  0.0001 </r>
        <r>  0.0000  0.0018  0.0001 </r>
        <r>  0.0000  0.0023  0.0002 </r>
        <r>  0.0001  0.0037  0.0001 </r>
        <r>  0.0000  0.0023  0.0002 </r>
        <r>  0.0001  0.0037  0.0001 </r>
        <r>  0.0000  0.0026  0.0001 </r>
        <r>  0.0000  0.0018  0.0001 </r>
        <r>  0.0002  0.0079  0.0009 </r>
        <r>  0.0001  0.0010  0.0029 </r>
        <r>  0.0000  0.0033  0.0001 </r>
        <r>  0.0000  0.0000  0.0001 </r>
        <r>  0.0009  0.0010  0.0042 </r>
        <r>  0.0000  0.0028  0.0008 </r>
        <r>  0.0000  0.0000  0.0002 </r>
        <r>  0.0000  0.0011  0.0000 </r>
        <r>  0.0006  0.0005  0.0006 </r>
        <r>  0.0000  0.0008  0.0005 </r>
        <r>  0.0005  0.0014  0.0007 </r>
        <r>  0.0004  0.0021  0.0004 </r>
        <r>  0.0000  0.0008  0.0002 </r>
        <r>  0.0000  0.0022  0.0009 </r>
        <r>  0.0010  0.0033  0.0045 </r>
        <r>  0.0010  0.0016  0.0011 </r>
        <r>  0.0006  0.0005  0.0006 </r>
        <r>  0.0000  0.0008  0.0005 </r>
        <r>  0.0005  0.0014  0.0007 </r>
        <r>  0.0004  0.0021  0.0004 </r>
        <r>  0.0010  0.0033  0.0045 </r>
        <r>  0.0010  0.0016  0.0012 </r>
        <r>  0.0000  0.0008  0.0002 </r>
        <r>  0.0000  0.0022  0.0009 </r>
        <r>  0.0014  0.0001  0.0550 </r>
       </set>
       <set comment="band 203">
        <r>  0.0000  0.0031  0.0064 </r>
        <r>  0.0002  0.0014  0.0024 </r>
        <r>  0.0000  0.0007  0.0012 </r>
        <r>  0.0156  0.0017  0.0044 </r>
        <r>  0.0075  0.0002  0.0206 </r>
        <r>  0.0000  0.0004  0.0111 </r>
        <r>  0.0000  0.0068  0.0002 </r>
        <r>  0.0001  0.0054  0.0001 </r>
        <r>  0.0000  0.0060  0.0001 </r>
        <r>  0.0000  0.0097  0.0001 </r>
        <r>  0.0000  0.0058  0.0001 </r>
        <r>  0.0000  0.0101  0.0001 </r>
        <r>  0.0000  0.0065  0.0002 </r>
        <r>  0.0001  0.0053  0.0001 </r>
        <r>  0.0000  0.0054  0.0001 </r>
        <r>  0.0000  0.0074  0.0001 </r>
        <r>  0.0001  0.0055  0.0014 </r>
        <r>  0.0006  0.0024  0.0001 </r>
        <r>  0.0000  0.0002  0.0002 </r>
        <r>  0.0000  0.0002  0.0001 </r>
        <r>  0.0031  0.0013  0.0044 </r>
        <r>  0.0027  0.0020  0.0039 </r>
        <r>  0.0021  0.0025  0.0019 </r>
        <r>  0.0000  0.0019  0.0002 </r>
        <r>  0.0001  0.0017  0.0004 </r>
        <r>  0.0003  0.0036  0.0003 </r>
        <r>  0.0006  0.0018  0.0008 </r>
        <r>  0.0013  0.0019  0.0026 </r>
        <r>  0.0005  0.0011  0.0009 </r>
        <r>  0.0006  0.0022  0.0007 </r>
        <r>  0.0022  0.0025  0.0019 </r>
        <r>  0.0000  0.0020  0.0003 </r>
        <r>  0.0001  0.0016  0.0004 </r>
        <r>  0.0003  0.0035  0.0003 </r>
        <r>  0.0005  0.0010  0.0009 </r>
        <r>  0.0006  0.0019  0.0007 </r>
        <r>  0.0006  0.0018  0.0009 </r>
        <r>  0.0013  0.0019  0.0027 </r>
        <r>  0.0000  0.0002  0.0073 </r>
       </set>
       <set comment="band 204">
        <r>  0.0000  0.0000  0.0075 </r>
        <r>  0.0000  0.0000  0.0005 </r>
        <r>  0.0044  0.0006  0.0091 </r>
        <r>  0.0000  0.0001  0.0056 </r>
        <r>  0.0000  0.0002  0.0036 </r>
        <r>  0.0030  0.0009  0.0301 </r>
        <r>  0.0000  0.0031  0.0001 </r>
        <r>  0.0001  0.0017  0.0001 </r>
        <r>  0.0000  0.0085  0.0003 </r>
        <r>  0.0000  0.0005  0.0002 </r>
        <r>  0.0000  0.0086  0.0003 </r>
        <r>  0.0000  0.0006  0.0001 </r>
        <r>  0.0000  0.0033  0.0001 </r>
        <r>  0.0001  0.0017  0.0001 </r>
        <r>  0.0032  0.0011  0.0080 </r>
        <r>  0.0003  0.0011  0.0012 </r>
        <r>  0.0000  0.0013  0.0000 </r>
        <r>  0.0000  0.0022  0.0004 </r>
        <r>  0.0009  0.0065  0.0034 </r>
        <r>  0.0002  0.0004  0.0012 </r>
        <r>  0.0000  0.0067  0.0001 </r>
        <r>  0.0000  0.0000  0.0004 </r>
        <r>  0.0019  0.0017  0.0009 </r>
        <r>  0.0000  0.0002  0.0001 </r>
        <r>  0.0001  0.0040  0.0019 </r>
        <r>  0.0000  0.0004  0.0005 </r>
        <r>  0.0001  0.0002  0.0003 </r>
        <r>  0.0001  0.0005  0.0004 </r>
        <r>  0.0002  0.0031  0.0023 </r>
        <r>  0.0000  0.0004  0.0009 </r>
        <r>  0.0019  0.0016  0.0009 </r>
        <r>  0.0000  0.0002  0.0001 </r>
        <r>  0.0001  0.0038  0.0018 </r>
        <r>  0.0000  0.0004  0.0005 </r>
        <r>  0.0002  0.0031  0.0023 </r>
        <r>  0.0000  0.0004  0.0009 </r>
        <r>  0.0001  0.0002  0.0003 </r>
        <r>  0.0001  0.0005  0.0004 </r>
        <r>  0.0000  0.0006  0.0439 </r>
       </set>
       <set comment="band 205">
        <r>  0.0000  0.0007  0.0068 </r>
        <r>  0.0000  0.0003  0.0073 </r>
        <r>  0.0184  0.0004  0.0185 </r>
        <r>  0.0000  0.0008  0.0031 </r>
        <r>  0.0000  0.0000  0.0141 </r>
        <r>  0.0015  0.0012  0.0233 </r>
        <r>  0.0000  0.0025  0.0004 </r>
        <r>  0.0000  0.0025  0.0001 </r>
        <r>  0.0000  0.0025  0.0004 </r>
        <r>  0.0000  0.0031  0.0003 </r>
        <r>  0.0000  0.0029  0.0004 </r>
        <r>  0.0000  0.0036  0.0003 </r>
        <r>  0.0000  0.0025  0.0003 </r>
        <r>  0.0000  0.0025  0.0001 </r>
        <r>  0.0011  0.0026  0.0022 </r>
        <r>  0.0000  0.0030  0.0009 </r>
        <r>  0.0000  0.0026  0.0003 </r>
        <r>  0.0000  0.0008  0.0001 </r>
        <r>  0.0022  0.0001  0.0041 </r>
        <r>  0.0005  0.0074  0.0015 </r>
        <r>  0.0000  0.0040  0.0008 </r>
        <r>  0.0000  0.0003  0.0003 </r>
        <r>  0.0008  0.0015  0.0017 </r>
        <r>  0.0001  0.0003  0.0005 </r>
        <r>  0.0008  0.0012  0.0014 </r>
        <r>  0.0015  0.0013  0.0017 </r>
        <r>  0.0005  0.0008  0.0009 </r>
        <r>  0.0003  0.0032  0.0005 </r>
        <r>  0.0000  0.0019  0.0008 </r>
        <r>  0.0023  0.0023  0.0018 </r>
        <r>  0.0007  0.0014  0.0017 </r>
        <r>  0.0001  0.0003  0.0005 </r>
        <r>  0.0007  0.0012  0.0014 </r>
        <r>  0.0015  0.0013  0.0017 </r>
        <r>  0.0000  0.0021  0.0007 </r>
        <r>  0.0025  0.0023  0.0019 </r>
        <r>  0.0005  0.0008  0.0009 </r>
        <r>  0.0003  0.0034  0.0005 </r>
        <r>  0.0000  0.0012  0.0003 </r>
       </set>
       <set comment="band 206">
        <r>  0.0001  0.0000  0.0166 </r>
        <r>  0.0014  0.0001  0.0049 </r>
        <r>  0.0000  0.0001  0.0060 </r>
        <r>  0.0027  0.0004  0.0164 </r>
        <r>  0.0019  0.0003  0.0055 </r>
        <r>  0.0000  0.0003  0.0533 </r>
        <r>  0.0000  0.0052  0.0006 </r>
        <r>  0.0000  0.0015  0.0010 </r>
        <r>  0.0000  0.0053  0.0001 </r>
        <r>  0.0000  0.0122  0.0006 </r>
        <r>  0.0000  0.0037  0.0002 </r>
        <r>  0.0000  0.0092  0.0007 </r>
        <r>  0.0000  0.0064  0.0005 </r>
        <r>  0.0000  0.0020  0.0008 </r>
        <r>  0.0000  0.0001  0.0003 </r>
        <r>  0.0000  0.0001  0.0002 </r>
        <r>  0.0001  0.0004  0.0005 </r>
        <r>  0.0003  0.0001  0.0005 </r>
        <r>  0.0000  0.0013  0.0017 </r>
        <r>  0.0000  0.0004  0.0005 </r>
        <r>  0.0001  0.0001  0.0013 </r>
        <r>  0.0000  0.0005  0.0001 </r>
        <r>  0.0005  0.0008  0.0034 </r>
        <r>  0.0001  0.0008  0.0011 </r>
        <r>  0.0004  0.0044  0.0018 </r>
        <r>  0.0000  0.0010  0.0008 </r>
        <r>  0.0004  0.0003  0.0008 </r>
        <r>  0.0007  0.0006  0.0024 </r>
        <r>  0.0002  0.0038  0.0005 </r>
        <r>  0.0009  0.0025  0.0038 </r>
        <r>  0.0006  0.0008  0.0034 </r>
        <r>  0.0004  0.0008  0.0017 </r>
        <r>  0.0005  0.0054  0.0017 </r>
        <r>  0.0000  0.0012  0.0006 </r>
        <r>  0.0001  0.0039  0.0005 </r>
        <r>  0.0009  0.0013  0.0036 </r>
        <r>  0.0003  0.0003  0.0006 </r>
        <r>  0.0007  0.0007  0.0027 </r>
        <r>  0.0000  0.0003  0.0119 </r>
       </set>
       <set comment="band 207">
        <r>  0.0007  0.0002  0.0180 </r>
        <r>  0.0002  0.0005  0.0184 </r>
        <r>  0.0000  0.0004  0.0061 </r>
        <r>  0.0001  0.0002  0.0154 </r>
        <r>  0.0001  0.0007  0.0077 </r>
        <r>  0.0000  0.0001  0.0114 </r>
        <r>  0.0000  0.0010  0.0006 </r>
        <r>  0.0000  0.0055  0.0005 </r>
        <r>  0.0000  0.0013  0.0007 </r>
        <r>  0.0000  0.0058  0.0006 </r>
        <r>  0.0000  0.0024  0.0002 </r>
        <r>  0.0000  0.0037  0.0001 </r>
        <r>  0.0000  0.0042  0.0002 </r>
        <r>  0.0000  0.0090  0.0003 </r>
        <r>  0.0005  0.0007  0.0013 </r>
        <r>  0.0009  0.0020  0.0015 </r>
        <r>  0.0010  0.0014  0.0020 </r>
        <r>  0.0004  0.0021  0.0017 </r>
        <r>  0.0002  0.0005  0.0007 </r>
        <r>  0.0009  0.0018  0.0015 </r>
        <r>  0.0000  0.0011  0.0020 </r>
        <r>  0.0003  0.0040  0.0010 </r>
        <r>  0.0000  0.0005  0.0003 </r>
        <r>  0.0006  0.0010  0.0009 </r>
        <r>  0.0003  0.0017  0.0015 </r>
        <r>  0.0008  0.0022  0.0010 </r>
        <r>  0.0000  0.0009  0.0014 </r>
        <r>  0.0001  0.0043  0.0012 </r>
        <r>  0.0003  0.0013  0.0011 </r>
        <r>  0.0000  0.0027  0.0013 </r>
        <r>  0.0003  0.0014  0.0020 </r>
        <r>  0.0010  0.0018  0.0020 </r>
        <r>  0.0000  0.0010  0.0007 </r>
        <r>  0.0005  0.0003  0.0014 </r>
        <r>  0.0000  0.0016  0.0008 </r>
        <r>  0.0001  0.0030  0.0002 </r>
        <r>  0.0007  0.0004  0.0013 </r>
        <r>  0.0001  0.0020  0.0011 </r>
        <r>  0.0009  0.0032  0.0145 </r>
       </set>
       <set comment="band 208">
        <r>  0.0005  0.0003  0.0269 </r>
        <r>  0.0027  0.0010  0.0150 </r>
        <r>  0.0000  0.0001  0.0083 </r>
        <r>  0.0012  0.0005  0.0144 </r>
        <r>  0.0002  0.0009  0.0165 </r>
        <r>  0.0000  0.0000  0.0054 </r>
        <r>  0.0000  0.0038  0.0003 </r>
        <r>  0.0000  0.0036  0.0003 </r>
        <r>  0.0001  0.0043  0.0008 </r>
        <r>  0.0000  0.0075  0.0009 </r>
        <r>  0.0001  0.0036  0.0009 </r>
        <r>  0.0000  0.0075  0.0009 </r>
        <r>  0.0000  0.0025  0.0004 </r>
        <r>  0.0000  0.0016  0.0003 </r>
        <r>  0.0000  0.0017  0.0007 </r>
        <r>  0.0000  0.0015  0.0013 </r>
        <r>  0.0031  0.0011  0.0034 </r>
        <r>  0.0003  0.0017  0.0018 </r>
        <r>  0.0000  0.0008  0.0011 </r>
        <r>  0.0002  0.0007  0.0004 </r>
        <r>  0.0003  0.0008  0.0020 </r>
        <r>  0.0025  0.0013  0.0053 </r>
        <r>  0.0003  0.0023  0.0012 </r>
        <r>  0.0000  0.0013  0.0009 </r>
        <r>  0.0000  0.0013  0.0009 </r>
        <r>  0.0001  0.0003  0.0007 </r>
        <r>  0.0002  0.0008  0.0014 </r>
        <r>  0.0001  0.0044  0.0018 </r>
        <r>  0.0002  0.0026  0.0018 </r>
        <r>  0.0001  0.0006  0.0005 </r>
        <r>  0.0001  0.0021  0.0006 </r>
        <r>  0.0000  0.0012  0.0009 </r>
        <r>  0.0001  0.0015  0.0009 </r>
        <r>  0.0002  0.0007  0.0008 </r>
        <r>  0.0001  0.0022  0.0016 </r>
        <r>  0.0001  0.0006  0.0010 </r>
        <r>  0.0000  0.0006  0.0010 </r>
        <r>  0.0001  0.0042  0.0018 </r>
        <r>  0.0000  0.0003  0.0266 </r>
       </set>
      </set>
     </set>
    </set>
   </array>
  </projected>
 </calculation>
 <structure name="finalpos" >
  <crystal>
   <varray name="basis" >
    <v>       8.42001800       0.00000000       8.07798100 </v>
    <v>       0.00000000      11.76380800       0.00000000 </v>
    <v>      -8.42001800       0.00000000       8.07798100 </v>
   </varray>
   <i name="volume">   1600.27186790 </i>
   <varray name="rec_basis" >
    <v>       0.05938230      -0.00000000       0.06189665 </v>
    <v>       0.00000000       0.08500649      -0.00000000 </v>
    <v>      -0.05938230       0.00000000       0.06189665 </v>
   </varray>
  </crystal>
  <varray name="positions" >
   <v>       0.26999700       0.25000100       0.19801500 </v>
   <v>       0.77380700       0.25000100       0.71743200 </v>
   <v>       0.20909100       0.75000000       0.76417000 </v>
   <v>       0.29360700       0.24999900       0.73815900 </v>
   <v>       0.79074300       0.24999900       0.22360300 </v>
   <v>       0.24424900       0.75000100       0.27714000 </v>
   <v>       0.99638500       0.99572600       0.99713300 </v>
   <v>       0.49889600       0.00315400       0.49861000 </v>
   <v>       0.50548500       0.99601100       0.99866300 </v>
   <v>       0.00327200       0.00234600       0.50028000 </v>
   <v>       0.50548600       0.50399200       0.99866500 </v>
   <v>       0.00326900       0.49765200       0.50028700 </v>
   <v>       0.99638800       0.50426900       0.99712800 </v>
   <v>       0.49889800       0.49685100       0.49860600 </v>
   <v>       0.45572100       0.75000200       0.97018500 </v>
   <v>       0.00445800       0.74999700       0.46499000 </v>
   <v>       0.97150300       0.24999800       0.96944900 </v>
   <v>       0.44949500       0.25000100       0.46718200 </v>
   <v>       0.04733500       0.75000000       0.02927100 </v>
   <v>       0.49754800       0.75000200       0.52486300 </v>
   <v>       0.52965000       0.25000100       0.03009400 </v>
   <v>       0.03160900       0.24999900       0.54659800 </v>
   <v>       0.24792600       0.46908300       0.95117500 </v>
   <v>       0.74774500       0.45029000       0.45697200 </v>
   <v>       0.44465500       0.51940400       0.24651000 </v>
   <v>       0.94663600       0.53868800       0.74497300 </v>
   <v>       0.54558900       0.04362500       0.74956700 </v>
   <v>       0.05187400       0.03696200       0.25037700 </v>
   <v>       0.75311400       0.97168600       0.06269900 </v>
   <v>       0.25112400       0.98017300       0.55885000 </v>
   <v>       0.24792700       0.03092000       0.95117400 </v>
   <v>       0.74774600       0.04971100       0.45697100 </v>
   <v>       0.44465400       0.98059600       0.24651000 </v>
   <v>       0.94663600       0.96131000       0.74497200 </v>
   <v>       0.75311600       0.52831500       0.06270000 </v>
   <v>       0.25112600       0.51982600       0.55884800 </v>
   <v>       0.54558900       0.45637600       0.74956800 </v>
   <v>       0.05187100       0.46303500       0.25037600 </v>
   <v>       0.72737600       0.74999900       0.20609900 </v>
  </varray>
 </structure>
</modeling>
