  66  66   1   0
  0.4305933E+02  0.1375201E-08  0.1375201E-08  0.1735196E-08  0.5000000E-15
   1.0000000000000000E-004
  CAR 
 CsPbBr3 cubic bulk                      
      7.83857764    -22.60889825  301     -0.55985113      1.00000000
    -22.609  0.0000E+00  0.0000E+00
    -22.507  0.0000E+00  0.0000E+00
    -22.406  0.0000E+00  0.0000E+00
    -22.304  0.0000E+00  0.0000E+00
    -22.203  0.0000E+00  0.0000E+00
    -22.101  0.0000E+00  0.0000E+00
    -22.000  0.0000E+00  0.0000E+00
    -21.898  0.0000E+00  0.0000E+00
    -21.797  0.0000E+00  0.0000E+00
    -21.695  0.0000E+00  0.0000E+00
    -21.594  0.0000E+00  0.0000E+00
    -21.492  0.0000E+00  0.0000E+00
    -21.391  0.0000E+00  0.0000E+00
    -21.290  0.0000E+00  0.0000E+00
    -21.188  0.1182E+03  0.1200E+02
    -21.087  0.3547E+03  0.4800E+02
    -20.985  0.0000E+00  0.4800E+02
    -20.884  0.0000E+00  0.4800E+02
    -20.782  0.0000E+00  0.4800E+02
    -20.681  0.0000E+00  0.4800E+02
    -20.579  0.0000E+00  0.4800E+02
    -20.478  0.0000E+00  0.4800E+02
    -20.376  0.0000E+00  0.4800E+02
    -20.275  0.0000E+00  0.4800E+02
    -20.173  0.0000E+00  0.4800E+02
    -20.072  0.0000E+00  0.4800E+02
    -19.970  0.0000E+00  0.4800E+02
    -19.869  0.0000E+00  0.4800E+02
    -19.767  0.0000E+00  0.4800E+02
    -19.666  0.0000E+00  0.4800E+02
    -19.564  0.0000E+00  0.4800E+02
    -19.463  0.0000E+00  0.4800E+02
    -19.361  0.0000E+00  0.4800E+02
    -19.260  0.0000E+00  0.4800E+02
    -19.158  0.0000E+00  0.4800E+02
    -19.057  0.0000E+00  0.4800E+02
    -18.955  0.0000E+00  0.4800E+02
    -18.854  0.0000E+00  0.4800E+02
    -18.752  0.0000E+00  0.4800E+02
    -18.651  0.0000E+00  0.4800E+02
    -18.549  0.0000E+00  0.4800E+02
    -18.448  0.0000E+00  0.4800E+02
    -18.346  0.0000E+00  0.4800E+02
    -18.245  0.0000E+00  0.4800E+02
    -18.143  0.0000E+00  0.4800E+02
    -18.042  0.0000E+00  0.4800E+02
    -17.940  0.0000E+00  0.4800E+02
    -17.839  0.0000E+00  0.4800E+02
    -17.737  0.0000E+00  0.4800E+02
    -17.636  0.0000E+00  0.4800E+02
    -17.534  0.0000E+00  0.4800E+02
    -17.433  0.0000E+00  0.4800E+02
    -17.331  0.0000E+00  0.4800E+02
    -17.230  0.0000E+00  0.4800E+02
    -17.128  0.0000E+00  0.4800E+02
    -17.027  0.0000E+00  0.4800E+02
    -16.925  0.0000E+00  0.4800E+02
    -16.824  0.0000E+00  0.4800E+02
    -16.722  0.0000E+00  0.4800E+02
    -16.621  0.8259E-09  0.4800E+02
    -16.519  0.2365E+03  0.7200E+02
    -16.418  0.3547E+03  0.1080E+03
    -16.316  0.0000E+00  0.1080E+03
    -16.215  0.0000E+00  0.1080E+03
    -16.113  0.0000E+00  0.1080E+03
    -16.012  0.0000E+00  0.1080E+03
    -15.910  0.0000E+00  0.1080E+03
    -15.809  0.0000E+00  0.1080E+03
    -15.707  0.0000E+00  0.1080E+03
    -15.606  0.0000E+00  0.1080E+03
    -15.504  0.0000E+00  0.1080E+03
    -15.403  0.0000E+00  0.1080E+03
    -15.302  0.0000E+00  0.1080E+03
    -15.200  0.0000E+00  0.1080E+03
    -15.099  0.0000E+00  0.1080E+03
    -14.997  0.0000E+00  0.1080E+03
    -14.896  0.0000E+00  0.1080E+03
    -14.794  0.0000E+00  0.1080E+03
    -14.693  0.0000E+00  0.1080E+03
    -14.591  0.0000E+00  0.1080E+03
    -14.490  0.0000E+00  0.1080E+03
    -14.388  0.0000E+00  0.1080E+03
    -14.287  0.4618E+00  0.1080E+03
    -14.185  0.6787E+02  0.1200E+03
    -14.084  0.2258E+03  0.1429E+03
    -13.982  0.6688E+02  0.1597E+03
    -13.881  0.1343E+03  0.1800E+03
    -13.779  0.0000E+00  0.1800E+03
    -13.678  0.0000E+00  0.1800E+03
    -13.576  0.0000E+00  0.1800E+03
    -13.475  0.0000E+00  0.1800E+03
    -13.373  0.0000E+00  0.1800E+03
    -13.272  0.0000E+00  0.1800E+03
    -13.170  0.0000E+00  0.1800E+03
    -13.069  0.0000E+00  0.1800E+03
    -12.967  0.0000E+00  0.1800E+03
    -12.866  0.0000E+00  0.1800E+03
    -12.764  0.0000E+00  0.1800E+03
    -12.663  0.0000E+00  0.1800E+03
    -12.561  0.0000E+00  0.1800E+03
    -12.460  0.0000E+00  0.1800E+03
    -12.358  0.0000E+00  0.1800E+03
    -12.257  0.0000E+00  0.1800E+03
    -12.155  0.0000E+00  0.1800E+03
    -12.054  0.0000E+00  0.1800E+03
    -11.952  0.0000E+00  0.1800E+03
    -11.851  0.0000E+00  0.1800E+03
    -11.749  0.0000E+00  0.1800E+03
    -11.648  0.0000E+00  0.1800E+03
    -11.546  0.0000E+00  0.1800E+03
    -11.445  0.0000E+00  0.1800E+03
    -11.343  0.0000E+00  0.1800E+03
    -11.242  0.0000E+00  0.1800E+03
    -11.140  0.0000E+00  0.1800E+03
    -11.039  0.0000E+00  0.1800E+03
    -10.937  0.0000E+00  0.1800E+03
    -10.836  0.0000E+00  0.1800E+03
    -10.734  0.0000E+00  0.1800E+03
    -10.633  0.0000E+00  0.1800E+03
    -10.531  0.0000E+00  0.1800E+03
    -10.430  0.0000E+00  0.1800E+03
    -10.328  0.0000E+00  0.1800E+03
    -10.227  0.0000E+00  0.1800E+03
    -10.125  0.0000E+00  0.1800E+03
    -10.024  0.0000E+00  0.1800E+03
     -9.922  0.0000E+00  0.1800E+03
     -9.821  0.0000E+00  0.1800E+03
     -9.719  0.0000E+00  0.1800E+03
     -9.618  0.0000E+00  0.1800E+03
     -9.516  0.0000E+00  0.1800E+03
     -9.415  0.0000E+00  0.1800E+03
     -9.314  0.0000E+00  0.1800E+03
     -9.212  0.0000E+00  0.1800E+03
     -9.111  0.0000E+00  0.1800E+03
     -9.009  0.0000E+00  0.1800E+03
     -8.908  0.0000E+00  0.1800E+03
     -8.806  0.0000E+00  0.1800E+03
     -8.705  0.0000E+00  0.1800E+03
     -8.603  0.0000E+00  0.1800E+03
     -8.502  0.0000E+00  0.1800E+03
     -8.400  0.0000E+00  0.1800E+03
     -8.299  0.0000E+00  0.1800E+03
     -8.197  0.0000E+00  0.1800E+03
     -8.096  0.0000E+00  0.1800E+03
     -7.994  0.0000E+00  0.1800E+03
     -7.893  0.0000E+00  0.1800E+03
     -7.791  0.5647E+01  0.1806E+03
     -7.690  0.2561E+03  0.2118E+03
     -7.588  0.2406E+03  0.2411E+03
     -7.487  0.6483E+03  0.3188E+03
     -7.385  0.1082E+03  0.3350E+03
     -7.284  0.7298E+00  0.3360E+03
     -7.182  0.0000E+00  0.3360E+03
     -7.081  0.0000E+00  0.3360E+03
     -6.979  0.0000E+00  0.3360E+03
     -6.878  0.0000E+00  0.3360E+03
     -6.776  0.0000E+00  0.3360E+03
     -6.675  0.0000E+00  0.3360E+03
     -6.573  0.0000E+00  0.3360E+03
     -6.472  0.0000E+00  0.3360E+03
     -6.370  0.0000E+00  0.3360E+03
     -6.269  0.0000E+00  0.3360E+03
     -6.167  0.0000E+00  0.3360E+03
     -6.066  0.0000E+00  0.3360E+03
     -5.964  0.0000E+00  0.3360E+03
     -5.863  0.0000E+00  0.3360E+03
     -5.761  0.0000E+00  0.3360E+03
     -5.660  0.0000E+00  0.3360E+03
     -5.558  0.0000E+00  0.3360E+03
     -5.457  0.0000E+00  0.3360E+03
     -5.355  0.0000E+00  0.3360E+03
     -5.254  0.0000E+00  0.3360E+03
     -5.152  0.0000E+00  0.3360E+03
     -5.051  0.0000E+00  0.3360E+03
     -4.949  0.0000E+00  0.3360E+03
     -4.848  0.0000E+00  0.3360E+03
     -4.746  0.0000E+00  0.3360E+03
     -4.645  0.0000E+00  0.3360E+03
     -4.543  0.0000E+00  0.3360E+03
     -4.442  0.0000E+00  0.3360E+03
     -4.340  0.0000E+00  0.3360E+03
     -4.239  0.0000E+00  0.3360E+03
     -4.137  0.0000E+00  0.3360E+03
     -4.036  0.0000E+00  0.3360E+03
     -3.934  0.0000E+00  0.3360E+03
     -3.833  0.0000E+00  0.3360E+03
     -3.731  0.0000E+00  0.3360E+03
     -3.630  0.0000E+00  0.3360E+03
     -3.528  0.0000E+00  0.3360E+03
     -3.427  0.0000E+00  0.3360E+03
     -3.325  0.0000E+00  0.3360E+03
     -3.224  0.0000E+00  0.3360E+03
     -3.123  0.0000E+00  0.3360E+03
     -3.021  0.0000E+00  0.3360E+03
     -2.920  0.1839E+00  0.3360E+03
     -2.818  0.1826E+02  0.3379E+03
     -2.717  0.1562E+03  0.3561E+03
     -2.615  0.8891E+02  0.3698E+03
     -2.514  0.1022E+02  0.3719E+03
     -2.412  0.7299E+00  0.3720E+03
     -2.311  0.0000E+00  0.3720E+03
     -2.209  0.1051E-03  0.3720E+03
     -2.108  0.2408E+02  0.3744E+03
     -2.006  0.1121E+03  0.3892E+03
     -1.905  0.7981E+02  0.3991E+03
     -1.803  0.1223E+03  0.4149E+03
     -1.702  0.1751E+03  0.4370E+03
     -1.600  0.2031E+03  0.4617E+03
     -1.499  0.2349E+03  0.4919E+03
     -1.397  0.8208E+02  0.5051E+03
     -1.296  0.1635E+03  0.5244E+03
     -1.194  0.1219E+03  0.5400E+03
     -1.093  0.0000E+00  0.5400E+03
     -0.991  0.1045E-10  0.5400E+03
     -0.890  0.1616E+01  0.5402E+03
     -0.788  0.5967E+01  0.5408E+03
     -0.687  0.1749E+02  0.5435E+03
     -0.585  0.6057E+02  0.5520E+03
     -0.484  0.0000E+00  0.5520E+03
     -0.382  0.0000E+00  0.5520E+03
     -0.281  0.0000E+00  0.5520E+03
     -0.179  0.0000E+00  0.5520E+03
     -0.078  0.0000E+00  0.5520E+03
      0.024  0.0000E+00  0.5520E+03
      0.125  0.0000E+00  0.5520E+03
      0.227  0.0000E+00  0.5520E+03
      0.328  0.0000E+00  0.5520E+03
      0.430  0.0000E+00  0.5520E+03
      0.531  0.0000E+00  0.5520E+03
      0.633  0.0000E+00  0.5520E+03
      0.734  0.0000E+00  0.5520E+03
      0.836  0.0000E+00  0.5520E+03
      0.937  0.0000E+00  0.5520E+03
      1.039  0.0000E+00  0.5520E+03
      1.140  0.0000E+00  0.5520E+03
      1.242  0.0000E+00  0.5520E+03
      1.343  0.0000E+00  0.5520E+03
      1.445  0.0000E+00  0.5520E+03
      1.546  0.0000E+00  0.5520E+03
      1.648  0.0000E+00  0.5520E+03
      1.749  0.0000E+00  0.5520E+03
      1.851  0.0000E+00  0.5520E+03
      1.952  0.0000E+00  0.5520E+03
      2.054  0.0000E+00  0.5520E+03
      2.155  0.0000E+00  0.5520E+03
      2.257  0.0000E+00  0.5520E+03
      2.358  0.0000E+00  0.5520E+03
      2.460  0.0000E+00  0.5520E+03
      2.561  0.0000E+00  0.5520E+03
      2.663  0.0000E+00  0.5520E+03
      2.764  0.0000E+00  0.5520E+03
      2.865  0.0000E+00  0.5520E+03
      2.967  0.0000E+00  0.5520E+03
      3.068  0.0000E+00  0.5520E+03
      3.170  0.0000E+00  0.5520E+03
      3.271  0.0000E+00  0.5520E+03
      3.373  0.0000E+00  0.5520E+03
      3.474  0.0000E+00  0.5520E+03
      3.576  0.8429E-01  0.5520E+03
      3.677  0.4847E+01  0.5526E+03
      3.779  0.6779E+02  0.5595E+03
      3.880  0.7002E+02  0.5697E+03
      3.982  0.7061E+02  0.5791E+03
      4.083  0.4439E+02  0.5871E+03
      4.185  0.2919E+01  0.5881E+03
      4.286  0.0000E+00  0.5881E+03
      4.388  0.1307E+01  0.5882E+03
      4.489  0.6777E+00  0.5883E+03
      4.591  0.8743E+01  0.5896E+03
      4.692  0.1786E+01  0.5897E+03
      4.794  0.9216E+01  0.5911E+03
      4.895  0.1631E+02  0.5936E+03
      4.997  0.4088E+02  0.5983E+03
      5.098  0.3764E+02  0.6026E+03
      5.200  0.5713E+02  0.6105E+03
      5.301  0.1789E+02  0.6125E+03
      5.403  0.1542E+02  0.6143E+03
      5.504  0.4492E+02  0.6195E+03
      5.606  0.2315E+02  0.6221E+03
      5.707  0.2834E+02  0.6255E+03
      5.809  0.2687E+02  0.6291E+03
      5.910  0.4927E+02  0.6358E+03
      6.012  0.6035E+02  0.6424E+03
      6.113  0.6969E+02  0.6508E+03
      6.215  0.6857E+02  0.6584E+03
      6.316  0.5102E+02  0.6658E+03
      6.418  0.3584E+02  0.6700E+03
      6.519  0.4379E+01  0.6720E+03
      6.621  0.0000E+00  0.6720E+03
      6.722  0.0000E+00  0.6720E+03
      6.824  0.0000E+00  0.6720E+03
      6.925  0.0000E+00  0.6720E+03
      7.027  0.0000E+00  0.6720E+03
      7.128  0.0000E+00  0.6720E+03
      7.230  0.0000E+00  0.6720E+03
      7.331  0.0000E+00  0.6720E+03
      7.433  0.0000E+00  0.6720E+03
      7.534  0.0000E+00  0.6720E+03
      7.636  0.0000E+00  0.6720E+03
      7.737  0.0000E+00  0.6720E+03
      7.839  0.0000E+00  0.6720E+03
      7.83857764    -22.60889825  301     -0.55985113      1.00000000
    -22.609  0.0000E+00  0.0000E+00  0.0000E+00
    -22.507  0.0000E+00  0.0000E+00  0.0000E+00
    -22.406  0.0000E+00  0.0000E+00  0.0000E+00
    -22.304  0.0000E+00  0.0000E+00  0.0000E+00
    -22.203  0.0000E+00  0.0000E+00  0.0000E+00
    -22.101  0.0000E+00  0.0000E+00  0.0000E+00
    -22.000  0.0000E+00  0.0000E+00  0.0000E+00
    -21.898  0.0000E+00  0.0000E+00  0.0000E+00
    -21.797  0.0000E+00  0.0000E+00  0.0000E+00
    -21.695  0.0000E+00  0.0000E+00  0.0000E+00
    -21.594  0.0000E+00  0.0000E+00  0.0000E+00
    -21.492  0.0000E+00  0.0000E+00  0.0000E+00
    -21.391  0.0000E+00  0.0000E+00  0.0000E+00
    -21.290  0.0000E+00  0.0000E+00  0.0000E+00
    -21.188  0.1742E+02  0.1043E-06  0.3217E-04
    -21.087  0.6721E-01  0.4483E-05  0.7632E-06
    -20.985  0.0000E+00  0.0000E+00  0.0000E+00
    -20.884  0.0000E+00  0.0000E+00  0.0000E+00
    -20.782  0.0000E+00  0.0000E+00  0.0000E+00
    -20.681  0.0000E+00  0.0000E+00  0.0000E+00
    -20.579  0.0000E+00  0.0000E+00  0.0000E+00
    -20.478  0.0000E+00  0.0000E+00  0.0000E+00
    -20.376  0.0000E+00  0.0000E+00  0.0000E+00
    -20.275  0.0000E+00  0.0000E+00  0.0000E+00
    -20.173  0.0000E+00  0.0000E+00  0.0000E+00
    -20.072  0.0000E+00  0.0000E+00  0.0000E+00
    -19.970  0.0000E+00  0.0000E+00  0.0000E+00
    -19.869  0.0000E+00  0.0000E+00  0.0000E+00
    -19.767  0.0000E+00  0.0000E+00  0.0000E+00
    -19.666  0.0000E+00  0.0000E+00  0.0000E+00
    -19.564  0.0000E+00  0.0000E+00  0.0000E+00
    -19.463  0.0000E+00  0.0000E+00  0.0000E+00
    -19.361  0.0000E+00  0.0000E+00  0.0000E+00
    -19.260  0.0000E+00  0.0000E+00  0.0000E+00
    -19.158  0.0000E+00  0.0000E+00  0.0000E+00
    -19.057  0.0000E+00  0.0000E+00  0.0000E+00
    -18.955  0.0000E+00  0.0000E+00  0.0000E+00
    -18.854  0.0000E+00  0.0000E+00  0.0000E+00
    -18.752  0.0000E+00  0.0000E+00  0.0000E+00
    -18.651  0.0000E+00  0.0000E+00  0.0000E+00
    -18.549  0.0000E+00  0.0000E+00  0.0000E+00
    -18.448  0.0000E+00  0.0000E+00  0.0000E+00
    -18.346  0.0000E+00  0.0000E+00  0.0000E+00
    -18.245  0.0000E+00  0.0000E+00  0.0000E+00
    -18.143  0.0000E+00  0.0000E+00  0.0000E+00
    -18.042  0.0000E+00  0.0000E+00  0.0000E+00
    -17.940  0.0000E+00  0.0000E+00  0.0000E+00
    -17.839  0.0000E+00  0.0000E+00  0.0000E+00
    -17.737  0.0000E+00  0.0000E+00  0.0000E+00
    -17.636  0.0000E+00  0.0000E+00  0.0000E+00
    -17.534  0.0000E+00  0.0000E+00  0.0000E+00
    -17.433  0.0000E+00  0.0000E+00  0.0000E+00
    -17.331  0.0000E+00  0.0000E+00  0.0000E+00
    -17.230  0.0000E+00  0.0000E+00  0.0000E+00
    -17.128  0.0000E+00  0.0000E+00  0.0000E+00
    -17.027  0.0000E+00  0.0000E+00  0.0000E+00
    -16.925  0.0000E+00  0.0000E+00  0.0000E+00
    -16.824  0.0000E+00  0.0000E+00  0.0000E+00
    -16.722  0.0000E+00  0.0000E+00  0.0000E+00
    -16.621  0.1917E-18  0.3887E-15  0.9663E-16
    -16.519  0.4711E-07  0.1437E-03  0.3667E-04
    -16.418  0.2521E-03  0.1733E-03  0.2090E-04
    -16.316  0.0000E+00  0.0000E+00  0.0000E+00
    -16.215  0.0000E+00  0.0000E+00  0.0000E+00
    -16.113  0.0000E+00  0.0000E+00  0.0000E+00
    -16.012  0.0000E+00  0.0000E+00  0.0000E+00
    -15.910  0.0000E+00  0.0000E+00  0.0000E+00
    -15.809  0.0000E+00  0.0000E+00  0.0000E+00
    -15.707  0.0000E+00  0.0000E+00  0.0000E+00
    -15.606  0.0000E+00  0.0000E+00  0.0000E+00
    -15.504  0.0000E+00  0.0000E+00  0.0000E+00
    -15.403  0.0000E+00  0.0000E+00  0.0000E+00
    -15.302  0.0000E+00  0.0000E+00  0.0000E+00
    -15.200  0.0000E+00  0.0000E+00  0.0000E+00
    -15.099  0.0000E+00  0.0000E+00  0.0000E+00
    -14.997  0.0000E+00  0.0000E+00  0.0000E+00
    -14.896  0.0000E+00  0.0000E+00  0.0000E+00
    -14.794  0.0000E+00  0.0000E+00  0.0000E+00
    -14.693  0.0000E+00  0.0000E+00  0.0000E+00
    -14.591  0.0000E+00  0.0000E+00  0.0000E+00
    -14.490  0.0000E+00  0.0000E+00  0.0000E+00
    -14.388  0.0000E+00  0.0000E+00  0.0000E+00
    -14.287  0.1243E-04  0.1153E-03  0.2270E-06
    -14.185  0.1000E-01  0.5238E-02  0.1822E-03
    -14.084  0.7626E-02  0.2152E-01  0.1402E-02
    -13.982  0.1673E-02  0.3986E-02  0.5618E-03
    -13.881  0.6455E-04  0.8261E-02  0.1263E-02
    -13.779  0.0000E+00  0.0000E+00  0.0000E+00
    -13.678  0.0000E+00  0.0000E+00  0.0000E+00
    -13.576  0.0000E+00  0.0000E+00  0.0000E+00
    -13.475  0.0000E+00  0.0000E+00  0.0000E+00
    -13.373  0.0000E+00  0.0000E+00  0.0000E+00
    -13.272  0.0000E+00  0.0000E+00  0.0000E+00
    -13.170  0.0000E+00  0.0000E+00  0.0000E+00
    -13.069  0.0000E+00  0.0000E+00  0.0000E+00
    -12.967  0.0000E+00  0.0000E+00  0.0000E+00
    -12.866  0.0000E+00  0.0000E+00  0.0000E+00
    -12.764  0.0000E+00  0.0000E+00  0.0000E+00
    -12.663  0.0000E+00  0.0000E+00  0.0000E+00
    -12.561  0.0000E+00  0.0000E+00  0.0000E+00
    -12.460  0.0000E+00  0.0000E+00  0.0000E+00
    -12.358  0.0000E+00  0.0000E+00  0.0000E+00
    -12.257  0.0000E+00  0.0000E+00  0.0000E+00
    -12.155  0.0000E+00  0.0000E+00  0.0000E+00
    -12.054  0.0000E+00  0.0000E+00  0.0000E+00
    -11.952  0.0000E+00  0.0000E+00  0.0000E+00
    -11.851  0.0000E+00  0.0000E+00  0.0000E+00
    -11.749  0.0000E+00  0.0000E+00  0.0000E+00
    -11.648  0.0000E+00  0.0000E+00  0.0000E+00
    -11.546  0.0000E+00  0.0000E+00  0.0000E+00
    -11.445  0.0000E+00  0.0000E+00  0.0000E+00
    -11.343  0.0000E+00  0.0000E+00  0.0000E+00
    -11.242  0.0000E+00  0.0000E+00  0.0000E+00
    -11.140  0.0000E+00  0.0000E+00  0.0000E+00
    -11.039  0.0000E+00  0.0000E+00  0.0000E+00
    -10.937  0.0000E+00  0.0000E+00  0.0000E+00
    -10.836  0.0000E+00  0.0000E+00  0.0000E+00
    -10.734  0.0000E+00  0.0000E+00  0.0000E+00
    -10.633  0.0000E+00  0.0000E+00  0.0000E+00
    -10.531  0.0000E+00  0.0000E+00  0.0000E+00
    -10.430  0.0000E+00  0.0000E+00  0.0000E+00
    -10.328  0.0000E+00  0.0000E+00  0.0000E+00
    -10.227  0.0000E+00  0.0000E+00  0.0000E+00
    -10.125  0.0000E+00  0.0000E+00  0.0000E+00
    -10.024  0.0000E+00  0.0000E+00  0.0000E+00
     -9.922  0.0000E+00  0.0000E+00  0.0000E+00
     -9.821  0.0000E+00  0.0000E+00  0.0000E+00
     -9.719  0.0000E+00  0.0000E+00  0.0000E+00
     -9.618  0.0000E+00  0.0000E+00  0.0000E+00
     -9.516  0.0000E+00  0.0000E+00  0.0000E+00
     -9.415  0.0000E+00  0.0000E+00  0.0000E+00
     -9.314  0.0000E+00  0.0000E+00  0.0000E+00
     -9.212  0.0000E+00  0.0000E+00  0.0000E+00
     -9.111  0.0000E+00  0.0000E+00  0.0000E+00
     -9.009  0.0000E+00  0.0000E+00  0.0000E+00
     -8.908  0.0000E+00  0.0000E+00  0.0000E+00
     -8.806  0.0000E+00  0.0000E+00  0.0000E+00
     -8.705  0.0000E+00  0.0000E+00  0.0000E+00
     -8.603  0.0000E+00  0.0000E+00  0.0000E+00
     -8.502  0.0000E+00  0.0000E+00  0.0000E+00
     -8.400  0.0000E+00  0.0000E+00  0.0000E+00
     -8.299  0.0000E+00  0.0000E+00  0.0000E+00
     -8.197  0.0000E+00  0.0000E+00  0.0000E+00
     -8.096  0.0000E+00  0.0000E+00  0.0000E+00
     -7.994  0.0000E+00  0.0000E+00  0.0000E+00
     -7.893  0.0000E+00  0.0000E+00  0.0000E+00
     -7.791  0.1145E-06  0.2225E+00  0.2336E-05
     -7.690  0.3789E-04  0.1969E+02  0.4616E-03
     -7.588  0.6457E-04  0.9152E+01  0.2315E-03
     -7.487  0.2274E-03  0.5898E+01  0.3413E-03
     -7.385  0.1444E-03  0.1169E+01  0.3249E-03
     -7.284  0.1164E-09  0.2088E-01  0.1033E-09
     -7.182  0.0000E+00  0.0000E+00  0.0000E+00
     -7.081  0.0000E+00  0.0000E+00  0.0000E+00
     -6.979  0.0000E+00  0.0000E+00  0.0000E+00
     -6.878  0.0000E+00  0.0000E+00  0.0000E+00
     -6.776  0.0000E+00  0.0000E+00  0.0000E+00
     -6.675  0.0000E+00  0.0000E+00  0.0000E+00
     -6.573  0.0000E+00  0.0000E+00  0.0000E+00
     -6.472  0.0000E+00  0.0000E+00  0.0000E+00
     -6.370  0.0000E+00  0.0000E+00  0.0000E+00
     -6.269  0.0000E+00  0.0000E+00  0.0000E+00
     -6.167  0.0000E+00  0.0000E+00  0.0000E+00
     -6.066  0.0000E+00  0.0000E+00  0.0000E+00
     -5.964  0.0000E+00  0.0000E+00  0.0000E+00
     -5.863  0.0000E+00  0.0000E+00  0.0000E+00
     -5.761  0.0000E+00  0.0000E+00  0.0000E+00
     -5.660  0.0000E+00  0.0000E+00  0.0000E+00
     -5.558  0.0000E+00  0.0000E+00  0.0000E+00
     -5.457  0.0000E+00  0.0000E+00  0.0000E+00
     -5.355  0.0000E+00  0.0000E+00  0.0000E+00
     -5.254  0.0000E+00  0.0000E+00  0.0000E+00
     -5.152  0.0000E+00  0.0000E+00  0.0000E+00
     -5.051  0.0000E+00  0.0000E+00  0.0000E+00
     -4.949  0.0000E+00  0.0000E+00  0.0000E+00
     -4.848  0.0000E+00  0.0000E+00  0.0000E+00
     -4.746  0.0000E+00  0.0000E+00  0.0000E+00
     -4.645  0.0000E+00  0.0000E+00  0.0000E+00
     -4.543  0.0000E+00  0.0000E+00  0.0000E+00
     -4.442  0.0000E+00  0.0000E+00  0.0000E+00
     -4.340  0.0000E+00  0.0000E+00  0.0000E+00
     -4.239  0.0000E+00  0.0000E+00  0.0000E+00
     -4.137  0.0000E+00  0.0000E+00  0.0000E+00
     -4.036  0.0000E+00  0.0000E+00  0.0000E+00
     -3.934  0.0000E+00  0.0000E+00  0.0000E+00
     -3.833  0.0000E+00  0.0000E+00  0.0000E+00
     -3.731  0.0000E+00  0.0000E+00  0.0000E+00
     -3.630  0.0000E+00  0.0000E+00  0.0000E+00
     -3.528  0.0000E+00  0.0000E+00  0.0000E+00
     -3.427  0.0000E+00  0.0000E+00  0.0000E+00
     -3.325  0.0000E+00  0.0000E+00  0.0000E+00
     -3.224  0.0000E+00  0.0000E+00  0.0000E+00
     -3.123  0.0000E+00  0.0000E+00  0.0000E+00
     -3.021  0.0000E+00  0.0000E+00  0.0000E+00
     -2.920  0.7793E-04  0.8826E-12  0.4343E-04
     -2.818  0.5081E-02  0.8341E-02  0.3639E-02
     -2.717  0.6799E-02  0.5234E-01  0.1066E-01
     -2.615  0.3214E-02  0.5475E-01  0.3666E-02
     -2.514  0.2594E-03  0.2329E-01  0.2042E-03
     -2.412  0.1530E-09  0.2103E-02  0.2991E-11
     -2.311  0.0000E+00  0.0000E+00  0.0000E+00
     -2.209  0.9918E-07  0.6286E-12  0.1214E-07
     -2.108  0.1087E-01  0.5659E-02  0.3639E-02
     -2.006  0.1503E-01  0.7519E-01  0.1707E-01
     -1.905  0.1757E-01  0.6491E-01  0.1313E-01
     -1.803  0.1126E-01  0.7676E-01  0.2923E-01
     -1.702  0.9441E-02  0.9335E-01  0.2864E-01
     -1.600  0.8351E-02  0.2097E+00  0.3545E-01
     -1.499  0.3210E-02  0.2830E+00  0.2758E-01
     -1.397  0.1342E-02  0.5203E-01  0.7056E-02
     -1.296  0.2448E-02  0.1247E+00  0.2603E-01
     -1.194  0.4657E-03  0.7603E-01  0.1123E-01
     -1.093  0.0000E+00  0.0000E+00  0.0000E+00
     -0.991  0.6901E-16  0.3129E-19  0.1308E-14
     -0.890  0.5310E-05  0.3481E-05  0.1716E-03
     -0.788  0.4418E-05  0.3377E-03  0.7853E-03
     -0.687  0.9243E-04  0.3006E-02  0.1473E-02
     -0.585  0.7079E-03  0.1663E-01  0.5124E-02
     -0.484  0.0000E+00  0.0000E+00  0.0000E+00
     -0.382  0.0000E+00  0.0000E+00  0.0000E+00
     -0.281  0.0000E+00  0.0000E+00  0.0000E+00
     -0.179  0.0000E+00  0.0000E+00  0.0000E+00
     -0.078  0.0000E+00  0.0000E+00  0.0000E+00
      0.024  0.0000E+00  0.0000E+00  0.0000E+00
      0.125  0.0000E+00  0.0000E+00  0.0000E+00
      0.227  0.0000E+00  0.0000E+00  0.0000E+00
      0.328  0.0000E+00  0.0000E+00  0.0000E+00
      0.430  0.0000E+00  0.0000E+00  0.0000E+00
      0.531  0.0000E+00  0.0000E+00  0.0000E+00
      0.633  0.0000E+00  0.0000E+00  0.0000E+00
      0.734  0.0000E+00  0.0000E+00  0.0000E+00
      0.836  0.0000E+00  0.0000E+00  0.0000E+00
      0.937  0.0000E+00  0.0000E+00  0.0000E+00
      1.039  0.0000E+00  0.0000E+00  0.0000E+00
      1.140  0.0000E+00  0.0000E+00  0.0000E+00
      1.242  0.0000E+00  0.0000E+00  0.0000E+00
      1.343  0.0000E+00  0.0000E+00  0.0000E+00
      1.445  0.0000E+00  0.0000E+00  0.0000E+00
      1.546  0.0000E+00  0.0000E+00  0.0000E+00
      1.648  0.0000E+00  0.0000E+00  0.0000E+00
      1.749  0.0000E+00  0.0000E+00  0.0000E+00
      1.851  0.0000E+00  0.0000E+00  0.0000E+00
      1.952  0.0000E+00  0.0000E+00  0.0000E+00
      2.054  0.0000E+00  0.0000E+00  0.0000E+00
      2.155  0.0000E+00  0.0000E+00  0.0000E+00
      2.257  0.0000E+00  0.0000E+00  0.0000E+00
      2.358  0.0000E+00  0.0000E+00  0.0000E+00
      2.460  0.0000E+00  0.0000E+00  0.0000E+00
      2.561  0.0000E+00  0.0000E+00  0.0000E+00
      2.663  0.0000E+00  0.0000E+00  0.0000E+00
      2.764  0.0000E+00  0.0000E+00  0.0000E+00
      2.865  0.0000E+00  0.0000E+00  0.0000E+00
      2.967  0.0000E+00  0.0000E+00  0.0000E+00
      3.068  0.0000E+00  0.0000E+00  0.0000E+00
      3.170  0.0000E+00  0.0000E+00  0.0000E+00
      3.271  0.0000E+00  0.0000E+00  0.0000E+00
      3.373  0.0000E+00  0.0000E+00  0.0000E+00
      3.474  0.0000E+00  0.0000E+00  0.0000E+00
      3.576  0.1641E-08  0.8560E-11  0.2061E-03
      3.677  0.2411E-04  0.3406E-03  0.1026E-01
      3.779  0.1639E-02  0.1389E-01  0.4594E-01
      3.880  0.6420E-02  0.1004E-01  0.2595E-01
      3.982  0.2412E-02  0.8795E-02  0.2498E-01
      4.083  0.6153E-03  0.4723E-02  0.9880E-02
      4.185  0.1932E-02  0.2100E-03  0.6179E-03
      4.286  0.0000E+00  0.0000E+00  0.0000E+00
      4.388  0.1966E-02  0.3676E-03  0.2341E-02
      4.489  0.1555E-02  0.3192E-04  0.9217E-03
      4.591  0.1936E-01  0.1072E-02  0.1836E-01
      4.692  0.3170E-02  0.4792E-03  0.6488E-02
      4.794  0.2082E-01  0.1210E-02  0.3312E-01
      4.895  0.3621E-01  0.2329E-02  0.6870E-01
      4.997  0.8936E-01  0.5781E-02  0.1971E+00
      5.098  0.2223E-01  0.4128E-01  0.2250E+00
      5.200  0.9466E-02  0.8765E-01  0.3286E+00
      5.301  0.1737E-02  0.2990E-01  0.1008E+00
      5.403  0.3450E-02  0.2507E-01  0.8099E-01
      5.504  0.3761E-02  0.7481E-01  0.2007E+00
      5.606  0.1460E-02  0.3628E-01  0.1366E+00
      5.707  0.6022E-03  0.2675E-01  0.1638E+00
      5.809  0.5845E-03  0.1288E-01  0.1568E+00
      5.910  0.2349E-02  0.3410E-01  0.2393E+00
      6.012  0.6239E-02  0.3223E-01  0.2666E+00
      6.113  0.8263E-02  0.2885E-01  0.2786E+00
      6.215  0.7516E-02  0.2822E-01  0.3053E+00
      6.316  0.4784E-02  0.2262E-01  0.3011E+00
      6.418  0.4243E-02  0.1052E-01  0.2407E+00
      6.519  0.1100E-02  0.1440E-02  0.3907E-01
      6.621  0.0000E+00  0.0000E+00  0.0000E+00
      6.722  0.0000E+00  0.0000E+00  0.0000E+00
      6.824  0.0000E+00  0.0000E+00  0.0000E+00
      6.925  0.0000E+00  0.0000E+00  0.0000E+00
      7.027  0.0000E+00  0.0000E+00  0.0000E+00
      7.128  0.0000E+00  0.0000E+00  0.0000E+00
      7.230  0.0000E+00  0.0000E+00  0.0000E+00
      7.331  0.0000E+00  0.0000E+00  0.0000E+00
      7.433  0.0000E+00  0.0000E+00  0.0000E+00
      7.534  0.0000E+00  0.0000E+00  0.0000E+00
      7.636  0.0000E+00  0.0000E+00  0.0000E+00
      7.737  0.0000E+00  0.0000E+00  0.0000E+00
      7.839  0.0000E+00  0.0000E+00  0.0000E+00
      7.83857764    -22.60889825  301     -0.55985113      1.00000000
    -22.609  0.0000E+00  0.0000E+00  0.0000E+00
    -22.507  0.0000E+00  0.0000E+00  0.0000E+00
    -22.406  0.0000E+00  0.0000E+00  0.0000E+00
    -22.304  0.0000E+00  0.0000E+00  0.0000E+00
    -22.203  0.0000E+00  0.0000E+00  0.0000E+00
    -22.101  0.0000E+00  0.0000E+00  0.0000E+00
    -22.000  0.0000E+00  0.0000E+00  0.0000E+00
    -21.898  0.0000E+00  0.0000E+00  0.0000E+00
    -21.797  0.0000E+00  0.0000E+00  0.0000E+00
    -21.695  0.0000E+00  0.0000E+00  0.0000E+00
    -21.594  0.0000E+00  0.0000E+00  0.0000E+00
    -21.492  0.0000E+00  0.0000E+00  0.0000E+00
    -21.391  0.0000E+00  0.0000E+00  0.0000E+00
    -21.290  0.0000E+00  0.0000E+00  0.0000E+00
    -21.188  0.1742E+02  0.1044E-06  0.3213E-04
    -21.087  0.6711E-01  0.4483E-05  0.7629E-06
    -20.985  0.0000E+00  0.0000E+00  0.0000E+00
    -20.884  0.0000E+00  0.0000E+00  0.0000E+00
    -20.782  0.0000E+00  0.0000E+00  0.0000E+00
    -20.681  0.0000E+00  0.0000E+00  0.0000E+00
    -20.579  0.0000E+00  0.0000E+00  0.0000E+00
    -20.478  0.0000E+00  0.0000E+00  0.0000E+00
    -20.376  0.0000E+00  0.0000E+00  0.0000E+00
    -20.275  0.0000E+00  0.0000E+00  0.0000E+00
    -20.173  0.0000E+00  0.0000E+00  0.0000E+00
    -20.072  0.0000E+00  0.0000E+00  0.0000E+00
    -19.970  0.0000E+00  0.0000E+00  0.0000E+00
    -19.869  0.0000E+00  0.0000E+00  0.0000E+00
    -19.767  0.0000E+00  0.0000E+00  0.0000E+00
    -19.666  0.0000E+00  0.0000E+00  0.0000E+00
    -19.564  0.0000E+00  0.0000E+00  0.0000E+00
    -19.463  0.0000E+00  0.0000E+00  0.0000E+00
    -19.361  0.0000E+00  0.0000E+00  0.0000E+00
    -19.260  0.0000E+00  0.0000E+00  0.0000E+00
    -19.158  0.0000E+00  0.0000E+00  0.0000E+00
    -19.057  0.0000E+00  0.0000E+00  0.0000E+00
    -18.955  0.0000E+00  0.0000E+00  0.0000E+00
    -18.854  0.0000E+00  0.0000E+00  0.0000E+00
    -18.752  0.0000E+00  0.0000E+00  0.0000E+00
    -18.651  0.0000E+00  0.0000E+00  0.0000E+00
    -18.549  0.0000E+00  0.0000E+00  0.0000E+00
    -18.448  0.0000E+00  0.0000E+00  0.0000E+00
    -18.346  0.0000E+00  0.0000E+00  0.0000E+00
    -18.245  0.0000E+00  0.0000E+00  0.0000E+00
    -18.143  0.0000E+00  0.0000E+00  0.0000E+00
    -18.042  0.0000E+00  0.0000E+00  0.0000E+00
    -17.940  0.0000E+00  0.0000E+00  0.0000E+00
    -17.839  0.0000E+00  0.0000E+00  0.0000E+00
    -17.737  0.0000E+00  0.0000E+00  0.0000E+00
    -17.636  0.0000E+00  0.0000E+00  0.0000E+00
    -17.534  0.0000E+00  0.0000E+00  0.0000E+00
    -17.433  0.0000E+00  0.0000E+00  0.0000E+00
    -17.331  0.0000E+00  0.0000E+00  0.0000E+00
    -17.230  0.0000E+00  0.0000E+00  0.0000E+00
    -17.128  0.0000E+00  0.0000E+00  0.0000E+00
    -17.027  0.0000E+00  0.0000E+00  0.0000E+00
    -16.925  0.0000E+00  0.0000E+00  0.0000E+00
    -16.824  0.0000E+00  0.0000E+00  0.0000E+00
    -16.722  0.0000E+00  0.0000E+00  0.0000E+00
    -16.621  0.1889E-18  0.3887E-15  0.9662E-16
    -16.519  0.4702E-07  0.1437E-03  0.3667E-04
    -16.418  0.2520E-03  0.1733E-03  0.2090E-04
    -16.316  0.0000E+00  0.0000E+00  0.0000E+00
    -16.215  0.0000E+00  0.0000E+00  0.0000E+00
    -16.113  0.0000E+00  0.0000E+00  0.0000E+00
    -16.012  0.0000E+00  0.0000E+00  0.0000E+00
    -15.910  0.0000E+00  0.0000E+00  0.0000E+00
    -15.809  0.0000E+00  0.0000E+00  0.0000E+00
    -15.707  0.0000E+00  0.0000E+00  0.0000E+00
    -15.606  0.0000E+00  0.0000E+00  0.0000E+00
    -15.504  0.0000E+00  0.0000E+00  0.0000E+00
    -15.403  0.0000E+00  0.0000E+00  0.0000E+00
    -15.302  0.0000E+00  0.0000E+00  0.0000E+00
    -15.200  0.0000E+00  0.0000E+00  0.0000E+00
    -15.099  0.0000E+00  0.0000E+00  0.0000E+00
    -14.997  0.0000E+00  0.0000E+00  0.0000E+00
    -14.896  0.0000E+00  0.0000E+00  0.0000E+00
    -14.794  0.0000E+00  0.0000E+00  0.0000E+00
    -14.693  0.0000E+00  0.0000E+00  0.0000E+00
    -14.591  0.0000E+00  0.0000E+00  0.0000E+00
    -14.490  0.0000E+00  0.0000E+00  0.0000E+00
    -14.388  0.0000E+00  0.0000E+00  0.0000E+00
    -14.287  0.1242E-04  0.1153E-03  0.2270E-06
    -14.185  0.1001E-01  0.5236E-02  0.1823E-03
    -14.084  0.7629E-02  0.2152E-01  0.1403E-02
    -13.982  0.1673E-02  0.3984E-02  0.5620E-03
    -13.881  0.6462E-04  0.8261E-02  0.1262E-02
    -13.779  0.0000E+00  0.0000E+00  0.0000E+00
    -13.678  0.0000E+00  0.0000E+00  0.0000E+00
    -13.576  0.0000E+00  0.0000E+00  0.0000E+00