       N       E                     dE             d eps       ncg     rms          rms(c)
DAV:   1     0.177195124398E+04    0.17720E+04   -0.17221E+05  4880   0.925E+02
DAV:   2    -0.175896906965E+04   -0.35309E+04   -0.34209E+04  5864   0.255E+02
DAV:   3    -0.228067563363E+04   -0.52171E+03   -0.51952E+03  6312   0.123E+02
DAV:   4    -0.229692766004E+04   -0.16252E+02   -0.16214E+02  5464   0.271E+01
DAV:   5    -0.229771066116E+04   -0.78300E+00   -0.78268E+00  6208   0.532E+00    0.112E+01
DAV:   6    -0.217552212605E+04    0.12219E+03   -0.29406E+01  5680   0.193E+01    0.820E+00
DAV:   7    -0.217430033724E+04    0.12218E+01   -0.13919E+01  6048   0.464E+00    0.459E+00
DAV:   8    -0.217461447621E+04   -0.31414E+00   -0.68282E-01  5400   0.171E+00    0.260E+00
DAV:   9    -0.217476407695E+04   -0.14960E+00   -0.40232E-01  5032   0.116E+00    0.491E-01
DAV:  10    -0.217477421123E+04   -0.10134E-01   -0.39992E-02  6776   0.417E-01    0.344E-01
DAV:  11    -0.217478594142E+04   -0.11730E-01   -0.83716E-03  5040   0.172E-01    0.149E-01
DAV:  12    -0.217479186582E+04   -0.59244E-02   -0.39096E-03  5056   0.120E-01    0.869E-02
DAV:  13    -0.217479096425E+04    0.90156E-03   -0.16744E-03  6424   0.870E-02    0.375E-02
DAV:  14    -0.217479111553E+04   -0.15128E-03   -0.11264E-04  5552   0.226E-02    0.176E-02
DAV:  15    -0.217479107910E+04    0.36426E-04   -0.16388E-05  4880   0.692E-03    0.665E-03
DAV:  16    -0.217479104237E+04    0.36737E-04   -0.69163E-06  4784   0.435E-03    0.260E-03
DAV:  17    -0.217479105268E+04   -0.10316E-04   -0.61831E-07  3400   0.200E-03    0.151E-03
DAV:  18    -0.217479105038E+04    0.22994E-05   -0.26421E-07  3120   0.161E-03    0.122E-03
DAV:  19    -0.217479105146E+04   -0.10772E-05   -0.93273E-08  2848   0.965E-04    0.107E-03
DAV:  20    -0.217479105242E+04   -0.96158E-06   -0.39799E-08  2800   0.558E-04
   1 F= -.21747911E+04 E0= -.21747911E+04  d E =-.159509E-13
