CsPbBr3 cubic bulk                      
           1
    13.752007    0.000000    0.000000
    -6.876004   11.909588   -0.000000
     0.000000   -0.000000   17.351955
   Cs   Pb   Br
  24   6  36
Direct configuration=     1
   0.33333300  0.66666700  0.91666700
   0.33333300  0.66666700  0.41666700
   0.37578381  0.00000000  0.25000000
   1.00000000  0.37578381  0.25000000
   0.62421619  0.62421619  0.25000000
   0.29088319  0.33333300  0.08333300
   0.66666700  0.95754919  0.08333300
   0.04245081  0.70911681  0.08333300
   0.00000000  0.00000000  0.25000000
   0.00000000  0.00000000  0.75000000
   0.04245081  0.33333300  0.58333300
   0.66666700  0.70911681  0.58333300
   0.29088319  0.95754919  0.58333300
   0.95754919  0.66666700  0.41666700
   0.33333300  0.29088319  0.41666700
   0.70911681  0.04245081  0.41666700
   0.66666700  0.33333300  0.58333300
   0.66666700  0.33333300  0.08333300
   0.70911681  0.66666700  0.91666700
   0.33333300  0.04245081  0.91666700
   0.95754919  0.29088319  0.91666700
   0.62421619  0.00000000  0.75000000
   0.00000000  0.62421619  0.75000000
   0.37578381  0.37578381  0.75000000
   0.00000000  0.00000000  0.00000000
   0.33333300  0.66666700  0.16666700
   0.66666700  0.33333300  0.33333300
   0.00000000  0.00000000  0.50000000
   0.33333300  0.66666700  0.66666700
   0.66666700  0.33333300  0.83333300
   0.14047059  0.50255336  0.06534614
   0.49744664  0.63791622  0.06534614
   0.36208378  0.85952941  0.06534614
   0.97125022  0.16411264  0.10131986
   0.83588736  0.80713659  0.10131986
   0.19286341  0.02874978  0.10131986
   0.52619641  0.83077964  0.26798686
   0.16922036  0.69541678  0.26798686
   0.30458322  0.47380359  0.26798686
   0.69541678  0.16922036  0.23201314
   0.47380359  0.30458322  0.23201314
   0.83077964  0.52619641  0.23201314
   0.80713659  0.83588736  0.39868014
   0.16411264  0.97125022  0.39868014
   0.02874978  0.19286341  0.39868014
   0.63791622  0.49744664  0.43465386
   0.50255336  0.14047059  0.43465386
   0.85952941  0.36208378  0.43465386
   0.19286341  0.16411264  0.60131986
   0.83588736  0.02874978  0.60131986
   0.97125022  0.80713659  0.60131986
   0.36208378  0.50255336  0.56534614
   0.14047059  0.63791622  0.56534614
   0.49744664  0.85952941  0.56534614
   0.47380359  0.16922036  0.73201314
   0.83077964  0.30458322  0.73201314
   0.69541678  0.52619641  0.73201314
   0.30458322  0.83077964  0.76798686
   0.16922036  0.47380359  0.76798686
   0.52619641  0.69541678  0.76798686
   0.85952941  0.49744664  0.93465386
   0.50255336  0.36208378  0.93465386
   0.63791622  0.14047059  0.93465386
   0.02874978  0.83588736  0.89868014
   0.80713659  0.97125022  0.89868014
   0.16411264  0.19286341  0.89868014
