 vasp.5.4.4.18Apr17-6-g9f103f2a35 (build Jun 22 2020 09:36:46) gamma-only        
 executed on tx2_gcc-7.3_libsci-1 date 2020.11.07  09:02:35
 running on  256 total cores
 distrk:  each k-point on  256 cores,    1 groups
 distr:  one band on NCORES_PER_BAND=  32 cores,    8 groups


--------------------------------------------------------------------------------------------------------


 INCAR:
 POTCAR:    PAW_PBE Cs_sv 08Apr2002               
 POTCAR:    PAW_PBE Pb_d 06Sep2000                
 POTCAR:    PAW_PBE Br 06Sep2000                  
 POTCAR:    PAW_PBE Cs_sv 08Apr2002               
 POTCAR:    PAW_PBE Pb_d 06Sep2000                
 POTCAR:    PAW_PBE Br 06Sep2000                  
 POTCAR:    PAW_PBE Cs_sv 08Apr2002               
   SHA256 =  c1463496f0f6037ed62c6012a8013a89ee9ad6ffb38599dcd6c079e7ed31779b Cs
   COPYR  = (c) Copyright 08Apr2002 Georg Kresse                                
   COPYR  = This file is part of the software VASP. Any use, copying, and all ot
   COPYR  = If you do not have a valid VASP license, you may not use, copy or di
   VRHFIN =Cs: 5s5p6s                                                           
   LEXCH  = PE                                                                  
   EATOM  =   555.6835 eV,   40.8416 Ry                                         
                                                                                
   TITEL  = PAW_PBE Cs_sv 08Apr2002                                             
   LULTRA =        F    use ultrasoft PP ?                                      
   IUNSCR =        1    unscreen: 0-lin 1-nonlin 2-no                           
   RPACOR =    2.200    partial core radius                                     
   POMASS =  132.900; ZVAL   =    9.000    mass and valenz                      
   RCORE  =    2.500    outmost cutoff radius                                   
   RWIGS  =    2.500; RWIGS  =    1.323    wigner-seitz radius (au A)           
   ENMAX  =  220.318; ENMIN  =  165.238 eV                                      
   RCLOC  =    2.207    cutoff for local pot                                    
   LCOR   =        T    correct aug charges                                     
   LPAW   =        T    paw PP                                                  
   EAUG   =  407.933                                                            
   DEXC   =    0.000                                                            
   RMAX   =    2.554    core radius for proj-oper                               
   RAUG   =    1.300    factor for augmentation sphere                          
   RDEP   =    2.590    radius for radial grids                                 
   RDEPT  =    2.117    core radius for aug-charge                              
                                                                                
   Atomic configuration                                                         
   13 entries                                                                   
     n  l   j            E        occ.                                          
     1  0  0.50    -35790.1377   2.0000                                         
     2  0  0.50     -5613.6201   2.0000                                         
     2  1  1.50     -5035.0101   6.0000                                         
     3  0  0.50     -1167.0767   2.0000                                         
     3  1  1.50      -980.9754   6.0000                                         
     3  2  2.50      -708.0703  10.0000                                         
     4  0  0.50      -220.2386   2.0000                                         
     4  1  1.50      -160.7596   6.0000                                         
     4  2  2.50       -74.2354  10.0000                                         
     5  0  0.50       -26.7287   2.0000                                         
     6  0  0.50        -2.0862   1.0000                                         
     5  1  1.50       -13.5159   6.0000                                         
     5  2  2.50        -0.4136   0.0000                                         
   Description                                                                  
     l       E           TYP  RCUT    TYP  RCUT                                 
     0    -26.7287425     23  1.900                                             
     0     -2.0862306     23  1.900                                             
     1    -13.5158719     23  2.500                                             
     1     -2.7211652     23  2.500                                             
     2     -0.4136171     23  2.500                                             
  local pseudopotential read in
  partial core-charges read in
  partial kinetic energy density read in
  atomic valenz-charges read in
  non local Contribution for L=           0  read in
    real space projection operators read in
  non local Contribution for L=           0  read in
    real space projection operators read in
  non local Contribution for L=           1  read in
    real space projection operators read in
  non local Contribution for L=           1  read in
    real space projection operators read in
  non local Contribution for L=           2  read in
    real space projection operators read in
    PAW grid and wavefunctions read in

   number of l-projection  operators is LMAX  =           5
   number of lm-projection operators is LMMAX =          13

 POTCAR:    PAW_PBE Pb_d 06Sep2000                
   SHA256 =  fb885b08f0fba73a15f6a6b0e39bd200c13ec96ef97cf3ecd8e63bade5137abd Pb
   COPYR  = (c) Copyright 06Sep2000 Georg Kresse                                
   COPYR  = This file is part of the software VASP. Any use, copying, and all ot
   COPYR  = If you do not have a valid VASP license, you may not use, copy or di
   VRHFIN =Pb:                                                                  
   LEXCH  = PE                                                                  
   EATOM  =  1661.6185 eV,  122.1255 Ry                                         
                                                                                
   TITEL  = PAW_PBE Pb_d 06Sep2000                                              
   LULTRA =        F    use ultrasoft PP ?                                      
   IUNSCR =        1    unscreen: 0-lin 1-nonlin 2-no                           
   RPACOR =    2.200    partial core radius                                     
   POMASS =  207.200; ZVAL   =   14.000    mass and valenz                      
   RCORE  =    2.500    outmost cutoff radius                                   
   RWIGS  =    3.260; RWIGS  =    1.725    wigner-seitz radius (au A)           
   ENMAX  =  237.835; ENMIN  =  178.376 eV                                      
   ICORE  =        3    local potential                                         
   LCOR   =        T    correct aug charges                                     
   LPAW   =        T    paw PP                                                  
   EAUG   =  391.914                                                            
   DEXC   =    0.000                                                            
   RMAX   =    2.565    core radius for proj-oper                               
   RAUG   =    1.300    factor for augmentation sphere                          
   RDEP   =    2.643    radius for radial grids                                 
   RDEPT  =    2.092    core radius for aug-charge                              
                                                                                
   Atomic configuration                                                         
   16 entries                                                                   
     n  l   j            E        occ.                                          
     1  0  0.50    -88091.8466   2.0000                                         
     2  0  0.50    -15753.4197   2.0000                                         
     2  1  1.50    -13508.1797   6.0000                                         
     3  0  0.50     -3781.7194   2.0000                                         
     3  1  1.50     -3138.2529   6.0000                                         
     3  2  2.50     -2483.2977  10.0000                                         
     4  0  0.50      -856.2895   2.0000                                         
     4  1  1.50      -645.4942   6.0000                                         
     4  2  2.50      -401.8768  10.0000                                         
     4  3  3.50      -132.9059  14.0000                                         
     5  0  0.50      -144.0950   2.0000                                         
     5  1  1.50       -85.7879   6.0000                                         
     5  2  2.50       -21.1769  10.0000                                         
     6  0  0.50       -12.0372   2.0000                                         
     6  1  1.50        -3.4971   2.0000                                         
     5  3  2.50        -2.7212   0.0000                                         
   Description                                                                  
     l       E           TYP  RCUT    TYP  RCUT                                 
     2    -21.1768523     23  2.500                                             
     2      1.3605826     23  2.500                                             
     0    -12.0371562     23  2.500                                             
     0     13.6058260     23  2.500                                             
     1     -3.4971339     23  2.500                                             
     1     13.6058260     23  2.500                                             
     3     -1.3605826      7  2.500                                             
  local pseudopotential read in
  partial core-charges read in
  partial kinetic energy density read in
  atomic valenz-charges read in
  non local Contribution for L=           2  read in
    real space projection operators read in
  non local Contribution for L=           2  read in
    real space projection operators read in
  non local Contribution for L=           0  read in
    real space projection operators read in
  non local Contribution for L=           0  read in
    real space projection operators read in
  non local Contribution for L=           1  read in
    real space projection operators read in
  non local Contribution for L=           1  read in
    real space projection operators read in
    PAW grid and wavefunctions read in

   number of l-projection  operators is LMAX  =           6
   number of lm-projection operators is LMMAX =          18

 POTCAR:    PAW_PBE Br 06Sep2000                  
   SHA256 =  96a73d2954943bbee26f4990d676cc6c3bf44b8dd2c75cd4b3b825d8403f0103 Br
   COPYR  = (c) Copyright 06Sep2000 Georg Kresse                                
   COPYR  = This file is part of the software VASP. Any use, copying, and all ot
   COPYR  = If you do not have a valid VASP license, you may not use, copy or di
   VRHFIN =Br: s2p5                                                             
   LEXCH  = PE                                                                  
   EATOM  =   368.4488 eV,   27.0802 Ry                                         
                                                                                
   TITEL  = PAW_PBE Br 06Sep2000                                                
   LULTRA =        F    use ultrasoft PP ?                                      
   IUNSCR =        1    unscreen: 0-lin 1-nonlin 2-no                           
   RPACOR =    1.900    partial core radius                                     
   POMASS =   79.904; ZVAL   =    7.000    mass and valenz                      
   RCORE  =    2.100    outmost cutoff radius                                   
   RWIGS  =    2.200; RWIGS  =    1.164    wigner-seitz radius (au A)           
   ENMAX  =  216.285; ENMIN  =  162.214 eV                                      
   ICORE  =        3    local potential                                         
   LCOR   =        T    correct aug charges                                     
   LPAW   =        T    paw PP                                                  
   EAUG   =  503.852                                                            
   DEXC   =    0.000                                                            
   RMAX   =    2.139    core radius for proj-oper                               
   RAUG   =    1.300    factor for augmentation sphere                          
   RDEP   =    2.186    radius for radial grids                                 
   RDEPT  =    1.890    core radius for aug-charge                              
                                                                                
   Atomic configuration                                                         
   10 entries                                                                   
     n  l   j            E        occ.                                          
     1  0  0.50    -13316.2796   2.0000                                         
     2  0  0.50     -1732.8239   2.0000                                         
     2  1  1.50     -1528.2193   6.0000                                         
     3  0  0.50      -238.0460   2.0000                                         
     3  1  1.50      -173.4609   6.0000                                         
     3  2  2.50       -66.7132  10.0000                                         
     4  0  0.50       -20.1334   2.0000                                         
     4  1  0.50        -7.8591   5.0000                                         
     4  2  2.50        -8.1635   0.0000                                         
     4  3  2.50        -8.1635   0.0000                                         
   Description                                                                  
     l       E           TYP  RCUT    TYP  RCUT                                 
     0    -20.1333652     23  2.100                                             
     0    -21.4939478     23  2.100                                             
     1     -7.8591052     23  2.100                                             
     1     -3.1608434     23  2.100                                             
     2     -8.1634956     23  2.100                                             
     3     -1.3605826      7  2.100                                             
  local pseudopotential read in
  partial core-charges read in
  partial kinetic energy density read in
  atomic valenz-charges read in
  non local Contribution for L=           0  read in
    real space projection operators read in
  non local Contribution for L=           0  read in
    real space projection operators read in
  non local Contribution for L=           1  read in
    real space projection operators read in
  non local Contribution for L=           1  read in
    real space projection operators read in
  non local Contribution for L=           2  read in
    real space projection operators read in
    PAW grid and wavefunctions read in

   number of l-projection  operators is LMAX  =           5
   number of lm-projection operators is LMMAX =          13

 POTCAR:    PAW_PBE Cs_sv 08Apr2002               
   SHA256 =  c1463496f0f6037ed62c6012a8013a89ee9ad6ffb38599dcd6c079e7ed31779b Cs
   COPYR  = (c) Copyright 08Apr2002 Georg Kresse                                
   COPYR  = This file is part of the software VASP. Any use, copying, and all ot
   COPYR  = If you do not have a valid VASP license, you may not use, copy or di
   VRHFIN =Cs: 5s5p6s                                                           
   LEXCH  = PE                                                                  
   EATOM  =   555.6835 eV,   40.8416 Ry                                         
                                                                                
   TITEL  = PAW_PBE Cs_sv 08Apr2002                                             
   LULTRA =        F    use ultrasoft PP ?                                      
   IUNSCR =        1    unscreen: 0-lin 1-nonlin 2-no                           
   RPACOR =    2.200    partial core radius                                     
   POMASS =  132.900; ZVAL   =    9.000    mass and valenz                      
   RCORE  =    2.500    outmost cutoff radius                                   
   RWIGS  =    2.500; RWIGS  =    1.323    wigner-seitz radius (au A)           
   ENMAX  =  220.318; ENMIN  =  165.238 eV                                      
   RCLOC  =    2.207    cutoff for local pot                                    
   LCOR   =        T    correct aug charges                                     
   LPAW   =        T    paw PP                                                  
   EAUG   =  407.933                                                            
   DEXC   =    0.000                                                            
   RMAX   =    2.554    core radius for proj-oper                               
   RAUG   =    1.300    factor for augmentation sphere                          
   RDEP   =    2.590    radius for radial grids                                 
   RDEPT  =    2.117    core radius for aug-charge                              
                                                                                
   Atomic configuration                                                         
   13 entries                                                                   
     n  l   j            E        occ.                                          
     1  0  0.50    -35790.1377   2.0000                                         
     2  0  0.50     -5613.6201   2.0000                                         
     2  1  1.50     -5035.0101   6.0000                                         
     3  0  0.50     -1167.0767   2.0000                                         
     3  1  1.50      -980.9754   6.0000                                         
     3  2  2.50      -708.0703  10.0000                                         
     4  0  0.50      -220.2386   2.0000                                         
     4  1  1.50      -160.7596   6.0000                                         
     4  2  2.50       -74.2354  10.0000                                         
     5  0  0.50       -26.7287   2.0000                                         
     6  0  0.50        -2.0862   1.0000                                         
     5  1  1.50       -13.5159   6.0000                                         
     5  2  2.50        -0.4136   0.0000                                         
   Description                                                                  
     l       E           TYP  RCUT    TYP  RCUT                                 
     0    -26.7287425     23  1.900                                             
     0     -2.0862306     23  1.900                                             
     1    -13.5158719     23  2.500                                             
     1     -2.7211652     23  2.500                                             
     2     -0.4136171     23  2.500                                             
  local pseudopotential read in
  partial core-charges read in
  partial kinetic energy density read in
  atomic valenz-charges read in
  non local Contribution for L=           0  read in
    real space projection operators read in
  non local Contribution for L=           0  read in
    real space projection operators read in
  non local Contribution for L=           1  read in
    real space projection operators read in
  non local Contribution for L=           1  read in
    real space projection operators read in
  non local Contribution for L=           2  read in
    real space projection operators read in
    PAW grid and wavefunctions read in

   number of l-projection  operators is LMAX  =           5
   number of lm-projection operators is LMMAX =          13

 POTCAR:    PAW_PBE Pb_d 06Sep2000                
   SHA256 =  fb885b08f0fba73a15f6a6b0e39bd200c13ec96ef97cf3ecd8e63bade5137abd Pb
   COPYR  = (c) Copyright 06Sep2000 Georg Kresse                                
   COPYR  = This file is part of the software VASP. Any use, copying, and all ot
   COPYR  = If you do not have a valid VASP license, you may not use, copy or di
   VRHFIN =Pb:                                                                  
   LEXCH  = PE                                                                  
   EATOM  =  1661.6185 eV,  122.1255 Ry                                         
                                                                                
   TITEL  = PAW_PBE Pb_d 06Sep2000                                              
   LULTRA =        F    use ultrasoft PP ?                                      
   IUNSCR =        1    unscreen: 0-lin 1-nonlin 2-no                           
   RPACOR =    2.200    partial core radius                                     
   POMASS =  207.200; ZVAL   =   14.000    mass and valenz                      
   RCORE  =    2.500    outmost cutoff radius                                   
   RWIGS  =    3.260; RWIGS  =    1.725    wigner-seitz radius (au A)           
   ENMAX  =  237.835; ENMIN  =  178.376 eV                                      
   ICORE  =        3    local potential                                         
   LCOR   =        T    correct aug charges                                     
   LPAW   =        T    paw PP                                                  
   EAUG   =  391.914                                                            
   DEXC   =    0.000                                                            
   RMAX   =    2.565    core radius for proj-oper                               
   RAUG   =    1.300    factor for augmentation sphere                          
   RDEP   =    2.643    radius for radial grids                                 
   RDEPT  =    2.092    core radius for aug-charge                              
                                                                                
   Atomic configuration                                                         
   16 entries                                                                   
     n  l   j            E        occ.                                          
     1  0  0.50    -88091.8466   2.0000                                         
     2  0  0.50    -15753.4197   2.0000                                         
     2  1  1.50    -13508.1797   6.0000                                         
     3  0  0.50     -3781.7194   2.0000                                         
     3  1  1.50     -3138.2529   6.0000                                         
     3  2  2.50     -2483.2977  10.0000                                         
     4  0  0.50      -856.2895   2.0000                                         
     4  1  1.50      -645.4942   6.0000                                         
     4  2  2.50      -401.8768  10.0000                                         
     4  3  3.50      -132.9059  14.0000                                         
     5  0  0.50      -144.0950   2.0000                                         
     5  1  1.50       -85.7879   6.0000                                         
     5  2  2.50       -21.1769  10.0000                                         
     6  0  0.50       -12.0372   2.0000                                         
     6  1  1.50        -3.4971   2.0000                                         
     5  3  2.50        -2.7212   0.0000                                         
   Description                                                                  
     l       E           TYP  RCUT    TYP  RCUT                                 
     2    -21.1768523     23  2.500                                             
     2      1.3605826     23  2.500                                             
     0    -12.0371562     23  2.500                                             
     0     13.6058260     23  2.500                                             
     1     -3.4971339     23  2.500                                             
     1     13.6058260     23  2.500                                             
     3     -1.3605826      7  2.500                                             
  local pseudopotential read in
  partial core-charges read in
  partial kinetic energy density read in
  atomic valenz-charges read in
  non local Contribution for L=           2  read in
    real space projection operators read in
  non local Contribution for L=           2  read in
    real space projection operators read in
  non local Contribution for L=           0  read in
    real space projection operators read in
  non local Contribution for L=           0  read in
    real space projection operators read in
  non local Contribution for L=           1  read in
    real space projection operators read in
  non local Contribution for L=           1  read in
    real space projection operators read in
    PAW grid and wavefunctions read in

   number of l-projection  operators is LMAX  =           6
   number of lm-projection operators is LMMAX =          18

 POTCAR:    PAW_PBE Br 06Sep2000                  
   SHA256 =  96a73d2954943bbee26f4990d676cc6c3bf44b8dd2c75cd4b3b825d8403f0103 Br
   COPYR  = (c) Copyright 06Sep2000 Georg Kresse                                
   COPYR  = This file is part of the software VASP. Any use, copying, and all ot
   COPYR  = If you do not have a valid VASP license, you may not use, copy or di
   VRHFIN =Br: s2p5                                                             
   LEXCH  = PE                                                                  
   EATOM  =   368.4488 eV,   27.0802 Ry                                         
                                                                                
   TITEL  = PAW_PBE Br 06Sep2000                                                
   LULTRA =        F    use ultrasoft PP ?                                      
   IUNSCR =        1    unscreen: 0-lin 1-nonlin 2-no                           
   RPACOR =    1.900    partial core radius                                     
   POMASS =   79.904; ZVAL   =    7.000    mass and valenz                      
   RCORE  =    2.100    outmost cutoff radius                                   
   RWIGS  =    2.200; RWIGS  =    1.164    wigner-seitz radius (au A)           
   ENMAX  =  216.285; ENMIN  =  162.214 eV                                      
   ICORE  =        3    local potential                                         
   LCOR   =        T    correct aug charges                                     
   LPAW   =        T    paw PP                                                  
   EAUG   =  503.852                                                            
   DEXC   =    0.000                                                            
   RMAX   =    2.139    core radius for proj-oper                               
   RAUG   =    1.300    factor for augmentation sphere                          
   RDEP   =    2.186    radius for radial grids                                 
   RDEPT  =    1.890    core radius for aug-charge                              
                                                                                
   Atomic configuration                                                         
   10 entries                                                                   
     n  l   j            E        occ.                                          
     1  0  0.50    -13316.2796   2.0000                                         
     2  0  0.50     -1732.8239   2.0000                                         
     2  1  1.50     -1528.2193   6.0000                                         
     3  0  0.50      -238.0460   2.0000                                         
     3  1  1.50      -173.4609   6.0000                                         
     3  2  2.50       -66.7132  10.0000                                         
     4  0  0.50       -20.1334   2.0000                                         
     4  1  0.50        -7.8591   5.0000                                         
     4  2  2.50        -8.1635   0.0000                                         
     4  3  2.50        -8.1635   0.0000                                         
   Description                                                                  
     l       E           TYP  RCUT    TYP  RCUT                                 
     0    -20.1333652     23  2.100                                             
     0    -21.4939478     23  2.100                                             
     1     -7.8591052     23  2.100                                             
     1     -3.1608434     23  2.100                                             
     2     -8.1634956     23  2.100                                             
     3     -1.3605826      7  2.100                                             
  local pseudopotential read in
  partial core-charges read in
  partial kinetic energy density read in
  atomic valenz-charges read in
  non local Contribution for L=           0  read in
    real space projection operators read in
  non local Contribution for L=           0  read in
    real space projection operators read in
  non local Contribution for L=           1  read in
    real space projection operators read in
  non local Contribution for L=           1  read in
    real space projection operators read in
  non local Contribution for L=           2  read in
    real space projection operators read in
    PAW grid and wavefunctions read in

   number of l-projection  operators is LMAX  =           5
   number of lm-projection operators is LMMAX =          13

 Optimization of the real space projectors (new method)

 maximal supplied QI-value         = 15.12
 optimisation between [QCUT,QGAM] = [  8.77, 17.69] = [ 21.53, 87.61] Ry 
 Optimized for a Real-space Cutoff    1.85 Angstroem

   l    n(q)    QCUT    max X(q) W(low)/X(q) W(high)/X(q)  e(spline) 
   0     10     8.768    25.322    0.81E-04    0.51E-04    0.48E-06
   0     10     8.768    99.187    0.78E-04    0.50E-04    0.47E-06
   1      9     8.768    11.761    0.21E-03    0.20E-03    0.37E-06
   1      9     8.768     8.275    0.24E-03    0.22E-03    0.41E-06
   2      9     8.768     3.829    0.23E-04    0.15E-03    0.18E-06
 Optimization of the real space projectors (new method)

 maximal supplied QI-value         = 15.12
 optimisation between [QCUT,QGAM] = [  8.77, 17.69] = [ 21.53, 87.61] Ry 
 Optimized for a Real-space Cutoff    1.59 Angstroem

   l    n(q)    QCUT    max X(q) W(low)/X(q) W(high)/X(q)  e(spline) 
   2      7     8.768     3.846    0.48E-04    0.11E-03    0.11E-06
   2      7     8.768     8.593    0.20E-03    0.22E-04    0.24E-06
   0      8     8.768    20.082    0.68E-04    0.88E-04    0.41E-07
   0      8     8.768     8.597    0.89E-04    0.13E-03    0.59E-07
   1      8     8.768    33.223    0.15E-03    0.53E-04    0.87E-07
   1      8     8.768    15.899    0.14E-03    0.44E-04    0.78E-07
 Optimization of the real space projectors (new method)

 maximal supplied QI-value         = 17.95
 optimisation between [QCUT,QGAM] = [  8.80, 17.59] = [ 21.67, 86.68] Ry 
 Optimized for a Real-space Cutoff    1.59 Angstroem

   l    n(q)    QCUT    max X(q) W(low)/X(q) W(high)/X(q)  e(spline) 
   0      8     8.797   175.082    0.82E-04    0.14E-03    0.89E-07
   0      8     8.797   174.004    0.79E-04    0.14E-03    0.86E-07
   1      8     8.797    54.315    0.16E-03    0.14E-04    0.30E-06
   1      8     8.797    42.441    0.16E-03    0.14E-04    0.30E-06
   2      7     8.797     3.596    0.92E-04    0.15E-03    0.85E-07
 Optimization of the real space projectors (new method)

 maximal supplied QI-value         = 15.12
 optimisation between [QCUT,QGAM] = [  8.77, 17.69] = [ 21.53, 87.61] Ry 
 Optimized for a Real-space Cutoff    1.85 Angstroem

   l    n(q)    QCUT    max X(q) W(low)/X(q) W(high)/X(q)  e(spline) 
   0     10     8.768    25.322    0.81E-04    0.51E-04    0.48E-06
   0     10     8.768    99.187    0.78E-04    0.50E-04    0.47E-06
   1      9     8.768    11.761    0.21E-03    0.20E-03    0.37E-06
   1      9     8.768     8.275    0.24E-03    0.22E-03    0.41E-06
   2      9     8.768     3.829    0.23E-04    0.15E-03    0.18E-06
 Optimization of the real space projectors (new method)

 maximal supplied QI-value         = 15.12
 optimisation between [QCUT,QGAM] = [  8.77, 17.69] = [ 21.53, 87.61] Ry 
 Optimized for a Real-space Cutoff    1.59 Angstroem

   l    n(q)    QCUT    max X(q) W(low)/X(q) W(high)/X(q)  e(spline) 
   2      7     8.768     3.846    0.48E-04    0.11E-03    0.11E-06
   2      7     8.768     8.593    0.20E-03    0.22E-04    0.24E-06
   0      8     8.768    20.082    0.68E-04    0.88E-04    0.41E-07
   0      8     8.768     8.597    0.89E-04    0.13E-03    0.59E-07
   1      8     8.768    33.223    0.15E-03    0.53E-04    0.87E-07
   1      8     8.768    15.899    0.14E-03    0.44E-04    0.78E-07
 Optimization of the real space projectors (new method)

 maximal supplied QI-value         = 17.95
 optimisation between [QCUT,QGAM] = [  8.80, 17.59] = [ 21.67, 86.68] Ry 
 Optimized for a Real-space Cutoff    1.59 Angstroem

   l    n(q)    QCUT    max X(q) W(low)/X(q) W(high)/X(q)  e(spline) 
   0      8     8.797   175.082    0.82E-04    0.14E-03    0.89E-07
   0      8     8.797   174.004    0.79E-04    0.14E-03    0.86E-07
   1      8     8.797    54.315    0.16E-03    0.14E-04    0.30E-06
   1      8     8.797    42.441    0.16E-03    0.14E-04    0.30E-06
   2      7     8.797     3.596    0.92E-04    0.15E-03    0.85E-07
  PAW_PBE Cs_sv 08Apr2002               :
 energy of atom  1       EATOM= -555.6835
 kinetic energy error for atom=    0.0069 (will be added to EATOM!!)
  PAW_PBE Pb_d 06Sep2000                :
 energy of atom  2       EATOM=-1661.6185
 kinetic energy error for atom=    0.0498 (will be added to EATOM!!)
  PAW_PBE Br 06Sep2000                  :
 energy of atom  3       EATOM= -368.4488
 kinetic energy error for atom=    0.0072 (will be added to EATOM!!)
  PAW_PBE Cs_sv 08Apr2002               :
 energy of atom  4       EATOM= -555.6835
 kinetic energy error for atom=    0.0069 (will be added to EATOM!!)
  PAW_PBE Pb_d 06Sep2000                :
 energy of atom  5       EATOM=-1661.6185
 kinetic energy error for atom=    0.0498 (will be added to EATOM!!)
  PAW_PBE Br 06Sep2000                  :
 energy of atom  6       EATOM= -368.4488
 kinetic energy error for atom=    0.0072 (will be added to EATOM!!)


 POSCAR: Cs64 Pb64 Br191                         
  positions in direct lattice
  No initial velocities read in

 METAGGA = SCAN     LMAXTAU =  6    LMIXTAU =  F

 exchange correlation table for  LEXCH =        8
   RHO(1)=    0.500       N(1)  =     2000
   RHO(2)=  100.500       N(2)  =     4000

 VTST: version 3.2, (02/03/18)

 CHAIN: initializing optimizer
 
 OPT: Using VASP Conjugate-Gradient optimizer
 CHAIN: Read ICHAIN            0

 POSCAR: Cs64 Pb64 Br191                         
  positions in direct lattice
  No initial velocities read in



--------------------------------------------------------------------------------------------------------


 ion  position               nearest neighbor table
   1  0.886  0.875  0.353-
   2  0.136  0.875  0.603-
   3  0.887  0.374  0.351-
   4  0.136  0.374  0.606-
   5  0.886  0.875  0.854-
   6  0.136  0.875  0.103-
   7  0.386  0.875  0.354-
   8  0.636  0.875  0.603-
   9  0.886  0.375  0.853-
  10  0.136  0.375  0.103-
  11  0.386  0.875  0.854-
  12  0.636  0.875  0.104-
  13  0.387  0.375  0.853-
  14  0.636  0.375  0.102-
  15  0.104  0.125  0.386-
  16  0.354  0.125  0.636-
  17  0.103  0.626  0.385-
  18  0.104  0.125  0.886-
  19  0.353  0.125  0.136-
  20  0.604  0.125  0.386-
  21  0.854  0.125  0.636-
  22  0.104  0.625  0.886-
  23  0.354  0.625  0.136-
  24  0.854  0.628  0.639-
  25  0.604  0.125  0.886-
  26  0.854  0.125  0.136-
  27  0.604  0.625  0.886-
  28  0.854  0.625  0.136-
  29  0.896  0.875  0.114-
  30  0.147  0.875  0.364-
  31  0.896  0.375  0.114-
  32  0.147  0.374  0.362-
  33  0.897  0.875  0.614-
  34  0.147  0.875  0.864-
  35  0.396  0.875  0.114-
  36  0.647  0.876  0.363-
  37  0.896  0.373  0.614-
  38  0.146  0.375  0.864-
  39  0.396  0.375  0.114-
  40  0.396  0.875  0.614-
  41  0.646  0.875  0.864-
  42  0.646  0.375  0.864-
  43  0.114  0.125  0.146-
  44  0.364  0.125  0.396-
  45  0.114  0.625  0.146-
  46  0.114  0.125  0.646-
  47  0.364  0.125  0.897-
  48  0.614  0.125  0.146-
  49  0.864  0.125  0.397-
  50  0.114  0.625  0.647-
  51  0.364  0.625  0.897-
  52  0.614  0.625  0.146-
  53  0.863  0.627  0.393-
  54  0.614  0.124  0.646-
  55  0.864  0.125  0.897-
  56  0.864  0.625  0.897-
  57  0.751  0.751  0.249- 132 2.98 310 2.99 225 3.00 252 3.00 143 3.01 203 3.01
  58  0.000  0.750  0.500- 133 2.99 200 3.00 241 3.01 226 3.01 220 3.01 144 3.02
  59  0.750  0.249  0.250- 141 2.98 250 2.99 227 3.00 136 3.01 216 3.01 207 3.03
  60  0.000  0.250  0.500- 142 2.99 228 3.00 204 3.00 239 3.01 217 3.01 137 3.02
  61  0.750  0.751  0.750- 138 2.98 209 2.99 229 3.00 149 3.01 223 3.01 315 3.02
  62  0.000  0.750  1.000- 139 2.99 150 3.00 230 3.00 224 3.01 247 3.01 197 3.01
  63  0.250  0.750  0.250- 127 2.99 213 3.00 248 3.00 301 3.00 231 3.01 198 3.01
  64  0.500  0.750  0.500- 128 2.97 208 3.00 311 3.00 314 3.01 232 3.01 302 3.06
  65  0.751  0.248  0.751- 145 2.97 210 2.99 233 3.00 221 3.00 299 3.01 246 3.02
  66  0.000  0.250  1.000- 146 2.99 140 3.00 234 3.00 222 3.01 199 3.01 243 3.01
  67  0.250  0.750  0.750- 130 2.99 201 3.00 218 3.00 153 3.01 236 3.01 242 3.02
  68  0.500  0.750  1.000- 131 2.99 154 3.00 219 3.00 237 3.01 202 3.01 251 3.01
  69  0.250  0.250  0.750- 151 2.99 214 3.00 205 3.00 134 3.00 312 3.01 240 3.01
  70  0.500  0.250  0.000- 152 2.99 215 3.00 135 3.00 249 3.01 238 3.01 206 3.01
  71  0.000  0.750  0.250- 155 2.99 197 3.00 225 3.00 115 3.00 213 3.01 241 3.01
  72  0.250  0.750  0.500- 156 2.99 198 3.00 226 3.00 242 3.01 116 3.02 311 3.03
  73  0.000  0.250  0.250- 113 2.99 199 3.00 157 3.00 211 3.01 239 3.01 227 3.01
  74  0.000  0.750  0.750- 158 2.99 121 3.00 247 3.00 218 3.00 200 3.01 229 3.01
  75  0.250  0.750  1.000- 159 2.99 122 3.00 248 3.00 230 3.01 201 3.01 219 3.01
  76  0.499  0.751  0.249- 160 2.98 231 2.99 202 2.99 123 3.01 310 3.01 314 3.02
  77  0.750  0.750  0.500- 161 2.98 315 3.00 203 3.00 220 3.01 232 3.01 298 3.06
  78  0.000  0.250  0.750- 117 2.99 243 3.00 162 3.00 233 3.01 214 3.01 204 3.01
  79  0.250  0.250  1.000- 118 2.99 163 3.00 205 3.01 234 3.01 244 3.01 215 3.01
  80  0.750  0.250  0.500- 120 2.98 217 3.00 207 3.00 246 3.01 313 3.01 164 3.04
  81  0.500  0.750  0.750- 165 2.98 251 3.00 236 3.01 223 3.01 208 3.01 297 3.01
  82  0.750  0.750  0.000- 166 2.99 126 3.00 252 3.00 224 3.01 237 3.01 209 3.01
  83  0.500  0.249  0.751- 124 2.99 249 2.99 312 3.00 308 3.00 167 3.01 221 3.01
  84  0.750  0.250  0.000- 125 2.99 210 3.00 168 3.00 222 3.00 250 3.01 238 3.01
  85  0.000  1.000  0.250- 155 3.00 113 3.00 267 3.00 169 3.01 253 3.01 183 3.01
  86  0.250  1.000  0.500- 114 3.00 184 3.00 268 3.00 170 3.01 156 3.01 254 3.01
  87  0.000  0.500  0.250- 115 2.99 157 2.99 269 3.00 255 3.00 171 3.01 185 3.02
  88  0.000  0.000  0.750- 158 3.00 117 3.00 187 3.00 256 3.01 270 3.01 173 3.01
  89  0.250  0.000  1.000- 159 3.00 118 3.00 174 3.01 188 3.01 271 3.01 257 3.01
  90  0.500  0.000  0.250- 160 2.99 119 3.00 272 3.00 175 3.00 189 3.01 258 3.01
  91  0.750  1.000  0.500- 273 3.00 190 3.00 259 3.00 176 3.01 120 3.01 161 3.01
  92  1.000  0.500  0.750- 162 2.99 191 2.99 121 2.99 260 3.01 177 3.01 274 3.03
  93  0.250  0.500  1.000- 122 2.99 163 2.99 178 3.01 192 3.01 261 3.01 275 3.01
  94  0.755  0.501  0.501- 262 2.80 164 2.98 298 2.98 277 2.99 307 3.00
  95  0.500  1.000  0.750- 124 2.99 165 3.00 193 3.00 180 3.01 263 3.01 278 3.01
  96  0.750  1.000  1.000- 166 3.00 125 3.00 264 3.01 194 3.01 181 3.01 279 3.01
  97  0.500  0.500  0.750- 297 2.98 195 2.99 167 3.00 305 3.00 265 3.01 318 3.05
  98  0.750  0.500  1.000- 126 2.99 168 2.99 266 3.00 182 3.01 280 3.01 196 3.02
  99  0.750  0.000  0.250- 132 2.99 141 3.00 194 3.00 169 3.00 258 3.01 273 3.01
 100  0.000  1.000  0.500- 142 3.00 133 3.00 170 3.00 270 3.00 183 3.01 259 3.01
 101  0.750  0.500  0.249- 196 2.99 136 2.99 143 2.99 171 3.00 316 3.02 277 3.05
 102  0.001  0.499  0.500- 172 2.96 137 2.98 144 2.98 274 2.99 185 3.00 262 3.13
 103  0.750  1.000  0.750- 138 2.99 145 2.99 279 3.00 173 3.00 263 3.01 190 3.01
 104  0.000  0.000  1.000- 139 3.00 146 3.00 174 3.00 264 3.01 267 3.01 187 3.01
 105  0.250  0.000  0.250- 147 3.00 127 3.00 253 3.00 188 3.00 175 3.01 268 3.01
 106  0.500  1.000  0.500- 254 3.00 278 3.00 148 3.00 189 3.01 176 3.01 128 3.01
 107  0.750  0.501  0.750- 149 2.98 280 2.99 299 2.99 177 3.00 265 3.01 307 3.06
 108  0.000  0.500  1.000- 140 2.99 150 2.99 178 3.01 266 3.01 269 3.01 191 3.01
 109  0.250  1.000  0.750- 151 3.00 130 3.00 256 3.00 271 3.00 180 3.01 184 3.01
 110  0.500  0.000  1.000- 131 3.00 152 3.00 257 3.00 181 3.01 193 3.01 272 3.01
 111  0.250  0.500  0.750- 275 2.99 134 2.99 153 3.00 260 3.00 305 3.02 186 3.03
 112  0.500  0.500  0.000- 135 2.99 154 2.99 261 3.00 182 3.01 195 3.01 276 3.02
 113  0.984  0.125  0.230-  73 2.99  85 3.00
 114  0.235  0.125  0.481- 292 2.99  86 3.00
 115  0.984  0.625  0.231-  87 2.99  71 3.00
 116  0.234  0.624  0.479- 294 2.98  72 3.02
 117  0.984  0.125  0.730-  78 2.99  88 3.00
 118  0.234  0.125  0.980-  79 2.99  89 3.00
 119  0.484  0.126  0.230- 291 2.98  90 3.00
 120  0.734  0.125  0.481-  80 2.98  91 3.01
 121  0.985  0.625  0.731-  92 2.99  74 3.00
 122  0.234  0.625  0.981-  93 2.99  75 3.00
 123  0.486  0.625  0.233- 293 3.00  76 3.01
 124  0.484  0.124  0.731-  83 2.99  95 2.99
 125  0.734  0.125  0.980-  84 2.99  96 3.00
 126  0.734  0.625  0.981-  98 2.99  82 3.00
 127  0.230  0.875  0.234-  63 2.99 105 3.00
 128  0.481  0.874  0.485-  64 2.97 106 3.01
 129  0.231  0.375  0.234- 295 2.99 289 3.00
 130  0.230  0.875  0.734-  67 2.99 109 3.00
 131  0.481  0.875  0.984-  68 2.99 110 3.00
 132  0.732  0.875  0.234-  57 2.98  99 2.99
 133  0.980  0.874  0.484-  58 2.99 100 3.00
 134  0.232  0.375  0.735- 111 2.99  69 3.00
 135  0.481  0.375  0.984- 112 2.99  70 3.00
 136  0.730  0.375  0.233- 101 2.99  59 3.01
 137  0.979  0.375  0.484- 102 2.98  60 3.02
 138  0.730  0.875  0.734-  61 2.98 103 2.99
 139  0.981  0.875  0.984-  62 2.99 104 3.00
 140  0.980  0.375  0.984- 108 2.99  66 3.00
 141  0.770  0.125  0.266-  59 2.98  99 3.00
 142  0.019  0.125  0.515-  60 2.99 100 3.00
 143  0.766  0.625  0.265- 101 2.99  57 3.01
 144  0.019  0.624  0.516- 102 2.98  58 3.02
 145  0.771  0.124  0.766-  65 2.97 103 2.99
 146  0.019  0.125  0.015-  66 2.99 104 3.00
 147  0.270  0.125  0.266- 289 2.99 105 3.00
 148  0.519  0.125  0.515- 290 2.98 106 3.00
 149  0.768  0.625  0.766- 107 2.98  61 3.01
 150  0.020  0.625  0.015- 108 2.99  62 3.00
 151  0.270  0.125  0.766-  69 2.99 109 3.00
 152  0.520  0.125  0.015-  70 2.99 110 3.00
 153  0.268  0.625  0.767- 111 3.00  67 3.01
 154  0.519  0.625  0.016- 112 2.99  68 3.00
 155  0.016  0.875  0.270-  71 2.99  85 3.00
 156  0.266  0.874  0.519-  72 2.99  86 3.01
 157  0.016  0.375  0.269-  87 2.99  73 3.00
 158  0.016  0.875  0.769-  74 2.99  88 3.00
 159  0.266  0.875  0.019-  75 2.99  89 3.00
 160  0.515  0.876  0.270-  76 2.98  90 2.99
 161  0.766  0.874  0.519-  77 2.98  91 3.01
 162  0.015  0.375  0.769-  92 2.99  78 3.00
 163  0.266  0.375  0.019-  93 2.99  79 3.00
 164  0.759  0.376  0.523-  94 2.98  80 3.04
 165  0.516  0.875  0.770-  81 2.98  95 3.00
 166  0.766  0.875  0.020-  82 2.99  96 3.00
 167  0.517  0.375  0.767-  97 3.00  83 3.01
 168  0.766  0.375  0.019-  98 2.99  84 3.00
 169  0.874  0.982  0.225-  99 3.00  85 3.01
 170  0.124  0.982  0.475- 100 3.00  86 3.01
 171  0.874  0.482  0.225- 101 3.00  87 3.01
 172  0.123  0.481  0.474- 294 2.95 102 2.96
 173  0.874  0.982  0.724- 103 3.00  88 3.01
 174  0.124  0.982  0.975- 104 3.00  89 3.01
 175  0.374  0.982  0.225-  90 3.00 105 3.01
 176  0.624  0.982  0.474- 106 3.01  91 3.01
 177  0.874  0.484  0.723- 107 3.00  92 3.01
 178  0.124  0.482  0.975- 108 3.01  93 3.01
 179  0.374  0.482  0.226- 293 3.00 295 3.01
 180  0.374  0.982  0.724-  95 3.01 109 3.01
 181  0.624  0.982  0.975- 110 3.01  96 3.01
 182  0.624  0.482  0.975- 112 3.01  98 3.01
 183  0.975  0.018  0.374- 100 3.01  85 3.01
 184  0.225  0.018  0.624-  86 3.00 109 3.01
 185  0.974  0.518  0.374- 102 3.00  87 3.02
 186  0.224  0.519  0.623- 294 2.99 111 3.03
 187  0.975  0.018  0.874-  88 3.00 104 3.01
 188  0.225  0.018  0.124- 105 3.00  89 3.01
 189  0.475  0.018  0.374- 106 3.01  90 3.01
 190  0.725  0.018  0.624-  91 3.00 103 3.01
 191  0.974  0.518  0.874-  92 2.99 108 3.01
 192  0.225  0.518  0.124- 295 3.00  93 3.01
 193  0.475  0.018  0.874-  95 3.00 110 3.01
 194  0.725  0.018  0.124-  99 3.00  96 3.01
 195  0.475  0.518  0.874-  97 2.99 112 3.01
 196  0.724  0.518  0.124- 101 2.99  98 3.02
 197  0.026  0.768  0.126-  71 3.00  62 3.01
 198  0.276  0.768  0.376-  72 3.00  63 3.01
 199  0.025  0.268  0.126-  73 3.00  66 3.01
 200  0.025  0.768  0.626-  58 3.00  74 3.01
 201  0.276  0.768  0.876-  67 3.00  75 3.01
 202  0.525  0.768  0.126-  76 2.99  68 3.01
 203  0.775  0.768  0.376-  77 3.00  57 3.01
 204  0.025  0.268  0.626-  60 3.00  78 3.01
 205  0.276  0.268  0.876-  69 3.00  79 3.01
 206  0.526  0.268  0.126- 291 3.00  70 3.01
 207  0.775  0.269  0.376-  80 3.00  59 3.03
 208  0.526  0.768  0.626-  64 3.00  81 3.01
 209  0.776  0.768  0.876-  61 2.99  82 3.01
 210  0.776  0.267  0.876-  65 2.99  84 3.00
 211  0.126  0.232  0.276- 289 3.00  73 3.01
 212  0.376  0.233  0.525- 290 3.00 292 3.01
 213  0.126  0.732  0.275-  63 3.00  71 3.01
 214  0.126  0.232  0.775-  69 3.00  78 3.01
 215  0.376  0.232  0.026-  70 3.00  79 3.01
 216  0.626  0.232  0.276-  59 3.01 291 3.02
 217  0.876  0.232  0.526-  80 3.00  60 3.01
 218  0.126  0.732  0.775-  67 3.00  74 3.00
 219  0.376  0.732  0.025-  68 3.00  75 3.01
 220  0.876  0.730  0.524-  77 3.01  58 3.01
 221  0.626  0.233  0.774-  65 3.00  83 3.01
 222  0.876  0.232  0.026-  84 3.00  66 3.01
 223  0.626  0.732  0.776-  61 3.01  81 3.01
 224  0.876  0.732  0.025-  82 3.01  62 3.01
 225  0.874  0.768  0.224-  57 3.00  71 3.00
 226  0.124  0.768  0.475-  72 3.00  58 3.01
 227  0.874  0.268  0.224-  59 3.00  73 3.01
 228  0.124  0.269  0.475-  60 3.00 292 3.01
 229  0.874  0.768  0.725-  61 3.00  74 3.01
 230  0.124  0.768  0.974-  62 3.00  75 3.01
 231  0.374  0.768  0.224-  76 2.99  63 3.01
 232  0.624  0.769  0.473-  77 3.01  64 3.01
 233  0.874  0.267  0.725-  65 3.00  78 3.01
 234  0.124  0.268  0.975-  66 3.00  79 3.01
 235  0.374  0.268  0.225- 291 3.00 289 3.01
 236  0.374  0.768  0.725-  81 3.01  67 3.01
 237  0.624  0.768  0.975-  68 3.01  82 3.01
 238  0.624  0.268  0.974-  70 3.01  84 3.01
 239  0.975  0.232  0.374-  60 3.01  73 3.01
 240  0.225  0.232  0.624- 292 3.00  69 3.01
 241  0.975  0.732  0.374-  58 3.01  71 3.01
 242  0.225  0.732  0.624-  72 3.01  67 3.02
 243  0.975  0.232  0.874-  78 3.00  66 3.01
 244  0.225  0.232  0.124- 289 3.00  79 3.01
 245  0.475  0.232  0.374- 290 2.99 291 3.01
 246  0.725  0.231  0.624-  80 3.01  65 3.02
 247  0.975  0.732  0.874-  74 3.00  62 3.01
 248  0.225  0.732  0.124-  63 3.00  75 3.00
 249  0.474  0.232  0.874-  83 2.99  70 3.01
 250  0.725  0.232  0.124-  59 2.99  84 3.01
 251  0.475  0.732  0.874-  81 3.00  68 3.01
 252  0.725  0.732  0.124-  57 3.00  82 3.00
 253  0.126  0.018  0.275- 105 3.00  85 3.01
 254  0.376  0.018  0.525- 106 3.00  86 3.01
 255  0.126  0.518  0.276-  87 3.00 295 3.00
 256  0.126  0.018  0.775- 109 3.00  88 3.01
 257  0.376  0.018  0.025- 110 3.00  89 3.01
 258  0.626  0.018  0.275-  99 3.01  90 3.01
 259  0.876  0.018  0.525-  91 3.00 100 3.01
 260  0.126  0.518  0.775- 111 3.00  92 3.01
 261  0.376  0.518  0.026- 112 3.00  93 3.01
 262  0.872  0.519  0.526-  94 2.80 102 3.13
 263  0.626  0.018  0.775- 103 3.01  95 3.01
 264  0.876  0.018  0.025- 104 3.01  96 3.01
 265  0.626  0.517  0.776- 107 3.01  97 3.01
 266  0.876  0.518  0.026-  98 3.00 108 3.01
 267  0.025  0.982  0.126-  85 3.00 104 3.01
 268  0.275  0.982  0.376-  86 3.00 105 3.01
 269  0.025  0.482  0.126-  87 3.00 108 3.01
 270  0.025  0.982  0.626- 100 3.00  88 3.01
 271  0.275  0.982  0.876- 109 3.00  89 3.01
 272  0.525  0.982  0.126-  90 3.00 110 3.01
 273  0.776  0.982  0.376-  91 3.00  99 3.01
 274  0.025  0.482  0.625- 102 2.99  92 3.03
 275  0.276  0.482  0.876- 111 2.99  93 3.01
 276  0.526  0.483  0.127- 293 2.99 112 3.02
 277  0.774  0.479  0.377-  94 2.99 101 3.05
 278  0.525  0.982  0.626- 106 3.00  95 3.01
 279  0.775  0.982  0.876- 103 3.00  96 3.01
 280  0.776  0.483  0.876- 107 2.99  98 3.01
 281  0.386  0.375  0.354-
 282  0.636  0.368  0.618-
 283  0.601  0.633  0.379-
 284  0.352  0.627  0.639-
 285  0.397  0.372  0.614-
 286  0.647  0.370  0.361-
 287  0.615  0.627  0.650-
 288  0.363  0.625  0.393-
 289  0.250  0.250  0.250- 147 2.99 244 3.00 129 3.00 211 3.00 235 3.01 309 3.02
 290  0.500  0.249  0.500- 148 2.98 245 2.99 308 3.00 212 3.00 313 3.00 300 3.04
 291  0.500  0.250  0.250- 119 2.98 206 3.00 235 3.00 245 3.01 303 3.01 216 3.02
 292  0.250  0.250  0.500- 114 2.99 240 3.00 309 3.00 228 3.01 212 3.01 304 3.02
 293  0.500  0.500  0.250- 303 2.99 276 2.99 179 3.00 123 3.00 316 3.02 306 3.05
 294  0.246  0.500  0.500- 172 2.95 116 2.98 186 2.99 304 2.99 319 3.01 317 3.13
 295  0.250  0.500  0.250- 129 2.99 301 2.99 192 3.00 255 3.00 179 3.01 319 3.03
 296  0.492  0.503  0.503- 317 2.80 302 2.97 318 2.98 306 2.99 300 3.00
 297  0.484  0.625  0.731-  97 2.98  81 3.01
 298  0.731  0.623  0.476-  94 2.98  77 3.06
 299  0.736  0.375  0.739- 107 2.99  65 3.01
 300  0.485  0.377  0.485- 296 3.00 290 3.04
 301  0.269  0.625  0.264- 295 2.99  63 3.00
 302  0.528  0.624  0.515- 296 2.97  64 3.06
 303  0.516  0.375  0.270- 293 2.99 291 3.01
 304  0.266  0.376  0.520- 294 2.99 292 3.02
 305  0.374  0.482  0.723-  97 3.00 111 3.02
 306  0.479  0.519  0.376- 296 2.99 293 3.05
 307  0.722  0.518  0.622-  94 3.00 107 3.06
 308  0.523  0.265  0.626- 290 3.00  83 3.00
 309  0.275  0.268  0.376- 292 3.00 289 3.02
 310  0.626  0.736  0.272-  57 2.99  76 3.01
 311  0.377  0.729  0.525-  64 3.00  72 3.03
 312  0.374  0.268  0.725-  83 3.00  69 3.01
 313  0.624  0.269  0.476- 290 3.00  80 3.01
 314  0.474  0.733  0.374-  64 3.01  76 3.02
 315  0.725  0.732  0.624-  77 3.00  61 3.02
 316  0.626  0.516  0.280- 293 3.02 101 3.02
 317  0.377  0.521  0.527- 296 2.80 294 3.13
 318  0.529  0.482  0.625- 296 2.98  97 3.05
 319  0.275  0.482  0.377- 294 3.01 295 3.03


IMPORTANT INFORMATION: All symmetrisations will be switched off!
NOSYMM: (Re-)initialisation of all symmetry stuff for point group C_1.



 KPOINTS: 1x1x1                                   

Automatic generation of k-mesh.
Space group operators:
 irot       det(A)        alpha          n_x          n_y          n_z        tau_x        tau_y        tau_z
    1     1.000000     0.000000     1.000000     0.000000     0.000000     0.000000     0.000000     0.000000
 
 Subroutine IBZKPT returns following result:
 ===========================================
 
 Found      1 irreducible k-points:
 
 Following reciprocal coordinates:
            Coordinates               Weight
  0.000000  0.000000  0.000000      1.000000
 
 Following cartesian coordinates:
            Coordinates               Weight
 -0.000000  0.000000  0.000000      1.000000
 


--------------------------------------------------------------------------------------------------------




 Dimension of arrays:
   k-points           NKPTS =      1   k-points in BZ     NKDIM =      1   number of bands    NBANDS=   1688
   number of dos      NEDOS =    301   number of ions     NIONS =    319
   non local maximal  LDIM  =      6   non local SUM 2l+1 LMDIM =     18
   total plane-waves  NPLWV = ******
   max r-space proj   IRMAX =   5716   max aug-charges    IRDMAX=  91227
   dimension x,y,z NGX =   140 NGY =  140 NGZ =  140
   dimension x,y,z NGXF=   280 NGYF=  280 NGZF=  280
   support grid    NGXF=   560 NGYF=  560 NGZF=  560
   ions per type =              56  56 168   8   8  23
   NGX,Y,Z   is equivalent  to a cutoff of   9.97,  9.89,  9.97 a.u.
   NGXF,Y,Z  is equivalent  to a cutoff of  19.95, 19.78, 19.95 a.u.

 SYSTEM =  CsPbBr3 cubic bulk                      
 POSCAR =  Cs64 Pb64 Br191                         

 Startparameter for this run:
   NWRITE =      2    write-flag & timer
   PREC   = accura    normal or accurate (medium, high low for compatibility)
   ISTART =      0    job   : 0-new  1-cont  2-samecut
   ICHARG =      2    charge: 1-file 2-atom 10-const
   ISPIN  =      1    spin polarized calculation?
   LNONCOLLINEAR =      F non collinear calculations
   LSORBIT =      F    spin-orbit coupling
   INIWAV =      1    electr: 0-lowe 1-rand  2-diag
   LASPH  =      T    aspherical Exc in radial PAW
   METAGGA=      F    non-selfconsistent MetaGGA calc.

 Electronic Relaxation 1
   ENCUT  =  300.0 eV  22.05 Ry    4.70 a.u.  32.96 33.23 32.96*2*pi/ulx,y,z
   ENINI  =  300.0     initial cutoff
   ENAUG  =  503.9 eV  augmentation charge cutoff
   NELM   =    200;   NELMIN=  2; NELMDL= -5     # of ELM steps 
   EDIFF  = 0.1E-05   stopping-criterion for ELM
   LREAL  =      T    real-space projection
   NLSPLINE    = F    spline interpolate recip. space projectors
   LCOMPAT=      F    compatible to vasp.4.4
   GGA_COMPAT  = T    GGA compatible to vasp.4.4-vasp.4.6
   LMAXPAW     = -100 max onsite density
   LMAXMIX     =    2 max onsite mixed and CHGCAR
   VOSKOWN=      0    Vosko Wilk Nusair interpolation
   ROPT   =   -0.00025  -0.00025  -0.00025  -0.00025
   ROPT   =   -0.00025  -0.00025
 Ionic relaxation
   EDIFFG = -.1E-01   stopping-criterion for IOM
   NSW    =     75    number of steps for IOM
   NBLOCK =      1;   KBLOCK =     75    inner block; outer block 
   IBRION =      2    ionic relax: 0-MD 1-quasi-New 2-CG
   NFREE  =      1    steps in history (QN), initial steepest desc. (CG)
   ISIF   =      2    stress and relaxation
   IWAVPR =     11    prediction:  0-non 1-charg 2-wave 3-comb
   ISYM   =      0    0-nonsym 1-usesym 2-fastsym
   LCORR  =      T    Harris-Foulkes like correction to forces

   POTIM  = 0.5000    time-step for ionic-motion
   TEIN   =    0.0    initial temperature
   TEBEG  =    0.0;   TEEND  =   0.0 temperature during run
   SMASS  =  -3.00    Nose mass-parameter (am)
   estimated Nose-frequenzy (Omega)   =  0.10E-29 period in steps =****** mass=  -0.124E-25a.u.
   SCALEE = 1.0000    scale energy and forces
   NPACO  =    256;   APACO  = 16.0  distance and # of slots for P.C.
   PSTRESS=    0.0 pullay stress

  Mass of Ions in am
   POMASS = 132.90207.20 79.90132.90207.20 79.90
  Ionic Valenz
   ZVAL   =   9.00 14.00  7.00  9.00 14.00  7.00
  Atomic Wigner-Seitz radii
   RWIGS  =  -1.00 -1.00 -1.00 -1.00 -1.00 -1.00
  virtual crystal weights 
   VCA    =   1.00  1.00  1.00  1.00  1.00  1.00
   NELECT =    2808.0000    total number of electrons
   NUPDOWN=       0.0000    fix difference up-down

 DOS related values:
   EMIN   =  10.00;   EMAX   =-10.00  energy-range for DOS
   EFERMI =   0.00
   ISMEAR =     0;   SIGMA  =   0.01  broadening in eV -4-tet -1-fermi 0-gaus

 Electronic relaxation 2 (details)
   IALGO  =     38    algorithm
   LDIAG  =      T    sub-space diagonalisation (order eigenvalues)
   LSUBROT=      F    optimize rotation matrix (better conditioning)
   TURBO    =      0    0=normal 1=particle mesh
   IRESTART =      0    0=no restart 2=restart with 2 vectors
   NREBOOT  =      0    no. of reboots
   NMIN     =      0    reboot dimension
   EREF     =   0.00    reference energy to select bands
   IMIX   =      4    mixing-type and parameters
     AMIX     =   0.40;   BMIX     =  1.00
     AMIX_MAG =   1.60;   BMIX_MAG =  1.00
     AMIN     =   0.10
     WC   =   100.;   INIMIX=   1;  MIXPRE=   1;  MAXMIX= -45

 Intra band minimization:
   WEIMIN = 0.0010     energy-eigenvalue tresh-hold
   EBREAK =  0.15E-09  absolut break condition
   DEPER  =   0.30     relativ break condition  

   TIME   =   0.40     timestep for ELM

  volume/ion in A,a.u.               =      40.13       270.83
  Fermi-wavevector in a.u.,A,eV,Ry     =   0.987293  1.865713 13.262239  0.974747
  Thomas-Fermi vector in A             =   2.118736

 Write flags
   LWAVE        =      F    write WAVECAR
   LDOWNSAMPLE  =      F    k-point downsampling of WAVECAR
   LCHARG       =      F    write CHGCAR
   LVTOT        =      F    write LOCPOT, total local potential
   LVHAR        =      T    write LOCPOT, Hartree potential only
   LELF         =      F    write electronic localiz. function (ELF)
   LORBIT       =     10    0 simple, 1 ext, 2 COOP (PROOUT), +10 PAW based schemes


 Dipole corrections
   LMONO  =      F    monopole corrections only (constant potential shift)
   LDIPOL =      F    correct potential (dipole corrections)
   IDIPOL =      0    1-x, 2-y, 3-z, 4-all directions 
   EPSILON=  1.0000000 bulk dielectric constant

 Exchange correlation treatment:
   GGA     =    --    GGA type
   LEXCH   =     8    internal setting for exchange type
   VOSKOWN=      0    Vosko Wilk Nusair interpolation
   LHFCALC =     F    Hartree Fock is set to
   LHFONE  =     F    Hartree Fock one center treatment
   AEXX    =    0.0000 exact exchange contribution

 Linear response parameters
   LEPSILON=     F    determine dielectric tensor
   LRPA    =     F    only Hartree local field effects (RPA)
   LNABLA  =     F    use nabla operator in PAW spheres
   LVEL    =     F    velocity operator in full k-point grid
   LINTERFAST=   F  fast interpolation
   KINTER  =     0    interpolate to denser k-point grid
   CSHIFT  =0.1000    complex shift for real part using Kramers Kronig
   OMEGAMAX=  -1.0    maximum frequency
   DEG_THRESHOLD= 0.2000000E-02 threshold for treating states as degnerate
   RTIME   =   -0.100 relaxation time in fs
  (WPLASMAI=    0.000 imaginary part of plasma frequency in eV, 0.658/RTIME)
   DFIELD  = 0.0000000 0.0000000 0.0000000 field for delta impulse in time

 Orbital magnetization related:
   ORBITALMAG=     F  switch on orbital magnetization
   LCHIMAG   =     F  perturbation theory with respect to B field
   DQ        =  0.001000  dq finite difference perturbation B field
   LLRAUG    =     F  two centre corrections for induced B field



--------------------------------------------------------------------------------------------------------


 conjugate gradient relaxation of ions
 charge density and potential will be updated during run
 non-spin polarized calculation
 Variant of blocked Davidson
 Davidson routine will perform the subspace rotation
 perform sub-space diagonalisation
    after iterative eigenvector-optimisation
 modified Broyden-mixing scheme, WC =      100.0
 initial mixing is a Kerker type mixing with AMIX =  0.4000 and BMIX =      1.0000
 Hartree-type preconditioning will be used
 using additional bands          284
 real space projection scheme for non local part
 use partial core corrections
 calculate Harris-corrections to forces   (improved forces if not selfconsistent)
 use gradient corrections 
 use of overlap-Matrix (Vanderbilt PP)
 Gauss-broadening in eV      SIGMA  =   0.01


--------------------------------------------------------------------------------------------------------


  energy-cutoff  :      300.00
  volume of cell :    12802.17
      direct lattice vectors                 reciprocal lattice vectors
    16.840035000  0.000000000 16.155961000     0.029691150 -0.000000000  0.030948329
     0.000000000 23.527616000  0.000000000     0.000000000  0.042503244 -0.000000000
   -16.840035000  0.000000000 16.155961000    -0.029691150  0.000000000  0.030948329

  length of vectors
    23.336706165 23.527616000 23.336706165     0.042887801  0.042503244  0.042887801



 k-points in units of 2pi/SCALE and weight: 1x1x1                                   
  -0.00000000  0.00000000  0.00000000       1.000

 k-points in reciprocal lattice and weights: 1x1x1                                   
   0.00000000  0.00000000  0.00000000       1.000

 position of ions in fractional coordinates (direct lattice) 
   0.88605500  0.87521200  0.35339700
   0.13609100  0.87504700  0.60349100
   0.88668700  0.37414100  0.35142400
   0.13630000  0.37429800  0.60640400
   0.88643500  0.87518700  0.85387000
   0.13602600  0.87509700  0.10331500
   0.38577800  0.87530000  0.35368700
   0.63597200  0.87510300  0.60318400
   0.88579800  0.37492200  0.85319800
   0.13607900  0.37487800  0.10339500
   0.38600500  0.87517300  0.85370300
   0.63608200  0.87502900  0.10359500
   0.38663200  0.37480300  0.85322000
   0.63600600  0.37481400  0.10245000
   0.10369600  0.12486400  0.38604800
   0.35358800  0.12491000  0.63588300
   0.10261600  0.62588000  0.38529800
   0.10364000  0.12493700  0.88613700
   0.35342300  0.12491500  0.13581700
   0.60363800  0.12472700  0.38583100
   0.85389300  0.12462400  0.63605600
   0.10384700  0.62503400  0.88594700
   0.35433000  0.62518300  0.13602400
   0.85400800  0.62776000  0.63895900
   0.60374900  0.12500900  0.88590600
   0.85386800  0.12483700  0.13585700
   0.60387600  0.62510200  0.88637900
   0.85361300  0.62516700  0.13618900
   0.89648500  0.87515300  0.11382600
   0.14652600  0.87510700  0.36387700
   0.89633700  0.37499300  0.11362700
   0.14663200  0.37401200  0.36236500
   0.89653600  0.87506900  0.61394300
   0.14651100  0.87517000  0.86410300
   0.39616600  0.87535100  0.11353000
   0.64685800  0.87605800  0.36308600
   0.89578600  0.37330800  0.61443100
   0.14624400  0.37485200  0.86395800
   0.39610600  0.37511800  0.11385500
   0.39631700  0.87505800  0.61409700
   0.64639300  0.87514100  0.86419500
   0.64638300  0.37488300  0.86448300
   0.11388700  0.12489500  0.14604500
   0.36393300  0.12485100  0.39637000
   0.11396200  0.62512400  0.14625300
   0.11405700  0.12485400  0.64620300
   0.36395400  0.12483800  0.89658000
   0.61386300  0.12484500  0.14606100
   0.86427100  0.12485700  0.39657400
   0.11373600  0.62543300  0.64684200
   0.36397800  0.62516500  0.89678300
   0.61408800  0.62539700  0.14601300
   0.86344000  0.62656900  0.39310800
   0.61372200  0.12419900  0.64623100
   0.86434900  0.12481600  0.89702200
   0.86405300  0.62522300  0.89668200
   0.75052300  0.75088300  0.24945100
   0.00001400  0.74997600  0.49998400
   0.75031000  0.24947300  0.24958800
   0.00008000  0.24980800  0.49992300
   0.74999200  0.75076400  0.75024800
   0.00005800  0.75001000  0.99995400
   0.24969900  0.75043500  0.24971900
   0.50014500  0.74985100  0.50019800
   0.75078900  0.24831600  0.75088600
   0.00003900  0.25006800  0.99996100
   0.24981400  0.75046100  0.75026800
   0.49989600  0.75029300  0.99982100
   0.24997800  0.24954700  0.75027800
   0.49999000  0.24984400  0.00014800
   0.00021700  0.75038700  0.24981700
   0.25003800  0.74979000  0.49987500
   0.00011600  0.24964700  0.24979500
   0.00023200  0.75045700  0.75024400
   0.24993000  0.75010400  0.99998800
   0.49926300  0.75147500  0.24934400
   0.74972700  0.74970300  0.49969800
   0.00009700  0.24958500  0.75015300
   0.25001400  0.24995000  0.99994600
   0.74996600  0.24952500  0.50013600
   0.49996300  0.75031100  0.75024100
   0.75009300  0.75026900  0.00001700
   0.49959500  0.24896500  0.75056700
   0.75011200  0.24967300  0.00002400
   0.00006600  0.99999100  0.24993400
   0.25000600  0.99988100  0.49998900
   0.00017000  0.49994600  0.24969500
   0.00007500  0.00006900  0.75005400
   0.24997800  0.00007400  0.99995500
   0.49984800  0.00038600  0.24982000
   0.75008800  0.99967900  0.49999700
   0.99995200  0.50007100  0.75018200
   0.24994600  0.50000100  0.99998000
   0.75505700  0.50099200  0.50074000
   0.49998400  0.99968000  0.75012400
   0.75002600  0.99996300  0.99999000
   0.49978000  0.50016500  0.75026800
   0.75012900  0.50012800  0.99995700
   0.75016000  0.00037800  0.24985500
   0.00003800  0.99975000  0.49995900
   0.74981500  0.49955800  0.24948100
   0.00085700  0.49939700  0.49952900
   0.75007400  0.99955300  0.75008100
   0.00005300  0.00000200  0.99999800
   0.24994700  0.00015700  0.24989700
   0.49993400  0.99966400  0.49992200
   0.75029400  0.50065500  0.75034900
   0.00002500  0.49994700  0.99993000
   0.24999000  0.99998400  0.75005500
   0.50001900  0.00003700  0.99996800
   0.25012700  0.49999100  0.75048300
   0.50000100  0.50011200  0.00002000
   0.98439400  0.12504100  0.23047700
   0.23458900  0.12523400  0.48097200
   0.98425500  0.62493400  0.23130600
   0.23377800  0.62429500  0.47856900
   0.98447200  0.12500200  0.73016300
   0.23434600  0.12509900  0.98048300
   0.48412100  0.12559100  0.23025100
   0.73423000  0.12527600  0.48065600
   0.98482900  0.62515400  0.73118200
   0.23437800  0.62493000  0.98068900
   0.48593900  0.62542700  0.23270800
   0.48417300  0.12446600  0.73068500
   0.73424500  0.12498000  0.98044100
   0.73436600  0.62497700  0.98103500
   0.23043400  0.87513300  0.23409000
   0.48051200  0.87390200  0.48469400
   0.23122000  0.37496900  0.23366500
   0.23037100  0.87497400  0.73405400
   0.48059700  0.87505600  0.98405600
   0.73182100  0.87546800  0.23361600
   0.98039300  0.87448100  0.48422700
   0.23158700  0.37506700  0.73494700
   0.48093000  0.37519100  0.98441300
   0.73042100  0.37486100  0.23285400
   0.97855200  0.37549700  0.48394300
   0.72972200  0.87483700  0.73376400
   0.98089100  0.87495200  0.98440900
   0.98027500  0.37512100  0.98397800
   0.77021400  0.12537900  0.26607800
   0.01893500  0.12514300  0.51548500
   0.76648200  0.62482200  0.26518100
   0.01906800  0.62400100  0.51582100
   0.77051200  0.12426000  0.76638400
   0.01913200  0.12511600  0.01549700
   0.26983200  0.12508600  0.26584300
   0.51916700  0.12516100  0.51495900
   0.76816200  0.62522000  0.76643600
   0.01955200  0.62487100  0.01542800
   0.26983800  0.12494800  0.76571100
   0.51959000  0.12511300  0.01548600
   0.26804100  0.62505100  0.76725300
   0.51920700  0.62501900  0.01567000
   0.01585100  0.87502800  0.26964300
   0.26612500  0.87436300  0.51907700
   0.01625100  0.37503400  0.26878800
   0.01599800  0.87511100  0.76948900
   0.26565200  0.87501800  0.01907800
   0.51534800  0.87574100  0.26986500
   0.76588400  0.87396700  0.51885300
   0.01545900  0.37509000  0.76862700
   0.26573400  0.37509200  0.01924600
   0.75895800  0.37629000  0.52318400
   0.51586600  0.87454300  0.76953300
   0.76575500  0.87498600  0.01953600
   0.51715200  0.37465500  0.76653000
   0.76578200  0.37507200  0.01861900
   0.87395200  0.98214700  0.22451200
   0.12392000  0.98203800  0.47453900
   0.87364200  0.48215500  0.22478400
   0.12284800  0.48140300  0.47437500
   0.87388700  0.98184900  0.72447200
   0.12392800  0.98215300  0.97453300
   0.37397800  0.98206700  0.22452600
   0.62388700  0.98210800  0.47448300
   0.87372700  0.48352600  0.72287200
   0.12392000  0.48200200  0.97451500
   0.37435900  0.48228000  0.22564500
   0.37397000  0.98195400  0.72448600
   0.62391000  0.98208100  0.97458200
   0.62391600  0.48219700  0.97456200
   0.97459500  0.01791500  0.37395700
   0.22464600  0.01788000  0.62379900
   0.97421100  0.51803800  0.37427000
   0.22433700  0.51850700  0.62343200
   0.97462500  0.01792800  0.87381500
   0.22458700  0.01800700  0.12391900
   0.47456600  0.01793900  0.37396900
   0.72469100  0.01784700  0.62377300
   0.97440200  0.51783500  0.87357800
   0.22472600  0.51789600  0.12397800
   0.47462200  0.01794400  0.87380200
   0.72459200  0.01810800  0.12394900
   0.47465100  0.51766500  0.87357700
   0.72434400  0.51782900  0.12443000
   0.02557400  0.76790800  0.12614900
   0.27559700  0.76780200  0.37609200
   0.02546700  0.26798700  0.12610800
   0.02531800  0.76788500  0.62596900
   0.27551600  0.76808300  0.87595600
   0.52511900  0.76809700  0.12598800
   0.77528900  0.76795900  0.37598800
   0.02524000  0.26792200  0.62592700
   0.27566800  0.26800800  0.87605800
   0.52556800  0.26817800  0.12624400
   0.77516900  0.26863800  0.37643100
   0.52552800  0.76784400  0.62593100
   0.77559400  0.76814000  0.87584400
   0.77570500  0.26737800  0.87627500
   0.12615400  0.23200100  0.27550200
   0.37601100  0.23253800  0.52524300
   0.12620900  0.73221600  0.27538000
   0.12622600  0.23205500  0.77540600
   0.37618200  0.23211300  0.02553200
   0.62619000  0.23208000  0.27565600
   0.87588000  0.23247300  0.52567800
   0.12608200  0.73221300  0.77544500
   0.37614200  0.73207400  0.02537200
   0.87580200  0.73028000  0.52426800
   0.62630500  0.23251500  0.77444100
   0.87607900  0.23207800  0.02555000
   0.62608600  0.73229900  0.77585700
   0.87609300  0.73200500  0.02546200
   0.87423200  0.76784900  0.22439900
   0.12407100  0.76775900  0.47454400
   0.87388000  0.26804000  0.22438600
   0.12375200  0.26853900  0.47457400
   0.87382200  0.76809100  0.72454400
   0.12391400  0.76791900  0.97444600
   0.37379500  0.76810800  0.22416700
   0.62382900  0.76917400  0.47347700
   0.87406900  0.26724300  0.72452600
   0.12391900  0.26797700  0.97454800
   0.37403400  0.26814700  0.22459800
   0.37393600  0.76802400  0.72452700
   0.62391200  0.76792500  0.97458300
   0.62392300  0.26784300  0.97449100
   0.97452400  0.23210700  0.37390500
   0.22463500  0.23219700  0.62383500
   0.97471300  0.73220900  0.37394500
   0.22460400  0.73185500  0.62376800
   0.97452200  0.23208300  0.87379800
   0.22457100  0.23197900  0.12395400
   0.47452900  0.23218800  0.37391000
   0.72466400  0.23146100  0.62414700
   0.97454500  0.73211800  0.87382700
   0.22460100  0.73210000  0.12387700
   0.47444500  0.23208500  0.87410000
   0.72451400  0.23188800  0.12412800
   0.47455300  0.73197700  0.87373500
   0.72475600  0.73210400  0.12378200
   0.12615500  0.01804300  0.27546000
   0.37621100  0.01779600  0.52539400
   0.12605800  0.51788200  0.27568600
   0.12613800  0.01806700  0.77537800
   0.37615800  0.01796700  0.02540500
   0.62614900  0.01809100  0.27532000
   0.87602500  0.01780500  0.52539400
   0.12620600  0.51764000  0.77514300
   0.37622200  0.51793400  0.02552600
   0.87185400  0.51883300  0.52611000
   0.62613800  0.01802800  0.77535000
   0.87609500  0.01787000  0.02541100
   0.62613900  0.51748900  0.77558600
   0.87605700  0.51806700  0.02551600
   0.02548900  0.98206700  0.12612200
   0.27541300  0.98215900  0.37614700
   0.02544900  0.48210300  0.12618900
   0.02546200  0.98199900  0.62596200
   0.27547700  0.98206800  0.87601900
   0.52548000  0.98204200  0.12613700
   0.77550700  0.98217800  0.37616100
   0.02471300  0.48185300  0.62515800
   0.27577600  0.48191000  0.87578200
   0.52599700  0.48252600  0.12669000
   0.77428100  0.47859100  0.37709600
   0.52546600  0.98205000  0.62592600
   0.77546400  0.98184700  0.87602000
   0.77555400  0.48274200  0.87571500
   0.38620800  0.37459900  0.35386800
   0.63590200  0.36760700  0.61792600
   0.60118400  0.63310800  0.37897500
   0.35198300  0.62743100  0.63922400
   0.39651800  0.37236900  0.61429000
   0.64683200  0.37020400  0.36059300
   0.61465800  0.62680900  0.65038300
   0.36304100  0.62535800  0.39269800
   0.24999300  0.24964200  0.24981200
   0.49975800  0.24949300  0.49956900
   0.49970600  0.24983300  0.24959100
   0.24971200  0.25011800  0.49991000
   0.50029700  0.49984800  0.24987100
   0.24639100  0.50005300  0.49970800
   0.24977700  0.49982000  0.24969300
   0.49246200  0.50296300  0.50347400
   0.48372900  0.62460900  0.73062300
   0.73096800  0.62323600  0.47589800
   0.73583600  0.37470000  0.73884900
   0.48473900  0.37713700  0.48477900
   0.26859200  0.62495900  0.26433900
   0.52827800  0.62365100  0.51472100
   0.51558200  0.37535600  0.27027300
   0.26559500  0.37593100  0.52022200
   0.37417300  0.48191700  0.72305100
   0.47877300  0.51863100  0.37632300
   0.72190600  0.51774700  0.62234900
   0.52285200  0.26468700  0.62605600
   0.27545700  0.26817100  0.37616600
   0.62612700  0.73642600  0.27182000
   0.37660300  0.72870600  0.52453400
   0.37404000  0.26772800  0.72484400
   0.62377600  0.26928800  0.47623800
   0.47410300  0.73252200  0.37390400
   0.72483800  0.73178700  0.62357100
   0.62631400  0.51595900  0.27978300
   0.37708700  0.52068300  0.52667400
   0.52864400  0.48191100  0.62544700
   0.27536800  0.48187600  0.37664700

 position of ions in cartesian coordinates  (Angst):
   8.96997936 20.59165185 20.02453817
  -7.87103236 20.58776980 11.94865795
   9.01384765  8.80264578 20.00287303
  -7.91656781  8.80633961 11.99909686
   0.54839574 20.59106366 28.11629971
   0.55085438 20.58894618  3.86678386
   0.54041356 20.59372228 11.94676770
   0.55215107 20.58908734 20.01975601
   0.54898514  8.82102085 28.09515156
   0.55039970  8.81998563  3.86893260
  -7.87605069 20.59073428 20.02867410
   8.96709972 20.58734630 11.95019276
  -7.85735825  8.81822106 20.03100056
   8.98510171  8.81847986 11.93046634
  -4.75481756  2.93775224  7.91228496
  -4.75385768  2.93883451 15.98585489
  -4.76037477 14.72546430  7.88271956
 -13.17727687  2.93946976 15.99079861
   3.66449266  2.93895215  7.90414236
   3.66787750  2.93452896 15.98582257
   3.66838270  2.93210562 24.07155794
 -13.17059137 14.70555994 15.99107326
   3.67628068 14.70906555  7.92214010
   3.62143269 14.76969622 24.12031663
  -4.75153376  2.94116375 24.06680808
  12.09133037  2.93711700 15.98995850
  -4.75736041 14.70715982 24.07650166
  12.08144527 14.70868911 15.99120251
  13.18000495 20.59026373 16.32254511
  -3.66019845 20.58918145  8.24605096
  13.18086379  8.82269131 16.31693900
  -3.63295127  8.79961072  8.22333568
   4.75887601 20.58828741 24.40323982
 -12.08427440 20.59066369 16.32744037
   4.75960013 20.59492219  8.23462870
   4.77873041 20.61155622 16.31661588
   4.73802805  8.78304727 24.39900695
 -12.08632888  8.81937391 16.32078411
   4.75311672  8.82563226  8.23891003
  -3.66742282 20.58802860 16.32420918
  -3.66779330 20.58998139 24.40500082
  -3.67281163  8.82010327 24.40949217
  -0.54154185  2.93848160  4.19945125
  -0.54624022  2.93744639 12.28342562
  -0.54378157 14.70767742  4.20402339
  -8.96135727  2.93751697 12.28273091
  -8.96944048  2.93714053 20.36513814
   7.87780205  2.93730522 12.27730251
   7.87603385  2.93758755 20.37016265
  -8.97752370 14.71494746 12.28786851
  -8.97245485 14.70864206 20.36880555
   7.88239938 14.71410046 12.28016211
   7.92040734 14.74167483 20.30074048
  -0.54745270  2.92210638 20.35575153
  -0.55021446  2.93662292 28.45664118
  -0.54947350 14.71000666 28.44636599
   8.43807002 17.66648688 16.15554095
  -8.41951230 17.64514734  8.07794819
   8.43217601  5.86950495 16.15431309
  -8.41737361  5.87738670  8.07802897
  -0.00431105 17.66368710 24.23781893
 -16.83828364 17.64594728 16.15615487
  -0.00033680 17.65594651  8.06857773
  -0.00089252 17.64220639 16.16150249
  -0.00163348  5.84228349 24.26100273
 -16.83872148  5.88350388 16.15596100
  -8.42766288 17.65655823 16.15728579
  -8.41875450 17.65260559 24.22936936
  -8.42506951  5.87124599 16.16009693
   8.41735677  5.87823369  8.08021002
  -4.20327274 17.65481719  4.03953955
  -4.20726382 17.64077120 12.11556518
  -4.20460310  5.87359875  4.03755237
 -12.63022833 17.65646412 12.12466099
 -12.63100297 17.64815887 20.19362646
   4.20864471 17.68041523 12.09446550
   4.21049711 17.63872430 20.18566157
 -12.63096929  5.87214004 12.12100974
 -12.62888113  5.88072762 20.19430501
   4.20714594  5.87072838 20.19659916
  -4.21469028 17.65302909 20.19824707
  12.63130609 17.65204093 12.11874791
  -4.22637726  5.85755292 20.19756852
  12.63150817  5.87421047 12.11916796
  -4.20778587 23.52740425  4.03899025
  -4.20972247 23.52481621 12.11688997
  -4.20200973 11.76253751  4.03680920
 -12.62967261  0.00162341 12.11905487
 -12.62963893  0.00174104 20.19386880
   4.21048027  0.00908166 12.11160697
   4.21154119 23.52006364 20.19632451
   4.20613554 11.76547846 28.27509665
 -12.63059881 11.76383153 20.19375571
   4.28270718 11.78714740 20.28860736
  -4.21236635 23.52008716 20.19669609
  -4.20940251 23.52674548 28.27319025
  -4.21822669 11.76769006 20.19572674
  -4.20711226 11.76681953 28.27432116
   8.42515371  0.00889344 16.15620334
  -8.41868714 23.52173410  8.07793203
   8.42564207 11.75340879 16.14458720
  -8.39765393 11.74962085  8.08421670
  -0.00011788 23.51709916 24.23644567
 -16.83910880  0.00004706 16.15678495
   0.00084200  0.00369384  8.07546017
   0.00020208 23.51971072 16.15363454
  -0.00092620 11.77921859 24.24432978
 -16.83843520 11.76256104 16.15523398
  -8.42111210 23.52723956 16.15668802
  -8.41915866  0.00087052 24.23373147
  -8.42601255 11.76359625 16.16581614
   8.41969754 11.76644309  8.07831978
  12.69598867  2.94191663 19.62740850
  -4.14909834  2.94645746 11.56057561
  12.67968751 14.70320718 19.63855611
  -4.12228901 14.68817303 11.50865035
   4.28257246  2.94099906 27.70157619
 -12.56497319  2.94328123 19.62672995
   4.27517969  2.95485682 11.54136617
   4.27019504  2.94744562 19.62765084
   4.27142436 14.70838325 27.72380679
 -12.56790336 14.70311307 19.63057506
   4.26441890 14.71480629 11.61043290
  -4.15127071  2.92838825 19.62719847
  -4.14594926  2.94048145 27.70240014
  -4.15391459 14.70421886 27.71395166
  -0.06156717 20.58979317  7.50483163
  -0.07042503 20.56083068 15.59383049
  -0.04117389  8.82212664  7.51066393
  -8.48203935 20.58605228 15.58121269
  -8.47826718 20.58798155 23.66287675
   8.38978964 20.59767492 15.59756252
   8.35545281 20.57445317 23.66234360
  -8.47660002  8.82443235 15.61528561
  -8.47867134  8.82734977 23.67402436
   8.37904569  8.81958566 15.56263333
   8.32923287  8.83454923 23.62801218
  -0.06806742 20.58282900 23.64402274
  -0.05924324 20.58553467 31.75131015
  -0.06235865  8.82570284 31.73439486
   8.48966788  2.94986897 16.74229314
  -8.36191938  2.94431645  8.63406868
   8.44192639 14.70057208 16.66750719
  -8.36533791 14.68125591  8.64164582
   0.06951566  2.92354156 24.83003184
   0.06121353  2.94368120  0.55946477
   0.06717490  2.94297537  8.65434441
   0.07086287  2.94473995 16.70729933
   0.02906590 14.70993608 24.79290544
   0.06944830 14.70172494  0.56513552
  -8.35051868  2.93972856 16.73028926
   8.48912900  2.94361062  8.64466699
  -8.40674755 14.70595991 16.72616949
   8.47958070 14.70520702  8.64145195
  -4.27386616 20.58732277  4.61242993
  -4.25972053 20.57167691 12.68569289
  -4.25273192  8.82365594  4.60507897
 -12.68881481 20.58927557 12.69029734
   4.15231479 20.58708750  4.60008678
   4.13394231 20.60409796 12.68587060
   4.16001069 20.56235997 20.75616087
 -12.68337548  8.82497349 12.66766284
   4.15086655  8.82502054  4.60412577
   3.97044241  8.85320662 20.71423615
  -4.27176116 20.57591188 20.76685611
  12.56635408 20.58633461 12.68713077
  -4.19953425  8.81473897 20.73911633
  12.58225107  8.82454999 12.67275196
  10.93659233 23.10757747 17.74674154
  -5.90443623 23.10501296  9.66868026
  10.92679143 11.34395769 17.74612762
  -5.91972698 11.32626493  9.64871150
   2.51615383 23.10056624 25.82302567
 -14.32421797 23.10771864 17.74669308
   2.51677691 23.10569526  9.66940728
   2.51596859 23.10665989 17.74522288
   2.54040348 11.37621405 25.79459118
 -14.32404957 11.34035797 17.74627302
   2.50434896 11.34689864  9.69364122
  -5.90270171 23.10303664 17.74661230
  -5.90532875 23.10602465 25.82517441
[...]
     -4.83689     14.76197     16.01392         0.004819     -0.000019      0.000436
     -3.66733      8.76088     16.33062        -0.000732     -0.001157      0.000573
      4.82005      8.70997     16.27586        -0.004195     -0.000822     -0.001316
     -0.60137     14.74747     20.43792         0.004107      0.002935     -0.000803
     -0.49912     14.71323     12.20965         0.005680      0.000820     -0.000738
      0.00305      5.87337      8.07480        -0.000067     -0.001098     -0.000206
      0.00324      5.86983     16.14514         0.000452     -0.002122      0.000589
      4.21192      5.87784     12.10566        -0.000576     -0.001975      0.000623
     -4.21334      5.88453     12.11084        -0.000122     -0.001943     -0.000334
      4.21713     11.76014     12.11975        -0.000725     -0.001483      0.000579
     -4.26585     11.76506     12.05374         0.000397      0.000117     -0.002536
      0.00138     11.75954      8.06941        -0.000558     -0.000341      0.000522
     -0.18487     11.83346     16.09057         0.006210     -0.001030      0.002578
     -4.15797     14.69553     19.61912        -0.005145     -0.000109      0.002189
      4.29515     14.66309     19.49812        -0.004920     -0.002751      0.000615
     -0.05049      8.81578     23.82503         0.004875     -0.000175      0.001836
     -0.00066      8.87311     15.66341         0.000436     -0.000744     -0.001471
      0.07130     14.70378      8.60996        -0.006323     -0.000061     -0.001314
      0.22802     14.67301     16.85043        -0.005485     -0.000015     -0.004573
      4.13138      8.83121     12.69610         0.007259     -0.000759     -0.002814
     -4.28776      8.84487     12.69552         0.003323      0.001508     -0.002233
     -5.87480     11.33837     17.72689         0.005533      0.000323      0.002840
      1.72488     12.20219     13.81491        -0.006777      0.000786     -0.000406
      1.67619     12.18126     21.71788        -0.006123     -0.001806      0.002130
     -1.73766      6.22750     18.56143         0.004801      0.000704     -0.004578
     -1.69564      6.30941     10.52739         0.004878     -0.000525     -0.003172
      5.96620     17.32632     14.50696        -0.005305     -0.000257     -0.003497
     -2.49148     17.14466     14.55856        -0.005228     -0.000757     -0.002244
     -5.90727      6.29899     17.75378         0.004511     -0.000496      0.003991
      2.48483      6.33556     17.77197         0.004676     -0.003067      0.002708
      1.68706     17.23456     13.70055        -0.004752      0.001400      0.002666
      1.70508     17.21725     21.78506        -0.004094      0.001244      0.003286
      5.83533     12.13919     14.63867        -0.004219     -0.002015     -0.002797
     -2.51954     12.25055     14.60097        -0.005434      0.001657     -0.000560
     -1.62986     11.33820     18.64528         0.005632     -0.000253     -0.002778
     -1.70521     11.33744     10.53376         0.005773      0.001028     -0.002568
 -----------------------------------------------------------------------------------
    total drift:                               -0.237459     -0.065893     -0.005725


--------------------------------------------------------------------------------------------------------



  FREE ENERGIE OF THE ION-ELECTRON SYSTEM (eV)
  ---------------------------------------------------
  free  energy   TOTEN  =    -11418.48117789 eV

  energy  without entropy=   -11418.48117789  energy(sigma->0) =   -11418.48117789

 d Force = 0.5058829E-03[ 0.449E-03, 0.563E-03]  d Energy = 0.5054395E-03 0.443E-06
 d Force = 0.6695442E+00[ 0.667E+00, 0.672E+00]  d Ewald  = 0.6695460E+00-0.179E-05


--------------------------------------------------------------------------------------------------------


    POTLOK:  cpu time    3.8526: real time    3.8527


--------------------------------------------------------------------------------------------------------


 stress matrix after NEB project (eV)
    -14.40352      0.28486     -0.45420
      0.28483    -17.07434     -0.58566
     -0.45422     -0.58562    -19.97119
  FORCES: max atom, RMS     0.007822    0.004871
  FORCE total and by dimension    0.086991    0.007259
  Stress total and by dimension   29.985061   19.971192
 Steepest descent step on ions:
 trial-energy change:   -0.000505  1 .order   -0.000506   -0.000563   -0.000449
  (g-gl).g = 0.563E-03      g.g   = 0.563E-03  gl.gl    = 0.000E+00
 g(Force)  = 0.563E-03   g(Stress)= 0.000E+00 ortho     = 0.000E+00
 gamma     =   0.00000
 trial     =   1.00000
 opt step  =   4.00000  (harmonic =   4.94963) maximal distance =0.00228077
 next E    =-11418.482065   (d E  =  -0.00139)


--------------------------------------------------------------------------------------------------------


  
 reached required accuracy - stopping structural energy minimisation
     LOOP+:  cpu time  403.1786: real time  403.4024
    4ORBIT:  cpu time    0.0000: real time    0.0000



 total charge     

# of ion       s       p       d       tot
------------------------------------------
    1        1.786   4.719   0.019   6.523
    2        1.786   4.719   0.019   6.523
    3        1.786   4.719   0.019   6.524
    4        1.786   4.719   0.019   6.523
    5        1.786   4.719   0.019   6.523
    6        1.786   4.719   0.019   6.524
    7        1.786   4.719   0.019   6.524
    8        1.786   4.719   0.019   6.524
    9        1.786   4.719   0.019   6.523
   10        1.786   4.719   0.019   6.523
   11        1.786   4.719   0.019   6.524
   12        1.786   4.719   0.019   6.523
   13        1.786   4.719   0.018   6.523
   14        1.786   4.719   0.019   6.524
   15        1.786   4.719   0.019   6.523
   16        1.786   4.719   0.019   6.523
   17        1.786   4.719   0.019   6.524
   18        1.786   4.719   0.019   6.524
   19        1.786   4.719   0.019   6.524
   20        1.786   4.719   0.019   6.523
   21        1.786   4.719   0.019   6.523
   22        1.786   4.719   0.019   6.523
   23        1.786   4.719   0.018   6.523
   24        1.786   4.719   0.019   6.524
   25        1.786   4.719   0.019   6.523
   26        1.786   4.719   0.019   6.524
   27        1.786   4.719   0.019   6.523
   28        1.786   4.719   0.019   6.523
   29        1.786   4.719   0.019   6.523
   30        1.786   4.719   0.019   6.524
   31        1.786   4.719   0.019   6.523
   32        1.786   4.719   0.019   6.523
   33        1.786   4.719   0.019   6.523
   34        1.786   4.719   0.019   6.524
   35        1.786   4.719   0.019   6.523
   36        1.786   4.719   0.019   6.524
   37        1.786   4.719   0.018   6.523
   38        1.786   4.719   0.019   6.523
   39        1.786   4.719   0.019   6.523
   40        1.786   4.719   0.019   6.523
   41        1.786   4.719   0.019   6.524
   42        1.786   4.719   0.019   6.523
   43        1.786   4.719   0.019   6.523
   44        1.786   4.719   0.019   6.524
   45        1.786   4.719   0.019   6.523
   46        1.786   4.719   0.019   6.523
   47        1.786   4.719   0.019   6.524
   48        1.786   4.719   0.019   6.523
   49        1.786   4.719   0.019   6.524
   50        1.786   4.719   0.019   6.524
   51        1.786   4.719   0.019   6.524
   52        1.786   4.719   0.019   6.523
   53        1.786   4.719   0.018   6.523
   54        1.786   4.719   0.019   6.523
   55        1.786   4.719   0.019   6.524
   56        1.786   4.719   0.019   6.523
   57        1.554   0.418   9.834  11.806
   58        1.554   0.415   9.833  11.802
   59        1.555   0.417   9.833  11.805
   60        1.554   0.415   9.833  11.803
   61        1.554   0.417   9.833  11.805
   62        1.554   0.416   9.833  11.803
   63        1.555   0.416   9.833  11.804
   64        1.554   0.414   9.833  11.801
   65        1.554   0.419   9.834  11.806
   66        1.554   0.416   9.833  11.803
   67        1.554   0.416   9.833  11.804
   68        1.554   0.416   9.833  11.804
   69        1.555   0.416   9.833  11.804
   70        1.555   0.416   9.833  11.804
   71        1.555   0.416   9.833  11.804
   72        1.554   0.414   9.833  11.802
   73        1.554   0.416   9.833  11.804
   74        1.554   0.416   9.833  11.804
   75        1.554   0.416   9.833  11.803
   76        1.554   0.419   9.834  11.807
   77        1.554   0.414   9.833  11.801
   78        1.555   0.416   9.833  11.804
   79        1.554   0.416   9.833  11.803
   80        1.554   0.415   9.833  11.802
   81        1.554   0.416   9.833  11.804
   82        1.554   0.416   9.833  11.804
   83        1.554   0.418   9.834  11.807
   84        1.554   0.416   9.833  11.804
   85        1.554   0.416   9.833  11.803
   86        1.554   0.415   9.833  11.802
   87        1.554   0.416   9.833  11.803
   88        1.554   0.416   9.833  11.803
   89        1.554   0.416   9.833  11.803
   90        1.554   0.416   9.833  11.804
   91        1.554   0.414   9.833  11.801
   92        1.554   0.415   9.833  11.803
   93        1.554   0.415   9.833  11.803
   94        1.532   0.456   9.832  11.820
   95        1.554   0.416   9.833  11.804
   96        1.554   0.416   9.833  11.803
   97        1.555   0.416   9.833  11.803
   98        1.554   0.415   9.833  11.802
   99        1.554   0.416   9.833  11.804
  100        1.554   0.415   9.833  11.802
  101        1.554   0.415   9.833  11.803
  102        1.552   0.418   9.833  11.803
  103        1.555   0.416   9.833  11.804
  104        1.554   0.416   9.833  11.803
  105        1.554   0.416   9.833  11.803
  106        1.554   0.415   9.833  11.802
  107        1.554   0.416   9.833  11.803
  108        1.554   0.415   9.833  11.803
  109        1.554   0.416   9.833  11.803
  110        1.554   0.416   9.833  11.803
  111        1.554   0.416   9.833  11.803
  112        1.554   0.415   9.833  11.803
  113        1.614   3.285   0.006   4.906
  114        1.614   3.285   0.006   4.905
  115        1.614   3.285   0.006   4.905
  116        1.614   3.285   0.006   4.905
  117        1.614   3.286   0.006   4.906
  118        1.614   3.285   0.006   4.906
  119        1.614   3.285   0.006   4.906
  120        1.614   3.284   0.006   4.904
  121        1.614   3.286   0.006   4.907
  122        1.614   3.285   0.006   4.905
  123        1.614   3.285   0.006   4.906
  124        1.614   3.285   0.006   4.906
  125        1.614   3.285   0.006   4.906
  126        1.614   3.285   0.006   4.906
  127        1.614   3.285   0.006   4.905
  128        1.614   3.284   0.006   4.904
  129        1.614   3.286   0.006   4.906
  130        1.614   3.285   0.006   4.906
  131        1.614   3.285   0.006   4.906
  132        1.614   3.286   0.006   4.906
  133        1.614   3.285   0.006   4.905
  134        1.614   3.286   0.006   4.907
  135        1.614   3.285   0.006   4.905
  136        1.614   3.286   0.006   4.907
  137        1.614   3.285   0.006   4.905
  138        1.614   3.286   0.006   4.906
  139        1.614   3.285   0.006   4.906
  140        1.614   3.285   0.006   4.905
  141        1.614   3.285   0.006   4.906
  142        1.614   3.285   0.006   4.905
  143        1.614   3.285   0.006   4.906
  144        1.614   3.284   0.006   4.905
  145        1.614   3.286   0.006   4.906
  146        1.614   3.285   0.006   4.906
  147        1.614   3.285   0.006   4.906
  148        1.614   3.284   0.006   4.905
  149        1.614   3.286   0.006   4.907
  150        1.614   3.285   0.006   4.905
  151        1.614   3.285   0.006   4.906
  152        1.614   3.285   0.006   4.906
  153        1.614   3.286   0.006   4.907
  154        1.614   3.285   0.006   4.905
  155        1.614   3.285   0.006   4.906
  156        1.614   3.284   0.006   4.905
  157        1.614   3.286   0.006   4.906
  158        1.614   3.285   0.006   4.906
  159        1.614   3.285   0.006   4.906
  160        1.614   3.286   0.006   4.906
  161        1.614   3.284   0.006   4.904
  162        1.614   3.285   0.006   4.905
  163        1.614   3.285   0.006   4.906
  164        1.614   3.283   0.006   4.903
  165        1.614   3.285   0.006   4.906
  166        1.614   3.285   0.006   4.906
  167        1.614   3.284   0.006   4.904
  168        1.614   3.285   0.006   4.905
  169        1.614   3.284   0.006   4.904
  170        1.614   3.283   0.006   4.903
  171        1.614   3.283   0.006   4.903
  172        1.615   3.280   0.007   4.901
  173        1.614   3.284   0.006   4.904
  174        1.614   3.284   0.006   4.904
  175        1.614   3.284   0.006   4.903
  176        1.614   3.284   0.006   4.903
  177        1.614   3.283   0.006   4.902
  178        1.614   3.283   0.006   4.903
  179        1.614   3.283   0.006   4.903
  180        1.614   3.284   0.006   4.904
  181        1.614   3.284   0.006   4.904
  182        1.614   3.284   0.006   4.904
  183        1.614   3.284   0.006   4.904
  184        1.614   3.284   0.006   4.904
  185        1.614   3.283   0.006   4.903
  186        1.614   3.283   0.006   4.903
  187        1.614   3.284   0.006   4.904
  188        1.614   3.284   0.006   4.904
  189        1.614   3.284   0.006   4.904
  190        1.614   3.284   0.006   4.904
  191        1.614   3.283   0.006   4.903
  192        1.614   3.283   0.006   4.903
  193        1.614   3.284   0.006   4.903
  194        1.614   3.284   0.006   4.904
  195        1.614   3.283   0.006   4.903
  196        1.614   3.283   0.006   4.903
  197        1.614   3.284   0.006   4.903
  198        1.614   3.284   0.006   4.904
  199        1.614   3.284   0.006   4.903
  200        1.614   3.284   0.006   4.904
  201        1.614   3.284   0.006   4.904
  202        1.614   3.284   0.006   4.904
  203        1.614   3.284   0.006   4.904
  204        1.614   3.284   0.006   4.904
  205        1.614   3.283   0.006   4.903
  206        1.614   3.284   0.006   4.904
  207        1.614   3.284   0.006   4.904
  208        1.614   3.284   0.006   4.904
  209        1.614   3.283   0.006   4.903
  210        1.614   3.284   0.006   4.904
  211        1.614   3.284   0.006   4.904
  212        1.614   3.284   0.006   4.904
  213        1.614   3.284   0.006   4.904
  214        1.614   3.284   0.006   4.904
  215        1.614   3.284   0.006   4.903
  216        1.614   3.285   0.006   4.905
  217        1.614   3.284   0.006   4.903
  218        1.614   3.284   0.006   4.904
  219        1.614   3.284   0.006   4.904
  220        1.614   3.283   0.006   4.902
  221        1.614   3.283   0.006   4.903
  222        1.614   3.284   0.006   4.904
  223        1.614   3.284   0.006   4.904
  224        1.614   3.284   0.006   4.904
  225        1.614   3.284   0.006   4.904
  226        1.614   3.283   0.006   4.903
  227        1.614   3.284   0.006   4.904
  228        1.614   3.283   0.006   4.903
  229        1.614   3.284   0.006   4.904
  230        1.614   3.284   0.006   4.904
  231        1.614   3.284   0.006   4.904
  232        1.614   3.284   0.006   4.903
  233        1.614   3.285   0.006   4.905
  234        1.614   3.284   0.006   4.904
  235        1.614   3.284   0.006   4.904
  236        1.614   3.284   0.006   4.904
  237        1.614   3.284   0.006   4.904
  238        1.614   3.284   0.006   4.904
  239        1.614   3.284   0.006   4.904
  240        1.614   3.284   0.006   4.904
  241        1.614   3.285   0.006   4.905
  242        1.614   3.284   0.006   4.904
  243        1.614   3.283   0.006   4.903
  244        1.614   3.284   0.006   4.903
  245        1.614   3.284   0.006   4.904
  246        1.614   3.285   0.006   4.905
  247        1.614   3.284   0.006   4.904
  248        1.614   3.283   0.006   4.903
  249        1.614   3.284   0.006   4.904
  250        1.614   3.283   0.006   4.904
  251        1.614   3.284   0.006   4.904
  252        1.614   3.284   0.006   4.904
  253        1.614   3.284   0.006   4.904
  254        1.614   3.284   0.006   4.903
  255        1.614   3.283   0.006   4.903
  256        1.614   3.284   0.006   4.903
  257        1.614   3.284   0.006   4.904
  258        1.614   3.284   0.006   4.904
  259        1.614   3.284   0.006   4.904
  260        1.614   3.283   0.006   4.903
  261        1.614   3.284   0.006   4.903
  262        1.616   3.275   0.007   4.898
  263        1.614   3.284   0.006   4.904
  264        1.614   3.284   0.006   4.904
  265        1.614   3.284   0.006   4.904
  266        1.614   3.283   0.006   4.903
  267        1.614   3.284   0.006   4.904
  268        1.614   3.284   0.006   4.904
  269        1.614   3.283   0.006   4.903
  270        1.614   3.284   0.006   4.904
  271        1.614   3.284   0.006   4.904
  272        1.614   3.284   0.006   4.903
  273        1.614   3.284   0.006   4.904
  274        1.614   3.283   0.006   4.903
  275        1.614   3.283   0.006   4.903
  276        1.614   3.282   0.006   4.902
  277        1.614   3.283   0.006   4.903
  278        1.614   3.284   0.006   4.904
  279        1.614   3.283   0.006   4.903
  280        1.614   3.283   0.006   4.903
  281        1.786   4.719   0.018   6.523
  282        1.786   4.719   0.019   6.524
  283        1.787   4.719   0.020   6.526
  284        1.786   4.719   0.020   6.525
  285        1.786   4.718   0.019   6.523
  286        1.786   4.718   0.019   6.523
  287        1.787   4.719   0.020   6.525
  288        1.786   4.719   0.019   6.523
  289        1.554   0.416   9.833  11.804
  290        1.554   0.417   9.833  11.804
  291        1.555   0.417   9.833  11.805
  292        1.554   0.415   9.833  11.803
  293        1.554   0.416   9.833  11.803
  294        1.552   0.418   9.833  11.803
  295        1.554   0.416   9.833  11.803
  296        1.537   0.454   9.831  11.822
  297        1.614   3.286   0.006   4.906
  298        1.614   3.282   0.006   4.902
  299        1.614   3.289   0.006   4.910
  300        1.614   3.282   0.006   4.902
  301        1.614   3.287   0.006   4.907
  302        1.614   3.284   0.006   4.904
  303        1.614   3.287   0.006   4.907
  304        1.614   3.284   0.006   4.904
  305        1.614   3.283   0.006   4.902
  306        1.614   3.282   0.006   4.902
  307        1.614   3.280   0.006   4.900
  308        1.614   3.287   0.006   4.908
  309        1.614   3.284   0.006   4.904
  310        1.614   3.288   0.006   4.909
  311        1.614   3.282   0.006   4.902
  312        1.614   3.285   0.006   4.905
  313        1.614   3.283   0.006   4.903
  314        1.614   3.285   0.006   4.905
  315        1.614   3.284   0.006   4.904
  316        1.614   3.283   0.006   4.902
  317        1.616   3.276   0.007   4.899
  318        1.614   3.282   0.006   4.902
  319        1.614   3.283   0.006   4.903
--------------------------------------------------
tot        522.021 955.942 631.6832109.646


 total amount of memory used by VASP MPI-rank0    85375. kBytes
=======================================================================

   base      :      30000. kBytes
   nonlr-proj:       6239. kBytes
   fftplans  :      18627. kBytes
   grid      :      22209. kBytes
   one-center:         77. kBytes
   wavefun   :       8223. kBytes

  
  
 General timing and accounting informations for this job:
 ========================================================
  
                  Total CPU time used (sec):     1668.377
                            User time (sec):     1652.902
                          System time (sec):       15.475
                         Elapsed time (sec):     1674.499
  
                   Maximum memory used (kb):      164300.
                   Average memory used (kb):           0.
  
                          Minor page faults:        40231
                          Major page faults:            2
                 Voluntary context switches:         2831
