  40  40   1   0
  0.4040437E+02  0.1173535E-08  0.1173535E-08  0.1173535E-08  0.5000000E-15
   1.0000000000000000E-004
  CAR 
 CsPbBr3 cubic bulk                      
      8.26002927    -22.06148685  301      0.30063129      1.00000000
    -22.061  0.0000E+00  0.0000E+00
    -21.960  0.0000E+00  0.0000E+00
    -21.859  0.0000E+00  0.0000E+00
    -21.758  0.0000E+00  0.0000E+00
    -21.657  0.0000E+00  0.0000E+00
    -21.556  0.0000E+00  0.0000E+00
    -21.455  0.0000E+00  0.0000E+00
    -21.354  0.0000E+00  0.0000E+00
    -21.253  0.0000E+00  0.0000E+00
    -21.152  0.0000E+00  0.0000E+00
    -21.051  0.0000E+00  0.0000E+00
    -20.950  0.0000E+00  0.0000E+00
    -20.849  0.0000E+00  0.0000E+00
    -20.748  0.0000E+00  0.0000E+00
    -20.646  0.1583E+03  0.1600E+02
    -20.545  0.0000E+00  0.1600E+02
    -20.444  0.0000E+00  0.1600E+02
    -20.343  0.0000E+00  0.1600E+02
    -20.242  0.0000E+00  0.1600E+02
    -20.141  0.0000E+00  0.1600E+02
    -20.040  0.0000E+00  0.1600E+02
    -19.939  0.0000E+00  0.1600E+02
    -19.838  0.0000E+00  0.1600E+02
    -19.737  0.0000E+00  0.1600E+02
    -19.636  0.0000E+00  0.1600E+02
    -19.535  0.0000E+00  0.1600E+02
    -19.434  0.0000E+00  0.1600E+02
    -19.333  0.0000E+00  0.1600E+02
    -19.231  0.0000E+00  0.1600E+02
    -19.130  0.0000E+00  0.1600E+02
    -19.029  0.0000E+00  0.1600E+02
    -18.928  0.0000E+00  0.1600E+02
    -18.827  0.0000E+00  0.1600E+02
    -18.726  0.0000E+00  0.1600E+02
    -18.625  0.0000E+00  0.1600E+02
    -18.524  0.0000E+00  0.1600E+02
    -18.423  0.0000E+00  0.1600E+02
    -18.322  0.0000E+00  0.1600E+02
    -18.221  0.0000E+00  0.1600E+02
    -18.120  0.0000E+00  0.1600E+02
    -18.019  0.0000E+00  0.1600E+02
    -17.918  0.0000E+00  0.1600E+02
    -17.816  0.0000E+00  0.1600E+02
    -17.715  0.0000E+00  0.1600E+02
    -17.614  0.0000E+00  0.1600E+02
    -17.513  0.0000E+00  0.1600E+02
    -17.412  0.0000E+00  0.1600E+02
    -17.311  0.0000E+00  0.1600E+02
    -17.210  0.0000E+00  0.1600E+02
    -17.109  0.0000E+00  0.1600E+02
    -17.008  0.0000E+00  0.1600E+02
    -16.907  0.0000E+00  0.1600E+02
    -16.806  0.0000E+00  0.1600E+02
    -16.705  0.3932E-11  0.1600E+02
    -16.604  0.1011E+03  0.2622E+02
    -16.503  0.2096E+03  0.4919E+02
    -16.401  0.1976E+02  0.9600E+02
    -16.300  0.0000E+00  0.9600E+02
    -16.199  0.0000E+00  0.9600E+02
    -16.098  0.0000E+00  0.9600E+02
    -15.997  0.0000E+00  0.9600E+02
    -15.896  0.0000E+00  0.9600E+02
    -15.795  0.0000E+00  0.9600E+02
    -15.694  0.0000E+00  0.9600E+02
    -15.593  0.0000E+00  0.9600E+02
    -15.492  0.0000E+00  0.9600E+02
    -15.391  0.0000E+00  0.9600E+02
    -15.290  0.0000E+00  0.9600E+02
    -15.189  0.0000E+00  0.9600E+02
    -15.088  0.0000E+00  0.9600E+02
    -14.986  0.0000E+00  0.9600E+02
    -14.885  0.0000E+00  0.9600E+02
    -14.784  0.0000E+00  0.9600E+02
    -14.683  0.0000E+00  0.9600E+02
    -14.582  0.0000E+00  0.9600E+02
    -14.481  0.0000E+00  0.9600E+02
    -14.380  0.0000E+00  0.9600E+02
    -14.279  0.5585E+01  0.9656E+02
    -14.178  0.1192E+03  0.1098E+03
    -14.077  0.2475E+01  0.1120E+03
    -13.976  0.1288E+02  0.1133E+03
    -13.875  0.9457E+02  0.1238E+03
    -13.774  0.8788E+02  0.1336E+03
    -13.673  0.4699E+02  0.1440E+03
    -13.571  0.0000E+00  0.1440E+03
    -13.470  0.0000E+00  0.1440E+03
    -13.369  0.0000E+00  0.1440E+03
    -13.268  0.0000E+00  0.1440E+03
    -13.167  0.0000E+00  0.1440E+03
    -13.066  0.0000E+00  0.1440E+03
    -12.965  0.0000E+00  0.1440E+03
    -12.864  0.0000E+00  0.1440E+03
    -12.763  0.0000E+00  0.1440E+03
    -12.662  0.0000E+00  0.1440E+03
    -12.561  0.0000E+00  0.1440E+03
    -12.460  0.0000E+00  0.1440E+03
    -12.359  0.0000E+00  0.1440E+03
    -12.258  0.0000E+00  0.1440E+03
    -12.156  0.0000E+00  0.1440E+03
    -12.055  0.0000E+00  0.1440E+03
    -11.954  0.0000E+00  0.1440E+03
    -11.853  0.0000E+00  0.1440E+03
    -11.752  0.0000E+00  0.1440E+03
    -11.651  0.0000E+00  0.1440E+03
    -11.550  0.0000E+00  0.1440E+03
    -11.449  0.0000E+00  0.1440E+03
    -11.348  0.0000E+00  0.1440E+03
    -11.247  0.0000E+00  0.1440E+03
    -11.146  0.0000E+00  0.1440E+03
    -11.045  0.0000E+00  0.1440E+03
    -10.944  0.0000E+00  0.1440E+03
    -10.843  0.0000E+00  0.1440E+03
    -10.741  0.0000E+00  0.1440E+03
    -10.640  0.0000E+00  0.1440E+03
    -10.539  0.0000E+00  0.1440E+03
    -10.438  0.0000E+00  0.1440E+03
    -10.337  0.0000E+00  0.1440E+03
    -10.236  0.0000E+00  0.1440E+03
    -10.135  0.0000E+00  0.1440E+03
    -10.034  0.0000E+00  0.1440E+03
     -9.933  0.0000E+00  0.1440E+03
     -9.832  0.0000E+00  0.1440E+03
     -9.731  0.0000E+00  0.1440E+03
     -9.630  0.0000E+00  0.1440E+03
     -9.529  0.0000E+00  0.1440E+03
     -9.428  0.0000E+00  0.1440E+03
     -9.326  0.0000E+00  0.1440E+03
     -9.225  0.0000E+00  0.1440E+03
     -9.124  0.0000E+00  0.1440E+03
     -9.023  0.0000E+00  0.1440E+03
     -8.922  0.0000E+00  0.1440E+03
     -8.821  0.0000E+00  0.1440E+03
     -8.720  0.0000E+00  0.1440E+03
     -8.619  0.0000E+00  0.1440E+03
     -8.518  0.0000E+00  0.1440E+03
     -8.417  0.0000E+00  0.1440E+03
     -8.316  0.0000E+00  0.1440E+03
     -8.215  0.0000E+00  0.1440E+03
     -8.114  0.2398E+01  0.1442E+03
     -8.013  0.1842E-03  0.1443E+03
     -7.911  0.9894E+01  0.1452E+03
     -7.810  0.1945E+02  0.1472E+03
     -7.709  0.1233E+00  0.1473E+03
     -7.608  0.1979E+02  0.1502E+03
     -7.507  0.3210E+02  0.1535E+03
     -7.406  0.2519E+01  0.1538E+03
     -7.305  0.1745E+01  0.1559E+03
     -7.204  0.7819E+01  0.1575E+03
     -7.103  0.2334E+03  0.1823E+03
     -7.002  0.1466E+03  0.2046E+03
     -6.901  0.1299E+02  0.2073E+03
     -6.800  0.0000E+00  0.2078E+03
     -6.699  0.2473E+01  0.2080E+03
     -6.598  0.0000E+00  0.2080E+03
     -6.496  0.0000E+00  0.2080E+03
     -6.395  0.0000E+00  0.2080E+03
     -6.294  0.0000E+00  0.2080E+03
     -6.193  0.0000E+00  0.2080E+03
     -6.092  0.0000E+00  0.2080E+03
     -5.991  0.0000E+00  0.2080E+03
     -5.890  0.0000E+00  0.2080E+03
     -5.789  0.0000E+00  0.2080E+03
     -5.688  0.0000E+00  0.2080E+03
     -5.587  0.0000E+00  0.2080E+03
     -5.486  0.0000E+00  0.2080E+03
     -5.385  0.0000E+00  0.2080E+03
     -5.284  0.0000E+00  0.2080E+03
     -5.183  0.0000E+00  0.2080E+03
     -5.081  0.0000E+00  0.2080E+03
     -4.980  0.0000E+00  0.2080E+03
     -4.879  0.0000E+00  0.2080E+03
     -4.778  0.0000E+00  0.2080E+03
     -4.677  0.0000E+00  0.2080E+03
     -4.576  0.0000E+00  0.2080E+03
     -4.475  0.0000E+00  0.2080E+03
     -4.374  0.0000E+00  0.2080E+03
     -4.273  0.0000E+00  0.2080E+03
     -4.172  0.0000E+00  0.2080E+03
     -4.071  0.0000E+00  0.2080E+03
     -3.970  0.0000E+00  0.2080E+03
     -3.869  0.0000E+00  0.2080E+03
     -3.768  0.0000E+00  0.2080E+03
     -3.666  0.0000E+00  0.2080E+03
     -3.565  0.3707E-14  0.2080E+03
     -3.464  0.2657E+02  0.2107E+03
     -3.363  0.2473E+01  0.2120E+03
     -3.262  0.0000E+00  0.2120E+03
     -3.161  0.0000E+00  0.2120E+03
     -3.060  0.0000E+00  0.2120E+03
     -2.959  0.4730E+01  0.2125E+03
     -2.858  0.2271E+02  0.2148E+03
     -2.757  0.1169E+01  0.2176E+03
     -2.656  0.1216E-08  0.2195E+03
     -2.555  0.6011E+02  0.2256E+03
     -2.454  0.4957E+02  0.2310E+03
     -2.353  0.2657E+02  0.2342E+03
     -2.251  0.1462E+02  0.2385E+03
     -2.150  0.3309E+02  0.2418E+03
     -2.049  0.3884E+02  0.2472E+03
     -1.948  0.3958E+02  0.2527E+03
     -1.847  0.6167E+01  0.2534E+03
     -1.746  0.5510E+02  0.2606E+03
     -1.645  0.5694E+02  0.2675E+03
     -1.544  0.4424E+02  0.2727E+03
     -1.443  0.1526E+03  0.2882E+03
     -1.342  0.6824E+02  0.2971E+03
     -1.241  0.2923E+02  0.3020E+03
     -1.140  0.8223E+02  0.3116E+03
     -1.039  0.1027E+03  0.3221E+03
     -0.937  0.2388E+02  0.3287E+03
     -0.836  0.5936E+02  0.3362E+03
     -0.735  0.2272E+02  0.3385E+03
     -0.634  0.5574E+02  0.3469E+03
     -0.533  0.2090E+01  0.3475E+03
     -0.432  0.2473E+01  0.3477E+03
     -0.331  0.1476E+02  0.3492E+03
     -0.230  0.1484E+02  0.3507E+03
     -0.129  0.7260E-02  0.3508E+03
     -0.028  0.9887E+01  0.3518E+03
      0.073  0.0000E+00  0.3518E+03
      0.174  0.1459E-02  0.3518E+03
      0.275  0.2472E+01  0.3520E+03
      0.376  0.0000E+00  0.3520E+03
      0.478  0.0000E+00  0.3520E+03
      0.579  0.0000E+00  0.3520E+03
      0.680  0.0000E+00  0.3520E+03
      0.781  0.0000E+00  0.3520E+03
      0.882  0.0000E+00  0.3520E+03
      0.983  0.0000E+00  0.3520E+03
      1.084  0.0000E+00  0.3520E+03
      1.185  0.0000E+00  0.3520E+03
      1.286  0.0000E+00  0.3520E+03
      1.387  0.0000E+00  0.3520E+03
      1.488  0.0000E+00  0.3520E+03
      1.589  0.0000E+00  0.3520E+03
      1.690  0.0000E+00  0.3520E+03
      1.791  0.0000E+00  0.3520E+03
      1.893  0.0000E+00  0.3520E+03
      1.994  0.0000E+00  0.3520E+03
      2.095  0.0000E+00  0.3520E+03
      2.196  0.0000E+00  0.3520E+03
      2.297  0.0000E+00  0.3520E+03
      2.398  0.0000E+00  0.3520E+03
      2.499  0.0000E+00  0.3520E+03
      2.600  0.0000E+00  0.3520E+03
      2.701  0.5828E-05  0.3520E+03
      2.802  0.1438E+02  0.3535E+03
      2.903  0.1338E+02  0.3551E+03
      3.004  0.8653E+01  0.3561E+03
      3.105  0.1393E+02  0.3607E+03
      3.206  0.9894E+01  0.3617E+03
      3.308  0.1748E+02  0.3635E+03
      3.409  0.0000E+00  0.3640E+03
      3.510  0.0000E+00  0.3640E+03
      3.611  0.0000E+00  0.3640E+03
      3.712  0.0000E+00  0.3640E+03
      3.813  0.9915E+01  0.3650E+03
      3.914  0.9835E+01  0.3670E+03
      4.015  0.4802E+02  0.3719E+03
      4.116  0.1943E+02  0.3740E+03
      4.217  0.2671E+02  0.3767E+03
      4.318  0.2119E-01  0.3780E+03
      4.419  0.9894E+01  0.3800E+03
      4.520  0.1204E-05  0.3800E+03
      4.621  0.4947E+01  0.3805E+03
      4.723  0.1979E+02  0.3825E+03
      4.824  0.3216E+02  0.3858E+03
      4.925  0.2996E+02  0.3888E+03
      5.026  0.6224E+01  0.3904E+03
      5.127  0.1965E+02  0.3927E+03
      5.228  0.1239E-01  0.3933E+03
      5.329  0.1483E+02  0.3948E+03
      5.430  0.1009E+02  0.3958E+03
      5.531  0.4864E+01  0.3977E+03
      5.632  0.4817E+01  0.3982E+03
      5.733  0.4947E+01  0.3990E+03
      5.834  0.1388E-10  0.3990E+03
      5.935  0.2968E+02  0.4020E+03
      6.036  0.1970E+02  0.4040E+03
      6.138  0.5097E+02  0.4092E+03
      6.239  0.1841E+02  0.4134E+03
      6.340  0.1364E-03  0.4143E+03
      6.441  0.1484E+02  0.4157E+03
      6.542  0.3524E+02  0.4193E+03
      6.643  0.3714E+02  0.4238E+03
      6.744  0.5890E+02  0.4307E+03
      6.845  0.9894E+01  0.4318E+03
      6.946  0.2473E+01  0.4320E+03
      7.047  0.0000E+00  0.4320E+03
      7.148  0.0000E+00  0.4320E+03
      7.249  0.0000E+00  0.4320E+03
      7.350  0.0000E+00  0.4320E+03
      7.451  0.0000E+00  0.4320E+03
      7.553  0.0000E+00  0.4320E+03
      7.654  0.0000E+00  0.4320E+03
      7.755  0.0000E+00  0.4320E+03
      7.856  0.0000E+00  0.4320E+03
      7.957  0.0000E+00  0.4320E+03
      8.058  0.0000E+00  0.4320E+03
      8.159  0.0000E+00  0.4320E+03
      8.260  0.0000E+00  0.4320E+03
      8.26002927    -22.06148685  301      0.30063129      1.00000000
    -22.061  0.0000E+00  0.0000E+00  0.0000E+00
    -21.960  0.0000E+00  0.0000E+00  0.0000E+00
    -21.859  0.0000E+00  0.0000E+00  0.0000E+00
    -21.758  0.0000E+00  0.0000E+00  0.0000E+00
    -21.657  0.0000E+00  0.0000E+00  0.0000E+00
    -21.556  0.0000E+00  0.0000E+00  0.0000E+00
    -21.455  0.0000E+00  0.0000E+00  0.0000E+00
    -21.354  0.0000E+00  0.0000E+00  0.0000E+00
    -21.253  0.0000E+00  0.0000E+00  0.0000E+00
    -21.152  0.0000E+00  0.0000E+00  0.0000E+00
    -21.051  0.0000E+00  0.0000E+00  0.0000E+00
    -20.950  0.0000E+00  0.0000E+00  0.0000E+00
    -20.849  0.0000E+00  0.0000E+00  0.0000E+00
    -20.748  0.0000E+00  0.0000E+00  0.0000E+00
    -20.646  0.1756E+02  0.5529E-06  0.4537E-04
    -20.545  0.0000E+00  0.0000E+00  0.0000E+00
    -20.444  0.0000E+00  0.0000E+00  0.0000E+00
    -20.343  0.0000E+00  0.0000E+00  0.0000E+00
    -20.242  0.0000E+00  0.0000E+00  0.0000E+00
    -20.141  0.0000E+00  0.0000E+00  0.0000E+00
    -20.040  0.0000E+00  0.0000E+00  0.0000E+00
    -19.939  0.0000E+00  0.0000E+00  0.0000E+00
    -19.838  0.0000E+00  0.0000E+00  0.0000E+00
    -19.737  0.0000E+00  0.0000E+00  0.0000E+00
    -19.636  0.0000E+00  0.0000E+00  0.0000E+00
    -19.535  0.0000E+00  0.0000E+00  0.0000E+00
    -19.434  0.0000E+00  0.0000E+00  0.0000E+00
    -19.333  0.0000E+00  0.0000E+00  0.0000E+00
    -19.231  0.0000E+00  0.0000E+00  0.0000E+00
    -19.130  0.0000E+00  0.0000E+00  0.0000E+00
    -19.029  0.0000E+00  0.0000E+00  0.0000E+00
    -18.928  0.0000E+00  0.0000E+00  0.0000E+00
    -18.827  0.0000E+00  0.0000E+00  0.0000E+00
    -18.726  0.0000E+00  0.0000E+00  0.0000E+00
    -18.625  0.0000E+00  0.0000E+00  0.0000E+00
    -18.524  0.0000E+00  0.0000E+00  0.0000E+00
    -18.423  0.0000E+00  0.0000E+00  0.0000E+00
    -18.322  0.0000E+00  0.0000E+00  0.0000E+00
    -18.221  0.0000E+00  0.0000E+00  0.0000E+00
    -18.120  0.0000E+00  0.0000E+00  0.0000E+00
    -18.019  0.0000E+00  0.0000E+00  0.0000E+00
    -17.918  0.0000E+00  0.0000E+00  0.0000E+00
    -17.816  0.0000E+00  0.0000E+00  0.0000E+00
    -17.715  0.0000E+00  0.0000E+00  0.0000E+00
    -17.614  0.0000E+00  0.0000E+00  0.0000E+00
    -17.513  0.0000E+00  0.0000E+00  0.0000E+00
    -17.412  0.0000E+00  0.0000E+00  0.0000E+00
    -17.311  0.0000E+00  0.0000E+00  0.0000E+00
    -17.210  0.0000E+00  0.0000E+00  0.0000E+00
    -17.109  0.0000E+00  0.0000E+00  0.0000E+00
    -17.008  0.0000E+00  0.0000E+00  0.0000E+00
    -16.907  0.0000E+00  0.0000E+00  0.0000E+00
    -16.806  0.0000E+00  0.0000E+00  0.0000E+00
    -16.705  0.1591E-18  0.1645E-18  0.5418E-18
    -16.604  0.7212E-06  0.1312E-04  0.5061E-05
    -16.503  0.2108E-03  0.1131E-03  0.1458E-04
    -16.401  0.3173E-16  0.2211E-16  0.8785E-07
    -16.300  0.0000E+00  0.0000E+00  0.0000E+00
    -16.199  0.0000E+00  0.0000E+00  0.0000E+00
    -16.098  0.0000E+00  0.0000E+00  0.0000E+00
    -15.997  0.0000E+00  0.0000E+00  0.0000E+00
    -15.896  0.0000E+00  0.0000E+00  0.0000E+00
    -15.795  0.0000E+00  0.0000E+00  0.0000E+00
    -15.694  0.0000E+00  0.0000E+00  0.0000E+00
    -15.593  0.0000E+00  0.0000E+00  0.0000E+00
    -15.492  0.0000E+00  0.0000E+00  0.0000E+00
    -15.391  0.0000E+00  0.0000E+00  0.0000E+00
    -15.290  0.0000E+00  0.0000E+00  0.0000E+00
    -15.189  0.0000E+00  0.0000E+00  0.0000E+00
    -15.088  0.0000E+00  0.0000E+00  0.0000E+00
    -14.986  0.0000E+00  0.0000E+00  0.0000E+00
    -14.885  0.0000E+00  0.0000E+00  0.0000E+00
    -14.784  0.0000E+00  0.0000E+00  0.0000E+00
    -14.683  0.0000E+00  0.0000E+00  0.0000E+00
    -14.582  0.0000E+00  0.0000E+00  0.0000E+00
    -14.481  0.0000E+00  0.0000E+00  0.0000E+00
    -14.380  0.0000E+00  0.0000E+00  0.0000E+00
    -14.279  0.1073E-02  0.1828E-03  0.1202E-04
    -14.178  0.3974E-02  0.4990E-02  0.1899E-03
    -14.077  0.4474E-16  0.4443E-06  0.9014E-05
    -13.976  0.9360E-14  0.6040E-02  0.3115E-05
    -13.875  0.8082E-02  0.1681E-01  0.7285E-03
    -13.774  0.6628E-02  0.7077E-02  0.2528E-02
    -13.673  0.1939E-02  0.2568E-02  0.2733E-03
    -13.571  0.0000E+00  0.0000E+00  0.0000E+00
    -13.470  0.0000E+00  0.0000E+00  0.0000E+00
    -13.369  0.0000E+00  0.0000E+00  0.0000E+00
    -13.268  0.0000E+00  0.0000E+00  0.0000E+00
    -13.167  0.0000E+00  0.0000E+00  0.0000E+00
    -13.066  0.0000E+00  0.0000E+00  0.0000E+00
    -12.965  0.0000E+00  0.0000E+00  0.0000E+00
    -12.864  0.0000E+00  0.0000E+00  0.0000E+00
    -12.763  0.0000E+00  0.0000E+00  0.0000E+00
    -12.662  0.0000E+00  0.0000E+00  0.0000E+00
    -12.561  0.0000E+00  0.0000E+00  0.0000E+00
    -12.460  0.0000E+00  0.0000E+00  0.0000E+00
    -12.359  0.0000E+00  0.0000E+00  0.0000E+00
    -12.258  0.0000E+00  0.0000E+00  0.0000E+00
    -12.156  0.0000E+00  0.0000E+00  0.0000E+00
    -12.055  0.0000E+00  0.0000E+00  0.0000E+00
    -11.954  0.0000E+00  0.0000E+00  0.0000E+00
    -11.853  0.0000E+00  0.0000E+00  0.0000E+00
    -11.752  0.0000E+00  0.0000E+00  0.0000E+00
    -11.651  0.0000E+00  0.0000E+00  0.0000E+00
    -11.550  0.0000E+00  0.0000E+00  0.0000E+00
    -11.449  0.0000E+00  0.0000E+00  0.0000E+00
    -11.348  0.0000E+00  0.0000E+00  0.0000E+00
    -11.247  0.0000E+00  0.0000E+00  0.0000E+00
    -11.146  0.0000E+00  0.0000E+00  0.0000E+00
    -11.045  0.0000E+00  0.0000E+00  0.0000E+00
    -10.944  0.0000E+00  0.0000E+00  0.0000E+00
    -10.843  0.0000E+00  0.0000E+00  0.0000E+00
    -10.741  0.0000E+00  0.0000E+00  0.0000E+00
    -10.640  0.0000E+00  0.0000E+00  0.0000E+00
    -10.539  0.0000E+00  0.0000E+00  0.0000E+00
    -10.438  0.0000E+00  0.0000E+00  0.0000E+00
    -10.337  0.0000E+00  0.0000E+00  0.0000E+00
    -10.236  0.0000E+00  0.0000E+00  0.0000E+00
    -10.135  0.0000E+00  0.0000E+00  0.0000E+00
    -10.034  0.0000E+00  0.0000E+00  0.0000E+00
     -9.933  0.0000E+00  0.0000E+00  0.0000E+00
     -9.832  0.0000E+00  0.0000E+00  0.0000E+00
     -9.731  0.0000E+00  0.0000E+00  0.0000E+00
     -9.630  0.0000E+00  0.0000E+00  0.0000E+00
     -9.529  0.0000E+00  0.0000E+00  0.0000E+00
     -9.428  0.0000E+00  0.0000E+00  0.0000E+00
     -9.326  0.0000E+00  0.0000E+00  0.0000E+00
     -9.225  0.0000E+00  0.0000E+00  0.0000E+00
     -9.124  0.0000E+00  0.0000E+00  0.0000E+00
     -9.023  0.0000E+00  0.0000E+00  0.0000E+00
     -8.922  0.0000E+00  0.0000E+00  0.0000E+00
     -8.821  0.0000E+00  0.0000E+00  0.0000E+00
     -8.720  0.0000E+00  0.0000E+00  0.0000E+00
     -8.619  0.0000E+00  0.0000E+00  0.0000E+00
     -8.518  0.0000E+00  0.0000E+00  0.0000E+00
     -8.417  0.0000E+00  0.0000E+00  0.0000E+00
     -8.316  0.0000E+00  0.0000E+00  0.0000E+00
     -8.215  0.0000E+00  0.0000E+00  0.0000E+00
     -8.114  0.1512E-20  0.1191E-18  0.5895E-20
     -8.013  0.1249E-22  0.1763E-21  0.2688E-09
     -7.911  0.6707E-18  0.9470E-17  0.1444E-04
     -7.810  0.1182E-18  0.6445E-02  0.5156E-04
     -7.709  0.1246E-20  0.2017E-03  0.5156E-06
     -7.608  0.8934E-17  0.1727E-01  0.1369E-04
     -7.507  0.3524E-04  0.8058E-01  0.6990E-04
     -7.406  0.1351E-06  0.3030E-03  0.3406E-05
     -7.305  0.2173E-17  0.1171E-01  0.1522E-05
     -7.204  0.1543E-04  0.2509E+00  0.1153E-04
     -7.103  0.2878E-04  0.2216E+02  0.3909E-04
     -7.002  0.2796E-03  0.1308E+02  0.1019E-03
     -6.901  0.2809E-04  0.5838E+00  0.1776E-04
     -6.800  0.0000E+00  0.0000E+00  0.0000E+00
     -6.699  0.3424E-04  0.5522E-18  0.2087E-04
     -6.598  0.0000E+00  0.0000E+00  0.0000E+00
     -6.496  0.0000E+00  0.0000E+00  0.0000E+00
     -6.395  0.0000E+00  0.0000E+00  0.0000E+00
     -6.294  0.0000E+00  0.0000E+00  0.0000E+00
     -6.193  0.0000E+00  0.0000E+00  0.0000E+00
     -6.092  0.0000E+00  0.0000E+00  0.0000E+00
     -5.991  0.0000E+00  0.0000E+00  0.0000E+00
     -5.890  0.0000E+00  0.0000E+00  0.0000E+00
     -5.789  0.0000E+00  0.0000E+00  0.0000E+00
     -5.688  0.0000E+00  0.0000E+00  0.0000E+00
     -5.587  0.0000E+00  0.0000E+00  0.0000E+00
     -5.486  0.0000E+00  0.0000E+00  0.0000E+00
     -5.385  0.0000E+00  0.0000E+00  0.0000E+00
     -5.284  0.0000E+00  0.0000E+00  0.0000E+00
     -5.183  0.0000E+00  0.0000E+00  0.0000E+00
     -5.081  0.0000E+00  0.0000E+00  0.0000E+00
     -4.980  0.0000E+00  0.0000E+00  0.0000E+00
     -4.879  0.0000E+00  0.0000E+00  0.0000E+00
     -4.778  0.0000E+00  0.0000E+00  0.0000E+00
     -4.677  0.0000E+00  0.0000E+00  0.0000E+00
     -4.576  0.0000E+00  0.0000E+00  0.0000E+00
     -4.475  0.0000E+00  0.0000E+00  0.0000E+00
     -4.374  0.0000E+00  0.0000E+00  0.0000E+00
     -4.273  0.0000E+00  0.0000E+00  0.0000E+00
     -4.172  0.0000E+00  0.0000E+00  0.0000E+00
     -4.071  0.0000E+00  0.0000E+00  0.0000E+00
     -3.970  0.0000E+00  0.0000E+00  0.0000E+00
     -3.869  0.0000E+00  0.0000E+00  0.0000E+00
     -3.768  0.0000E+00  0.0000E+00  0.0000E+00
     -3.666  0.0000E+00  0.0000E+00  0.0000E+00
     -3.565  0.2367E-32  0.5081E-17  0.2163E-30
     -3.464  0.5185E-17  0.1373E-01  0.7207E-03
     -3.363  0.3724E-20  0.7449E-18  0.1639E-17
     -3.262  0.0000E+00  0.0000E+00  0.0000E+00
     -3.161  0.0000E+00  0.0000E+00  0.0000E+00
     -3.060  0.0000E+00  0.0000E+00  0.0000E+00
     -2.959  0.4984E-17  0.8106E-02  0.8343E-12
     -2.858  0.2954E-16  0.1012E-01  0.9673E-03
     -2.757  0.2515E-17  0.2859E-16  0.6390E-04
     -2.656  0.7768E-17  0.3520E-15  0.3418E-16
     -2.555  0.8935E-03  0.6156E-01  0.5627E-02
     -2.454  0.5934E-03  0.1725E-01  0.4652E-02
     -2.353  0.2740E-05  0.1884E-01  0.3412E-02
     -2.251  0.1301E-02  0.1590E-02  0.2906E-02
     -2.150  0.4937E-02  0.2068E-01  0.7139E-02
     -2.049  0.6292E-02  0.1771E-01  0.3876E-02
     -1.948  0.2726E-01  0.2919E-01  0.4081E-02
     -1.847  0.2788E-03  0.1746E-01  0.1008E-02
     -1.746  0.1712E-01  0.9765E-01  0.6550E-02
     -1.645  0.1137E-01  0.8821E-01  0.1303E-01
     -1.544  0.1816E-02  0.6120E-01  0.6545E-02
     -1.443  0.6055E-02  0.9409E-01  0.5275E-01
     -1.342  0.2506E-02  0.2897E-01  0.7354E-02
     -1.241  0.3483E-02  0.5710E-01  0.9901E-02
     -1.140  0.4552E-02  0.7516E-01  0.4029E-01
     -1.039  0.6481E-02  0.3871E+00  0.1249E-01
     -0.937  0.5471E-03  0.3941E-01  0.1781E-02
     -0.836  0.9688E-14  0.3610E-01  0.9264E-02
     -0.735  0.4278E-04  0.1104E-01  0.1288E-02
     -0.634  0.4642E-04  0.1461E-01  0.5336E-02
     -0.533  0.5874E-20  0.6442E-03  0.1681E-16
     -0.432  0.1482E-17  0.6602E-15  0.2561E-03
     -0.331  0.2458E-15  0.1835E-02  0.1109E-02
     -0.230  0.4193E-16  0.1162E-03  0.1595E-02
     -0.129  0.2235E-17  0.8439E-17  0.1069E-06
     -0.028  0.3043E-14  0.1149E-13  0.1455E-03
      0.073  0.0000E+00  0.0000E+00  0.0000E+00
      0.174  0.1700E-21  0.5259E-20  0.1761E-19
      0.275  0.2879E-18  0.8908E-17  0.2984E-16
      0.376  0.0000E+00  0.0000E+00  0.0000E+00
      0.478  0.0000E+00  0.0000E+00  0.0000E+00
      0.579  0.0000E+00  0.0000E+00  0.0000E+00
      0.680  0.0000E+00  0.0000E+00  0.0000E+00
      0.781  0.0000E+00  0.0000E+00  0.0000E+00
      0.882  0.0000E+00  0.0000E+00  0.0000E+00
      0.983  0.0000E+00  0.0000E+00  0.0000E+00
      1.084  0.0000E+00  0.0000E+00  0.0000E+00
      1.185  0.0000E+00  0.0000E+00  0.0000E+00
      1.286  0.0000E+00  0.0000E+00  0.0000E+00
      1.387  0.0000E+00  0.0000E+00  0.0000E+00
      1.488  0.0000E+00  0.0000E+00  0.0000E+00
      1.589  0.0000E+00  0.0000E+00  0.0000E+00
      1.690  0.0000E+00  0.0000E+00  0.0000E+00
      1.791  0.0000E+00  0.0000E+00  0.0000E+00
      1.893  0.0000E+00  0.0000E+00  0.0000E+00
      1.994  0.0000E+00  0.0000E+00  0.0000E+00
      2.095  0.0000E+00  0.0000E+00  0.0000E+00
      2.196  0.0000E+00  0.0000E+00  0.0000E+00
      2.297  0.0000E+00  0.0000E+00  0.0000E+00
      2.398  0.0000E+00  0.0000E+00  0.0000E+00
      2.499  0.0000E+00  0.0000E+00  0.0000E+00
      2.600  0.0000E+00  0.0000E+00  0.0000E+00
      2.701  0.7817E-22  0.3569E-21  0.2060E-08
      2.802  0.4314E-15  0.1237E-02  0.3953E-02
      2.903  0.4908E-15  0.2218E-02  0.1283E-02
      3.004  0.4503E-05  0.3078E-03  0.1335E-02
      3.105  0.5733E-03  0.2753E-02  0.1538E-02
      3.206  0.4971E-04  0.1828E-02  0.1752E-02
      3.308  0.7922E-03  0.1047E-02  0.2486E-02
      3.409  0.0000E+00  0.0000E+00  0.0000E+00
      3.510  0.0000E+00  0.0000E+00  0.0000E+00
      3.611  0.0000E+00  0.0000E+00  0.0000E+00
      3.712  0.0000E+00  0.0000E+00  0.0000E+00
      3.813  0.1374E-13  0.4702E-05  0.4324E-02
      3.914  0.1137E-16  0.1470E-02  0.4926E-02
      4.015  0.1456E-02  0.7769E-02  0.1005E-01
      4.116  0.5544E-03  0.3201E-02  0.4647E-02
      4.217  0.4737E-02  0.6562E-02  0.4166E-02
      4.318  0.1249E-05  0.5036E-05  0.6392E-06
      4.419  0.3975E-02  0.2122E-02  0.2295E-02
      4.520  0.1400E-20  0.1473E-21  0.1253E-08
      4.621  0.5752E-14  0.3134E-13  0.5148E-02
      4.723  0.1746E-07  0.9887E-03  0.1442E-01
      4.824  0.1396E-01  0.1027E-01  0.2382E-01
      4.925  0.1087E-01  0.1448E-01  0.2655E-01
      5.026  0.1708E-12  0.1635E-12  0.8867E-03
      5.127  0.5856E-11  0.6882E-04  0.1703E-02
      5.228  0.3559E-14  0.7859E-06  0.1209E-06
      5.329  0.2843E-11  0.6267E-03  0.1320E-02
      5.430  0.7863E-03  0.2289E-03  0.3078E-02
      5.531  0.2730E-06  0.2744E-03  0.1526E-05
      5.632  0.4827E-02  0.4498E-13  0.5811E-01
      5.733  0.3017E-02  0.2200E-02  0.6146E-01
      5.834  0.4132E-13  0.1235E-13  0.4920E-13
      5.935  0.9793E-01  0.3044E-01  0.1071E+00
      6.036  0.6988E-02  0.1389E-01  0.2386E+00
      6.138  0.3653E-01  0.3619E-01  0.4432E+00
      6.239  0.3223E-02  0.3340E-03  0.2644E+00
      6.340  0.4109E-06  0.1948E-14  0.1452E-05
      6.441  0.1493E-01  0.1411E-01  0.1885E+00
      6.542  0.2061E-01  0.4383E-01  0.5060E+00
      6.643  0.2962E-02  0.4442E-01  0.7457E+00
      6.744  0.5395E-01  0.1091E-01  0.5560E+00
      6.845  0.1463E-04  0.1149E-02  0.3554E-01
      6.946  0.1736E-06  0.1762E-05  0.5043E-01
      7.047  0.0000E+00  0.0000E+00  0.0000E+00
      7.148  0.0000E+00  0.0000E+00  0.0000E+00
      7.249  0.0000E+00  0.0000E+00  0.0000E+00
      7.350  0.0000E+00  0.0000E+00  0.0000E+00
      7.451  0.0000E+00  0.0000E+00  0.0000E+00
      7.553  0.0000E+00  0.0000E+00  0.0000E+00
      7.654  0.0000E+00  0.0000E+00  0.0000E+00
      7.755  0.0000E+00  0.0000E+00  0.0000E+00
      7.856  0.0000E+00  0.0000E+00  0.0000E+00
      7.957  0.0000E+00  0.0000E+00  0.0000E+00
      8.058  0.0000E+00  0.0000E+00  0.0000E+00
      8.159  0.0000E+00  0.0000E+00  0.0000E+00
      8.260  0.0000E+00  0.0000E+00  0.0000E+00
      8.26002927    -22.06148685  301      0.30063129      1.00000000
    -22.061  0.0000E+00  0.0000E+00  0.0000E+00
    -21.960  0.0000E+00  0.0000E+00  0.0000E+00
    -21.859  0.0000E+00  0.0000E+00  0.0000E+00
    -21.758  0.0000E+00  0.0000E+00  0.0000E+00
    -21.657  0.0000E+00  0.0000E+00  0.0000E+00
    -21.556  0.0000E+00  0.0000E+00  0.0000E+00
    -21.455  0.0000E+00  0.0000E+00  0.0000E+00
    -21.354  0.0000E+00  0.0000E+00  0.0000E+00
    -21.253  0.0000E+00  0.0000E+00  0.0000E+00
    -21.152  0.0000E+00  0.0000E+00  0.0000E+00
    -21.051  0.0000E+00  0.0000E+00  0.0000E+00
    -20.950  0.0000E+00  0.0000E+00  0.0000E+00
    -20.849  0.0000E+00  0.0000E+00  0.0000E+00
    -20.748  0.0000E+00  0.0000E+00  0.0000E+00
    -20.646  0.1756E+02  0.5529E-06  0.4537E-04
    -20.545  0.0000E+00  0.0000E+00  0.0000E+00
    -20.444  0.0000E+00  0.0000E+00  0.0000E+00
    -20.343  0.0000E+00  0.0000E+00  0.0000E+00
    -20.242  0.0000E+00  0.0000E+00  0.0000E+00
    -20.141  0.0000E+00  0.0000E+00  0.0000E+00
    -20.040  0.0000E+00  0.0000E+00  0.0000E+00
    -19.939  0.0000E+00  0.0000E+00  0.0000E+00
    -19.838  0.0000E+00  0.0000E+00  0.0000E+00
    -19.737  0.0000E+00  0.0000E+00  0.0000E+00
    -19.636  0.0000E+00  0.0000E+00  0.0000E+00
    -19.535  0.0000E+00  0.0000E+00  0.0000E+00
    -19.434  0.0000E+00  0.0000E+00  0.0000E+00
    -19.333  0.0000E+00  0.0000E+00  0.0000E+00
    -19.231  0.0000E+00  0.0000E+00  0.0000E+00
    -19.130  0.0000E+00  0.0000E+00  0.0000E+00
    -19.029  0.0000E+00  0.0000E+00  0.0000E+00
    -18.928  0.0000E+00  0.0000E+00  0.0000E+00
    -18.827  0.0000E+00  0.0000E+00  0.0000E+00
    -18.726  0.0000E+00  0.0000E+00  0.0000E+00
    -18.625  0.0000E+00  0.0000E+00  0.0000E+00
    -18.524  0.0000E+00  0.0000E+00  0.0000E+00
    -18.423  0.0000E+00  0.0000E+00  0.0000E+00
    -18.322  0.0000E+00  0.0000E+00  0.0000E+00
    -18.221  0.0000E+00  0.0000E+00  0.0000E+00
    -18.120  0.0000E+00  0.0000E+00  0.0000E+00
    -18.019  0.0000E+00  0.0000E+00  0.0000E+00
    -17.918  0.0000E+00  0.0000E+00  0.0000E+00
    -17.816  0.0000E+00  0.0000E+00  0.0000E+00
    -17.715  0.0000E+00  0.0000E+00  0.0000E+00
    -17.614  0.0000E+00  0.0000E+00  0.0000E+00
    -17.513  0.0000E+00  0.0000E+00  0.0000E+00
    -17.412  0.0000E+00  0.0000E+00  0.0000E+00
    -17.311  0.0000E+00  0.0000E+00  0.0000E+00
    -17.210  0.0000E+00  0.0000E+00  0.0000E+00
    -17.109  0.0000E+00  0.0000E+00  0.0000E+00
    -17.008  0.0000E+00  0.0000E+00  0.0000E+00
    -16.907  0.0000E+00  0.0000E+00  0.0000E+00
    -16.806  0.0000E+00  0.0000E+00  0.0000E+00
    -16.705  0.1591E-18  0.1645E-18  0.5418E-18
    -16.604  0.7212E-06  0.1312E-04  0.5061E-05
    -16.503  0.2108E-03  0.1131E-03  0.1458E-04
    -16.401  0.2788E-16  0.1913E-16  0.8785E-07
    -16.300  0.0000E+00  0.0000E+00  0.0000E+00
    -16.199  0.0000E+00  0.0000E+00  0.0000E+00
    -16.098  0.0000E+00  0.0000E+00  0.0000E+00
    -15.997  0.0000E+00  0.0000E+00  0.0000E+00
    -15.896  0.0000E+00  0.0000E+00  0.0000E+00
    -15.795  0.0000E+00  0.0000E+00  0.0000E+00
    -15.694  0.0000E+00  0.0000E+00  0.0000E+00
    -15.593  0.0000E+00  0.0000E+00  0.0000E+00
    -15.492  0.0000E+00  0.0000E+00  0.0000E+00
    -15.391  0.0000E+00  0.0000E+00  0.0000E+00
    -15.290  0.0000E+00  0.0000E+00  0.0000E+00
    -15.189  0.0000E+00  0.0000E+00  0.0000E+00
    -15.088  0.0000E+00  0.0000E+00  0.0000E+00
    -14.986  0.0000E+00  0.0000E+00  0.0000E+00
    -14.885  0.0000E+00  0.0000E+00  0.0000E+00
    -14.784  0.0000E+00  0.0000E+00  0.0000E+00
    -14.683  0.0000E+00  0.0000E+00  0.0000E+00
    -14.582  0.0000E+00  0.0000E+00  0.0000E+00
    -14.481  0.0000E+00  0.0000E+00  0.0000E+00
    -14.380  0.0000E+00  0.0000E+00  0.0000E+00
    -14.279  0.1073E-02  0.1828E-03  0.1202E-04
    -14.178  0.3974E-02  0.4990E-02  0.1899E-03
    -14.077  0.3621E-16  0.4443E-06  0.9014E-05
    -13.976  0.9365E-14  0.6040E-02  0.3115E-05
    -13.875  0.8082E-02  0.1681E-01  0.7285E-03
    -13.774  0.6628E-02  0.7077E-02  0.2528E-02
    -13.673  0.1939E-02  0.2568E-02  0.2733E-03
    -13.571  0.0000E+00  0.0000E+00  0.0000E+00
    -13.470  0.0000E+00  0.0000E+00  0.0000E+00
    -13.369  0.0000E+00  0.0000E+00  0.0000E+00
    -13.268  0.0000E+00  0.0000E+00  0.0000E+00
    -13.167  0.0000E+00  0.0000E+00  0.0000E+00
    -13.066  0.0000E+00  0.0000E+00  0.0000E+00