       N       E                     dE             d eps       ncg     rms          rms(c)
DAV:   1     0.135090582283E+04    0.13509E+04   -0.11282E+05  2696   0.958E+02
DAV:   2    -0.112855785314E+04   -0.24795E+04   -0.23734E+04  3192   0.295E+02
DAV:   3    -0.149628183830E+04   -0.36772E+03   -0.36545E+03  3456   0.135E+02
DAV:   4    -0.150861410554E+04   -0.12332E+02   -0.12296E+02  3040   0.325E+01
DAV:   5    -0.150920954433E+04   -0.59544E+00   -0.59518E+00  3424   0.555E+00    0.101E+01
DAV:   6    -0.142824929420E+04    0.80960E+02   -0.25088E+01  3360   0.296E+01    0.717E+00
DAV:   7    -0.142768407112E+04    0.56522E+00   -0.90207E+00  3224   0.543E+00    0.378E+00
DAV:   8    -0.142789357291E+04   -0.20950E+00   -0.45999E-01  3016   0.198E+00    0.214E+00
DAV:   9    -0.142797698597E+04   -0.83413E-01   -0.19120E-01  2880   0.129E+00    0.416E-01
DAV:  10    -0.142798040466E+04   -0.34187E-02   -0.12812E-02  3624   0.318E-01    0.282E-01
DAV:  11    -0.142798513234E+04   -0.47277E-02   -0.54356E-03  2840   0.213E-01    0.105E-01
DAV:  12    -0.142798481103E+04    0.32131E-03   -0.93358E-04  3040   0.978E-02    0.407E-02
DAV:  13    -0.142798472329E+04    0.87742E-04   -0.12493E-04  2984   0.285E-02    0.168E-02
DAV:  14    -0.142798473855E+04   -0.15253E-04   -0.16066E-05  2944   0.806E-03    0.391E-03
DAV:  15    -0.142798473732E+04    0.12239E-05   -0.11078E-06  1688   0.358E-03    0.138E-03
DAV:  16    -0.142798473306E+04    0.42642E-05   -0.40331E-07  1648   0.240E-03    0.984E-04
DAV:  17    -0.142798473114E+04    0.19185E-05   -0.11067E-07  1560   0.128E-03    0.490E-04
DAV:  18    -0.142798473159E+04   -0.44684E-06   -0.54989E-08  1560   0.951E-04
   1 F= -.14279847E+04 E0= -.14279847E+04  d E =-.258538E-49
