<?xml version="1.0" encoding="ISO-8859-1"?>
<modeling>
 <generator>
  <i name="program" type="string">vasp </i>
  <i name="version" type="string">5.4.4.18Apr17-6-g9f103f2a35  </i>
  <i name="subversion" type="string">(build Jun 22 2020 09:27:21) complex            parallel </i>
  <i name="platform" type="string">tx2_gcc-7.3_libsci-18.07_cray-fftw-3.3.8 </i>
  <i name="date" type="string">2021 09 22 </i>
  <i name="time" type="string">08:25:27 </i>
 </generator>
 <incar>
  <i type="string" name="SYSTEM"> CsPbBr3 cubic bulk</i>
  <i type="string" name="PREC">accurate</i>
  <i type="string" name="ALGO"> Normal   ! Electronic minimisation algo</i>
  <i type="logical" name="ADDGRID"> T  </i>
  <i type="int" name="NELM">   200</i>
  <i type="int" name="IBRION">     2</i>
  <i name="EDIFF">      0.00000100</i>
  <i name="EDIFFG">     -0.01000000</i>
  <i type="int" name="NSW">     0</i>
  <i type="int" name="ISIF">     3</i>
  <i type="int" name="ISYM">     2</i>
  <i name="ENCUT">    300.00000000</i>
  <i name="POTIM">      0.50000000</i>
  <i type="string" name="LREAL"> AUTO</i>
  <i type="int" name="ISMEAR">     0</i>
  <i name="SIGMA">      0.01000000</i>
  <i name="PSTRESS">      0.00000000</i>
  <i type="logical" name="LWAVE"> F  </i>
  <i type="logical" name="LCHARG"> T  </i>
  <i type="logical" name="LVHAR"> T  </i>
  <i type="int" name="LORBIT">    10</i>
  <i type="logical" name="LASPH"> T  </i>
  <v type="int" name="KPOINT_BSE">    -1     0     0     0</v>
  <i type="int" name="NELM">   200</i>
  <i type="string" name="METAGGA"> SCAN       ! PBE exchange-correlation</i>
  <i type="logical" name="LASPH"> T  </i>
 </incar>
 <structure name="primitive_cell" >
  <crystal>
   <varray name="basis" >
    <v>       5.86767600      -5.86767600       0.00000000 </v>
    <v>      -5.86767600      -5.86767600       0.00000000 </v>
    <v>       0.00000000       0.00000000      -5.86767600 </v>
   </varray>
   <i name="volume">    404.04372918 </i>
   <varray name="rec_basis" >
    <v>       0.08521261      -0.08521261       0.00000000 </v>
    <v>      -0.08521261      -0.08521261      -0.00000000 </v>
    <v>       0.00000000      -0.00000000      -0.17042522 </v>
   </varray>
  </crystal>
  <varray name="positions" >
   <v>       0.00000000      -0.50000000      -0.50000000 </v>
   <v>       0.16000000      -0.34000000       0.00000000 </v>
   <v>      -0.16000000       0.34000000       0.00000000 </v>
   <v>       0.00000000       0.00000000      -0.50000000 </v>
   <v>      -0.50000000      -0.50000000      -0.50000000 </v>
   <v>      -0.34000000      -0.16000000       0.00000000 </v>
   <v>       0.34000000       0.16000000       0.00000000 </v>
   <v>       0.00000000       0.00000000       0.00000000 </v>
   <v>      -0.50000000      -0.50000000       0.00000000 </v>
   <v>      -0.50000000       0.00000000      -0.50000000 </v>
  </varray>
 </structure>
 <varray name="primitive_index" >
  <v type="int" >        1 </v>
  <v type="int" >       33 </v>
  <v type="int" >       35 </v>
  <v type="int" >       25 </v>
  <v type="int" >       27 </v>
  <v type="int" >       17 </v>
  <v type="int" >       21 </v>
  <v type="int" >        9 </v>
  <v type="int" >       11 </v>
  <v type="int" >        3 </v>
 </varray>
 <kpoints>
  <generation param="Gamma">
   <v type="int" name="divisions">       2        2        2 </v>
   <v name="usershift">      0.00000000       0.00000000       0.00000000 </v>
   <v name="genvec1">      0.50000000       0.00000000       0.00000000 </v>
   <v name="genvec2">      0.00000000       0.50000000       0.00000000 </v>
   <v name="genvec3">      0.00000000       0.00000000       0.50000000 </v>
   <v name="shift">      0.00000000       0.00000000       0.00000000 </v>
  </generation>
  <varray name="kpointlist" >
   <v>       0.00000000       0.00000000       0.00000000 </v>
   <v>       0.50000000       0.00000000       0.00000000 </v>
   <v>       0.50000000       0.50000000       0.00000000 </v>
   <v>       0.00000000       0.00000000       0.50000000 </v>
   <v>       0.50000000       0.00000000       0.50000000 </v>
   <v>       0.50000000       0.50000000       0.50000000 </v>
  </varray>
  <varray name="weights" >
   <v>       0.12500000 </v>
   <v>       0.25000000 </v>
   <v>       0.12500000 </v>
   <v>       0.12500000 </v>
   <v>       0.25000000 </v>
   <v>       0.12500000 </v>
  </varray>
 </kpoints>
 <parameters>
  <separator name="general" >
   <i type="string" name="SYSTEM">CsPbBr3 cubic bulk</i>
   <i type="logical" name="LCOMPAT"> F  </i>
  </separator>
  <separator name="electronic" >
   <i type="string" name="PREC">accura</i>
   <i name="ENMAX">    300.00000000</i>
   <i name="ENAUG">    503.85200000</i>
   <i name="EDIFF">      0.00000100</i>
   <i type="int" name="IALGO">    38</i>
   <i type="int" name="IWAVPR">    10</i>
   <i type="int" name="NBANDS">   216</i>
   <i name="NELECT">    352.00000000</i>
   <i type="int" name="TURBO">     0</i>
   <i type="int" name="IRESTART">     0</i>
   <i type="int" name="NREBOOT">     0</i>
   <i type="int" name="NMIN">     0</i>
   <i name="EREF">      0.00000000</i>
   <separator name="electronic smearing" >
    <i type="int" name="ISMEAR">     0</i>
    <i name="SIGMA">      0.01000000</i>
    <i name="KSPACING">      0.50000000</i>
    <i type="logical" name="KGAMMA"> T  </i>
   </separator>
   <separator name="electronic projectors" >
    <i type="logical" name="LREAL"> T  </i>
    <v name="ROPT">     -0.00025000     -0.00025000     -0.00025000</v>
    <i type="int" name="LMAXPAW">  -100</i>
    <i type="int" name="LMAXMIX">     2</i>
    <i type="logical" name="NLSPLINE"> F  </i>
   </separator>
   <separator name="electronic startup" >
    <i type="int" name="ISTART">     0</i>
    <i type="int" name="ICHARG">     2</i>
    <i type="int" name="INIWAV">     1</i>
   </separator>
   <separator name="electronic spin" >
    <i type="int" name="ISPIN">     1</i>
    <i type="logical" name="LNONCOLLINEAR"> F  </i>
    <v name="MAGMOM">      1.00000000      1.00000000      1.00000000      1.00000000      1.00000000      1.00000000      1.00000000      1.00000000      1.00000000      1.00000000      1.00000000      1.00000000      1.00000000      1.00000000      1.00000000      1.00000000      1.00000000      1.00000000      1.00000000      1.00000000
      1.00000000      1.00000000      1.00000000      1.00000000      1.00000000      1.00000000      1.00000000      1.00000000      1.00000000      1.00000000      1.00000000      1.00000000      1.00000000      1.00000000      1.00000000      1.00000000      1.00000000      1.00000000      1.00000000      1.00000000
</v>
    <i name="NUPDOWN">     -1.00000000</i>
    <i type="logical" name="LSORBIT"> F  </i>
    <v name="SAXIS">      0.00000000      0.00000000      1.00000000</v>
    <i type="logical" name="LSPIRAL"> F  </i>
    <v name="QSPIRAL">      0.00000000      0.00000000      0.00000000</v>
    <i type="logical" name="LZEROZ"> F  </i>
   </separator>
   <separator name="electronic exchange-correlation" >
    <i type="logical" name="LASPH"> T  </i>
    <i type="logical" name="LMETAGGA"> F  </i>
   </separator>
   <separator name="electronic convergence" >
    <i type="int" name="NELM">   200</i>
    <i type="int" name="NELMDL">    -5</i>
    <i type="int" name="NELMIN">     2</i>
    <i name="ENINI">    300.00000000</i>
    <separator name="electronic convergence detail" >
     <i type="logical" name="LDIAG"> T  </i>
     <i type="logical" name="LSUBROT"> F  </i>
     <i name="WEIMIN">      0.00000000</i>
     <i name="EBREAK">      0.00000000</i>
     <i name="DEPER">      0.30000000</i>
     <i type="int" name="NRMM">     4</i>
     <i name="TIME">      0.40000000</i>
    </separator>
   </separator>
   <separator name="electronic mixer" >
    <i name="AMIX">      0.40000000</i>
    <i name="BMIX">      1.00000000</i>
    <i name="AMIN">      0.10000000</i>
    <i name="AMIX_MAG">      1.60000000</i>
    <i name="BMIX_MAG">      1.00000000</i>
    <separator name="electronic mixer details" >
     <i type="int" name="IMIX">     4</i>
     <i type="logical" name="MIXFIRST"> F  </i>
     <i type="int" name="MAXMIX">   -45</i>
     <i name="WC">    100.00000000</i>
     <i type="int" name="INIMIX">     1</i>
     <i type="int" name="MIXPRE">     1</i>
     <i type="int" name="MREMOVE">     5</i>
    </separator>
   </separator>
   <separator name="electronic dipolcorrection" >
    <i type="logical" name="LDIPOL"> F  </i>
    <i type="logical" name="LMONO"> F  </i>
    <i type="int" name="IDIPOL">     0</i>
    <i name="EPSILON">      1.00000000</i>
    <v name="DIPOL">   -100.00000000   -100.00000000   -100.00000000</v>
    <i name="EFIELD">      0.00000000</i>
   </separator>
  </separator>
  <separator name="grids" >
   <i type="int" name="NGX">    70</i>
   <i type="int" name="NGY">    70</i>
   <i type="int" name="NGZ">    70</i>
   <i type="int" name="NGXF">   140</i>
   <i type="int" name="NGYF">   140</i>
   <i type="int" name="NGZF">   140</i>
   <i type="logical" name="ADDGRID"> T  </i>
  </separator>
  <separator name="ionic" >
   <i type="int" name="NSW">     0</i>
   <i type="int" name="IBRION">    -1</i>
   <i type="int" name="MDALGO">     0</i>
   <i type="int" name="ISIF">     3</i>
   <i name="PSTRESS">      0.00000000</i>
   <i name="EDIFFG">     -0.01000000</i>
   <i type="int" name="NFREE">     1</i>
   <i name="POTIM">      0.50000000</i>
   <i name="SMASS">     -3.00000000</i>
   <i name="SCALEE">      1.00000000</i>
  </separator>
  <separator name="ionic md" >
   <i name="TEBEG">      0.00010000</i>
   <i name="TEEND">      0.00010000</i>
   <i type="int" name="NBLOCK">     1</i>
   <i type="int" name="KBLOCK">     1</i>
   <i type="int" name="NPACO">   256</i>
   <i name="APACO">     16.00000000</i>
  </separator>
  <separator name="symmetry" >
   <i type="int" name="ISYM">     2</i>
   <i name="SYMPREC">      0.00001000</i>
  </separator>
  <separator name="dos" >
   <i type="int" name="LORBIT">    10</i>
   <v name="RWIGS">     -1.00000000     -1.00000000     -1.00000000</v>
   <i type="int" name="NEDOS">   301</i>
   <i name="EMIN">     10.00000000</i>
   <i name="EMAX">    -10.00000000</i>
   <i name="EFERMI">      0.00000000</i>
  </separator>
  <separator name="writing" >
   <i type="int" name="NWRITE">     2</i>
   <i type="logical" name="LWAVE"> F  </i>
   <i type="logical" name="LDOWNSAMPLE"> F  </i>
   <i type="logical" name="LCHARG"> T  </i>
   <i type="logical" name="LPARD"> F  </i>
   <i type="logical" name="LVTOT"> F  </i>
   <i type="logical" name="LVHAR"> T  </i>
   <i type="logical" name="LELF"> F  </i>
   <i type="logical" name="LOPTICS"> F  </i>
   <v name="STM">      0.00000000      0.00000000      0.00000000      0.00000000      0.00000000      0.00000000      0.00000000</v>
  </separator>
  <separator name="performance" >
   <i type="int" name="NPAR">     8</i>
   <i type="int" name="NSIM">     4</i>
   <i type="int" name="NBLK">    -1</i>
   <i type="logical" name="LPLANE"> T  </i>
   <i type="logical" name="LSCALAPACK"> T  </i>
   <i type="logical" name="LSCAAWARE"> F  </i>
   <i type="logical" name="LSCALU"> F  </i>
   <i type="logical" name="LASYNC"> F  </i>
   <i type="logical" name="LORBITALREAL"> F  </i>
  </separator>
  <separator name="miscellaneous" >
   <i type="int" name="IDIOT">     3</i>
   <i type="int" name="ISPECIAL">     0</i>
   <i type="logical" name="LMUSIC"> F  </i>
   <v name="POMASS">    132.90000000    207.20000000     79.90400000</v>
   <v name="DARWINR">      0.00000000      0.00000000      0.00000000</v>
   <v name="DARWINV">      1.00000000      1.00000000      1.00000000</v>
   <i type="logical" name="LCORR"> T  </i>
  </separator>
  <i type="logical" name="GGA_COMPAT"> T  </i>
  <i type="logical" name="LBERRY"> F  </i>
  <i type="int" name="ICORELEVEL">     0</i>
  <i type="logical" name="LDAU"> F  </i>
  <i type="int" name="I_CONSTRAINED_M">     0</i>
  <separator name="electronic exchange-correlation" >
   <i type="string" name="GGA">--</i>
   <i type="int" name="VOSKOWN">     0</i>
   <i type="logical" name="LHFCALC"> F  </i>
   <i type="string" name="PRECFOCK"></i>
   <i type="logical" name="LSYMGRAD"> F  </i>
   <i type="logical" name="LHFONE"> F  </i>
   <i type="logical" name="LRHFCALC"> F  </i>
   <i type="logical" name="LTHOMAS"> F  </i>
   <i type="logical" name="LMODELHF"> F  </i>
   <i name="ENCUT4O">     -1.00000000</i>
   <i type="int" name="EXXOEP">     0</i>
   <i type="int" name="FOURORBIT">     0</i>
   <i name="AEXX">      0.00000000</i>
   <i name="HFALPHA">      0.00000000</i>
   <i name="MCALPHA">      0.00000000</i>
   <i name="ALDAX">      1.00000000</i>
   <i name="AGGAX">      1.00000000</i>
   <i name="ALDAC">      1.00000000</i>
   <i name="AGGAC">      1.00000000</i>
   <i type="int" name="NKREDX">     1</i>
   <i type="int" name="NKREDY">     1</i>
   <i type="int" name="NKREDZ">     1</i>
   <i type="logical" name="SHIFTRED"> F  </i>
   <i type="logical" name="ODDONLY"> F  </i>
   <i type="logical" name="EVENONLY"> F  </i>
   <i type="int" name="LMAXFOCK">     0</i>
   <i type="int" name="NMAXFOCKAE">     0</i>
   <i type="logical" name="LFOCKAEDFT"> F  </i>
   <i name="HFSCREEN">      0.00000000</i>
   <i name="HFSCREENC">      0.00000000</i>
   <i type="int" name="NBANDSGWLOW">     0</i>
  </separator>
  <separator name="vdW DFT" >
   <i type="logical" name="LUSE_VDW"> F  </i>
   <i name="Zab_VDW">     -0.84910000</i>
   <i name="PARAM1">      0.12340000</i>
   <i name="PARAM2">      1.00000000</i>
   <i name="PARAM3">      0.00000000</i>
  </separator>
  <separator name="model GW" >
   <i type="int" name="MODEL_GW">     0</i>
   <i name="MODEL_EPS0">     24.24262375</i>
   <i name="MODEL_ALPHA">      1.00000000</i>
  </separator>
  <separator name="linear response parameters" >
   <i type="logical" name="LEPSILON"> F  </i>
   <i type="logical" name="LRPA"> F  </i>
   <i type="logical" name="LNABLA"> F  </i>
   <i type="logical" name="LVEL"> F  </i>
   <i type="int" name="KINTER">     0</i>
   <i name="CSHIFT">      0.10000000</i>
   <i name="OMEGAMAX">     -1.00000000</i>
   <i name="DEG_THRESHOLD">      0.00200000</i>
   <i name="RTIME">     -0.10000000</i>
   <i name="WPLASMAI">      0.00000000</i>
   <v name="DFIELD">      0.00000000      0.00000000      0.00000000</v>
   <v name="WPLASMA">      0.00000000      0.00000000      0.00000000      0.00000000      0.00000000      0.00000000      0.00000000      0.00000000      0.00000000</v>
  </separator>
  <separator name="orbital magnetization" >
   <i type="logical" name="NUCIND"> F  </i>
   <v name="MAGPOS">      0.00000000      0.00000000      0.00000000</v>
   <i type="logical" name="LNICSALL"> T  </i>
   <i type="logical" name="ORBITALMAG"> F  </i>
   <i type="logical" name="LMAGBLOCH"> F  </i>
   <i type="logical" name="LCHIMAG"> F  </i>
   <i type="logical" name="LGAUGE"> T  </i>
   <i type="int" name="MAGATOM">     0</i>
   <v name="MAGDIPOL">      0.00000000      0.00000000      0.00000000</v>
   <v name="AVECCONST">      0.00000000      0.00000000      0.00000000</v>
  </separator>
  <separator name="response functions" >
   <i type="logical" name="LADDER"> F  </i>
   <i type="logical" name="LRPAFORCE"> F  </i>
   <i type="logical" name="LFXC"> F  </i>
   <i type="logical" name="LHARTREE"> T  </i>
   <i type="int" name="IBSE">     0</i>
   <v type="int" name="KPOINT">    -1     0     0     0</v>
   <i type="logical" name="LTCTE"> F  </i>
   <i type="logical" name="LTETE"> F  </i>
   <i type="logical" name="LTRIPLET"> F  </i>
   <i type="logical" name="LFXCEPS"> F  </i>
   <i type="logical" name="LFXHEG"> F  </i>
   <i type="int" name="NATURALO">     2</i>
   <i type="logical" name="L2ORDER"> F  </i>
   <i type="logical" name="LMP2LT"> F  </i>
   <i type="logical" name="LUSEW"> F  </i>
   <i name="ENCUTGW">     -2.00000000</i>
   <i name="ENCUTGWSOFT">     -2.00000000</i>
   <i name="ENCUTLF">     -1.00000000</i>
   <i type="int" name="LMAXMP2">    -1</i>
   <i name="SCISSOR">      0.00000000</i>
   <i type="int" name="NOMEGA">     0</i>
   <i type="int" name="NOMEGAR">     0</i>
   <i type="int" name="NBANDSGW">    -1</i>
   <i type="int" name="NBANDSO">    -1</i>
   <i type="int" name="NBANDSV">    -1</i>
   <i type="int" name="NELM">   200</i>
   <i type="int" name="NELMHF">     1</i>
   <i type="int" name="DIM">     3</i>
   <i type="int" name="ANTIRES">     0</i>
   <i name="OMEGAMAX">    -30.00000000</i>
   <i name="OMEGAMIN">    -30.00000000</i>
   <i name="OMEGATL">   -200.00000000</i>
   <i type="int" name="OMEGAGRID">   140</i>
   <i name="CSHIFT">     -0.10000000</i>
   <i type="logical" name="SELFENERGY"> F  </i>
   <i type="logical" name="LSPECTRAL"> F  </i>
   <i type="logical" name="LSPECTRALGW"> F  </i>
   <i type="logical" name="LSINGLES"> F  </i>
   <i type="logical" name="LFERMIGW"> F  </i>
   <i type="logical" name="ODDONLYGW"> F  </i>
   <i type="logical" name="EVENONLYGW"> F  </i>
   <i type="int" name="NKREDLFX">     1</i>
   <i type="int" name="NKREDLFY">     1</i>
   <i type="int" name="NKREDLFZ">     1</i>
   <i type="int" name="MAXMEM">  2800</i>
   <i type="int" name="TELESCOPE">     0</i>
   <i type="int" name="TAUPAR">     1</i>
   <i type="int" name="OMEGAPAR">    -1</i>
   <i name="LAMBDA">      1.00000000</i>
  </separator>
  <separator name="External order field" >
   <i name="OFIELD_KAPPA">      0.00000000</i>
   <v name="OFIELD_K">      0.00000000      0.00000000      0.00000000</v>
   <i name="OFIELD_Q6_NEAR">      0.00000000</i>
   <i name="OFIELD_Q6_FAR">      0.00000000</i>
   <i name="OFIELD_A">      0.00000000</i>
  </separator>
 </parameters>
 <atominfo>
  <atoms>      40 </atoms>
  <types>       3 </types>
  <array name="atoms" >
   <dimension dim="1">ion</dimension>
   <field type="string">element</field>
   <field type="int">atomtype</field>
   <set>
    <rc><c>Cs</c><c>   1</c></rc>
    <rc><c>Cs</c><c>   1</c></rc>
    <rc><c>Cs</c><c>   1</c></rc>
    <rc><c>Cs</c><c>   1</c></rc>
    <rc><c>Cs</c><c>   1</c></rc>
    <rc><c>Cs</c><c>   1</c></rc>
    <rc><c>Cs</c><c>   1</c></rc>
    <rc><c>Cs</c><c>   1</c></rc>
    <rc><c>Pb</c><c>   2</c></rc>
    <rc><c>Pb</c><c>   2</c></rc>
    <rc><c>Pb</c><c>   2</c></rc>
    <rc><c>Pb</c><c>   2</c></rc>
    <rc><c>Pb</c><c>   2</c></rc>
    <rc><c>Pb</c><c>   2</c></rc>
    <rc><c>Pb</c><c>   2</c></rc>
    <rc><c>Pb</c><c>   2</c></rc>
    <rc><c>Br</c><c>   3</c></rc>
    <rc><c>Br</c><c>   3</c></rc>
    <rc><c>Br</c><c>   3</c></rc>
    <rc><c>Br</c><c>   3</c></rc>
    <rc><c>Br</c><c>   3</c></rc>
    <rc><c>Br</c><c>   3</c></rc>
    <rc><c>Br</c><c>   3</c></rc>
    <rc><c>Br</c><c>   3</c></rc>
    <rc><c>Br</c><c>   3</c></rc>
    <rc><c>Br</c><c>   3</c></rc>
    <rc><c>Br</c><c>   3</c></rc>
    <rc><c>Br</c><c>   3</c></rc>
    <rc><c>Br</c><c>   3</c></rc>
    <rc><c>Br</c><c>   3</c></rc>
    <rc><c>Br</c><c>   3</c></rc>
    <rc><c>Br</c><c>   3</c></rc>
    <rc><c>Br</c><c>   3</c></rc>
    <rc><c>Br</c><c>   3</c></rc>
    <rc><c>Br</c><c>   3</c></rc>
    <rc><c>Br</c><c>   3</c></rc>
    <rc><c>Br</c><c>   3</c></rc>
    <rc><c>Br</c><c>   3</c></rc>
    <rc><c>Br</c><c>   3</c></rc>
    <rc><c>Br</c><c>   3</c></rc>
   </set>
  </array>
  <array name="atomtypes" >
   <dimension dim="1">type</dimension>
   <field type="int">atomspertype</field>
   <field type="string">element</field>
   <field>mass</field>
   <field>valence</field>
   <field type="string">pseudopotential</field>
   <set>
    <rc><c>   8</c><c>Cs</c><c>    132.90000000</c><c>      9.00000000</c><c>  PAW_PBE Cs_sv 08Apr2002               </c></rc>
    <rc><c>   8</c><c>Pb</c><c>    207.20000000</c><c>     14.00000000</c><c>  PAW_PBE Pb_d 06Sep2000                </c></rc>
    <rc><c>  24</c><c>Br</c><c>     79.90400000</c><c>      7.00000000</c><c>  PAW_PBE Br 06Sep2000                  </c></rc>
   </set>
  </array>
 </atominfo>
 <structure name="initialpos" >
  <crystal>
   <varray name="basis" >
    <v>      11.73535200       0.00000000       0.00000000 </v>
    <v>       0.00000000      11.73535200       0.00000000 </v>
    <v>       0.00000000       0.00000000      11.73535200 </v>
   </varray>
   <i name="volume">   1616.17491673 </i>
   <varray name="rec_basis" >
    <v>       0.08521261       0.00000000       0.00000000 </v>
    <v>       0.00000000       0.08521261       0.00000000 </v>
    <v>       0.00000000       0.00000000       0.08521261 </v>
   </varray>
  </crystal>
  <varray name="positions" >
   <v>       0.25000000       0.25000000       0.25000000 </v>
   <v>       0.25000000       0.25000000       0.75000000 </v>
   <v>       0.25000000       0.75000000       0.25000000 </v>
   <v>       0.25000000       0.75000000       0.75000000 </v>
   <v>       0.75000000       0.25000000       0.25000000 </v>
   <v>       0.75000000       0.25000000       0.75000000 </v>
   <v>       0.75000000       0.75000000       0.25000000 </v>
   <v>       0.75000000       0.75000000       0.75000000 </v>
   <v>       0.00000000       0.00000000       0.00000000 </v>
   <v>       0.00000000       0.00000000       0.50000000 </v>
   <v>       0.00000000       0.50000000       0.00000000 </v>
   <v>       0.00000000       0.50000000       0.50000000 </v>
   <v>       0.50000000       0.00000000       0.00000000 </v>
   <v>       0.50000000       0.00000000       0.50000000 </v>
   <v>       0.50000000       0.50000000       0.00000000 </v>
   <v>       0.50000000       0.50000000       0.50000000 </v>
   <v>       0.91000000       0.25000000       0.00000000 </v>
   <v>       0.91000000       0.25000000       0.50000000 </v>
   <v>       0.09000000       0.75000000       0.00000000 </v>
   <v>       0.09000000       0.75000000       0.50000000 </v>
   <v>       0.59000000       0.25000000       0.00000000 </v>
   <v>       0.59000000       0.25000000       0.50000000 </v>
   <v>       0.41000000       0.75000000       0.00000000 </v>
   <v>       0.41000000       0.75000000       0.50000000 </v>
   <v>       0.00000000       0.00000000       0.25000000 </v>
   <v>       0.00000000       0.00000000       0.75000000 </v>
   <v>       0.00000000       0.50000000       0.25000000 </v>
   <v>       0.00000000       0.50000000       0.75000000 </v>
   <v>       0.50000000       0.00000000       0.25000000 </v>
   <v>       0.50000000       0.00000000       0.75000000 </v>
   <v>       0.50000000       0.50000000       0.25000000 </v>
   <v>       0.50000000       0.50000000       0.75000000 </v>
   <v>       0.25000000       0.09000000       0.00000000 </v>
   <v>       0.25000000       0.09000000       0.50000000 </v>
   <v>       0.25000000       0.41000000       0.00000000 </v>
   <v>       0.25000000       0.41000000       0.50000000 </v>
   <v>       0.75000000       0.91000000       0.00000000 </v>
   <v>       0.75000000       0.91000000       0.50000000 </v>
   <v>       0.75000000       0.59000000       0.00000000 </v>
   <v>       0.75000000       0.59000000       0.50000000 </v>
  </varray>
 </structure>
 <calculation>
  <scstep>
   <time name="dav">   12.85   12.86</time>
   <time name="total">   14.31   14.32</time>
   <energy>
    <i name="alphaZ">    892.99476195 </i>
    <i name="ewald"> -18551.72509959 </i>
    <i name="hartreedc">  -7195.08780504 </i>
    <i name="XCdc">    923.24958331 </i>
    <i name="pawpsdc">  21633.96174531 </i>
    <i name="pawaedc"> -22707.92185401 </i>
    <i name="eentropy">     -0.00223922 </i>
    <i name="bandstr">   -225.12346847 </i>
    <i name="atom">  26580.56019858 </i>
    <i name="e_fr_energy">   1350.90582283 </i>
    <i name="e_wo_entrp">   1350.90806205 </i>
    <i name="e_0_energy">   1350.90694244 </i>
   </energy>
  </scstep>
  <scstep>
   <time name="dav">   14.31   14.36</time>
   <time name="total">   14.31   14.36</time>
   <energy>
    <i name="e_fr_energy">  -1128.55785314 </i>
    <i name="e_wo_entrp">  -1128.55785314 </i>
    <i name="e_0_energy">  -1128.55785314 </i>
   </energy>
  </scstep>
  <scstep>
   <time name="dav">   15.09   15.11</time>
   <time name="total">   15.09   15.11</time>
   <energy>
    <i name="e_fr_energy">  -1496.28183830 </i>
    <i name="e_wo_entrp">  -1496.28183830 </i>
    <i name="e_0_energy">  -1496.28183830 </i>
   </energy>
  </scstep>
  <scstep>
   <time name="dav">   13.84   13.89</time>
   <time name="total">   13.84   13.89</time>
   <energy>
    <i name="e_fr_energy">  -1508.61410554 </i>
    <i name="e_wo_entrp">  -1508.61410554 </i>
    <i name="e_0_energy">  -1508.61410554 </i>
   </energy>
  </scstep>
  <scstep>
   <time name="dav">   14.98   14.98</time>
   <time name="total">   18.05   18.05</time>
   <energy>
    <i name="e_fr_energy">  -1509.20954433 </i>
    <i name="e_wo_entrp">  -1509.20954433 </i>
    <i name="e_0_energy">  -1509.20954433 </i>
   </energy>
  </scstep>
  <scstep>
   <time name="dav">   14.74   14.74</time>
   <time name="total">   19.28   19.32</time>
   <energy>
    <i name="e_fr_energy">  -1428.24929420 </i>
    <i name="e_wo_entrp">  -1428.24929420 </i>
    <i name="e_0_energy">  -1428.24929420 </i>
   </energy>
  </scstep>
  <scstep>
   <time name="dav">   14.36   14.36</time>
   <time name="total">   18.91   18.97</time>
   <energy>
    <i name="e_fr_energy">  -1427.68407112 </i>
    <i name="e_wo_entrp">  -1427.68407112 </i>
    <i name="e_0_energy">  -1427.68407112 </i>
   </energy>
  </scstep>
  <scstep>
   <time name="dav">   13.75   13.75</time>
   <time name="total">   18.31   18.37</time>
   <energy>
    <i name="e_fr_energy">  -1427.89357291 </i>
    <i name="e_wo_entrp">  -1427.89357291 </i>
    <i name="e_0_energy">  -1427.89357291 </i>
   </energy>
  </scstep>
  <scstep>
   <time name="dav">   13.37   13.37</time>
   <time name="total">   17.95   17.95</time>
   <energy>
    <i name="e_fr_energy">  -1427.97698597 </i>
    <i name="e_wo_entrp">  -1427.97698597 </i>
    <i name="e_0_energy">  -1427.97698597 </i>
   </energy>
  </scstep>
  <scstep>
   <time name="dav">   15.48   15.48</time>
   <time name="total">   20.04   20.10</time>
   <energy>
    <i name="e_fr_energy">  -1427.98040466 </i>
    <i name="e_wo_entrp">  -1427.98040466 </i>
    <i name="e_0_energy">  -1427.98040466 </i>
   </energy>
  </scstep>
  <scstep>
   <time name="dav">   13.26   13.26</time>
   <time name="total">   17.84   17.86</time>
   <energy>
    <i name="e_fr_energy">  -1427.98513234 </i>
    <i name="e_wo_entrp">  -1427.98513234 </i>
    <i name="e_0_energy">  -1427.98513234 </i>
   </energy>
  </scstep>
  <scstep>
   <time name="dav">   13.82   13.82</time>
   <time name="total">   18.41   18.44</time>
   <energy>
    <i name="e_fr_energy">  -1427.98481103 </i>
    <i name="e_wo_entrp">  -1427.98481103 </i>
    <i name="e_0_energy">  -1427.98481103 </i>
   </energy>
  </scstep>
  <scstep>
   <time name="dav">   13.67   13.67</time>
   <time name="total">   18.29   18.29</time>
   <energy>
    <i name="e_fr_energy">  -1427.98472329 </i>
    <i name="e_wo_entrp">  -1427.98472329 </i>
    <i name="e_0_energy">  -1427.98472329 </i>
   </energy>
  </scstep>
  <scstep>
   <time name="dav">   13.59   13.59</time>
   <time name="total">   18.18   18.21</time>
   <energy>
    <i name="e_fr_energy">  -1427.98473855 </i>
    <i name="e_wo_entrp">  -1427.98473855 </i>
    <i name="e_0_energy">  -1427.98473855 </i>
   </energy>
  </scstep>
  <scstep>
   <time name="dav">   10.03   10.03</time>
   <time name="total">   14.61   14.65</time>
   <energy>
    <i name="e_fr_energy">  -1427.98473732 </i>
    <i name="e_wo_entrp">  -1427.98473732 </i>
    <i name="e_0_energy">  -1427.98473732 </i>
   </energy>
  </scstep>
  <scstep>
   <time name="dav">    9.92    9.92</time>
   <time name="total">   14.51   14.54</time>
   <energy>
    <i name="e_fr_energy">  -1427.98473306 </i>
    <i name="e_wo_entrp">  -1427.98473306 </i>
    <i name="e_0_energy">  -1427.98473306 </i>
   </energy>
  </scstep>
  <scstep>
   <time name="dav">    9.67    9.67</time>
   <time name="total">   14.25   14.28</time>
   <energy>
    <i name="e_fr_energy">  -1427.98473114 </i>
    <i name="e_wo_entrp">  -1427.98473114 </i>
    <i name="e_0_energy">  -1427.98473114 </i>
   </energy>
  </scstep>
  <scstep>
   <time name="dav">    9.66    9.67</time>
   <time name="total">   11.12   11.16</time>
   <energy>
    <i name="alphaZ">    892.99476195 </i>
    <i name="ewald"> -18551.72509959 </i>
    <i name="hartreedc">  -7225.49901571 </i>
    <i name="XCdc">    962.44349986 </i>
    <i name="pawpsdc">  22991.06836284 </i>
    <i name="pawaedc"> -24061.43522451 </i>
    <i name="eentropy">     -0.00000000 </i>
    <i name="bandstr">  -3016.39221500 </i>
    <i name="atom">  26580.56019858 </i>
    <i name="e_fr_energy">  -1427.98473159 </i>
    <i name="e_wo_entrp">  -1427.98473159 </i>
    <i name="e_0_energy">  -1427.98473159 </i>
   </energy>
  </scstep>
  <structure>
   <crystal>
    <varray name="basis" >
     <v>      11.73535200       0.00000000       0.00000000 </v>
     <v>       0.00000000      11.73535200       0.00000000 </v>
     <v>       0.00000000       0.00000000      11.73535200 </v>
    </varray>
    <i name="volume">   1616.17491673 </i>
    <varray name="rec_basis" >
     <v>       0.08521261       0.00000000       0.00000000 </v>
     <v>       0.00000000       0.08521261       0.00000000 </v>
     <v>       0.00000000       0.00000000       0.08521261 </v>
    </varray>
   </crystal>
   <varray name="positions" >
    <v>       0.25000000       0.25000000       0.25000000 </v>
    <v>       0.25000000       0.25000000       0.75000000 </v>
    <v>       0.25000000       0.75000000       0.25000000 </v>
    <v>       0.25000000       0.75000000       0.75000000 </v>
    <v>       0.75000000       0.25000000       0.25000000 </v>
    <v>       0.75000000       0.25000000       0.75000000 </v>
    <v>       0.75000000       0.75000000       0.25000000 </v>
    <v>       0.75000000       0.75000000       0.75000000 </v>
    <v>       0.00000000       0.00000000       0.00000000 </v>
    <v>       0.00000000       0.00000000       0.50000000 </v>
    <v>       0.00000000       0.50000000       0.00000000 </v>
    <v>       0.00000000       0.50000000       0.50000000 </v>
    <v>       0.50000000       0.00000000       0.00000000 </v>
    <v>       0.50000000       0.00000000       0.50000000 </v>
    <v>       0.50000000       0.50000000       0.00000000 </v>
    <v>       0.50000000       0.50000000       0.50000000 </v>
    <v>       0.91000000       0.25000000       0.00000000 </v>
    <v>       0.91000000       0.25000000       0.50000000 </v>
    <v>       0.09000000       0.75000000       0.00000000 </v>
    <v>       0.09000000       0.75000000       0.50000000 </v>
    <v>       0.59000000       0.25000000       0.00000000 </v>
    <v>       0.59000000       0.25000000       0.50000000 </v>
    <v>       0.41000000       0.75000000       0.00000000 </v>
    <v>       0.41000000       0.75000000       0.50000000 </v>
    <v>       0.00000000       0.00000000       0.25000000 </v>
    <v>       0.00000000       0.00000000       0.75000000 </v>
    <v>       0.00000000       0.50000000       0.25000000 </v>
    <v>       0.00000000       0.50000000       0.75000000 </v>
    <v>       0.50000000       0.00000000       0.25000000 </v>
    <v>       0.50000000       0.00000000       0.75000000 </v>
    <v>       0.50000000       0.50000000       0.25000000 </v>
    <v>       0.50000000       0.50000000       0.75000000 </v>
    <v>       0.25000000       0.09000000       0.00000000 </v>
    <v>       0.25000000       0.09000000       0.50000000 </v>
    <v>       0.25000000       0.41000000       0.00000000 </v>
    <v>       0.25000000       0.41000000       0.50000000 </v>
    <v>       0.75000000       0.91000000       0.00000000 </v>
    <v>       0.75000000       0.91000000       0.50000000 </v>
    <v>       0.75000000       0.59000000       0.00000000 </v>
    <v>       0.75000000       0.59000000       0.50000000 </v>
   </varray>
  </structure>
  <varray name="forces" >
   <v>      -0.00000000       0.00000000       0.00000000 </v>
   <v>      -0.00000000       0.00000000       0.00000000 </v>
   <v>      -0.00000000       0.00000000       0.00000000 </v>
   <v>      -0.00000000       0.00000000       0.00000000 </v>
   <v>      -0.00000000       0.00000000       0.00000000 </v>
   <v>      -0.00000000       0.00000000       0.00000000 </v>
   <v>      -0.00000000       0.00000000       0.00000000 </v>
   <v>      -0.00000000       0.00000000       0.00000000 </v>
   <v>      -0.00000000       0.00000000       0.00000000 </v>
   <v>      -0.00000000       0.00000000       0.00000000 </v>
   <v>      -0.00000000       0.00000000       0.00000000 </v>
   <v>      -0.00000000       0.00000000       0.00000000 </v>
   <v>      -0.00000000       0.00000000       0.00000000 </v>
   <v>      -0.00000000       0.00000000       0.00000000 </v>
   <v>      -0.00000000       0.00000000       0.00000000 </v>
   <v>      -0.00000000       0.00000000       0.00000000 </v>
   <v>       0.53532857       0.00000000       0.00000000 </v>
   <v>       0.53532857       0.00000000      -0.00000000 </v>
   <v>      -0.53532857       0.00000000      -0.00000000 </v>
   <v>      -0.53532857       0.00000000       0.00000000 </v>
   <v>      -0.53532857       0.00000000      -0.00000000 </v>
   <v>      -0.53532857       0.00000000       0.00000000 </v>
   <v>       0.53532857       0.00000000      -0.00000000 </v>
   <v>       0.53532857       0.00000000       0.00000000 </v>
   <v>      -0.00000000       0.00000000       0.00000000 </v>
   <v>      -0.00000000       0.00000000       0.00000000 </v>
   <v>      -0.00000000       0.00000000       0.00000000 </v>
   <v>      -0.00000000       0.00000000       0.00000000 </v>
   <v>      -0.00000000       0.00000000       0.00000000 </v>
   <v>      -0.00000000       0.00000000       0.00000000 </v>
   <v>      -0.00000000       0.00000000       0.00000000 </v>
   <v>      -0.00000000       0.00000000       0.00000000 </v>
   <v>      -0.00000000      -0.53532857       0.00000000 </v>
   <v>      -0.00000000      -0.53532857       0.00000000 </v>
   <v>      -0.00000000       0.53532857      -0.00000000 </v>
   <v>      -0.00000000       0.53532857      -0.00000000 </v>
   <v>      -0.00000000       0.53532857      -0.00000000 </v>
   <v>      -0.00000000       0.53532857       0.00000000 </v>
   <v>      -0.00000000      -0.53532857       0.00000000 </v>
   <v>      -0.00000000      -0.53532857      -0.00000000 </v>
  </varray>
  <varray name="stress" >
   <v>     -13.40027790       0.00000000       0.00000000 </v>
   <v>       0.00000000     -13.40027790       0.00000000 </v>
   <v>      -0.00000000       0.00000000      21.66833748 </v>
  </varray>
  <energy>
   <i name="e_fr_energy">  -1427.98473159 </i>
   <i name="e_wo_entrp">  -1427.98473159 </i>
   <i name="e_0_energy">     -0.00000000 </i>
  </energy>
  <time name="totalsc">  347.01  347.72</time>
  <eigenvalues>
   <array>
    <dimension dim="1">band</dimension>
    <dimension dim="2">kpoint</dimension>
    <dimension dim="3">spin</dimension>
    <field>eigene</field>
    <field>occ</field>
    <set>
     <set comment="spin 1">
      <set comment="kpoint 1">
       <r>  -20.6832    1.0000 </r>
       <r>  -20.6821    1.0000 </r>
       <r>  -20.6821    1.0000 </r>
       <r>  -20.6812    1.0000 </r>
       <r>  -20.6785    1.0000 </r>
       <r>  -20.6776    1.0000 </r>
       <r>  -20.6776    1.0000 </r>
       <r>  -20.6763    1.0000 </r>
       <r>  -16.6551    1.0000 </r>
       <r>  -16.6503    1.0000 </r>
       <r>  -16.6503    1.0000 </r>
       <r>  -16.6435    1.0000 </r>
       <r>  -16.5765    1.0000 </r>
       <r>  -16.5760    1.0000 </r>
       <r>  -16.5753    1.0000 </r>
       <r>  -16.5748    1.0000 </r>
       <r>  -16.5748    1.0000 </r>
       <r>  -16.5592    1.0000 </r>
       <r>  -16.5519    1.0000 </r>
       <r>  -16.5519    1.0000 </r>
       <r>  -16.5453    1.0000 </r>
       <r>  -16.5453    1.0000 </r>
       <r>  -16.5297    1.0000 </r>
       <r>  -16.5295    1.0000 </r>
       <r>  -16.4928    1.0000 </r>
       <r>  -16.4927    1.0000 </r>
       <r>  -16.4923    1.0000 </r>
       <r>  -16.4923    1.0000 </r>
       <r>  -16.4921    1.0000 </r>
       <r>  -16.4921    1.0000 </r>
       <r>  -16.4914    1.0000 </r>
       <r>  -16.4912    1.0000 </r>
       <r>  -16.4830    1.0000 </r>
       <r>  -16.4830    1.0000 </r>
       <r>  -16.4827    1.0000 </r>
       <r>  -16.4827    1.0000 </r>
       <r>  -16.4827    1.0000 </r>
       <r>  -16.4827    1.0000 </r>
       <r>  -16.4824    1.0000 </r>
       <r>  -16.4824    1.0000 </r>
       <r>  -16.4821    1.0000 </r>
       <r>  -16.4821    1.0000 </r>
       <r>  -16.4819    1.0000 </r>
       <r>  -16.4819    1.0000 </r>
       <r>  -16.4814    1.0000 </r>
       <r>  -16.4814    1.0000 </r>
       <r>  -16.4813    1.0000 </r>
       <r>  -16.4813    1.0000 </r>
       <r>  -14.3105    1.0000 </r>
       <r>  -14.2059    1.0000 </r>
       <r>  -14.2059    1.0000 </r>
       <r>  -14.2045    1.0000 </r>
       <r>  -14.2021    1.0000 </r>
       <r>  -14.2021    1.0000 </r>
       <r>  -14.2020    1.0000 </r>
       <r>  -14.1155    1.0000 </r>
       <r>  -14.0532    1.0000 </r>
       <r>  -13.9478    1.0000 </r>
       <r>  -13.9478    1.0000 </r>
       <r>  -13.9078    1.0000 </r>
       <r>  -13.9078    1.0000 </r>
       <r>  -13.8281    1.0000 </r>
       <r>  -13.8281    1.0000 </r>
       <r>  -13.8173    1.0000 </r>
       <r>  -13.8173    1.0000 </r>
       <r>  -13.7940    1.0000 </r>
       <r>  -13.7940    1.0000 </r>
       <r>  -13.7939    1.0000 </r>
       <r>  -13.7830    1.0000 </r>
       <r>  -13.7441    1.0000 </r>
       <r>  -13.7056    1.0000 </r>
       <r>  -13.7056    1.0000 </r>
       <r>   -8.1268    1.0000 </r>
       <r>   -7.8245    1.0000 </r>
       <r>   -7.8245    1.0000 </r>
       <r>   -7.5486    1.0000 </r>
       <r>   -7.4297    1.0000 </r>
       <r>   -7.2003    1.0000 </r>
       <r>   -7.2003    1.0000 </r>
       <r>   -7.1781    1.0000 </r>
       <r>   -7.1781    1.0000 </r>
       <r>   -7.1592    1.0000 </r>
       <r>   -7.1592    1.0000 </r>
       <r>   -7.1564    1.0000 </r>
       <r>   -7.1497    1.0000 </r>
       <r>   -7.1497    1.0000 </r>
       <r>   -7.1413    1.0000 </r>
       <r>   -7.1413    1.0000 </r>
       <r>   -7.1317    1.0000 </r>
       <r>   -7.1277    1.0000 </r>
       <r>   -7.1277    1.0000 </r>
       <r>   -7.1156    1.0000 </r>
       <r>   -7.1156    1.0000 </r>
       <r>   -7.0915    1.0000 </r>
       <r>   -7.0915    1.0000 </r>
       <r>   -7.0497    1.0000 </r>
       <r>   -7.0497    1.0000 </r>
       <r>   -7.0245    1.0000 </r>
       <r>   -7.0116    1.0000 </r>
       <r>   -7.0116    1.0000 </r>
       <r>   -6.9692    1.0000 </r>
       <r>   -6.9692    1.0000 </r>
       <r>   -6.9578    1.0000 </r>
       <r>   -6.7395    1.0000 </r>
       <r>   -3.5095    1.0000 </r>
       <r>   -3.4895    1.0000 </r>
       <r>   -3.4895    1.0000 </r>
       <r>   -3.4046    1.0000 </r>
       <r>   -2.9710    1.0000 </r>
       <r>   -2.9710    1.0000 </r>
       <r>   -2.8546    1.0000 </r>
       <r>   -2.8546    1.0000 </r>
       <r>   -2.8534    1.0000 </r>
       <r>   -2.8534    1.0000 </r>
       <r>   -2.6117    1.0000 </r>
       <r>   -2.6117    1.0000 </r>
       <r>   -2.2635    1.0000 </r>
       <r>   -2.2635    1.0000 </r>
       <r>   -2.1663    1.0000 </r>
       <r>   -2.1532    1.0000 </r>
       <r>   -2.1532    1.0000 </r>
       <r>   -1.8403    1.0000 </r>
       <r>   -1.8244    1.0000 </r>
       <r>   -1.8234    1.0000 </r>
       <r>   -1.8234    1.0000 </r>
       <r>   -1.8022    1.0000 </r>
       <r>   -1.8022    1.0000 </r>
       <r>   -1.7811    1.0000 </r>
       <r>   -1.7811    1.0000 </r>
       <r>   -1.6293    1.0000 </r>
       <r>   -1.6293    1.0000 </r>
       <r>   -1.5699    1.0000 </r>
       <r>   -1.5699    1.0000 </r>
       <r>   -1.5607    1.0000 </r>
       <r>   -1.5607    1.0000 </r>
       <r>   -1.5557    1.0000 </r>
       <r>   -1.5557    1.0000 </r>
       <r>   -1.5204    1.0000 </r>
       <r>   -1.5204    1.0000 </r>
       <r>   -1.5072    1.0000 </r>
       <r>   -1.4290    1.0000 </r>
       <r>   -1.4030    1.0000 </r>
       <r>   -1.3890    1.0000 </r>
       <r>   -1.3883    1.0000 </r>
       <r>   -1.3883    1.0000 </r>
       <r>   -1.3485    1.0000 </r>
       <r>   -1.3485    1.0000 </r>
       <r>   -1.3361    1.0000 </r>
       <r>   -1.3361    1.0000 </r>
       <r>   -1.3255    1.0000 </r>
       <r>   -1.2488    1.0000 </r>
       <r>   -1.2488    1.0000 </r>
       <r>   -1.2274    1.0000 </r>
       <r>   -1.1424    1.0000 </r>
       <r>   -1.1424    1.0000 </r>
       <r>   -1.0664    1.0000 </r>
       <r>   -1.0664    1.0000 </r>
       <r>   -1.0531    1.0000 </r>
       <r>   -1.0531    1.0000 </r>
       <r>   -1.0530    1.0000 </r>
       <r>   -1.0294    1.0000 </r>
       <r>   -0.9976    1.0000 </r>
       <r>   -0.9976    1.0000 </r>
       <r>   -0.8666    1.0000 </r>
       <r>   -0.8666    1.0000 </r>
       <r>   -0.8564    1.0000 </r>
       <r>   -0.8564    1.0000 </r>
       <r>   -0.8137    1.0000 </r>
       <r>   -0.8137    1.0000 </r>
       <r>   -0.7967    1.0000 </r>
       <r>   -0.7967    1.0000 </r>
       <r>   -0.5404    1.0000 </r>
       <r>   -0.4702    1.0000 </r>
       <r>   -0.2860    1.0000 </r>
       <r>   -0.2860    1.0000 </r>
       <r>    0.1972    1.0000 </r>
       <r>    2.7349    0.0000 </r>
       <r>    2.7351    0.0000 </r>
       <r>    2.7351    0.0000 </r>
       <r>    2.8983    0.0000 </r>
       <r>    2.8983    0.0000 </r>
       <r>    3.0396    0.0000 </r>
       <r>    3.0396    0.0000 </r>
       <r>    3.2601    0.0000 </r>
       <r>    3.2601    0.0000 </r>
       <r>    3.2754    0.0000 </r>
       <r>    3.3204    0.0000 </r>
       <r>    3.3204    0.0000 </r>
       <r>    4.7557    0.0000 </r>
       <r>    4.8472    0.0000 </r>
       <r>    4.8472    0.0000 </r>
       <r>    5.0564    0.0000 </r>
       <r>    5.0564    0.0000 </r>
       <r>    5.2627    0.0000 </r>
       <r>    5.2627    0.0000 </r>
       <r>    5.5161    0.0000 </r>
       <r>    5.5161    0.0000 </r>
       <r>    5.5583    0.0000 </r>
       <r>    5.6231    0.0000 </r>
       <r>    5.6440    0.0000 </r>
       <r>    6.1161    0.0000 </r>
       <r>    6.1161    0.0000 </r>
       <r>    6.1817    0.0000 </r>
       <r>    6.1817    0.0000 </r>
       <r>    6.2115    0.0000 </r>
       <r>    6.3682    0.0000 </r>
       <r>    6.3682    0.0000 </r>
       <r>    6.4985    0.0000 </r>
       <r>    6.4985    0.0000 </r>
       <r>    6.6110    0.0000 </r>
       <r>    6.6110    0.0000 </r>
       <r>    6.6937    0.0000 </r>
       <r>    6.6942    0.0000 </r>
       <r>    6.7002    0.0000 </r>
       <r>    6.7205    0.0000 </r>
       <r>    6.8818    0.0000 </r>
      </set>
      <set comment="kpoint 2">
       <r>  -20.6828    1.0000 </r>
       <r>  -20.6828    1.0000 </r>
       <r>  -20.6815    1.0000 </r>
       <r>  -20.6815    1.0000 </r>
       <r>  -20.6779    1.0000 </r>
       <r>  -20.6779    1.0000 </r>
       <r>  -20.6771    1.0000 </r>
       <r>  -20.6771    1.0000 </r>
       <r>  -16.6526    1.0000 </r>
       <r>  -16.6526    1.0000 </r>
       <r>  -16.6464    1.0000 </r>
       <r>  -16.6464    1.0000 </r>
       <r>  -16.5751    1.0000 </r>
       <r>  -16.5751    1.0000 </r>
       <r>  -16.5651    1.0000 </r>
       <r>  -16.5651    1.0000 </r>
       <r>  -16.5643    1.0000 </r>
       <r>  -16.5643    1.0000 </r>
       <r>  -16.5608    1.0000 </r>
       <r>  -16.5608    1.0000 </r>
       <r>  -16.5412    1.0000 </r>
       <r>  -16.5412    1.0000 </r>
       <r>  -16.5396    1.0000 </r>
       <r>  -16.5396    1.0000 </r>
       <r>  -16.4925    1.0000 </r>
       <r>  -16.4925    1.0000 </r>
       <r>  -16.4924    1.0000 </r>
       <r>  -16.4924    1.0000 </r>
       <r>  -16.4918    1.0000 </r>
       <r>  -16.4918    1.0000 </r>
       <r>  -16.4917    1.0000 </r>
       <r>  -16.4917    1.0000 </r>
       <r>  -16.4830    1.0000 </r>
       <r>  -16.4830    1.0000 </r>
       <r>  -16.4827    1.0000 </r>
       <r>  -16.4827    1.0000 </r>
       <r>  -16.4826    1.0000 </r>
       <r>  -16.4826    1.0000 </r>
       <r>  -16.4824    1.0000 </r>
       <r>  -16.4824    1.0000 </r>
       <r>  -16.4818    1.0000 </r>
       <r>  -16.4818    1.0000 </r>
       <r>  -16.4817    1.0000 </r>
       <r>  -16.4817    1.0000 </r>
       <r>  -16.4816    1.0000 </r>
       <r>  -16.4816    1.0000 </r>
       <r>  -16.4814    1.0000 </r>
       <r>  -16.4814    1.0000 </r>
       <r>  -14.2655    1.0000 </r>
       <r>  -14.2655    1.0000 </r>
       <r>  -14.2052    1.0000 </r>
       <r>  -14.2052    1.0000 </r>
       <r>  -14.2040    1.0000 </r>
       <r>  -14.2040    1.0000 </r>
       <r>  -14.1657    1.0000 </r>
       <r>  -14.1657    1.0000 </r>
       <r>  -14.0097    1.0000 </r>
       <r>  -14.0097    1.0000 </r>
       <r>  -13.8975    1.0000 </r>
       <r>  -13.8975    1.0000 </r>
       <r>  -13.8774    1.0000 </r>
       <r>  -13.8774    1.0000 </r>
       <r>  -13.8318    1.0000 </r>
       <r>  -13.8318    1.0000 </r>
       <r>  -13.8055    1.0000 </r>
       <r>  -13.8055    1.0000 </r>
       <r>  -13.7638    1.0000 </r>
       <r>  -13.7638    1.0000 </r>
       <r>  -13.7597    1.0000 </r>
       <r>  -13.7597    1.0000 </r>
       <r>  -13.7250    1.0000 </r>
       <r>  -13.7250    1.0000 </r>
       <r>   -7.9834    1.0000 </r>
       <r>   -7.9834    1.0000 </r>
       <r>   -7.6934    1.0000 </r>
       <r>   -7.6934    1.0000 </r>
       <r>   -7.2984    1.0000 </r>
       <r>   -7.2984    1.0000 </r>
       <r>   -7.1640    1.0000 </r>
       <r>   -7.1640    1.0000 </r>
       <r>   -7.1623    1.0000 </r>
       <r>   -7.1623    1.0000 </r>
       <r>   -7.1518    1.0000 </r>
       <r>   -7.1518    1.0000 </r>
       <r>   -7.1490    1.0000 </r>
       <r>   -7.1490    1.0000 </r>
       <r>   -7.1364    1.0000 </r>
       <r>   -7.1364    1.0000 </r>
       <r>   -7.1358    1.0000 </r>
       <r>   -7.1358    1.0000 </r>
       <r>   -7.1342    1.0000 </r>
       <r>   -7.1342    1.0000 </r>
       <r>   -7.1216    1.0000 </r>
       <r>   -7.1216    1.0000 </r>
       <r>   -7.0560    1.0000 </r>
       <r>   -7.0560    1.0000 </r>
       <r>   -7.0275    1.0000 </r>
       <r>   -7.0275    1.0000 </r>
       <r>   -7.0183    1.0000 </r>
       <r>   -7.0183    1.0000 </r>
       <r>   -6.9877    1.0000 </r>
       <r>   -6.9877    1.0000 </r>
       <r>   -6.9019    1.0000 </r>
       <r>   -6.9019    1.0000 </r>
       <r>   -3.4996    1.0000 </r>
       <r>   -3.4996    1.0000 </r>
       <r>   -3.4483    1.0000 </r>
       <r>   -3.4483    1.0000 </r>
       <r>   -2.9143    1.0000 </r>
       <r>   -2.9143    1.0000 </r>
       <r>   -2.7448    1.0000 </r>
       <r>   -2.7448    1.0000 </r>
       <r>   -2.5713    1.0000 </r>
       <r>   -2.5713    1.0000 </r>
       <r>   -2.3725    1.0000 </r>
       <r>   -2.3725    1.0000 </r>
       <r>   -2.3460    1.0000 </r>
       <r>   -2.3460    1.0000 </r>
       <r>   -2.0779    1.0000 </r>
       <r>   -2.0779    1.0000 </r>
       <r>   -2.0636    1.0000 </r>
       <r>   -2.0636    1.0000 </r>
       <r>   -2.0384    1.0000 </r>
       <r>   -2.0384    1.0000 </r>
       <r>   -2.0008    1.0000 </r>
       <r>   -2.0008    1.0000 </r>
       <r>   -1.8179    1.0000 </r>
       <r>   -1.8179    1.0000 </r>
       <r>   -1.7517    1.0000 </r>
       <r>   -1.7517    1.0000 </r>
       <r>   -1.6497    1.0000 </r>
       <r>   -1.6497    1.0000 </r>
       <r>   -1.5927    1.0000 </r>
       <r>   -1.5927    1.0000 </r>
       <r>   -1.4945    1.0000 </r>
       <r>   -1.4945    1.0000 </r>
       <r>   -1.4838    1.0000 </r>
       <r>   -1.4838    1.0000 </r>
       <r>   -1.4786    1.0000 </r>
       <r>   -1.4786    1.0000 </r>
       <r>   -1.4630    1.0000 </r>
       <r>   -1.4630    1.0000 </r>
       <r>   -1.4532    1.0000 </r>
       <r>   -1.4532    1.0000 </r>
       <r>   -1.4461    1.0000 </r>
       <r>   -1.4461    1.0000 </r>
       <r>   -1.3860    1.0000 </r>
       <r>   -1.3860    1.0000 </r>
       <r>   -1.3497    1.0000 </r>
       <r>   -1.3497    1.0000 </r>
       <r>   -1.3238    1.0000 </r>
       <r>   -1.3238    1.0000 </r>
       <r>   -1.2128    1.0000 </r>
       <r>   -1.2128    1.0000 </r>
       <r>   -1.0976    1.0000 </r>
       <r>   -1.0976    1.0000 </r>
       <r>   -1.0778    1.0000 </r>
       <r>   -1.0778    1.0000 </r>
       <r>   -1.0354    1.0000 </r>
       <r>   -1.0354    1.0000 </r>
       <r>   -1.0256    1.0000 </r>
       <r>   -1.0256    1.0000 </r>
       <r>   -0.9359    1.0000 </r>
       <r>   -0.9359    1.0000 </r>
       <r>   -0.8887    1.0000 </r>
       <r>   -0.8887    1.0000 </r>
       <r>   -0.8706    1.0000 </r>
       <r>   -0.8706    1.0000 </r>
       <r>   -0.7315    1.0000 </r>
       <r>   -0.7315    1.0000 </r>
       <r>   -0.7066    1.0000 </r>
       <r>   -0.7066    1.0000 </r>
       <r>   -0.3813    1.0000 </r>
       <r>   -0.3813    1.0000 </r>
       <r>   -0.1064    1.0000 </r>
       <r>   -0.1064    1.0000 </r>
       <r>    2.7984    0.0000 </r>
       <r>    2.7984    0.0000 </r>
       <r>    2.8896    0.0000 </r>
       <r>    2.8896    0.0000 </r>
       <r>    3.1558    0.0000 </r>
       <r>    3.1558    0.0000 </r>
       <r>    3.2608    0.0000 </r>
       <r>    3.2608    0.0000 </r>
       <r>    3.7903    0.0000 </r>
       <r>    3.7903    0.0000 </r>
       <r>    3.9711    0.0000 </r>
       <r>    3.9711    0.0000 </r>
       <r>    4.2345    0.0000 </r>
       <r>    4.2345    0.0000 </r>
       <r>    4.3600    0.0000 </r>
       <r>    4.3600    0.0000 </r>
       <r>    4.9381    0.0000 </r>
       <r>    4.9381    0.0000 </r>
       <r>    5.3688    0.0000 </r>
       <r>    5.3688    0.0000 </r>
       <r>    5.4447    0.0000 </r>
       <r>    5.4447    0.0000 </r>
       <r>    5.9671    0.0000 </r>
       <r>    5.9671    0.0000 </r>
       <r>    6.0198    0.0000 </r>
       <r>    6.0198    0.0000 </r>
       <r>    6.0823    0.0000 </r>
       <r>    6.0823    0.0000 </r>
       <r>    6.1351    0.0000 </r>
       <r>    6.1351    0.0000 </r>
       <r>    6.1589    0.0000 </r>
       <r>    6.1589    0.0000 </r>
       <r>    6.6960    0.0000 </r>
       <r>    6.6971    0.0000 </r>
       <r>    6.6972    0.0000 </r>
       <r>    6.7023    0.0000 </r>
       <r>    6.7315    0.0000 </r>
       <r>    6.7327    0.0000 </r>
       <r>    6.7883    0.0000 </r>
       <r>    6.7912    0.0000 </r>
      </set>
      <set comment="kpoint 3">
       <r>  -20.6821    1.0000 </r>
       <r>  -20.6821    1.0000 </r>
       <r>  -20.6821    1.0000 </r>
       <r>  -20.6821    1.0000 </r>
       <r>  -20.6775    1.0000 </r>
       <r>  -20.6775    1.0000 </r>
       <r>  -20.6775    1.0000 </r>
       <r>  -20.6775    1.0000 </r>
       <r>  -16.6493    1.0000 </r>
       <r>  -16.6493    1.0000 </r>
       <r>  -16.6493    1.0000 </r>
       <r>  -16.6493    1.0000 </r>
       <r>  -16.5672    1.0000 </r>
       <r>  -16.5672    1.0000 </r>
       <r>  -16.5672    1.0000 </r>
       <r>  -16.5672    1.0000 </r>
       <r>  -16.5533    1.0000 </r>
       <r>  -16.5533    1.0000 </r>
       <r>  -16.5533    1.0000 </r>
       <r>  -16.5533    1.0000 </r>
       <r>  -16.5531    1.0000 </r>
       <r>  -16.5531    1.0000 </r>
       <r>  -16.5531    1.0000 </r>
       <r>  -16.5531    1.0000 </r>
       <r>  -16.4921    1.0000 </r>
       <r>  -16.4921    1.0000 </r>
       <r>  -16.4921    1.0000 </r>
       <r>  -16.4921    1.0000 </r>
       <r>  -16.4921    1.0000 </r>
       <r>  -16.4921    1.0000 </r>
       <r>  -16.4921    1.0000 </r>
       <r>  -16.4921    1.0000 </r>
       <r>  -16.4827    1.0000 </r>
       <r>  -16.4827    1.0000 </r>
       <r>  -16.4827    1.0000 </r>
       <r>  -16.4827    1.0000 </r>
       <r>  -16.4827    1.0000 </r>
       <r>  -16.4827    1.0000 </r>
       <r>  -16.4827    1.0000 </r>
       <r>  -16.4827    1.0000 </r>
       <r>  -16.4817    1.0000 </r>
       <r>  -16.4817    1.0000 </r>
       <r>  -16.4817    1.0000 </r>
       <r>  -16.4817    1.0000 </r>
       <r>  -16.4815    1.0000 </r>
       <r>  -16.4815    1.0000 </r>
       <r>  -16.4815    1.0000 </r>
       <r>  -16.4815    1.0000 </r>
       <r>  -14.2237    1.0000 </r>
       <r>  -14.2237    1.0000 </r>
       <r>  -14.2237    1.0000 </r>
       <r>  -14.2237    1.0000 </r>
       <r>  -14.2046    1.0000 </r>
       <r>  -14.2046    1.0000 </r>
       <r>  -14.2046    1.0000 </r>
       <r>  -14.2046    1.0000 </r>
       <r>  -13.9643    1.0000 </r>
       <r>  -13.9643    1.0000 </r>
       <r>  -13.9643    1.0000 </r>
       <r>  -13.9643    1.0000 </r>
       <r>  -13.8315    1.0000 </r>
       <r>  -13.8315    1.0000 </r>
       <r>  -13.8315    1.0000 </r>
       <r>  -13.8315    1.0000 </r>
       <r>  -13.7738    1.0000 </r>
       <r>  -13.7738    1.0000 </r>
       <r>  -13.7738    1.0000 </r>
       <r>  -13.7738    1.0000 </r>
       <r>  -13.7571    1.0000 </r>
       <r>  -13.7571    1.0000 </r>
       <r>  -13.7571    1.0000 </r>
       <r>  -13.7571    1.0000 </r>
       <r>   -7.8459    1.0000 </r>
       <r>   -7.8459    1.0000 </r>
       <r>   -7.8459    1.0000 </r>
       <r>   -7.8459    1.0000 </r>
       <r>   -7.1962    1.0000 </r>
       <r>   -7.1962    1.0000 </r>
       <r>   -7.1962    1.0000 </r>
       <r>   -7.1962    1.0000 </r>
       <r>   -7.1555    1.0000 </r>
       <r>   -7.1555    1.0000 </r>
       <r>   -7.1555    1.0000 </r>
       <r>   -7.1555    1.0000 </r>
       <r>   -7.1427    1.0000 </r>
       <r>   -7.1427    1.0000 </r>
       <r>   -7.1427    1.0000 </r>
       <r>   -7.1427    1.0000 </r>
       <r>   -7.1304    1.0000 </r>
       <r>   -7.1304    1.0000 </r>
       <r>   -7.1304    1.0000 </r>
       <r>   -7.1304    1.0000 </r>
       <r>   -7.0930    1.0000 </r>
       <r>   -7.0930    1.0000 </r>
       <r>   -7.0930    1.0000 </r>
       <r>   -7.0930    1.0000 </r>
       <r>   -7.0146    1.0000 </r>
       <r>   -7.0146    1.0000 </r>
       <r>   -7.0146    1.0000 </r>
       <r>   -7.0146    1.0000 </r>
       <r>   -7.0042    1.0000 </r>
       <r>   -7.0042    1.0000 </r>
       <r>   -7.0042    1.0000 </r>
       <r>   -7.0042    1.0000 </r>
       <r>   -3.4744    1.0000 </r>
       <r>   -3.4744    1.0000 </r>
       <r>   -3.4744    1.0000 </r>
       <r>   -3.4744    1.0000 </r>
       <r>   -2.5916    1.0000 </r>
       <r>   -2.5916    1.0000 </r>
       <r>   -2.5916    1.0000 </r>
       <r>   -2.5916    1.0000 </r>
       <r>   -2.3803    1.0000 </r>
       <r>   -2.3803    1.0000 </r>
       <r>   -2.3803    1.0000 </r>
       <r>   -2.3803    1.0000 </r>
       <r>   -2.2889    1.0000 </r>
       <r>   -2.2889    1.0000 </r>
       <r>   -2.2889    1.0000 </r>
       <r>   -2.2889    1.0000 </r>
       <r>   -2.0565    1.0000 </r>
       <r>   -2.0565    1.0000 </r>
       <r>   -2.0565    1.0000 </r>
       <r>   -2.0565    1.0000 </r>
       <r>   -2.0077    1.0000 </r>
       <r>   -2.0077    1.0000 </r>
       <r>   -2.0077    1.0000 </r>
       <r>   -2.0077    1.0000 </r>
       <r>   -1.7330    1.0000 </r>
       <r>   -1.7330    1.0000 </r>
       <r>   -1.7330    1.0000 </r>
       <r>   -1.7330    1.0000 </r>
       <r>   -1.6830    1.0000 </r>
       <r>   -1.6830    1.0000 </r>
       <r>   -1.6830    1.0000 </r>
       <r>   -1.6830    1.0000 </r>
       <r>   -1.4537    1.0000 </r>
       <r>   -1.4537    1.0000 </r>
       <r>   -1.4537    1.0000 </r>
       <r>   -1.4537    1.0000 </r>
       <r>   -1.4420    1.0000 </r>
       <r>   -1.4420    1.0000 </r>
       <r>   -1.4420    1.0000 </r>
       <r>   -1.4420    1.0000 </r>
       <r>   -1.3708    1.0000 </r>
       <r>   -1.3708    1.0000 </r>
       <r>   -1.3708    1.0000 </r>
       <r>   -1.3708    1.0000 </r>
       <r>   -1.2564    1.0000 </r>
       <r>   -1.2564    1.0000 </r>
       <r>   -1.2564    1.0000 </r>
       <r>   -1.2564    1.0000 </r>
       <r>   -1.2305    1.0000 </r>
       <r>   -1.2305    1.0000 </r>
       <r>   -1.2305    1.0000 </r>
       <r>   -1.2305    1.0000 </r>
       <r>   -1.0921    1.0000 </r>
       <r>   -1.0921    1.0000 </r>
       <r>   -1.0921    1.0000 </r>
       <r>   -1.0921    1.0000 </r>
       <r>   -1.0322    1.0000 </r>
       <r>   -1.0322    1.0000 </r>
       <r>   -1.0322    1.0000 </r>
       <r>   -1.0322    1.0000 </r>
       <r>   -1.0109    1.0000 </r>
       <r>   -1.0109    1.0000 </r>
       <r>   -1.0109    1.0000 </r>
       <r>   -1.0109    1.0000 </r>
       <r>   -0.6738    1.0000 </r>
       <r>   -0.6738    1.0000 </r>
       <r>   -0.6738    1.0000 </r>
       <r>   -0.6738    1.0000 </r>
       <r>   -0.2595    1.0000 </r>
       <r>   -0.2595    1.0000 </r>
       <r>   -0.2595    1.0000 </r>
       <r>   -0.2595    1.0000 </r>
       <r>    3.0223    0.0000 </r>
       <r>    3.0223    0.0000 </r>
       <r>    3.0223    0.0000 </r>
       <r>    3.0223    0.0000 </r>
       <r>    3.8324    0.0000 </r>
       <r>    3.8324    0.0000 </r>
       <r>    3.8324    0.0000 </r>
       <r>    3.8324    0.0000 </r>
       <r>    3.8962    0.0000 </r>
       <r>    3.8962    0.0000 </r>
       <r>    3.8962    0.0000 </r>
       <r>    3.8962    0.0000 </r>
       <r>    4.2136    0.0000 </r>
       <r>    4.2136    0.0000 </r>
       <r>    4.2136    0.0000 </r>
       <r>    4.2136    0.0000 </r>
       <r>    4.3384    0.0000 </r>
       <r>    4.3384    0.0000 </r>
       <r>    4.3384    0.0000 </r>
       <r>    4.3384    0.0000 </r>
       <r>    5.8977    0.0000 </r>
       <r>    5.8977    0.0000 </r>
       <r>    5.8977    0.0000 </r>
       <r>    5.8977    0.0000 </r>
       <r>    6.1124    0.0000 </r>
       <r>    6.1124    0.0000 </r>
       <r>    6.1124    0.0000 </r>
       <r>    6.1124    0.0000 </r>
       <r>    6.2472    0.0000 </r>
       <r>    6.2472    0.0000 </r>
       <r>    6.2472    0.0000 </r>
       <r>    6.2472    0.0000 </r>
       <r>    6.3929    0.0000 </r>
       <r>    6.3929    0.0000 </r>
       <r>    6.3929    0.0000 </r>
       <r>    6.3929    0.0000 </r>
       <r>    6.5224    0.0000 </r>
       <r>    6.5224    0.0000 </r>
       <r>    6.5224    0.0000 </r>
       <r>    6.5227    0.0000 </r>
      </set>
      <set comment="kpoint 4">
       <r>  -20.6810    1.0000 </r>
       <r>  -20.6810    1.0000 </r>
       <r>  -20.6797    1.0000 </r>
       <r>  -20.6797    1.0000 </r>
       <r>  -20.6797    1.0000 </r>
       <r>  -20.6797    1.0000 </r>
       <r>  -20.6789    1.0000 </r>
       <r>  -20.6789    1.0000 </r>
       <r>  -16.6160    1.0000 </r>
       <r>  -16.6160    1.0000 </r>
       <r>  -16.6112    1.0000 </r>
       <r>  -16.6112    1.0000 </r>
       <r>  -16.6112    1.0000 </r>
       <r>  -16.6112    1.0000 </r>
       <r>  -16.6026    1.0000 </r>
       <r>  -16.6026    1.0000 </r>
       <r>  -16.5765    1.0000 </r>
       <r>  -16.5765    1.0000 </r>
       <r>  -16.5505    1.0000 </r>
       <r>  -16.5505    1.0000 </r>
       <r>  -16.5505    1.0000 </r>
       <r>  -16.5505    1.0000 </r>
       <r>  -16.5298    1.0000 </r>
       <r>  -16.5298    1.0000 </r>
       <r>  -16.4930    1.0000 </r>
       <r>  -16.4930    1.0000 </r>
       <r>  -16.4920    1.0000 </r>
       <r>  -16.4920    1.0000 </r>
       <r>  -16.4920    1.0000 </r>
       <r>  -16.4920    1.0000 </r>
       <r>  -16.4915    1.0000 </r>
       <r>  -16.4915    1.0000 </r>
       <r>  -16.4825    1.0000 </r>
       <r>  -16.4825    1.0000 </r>
       <r>  -16.4825    1.0000 </r>
       <r>  -16.4825    1.0000 </r>
       <r>  -16.4824    1.0000 </r>
       <r>  -16.4824    1.0000 </r>
       <r>  -16.4824    1.0000 </r>
       <r>  -16.4824    1.0000 </r>
       <r>  -16.4820    1.0000 </r>
       <r>  -16.4820    1.0000 </r>
       <r>  -16.4820    1.0000 </r>
       <r>  -16.4820    1.0000 </r>
       <r>  -16.4817    1.0000 </r>
       <r>  -16.4817    1.0000 </r>
       <r>  -16.4817    1.0000 </r>
       <r>  -16.4817    1.0000 </r>
       <r>  -14.2802    1.0000 </r>
       <r>  -14.2802    1.0000 </r>
       <r>  -14.2032    1.0000 </r>
       <r>  -14.2032    1.0000 </r>
       <r>  -14.2032    1.0000 </r>
       <r>  -14.2032    1.0000 </r>
       <r>  -14.1576    1.0000 </r>
       <r>  -14.1576    1.0000 </r>
       <r>  -13.9278    1.0000 </r>
       <r>  -13.9278    1.0000 </r>
       <r>  -13.9278    1.0000 </r>
       <r>  -13.9278    1.0000 </r>
       <r>  -13.9001    1.0000 </r>
       <r>  -13.9001    1.0000 </r>
       <r>  -13.8227    1.0000 </r>
       <r>  -13.8227    1.0000 </r>
       <r>  -13.8227    1.0000 </r>
       <r>  -13.8227    1.0000 </r>
       <r>  -13.7637    1.0000 </r>
       <r>  -13.7637    1.0000 </r>
       <r>  -13.7492    1.0000 </r>
       <r>  -13.7492    1.0000 </r>
       <r>  -13.7492    1.0000 </r>
       <r>  -13.7492    1.0000 </r>
       <r>   -7.8224    1.0000 </r>
       <r>   -7.8224    1.0000 </r>
       <r>   -7.5251    1.0000 </r>
       <r>   -7.5251    1.0000 </r>
       <r>   -7.5251    1.0000 </r>
       <r>   -7.5251    1.0000 </r>
       <r>   -7.2338    1.0000 </r>
       <r>   -7.2338    1.0000 </r>
       <r>   -7.1574    1.0000 </r>
       <r>   -7.1574    1.0000 </r>
       <r>   -7.1574    1.0000 </r>
       <r>   -7.1574    1.0000 </r>
       <r>   -7.1298    1.0000 </r>
       <r>   -7.1298    1.0000 </r>
       <r>   -7.1298    1.0000 </r>
       <r>   -7.1298    1.0000 </r>
       <r>   -7.1010    1.0000 </r>
       <r>   -7.1010    1.0000 </r>
       <r>   -7.1010    1.0000 </r>
       <r>   -7.1010    1.0000 </r>
       <r>   -7.0784    1.0000 </r>
       <r>   -7.0784    1.0000 </r>
       <r>   -7.0771    1.0000 </r>
       <r>   -7.0771    1.0000 </r>
       <r>   -7.0771    1.0000 </r>
       <r>   -7.0771    1.0000 </r>
       <r>   -7.0739    1.0000 </r>
       <r>   -7.0739    1.0000 </r>
       <r>   -7.0739    1.0000 </r>
       <r>   -7.0739    1.0000 </r>
       <r>   -7.0337    1.0000 </r>
       <r>   -7.0337    1.0000 </r>
       <r>   -2.9169    1.0000 </r>
       <r>   -2.9169    1.0000 </r>
       <r>   -2.9169    1.0000 </r>
       <r>   -2.9169    1.0000 </r>
       <r>   -2.7465    1.0000 </r>
       <r>   -2.7465    1.0000 </r>
       <r>   -2.7465    1.0000 </r>
       <r>   -2.7465    1.0000 </r>
       <r>   -2.4809    1.0000 </r>
       <r>   -2.4809    1.0000 </r>
       <r>   -2.4809    1.0000 </r>
       <r>   -2.4809    1.0000 </r>
       <r>   -2.4453    1.0000 </r>
       <r>   -2.4453    1.0000 </r>
       <r>   -2.4119    1.0000 </r>
       <r>   -2.4119    1.0000 </r>
       <r>   -2.1206    1.0000 </r>
       <r>   -2.1206    1.0000 </r>
       <r>   -2.1206    1.0000 </r>
       <r>   -2.1206    1.0000 </r>
       <r>   -2.0393    1.0000 </r>
       <r>   -2.0393    1.0000 </r>
       <r>   -1.8475    1.0000 </r>
       <r>   -1.8475    1.0000 </r>
       <r>   -1.8475    1.0000 </r>
       <r>   -1.8475    1.0000 </r>
       <r>   -1.8363    1.0000 </r>
       <r>   -1.8363    1.0000 </r>
       <r>   -1.8363    1.0000 </r>
       <r>   -1.8363    1.0000 </r>
       <r>   -1.4685    1.0000 </r>
       <r>   -1.4685    1.0000 </r>
       <r>   -1.4685    1.0000 </r>
       <r>   -1.4685    1.0000 </r>
       <r>   -1.4608    1.0000 </r>
       <r>   -1.4608    1.0000 </r>
       <r>   -1.4608    1.0000 </r>
       <r>   -1.4608    1.0000 </r>
       <r>   -1.4395    1.0000 </r>
       <r>   -1.4395    1.0000 </r>
       <r>   -1.3961    1.0000 </r>
       <r>   -1.3961    1.0000 </r>
       <r>   -1.2875    1.0000 </r>
       <r>   -1.2875    1.0000 </r>
       <r>   -1.2875    1.0000 </r>
       <r>   -1.2875    1.0000 </r>
       <r>   -1.2497    1.0000 </r>
       <r>   -1.2497    1.0000 </r>
       <r>   -1.1719    1.0000 </r>
       <r>   -1.1719    1.0000 </r>
       <r>   -1.1719    1.0000 </r>
       <r>   -1.1719    1.0000 </r>
       <r>   -1.0292    1.0000 </r>
       <r>   -1.0292    1.0000 </r>
       <r>   -1.0292    1.0000 </r>
       <r>   -1.0292    1.0000 </r>
       <r>   -0.9764    1.0000 </r>
       <r>   -0.9764    1.0000 </r>
       <r>   -0.9187    1.0000 </r>
       <r>   -0.9187    1.0000 </r>
       <r>   -0.9187    1.0000 </r>
       <r>   -0.9187    1.0000 </r>
       <r>   -0.8894    1.0000 </r>
       <r>   -0.8894    1.0000 </r>
       <r>   -0.8894    1.0000 </r>
       <r>   -0.8894    1.0000 </r>
       <r>   -0.8091    1.0000 </r>
       <r>   -0.8091    1.0000 </r>
       <r>   -0.8091    1.0000 </r>
       <r>   -0.8091    1.0000 </r>
       <r>   -0.3462    1.0000 </r>
       <r>   -0.3462    1.0000 </r>
       <r>    2.9968    0.0000 </r>
       <r>    2.9968    0.0000 </r>
       <r>    2.9968    0.0000 </r>
       <r>    2.9968    0.0000 </r>
       <r>    3.0960    0.0000 </r>
       <r>    3.0960    0.0000 </r>
       <r>    3.0960    0.0000 </r>
       <r>    3.0960    0.0000 </r>
       <r>    4.5560    0.0000 </r>
       <r>    4.5560    0.0000 </r>
       <r>    4.7877    0.0000 </r>
       <r>    4.7877    0.0000 </r>
       <r>    4.7877    0.0000 </r>
       <r>    4.7877    0.0000 </r>
       <r>    4.8729    0.0000 </r>
       <r>    4.8729    0.0000 </r>
       <r>    5.0234    0.0000 </r>
       <r>    5.0234    0.0000 </r>
       <r>    5.0234    0.0000 </r>
       <r>    5.0234    0.0000 </r>
       <r>    5.2493    0.0000 </r>
       <r>    5.2493    0.0000 </r>
       <r>    5.2493    0.0000 </r>
       <r>    5.2493    0.0000 </r>
       <r>    5.4502    0.0000 </r>
       <r>    5.4502    0.0000 </r>
       <r>    5.7036    0.0000 </r>
       <r>    5.7036    0.0000 </r>
       <r>    6.5443    0.0000 </r>
       <r>    6.5443    0.0000 </r>
       <r>    6.5443    0.0000 </r>
       <r>    6.5443    0.0000 </r>
       <r>    6.6113    0.0000 </r>
       <r>    6.6113    0.0000 </r>
       <r>    6.6113    0.0000 </r>
       <r>    6.6114    0.0000 </r>
       <r>    6.6596    0.0000 </r>
       <r>    6.6596    0.0000 </r>
       <r>    6.6596    0.0000 </r>
       <r>    6.6597    0.0000 </r>
      </set>
      <set comment="kpoint 5">
       <r>  -20.6803    1.0000 </r>
       <r>  -20.6803    1.0000 </r>
       <r>  -20.6803    1.0000 </r>
       <r>  -20.6803    1.0000 </r>
       <r>  -20.6793    1.0000 </r>
       <r>  -20.6793    1.0000 </r>
       <r>  -20.6793    1.0000 </r>
       <r>  -20.6793    1.0000 </r>
       <r>  -16.6131    1.0000 </r>
       <r>  -16.6131    1.0000 </r>
       <r>  -16.6131    1.0000 </r>
       <r>  -16.6131    1.0000 </r>
       <r>  -16.6062    1.0000 </r>
       <r>  -16.6062    1.0000 </r>
       <r>  -16.6062    1.0000 </r>
       <r>  -16.6062    1.0000 </r>
       <r>  -16.5641    1.0000 </r>
       <r>  -16.5641    1.0000 </r>
       <r>  -16.5641    1.0000 </r>
       <r>  -16.5641    1.0000 </r>
       <r>  -16.5409    1.0000 </r>
       <r>  -16.5409    1.0000 </r>
       <r>  -16.5409    1.0000 </r>
       <r>  -16.5409    1.0000 </r>
       <r>  -16.4925    1.0000 </r>
       <r>  -16.4925    1.0000 </r>
       <r>  -16.4925    1.0000 </r>
       <r>  -16.4925    1.0000 </r>
       <r>  -16.4917    1.0000 </r>
       <r>  -16.4917    1.0000 </r>
       <r>  -16.4917    1.0000 </r>
       <r>  -16.4917    1.0000 </r>
       <r>  -16.4825    1.0000 </r>
       <r>  -16.4825    1.0000 </r>
       <r>  -16.4825    1.0000 </r>
       <r>  -16.4825    1.0000 </r>
       <r>  -16.4822    1.0000 </r>
       <r>  -16.4822    1.0000 </r>
       <r>  -16.4822    1.0000 </r>
       <r>  -16.4822    1.0000 </r>
       <r>  -16.4822    1.0000 </r>
       <r>  -16.4822    1.0000 </r>
       <r>  -16.4822    1.0000 </r>
       <r>  -16.4822    1.0000 </r>
       <r>  -16.4819    1.0000 </r>
       <r>  -16.4819    1.0000 </r>
       <r>  -16.4819    1.0000 </r>
       <r>  -16.4819    1.0000 </r>
       <r>  -14.2462    1.0000 </r>
       <r>  -14.2462    1.0000 </r>
       <r>  -14.2462    1.0000 </r>
       <r>  -14.2462    1.0000 </r>
       <r>  -14.1827    1.0000 </r>
       <r>  -14.1827    1.0000 </r>
       <r>  -14.1827    1.0000 </r>
       <r>  -14.1827    1.0000 </r>
       <r>  -13.9126    1.0000 </r>
       <r>  -13.9126    1.0000 </r>
       <r>  -13.9126    1.0000 </r>
       <r>  -13.9126    1.0000 </r>
       <r>  -13.8787    1.0000 </r>
       <r>  -13.8787    1.0000 </r>
       <r>  -13.8787    1.0000 </r>
       <r>  -13.8787    1.0000 </r>
       <r>  -13.7835    1.0000 </r>
       <r>  -13.7835    1.0000 </r>
       <r>  -13.7835    1.0000 </r>
       <r>  -13.7835    1.0000 </r>
       <r>  -13.7496    1.0000 </r>
       <r>  -13.7496    1.0000 </r>
       <r>  -13.7496    1.0000 </r>
       <r>  -13.7496    1.0000 </r>
       <r>   -7.6808    1.0000 </r>
       <r>   -7.6808    1.0000 </r>
       <r>   -7.6808    1.0000 </r>
       <r>   -7.6808    1.0000 </r>
       <r>   -7.3861    1.0000 </r>
       <r>   -7.3861    1.0000 </r>
       <r>   -7.3861    1.0000 </r>
       <r>   -7.3861    1.0000 </r>
       <r>   -7.1441    1.0000 </r>
       <r>   -7.1441    1.0000 </r>
       <r>   -7.1441    1.0000 </r>
       <r>   -7.1441    1.0000 </r>
       <r>   -7.1359    1.0000 </r>
       <r>   -7.1359    1.0000 </r>
       <r>   -7.1359    1.0000 </r>
       <r>   -7.1359    1.0000 </r>
       <r>   -7.0951    1.0000 </r>
       <r>   -7.0951    1.0000 </r>
       <r>   -7.0951    1.0000 </r>
       <r>   -7.0951    1.0000 </r>
       <r>   -7.0890    1.0000 </r>
       <r>   -7.0890    1.0000 </r>
       <r>   -7.0890    1.0000 </r>
       <r>   -7.0890    1.0000 </r>
       <r>   -7.0764    1.0000 </r>
       <r>   -7.0764    1.0000 </r>
       <r>   -7.0764    1.0000 </r>
       <r>   -7.0764    1.0000 </r>
       <r>   -7.0618    1.0000 </r>
       <r>   -7.0618    1.0000 </r>
       <r>   -7.0618    1.0000 </r>
       <r>   -7.0618    1.0000 </r>
       <r>   -2.8373    1.0000 </r>
       <r>   -2.8373    1.0000 </r>
       <r>   -2.8373    1.0000 </r>
       <r>   -2.8373    1.0000 </r>
       <r>   -2.6023    1.0000 </r>
       <r>   -2.6023    1.0000 </r>
       <r>   -2.6023    1.0000 </r>
       <r>   -2.6023    1.0000 </r>
       <r>   -2.4833    1.0000 </r>
       <r>   -2.4833    1.0000 </r>
       <r>   -2.4833    1.0000 </r>
       <r>   -2.4833    1.0000 </r>
       <r>   -2.3336    1.0000 </r>
       <r>   -2.3336    1.0000 </r>
       <r>   -2.3336    1.0000 </r>
       <r>   -2.3336    1.0000 </r>
       <r>   -2.2101    1.0000 </r>
       <r>   -2.2101    1.0000 </r>
       <r>   -2.2101    1.0000 </r>
       <r>   -2.2101    1.0000 </r>
       <r>   -2.0038    1.0000 </r>
       <r>   -2.0038    1.0000 </r>
       <r>   -2.0038    1.0000 </r>
       <r>   -2.0038    1.0000 </r>
       <r>   -1.8032    1.0000 </r>
       <r>   -1.8032    1.0000 </r>
       <r>   -1.8032    1.0000 </r>
       <r>   -1.8032    1.0000 </r>
       <r>   -1.6830    1.0000 </r>
       <r>   -1.6830    1.0000 </r>
       <r>   -1.6830    1.0000 </r>
       <r>   -1.6830    1.0000 </r>
       <r>   -1.5695    1.0000 </r>
       <r>   -1.5695    1.0000 </r>
       <r>   -1.5695    1.0000 </r>
       <r>   -1.5695    1.0000 </r>
       <r>   -1.5032    1.0000 </r>
       <r>   -1.5032    1.0000 </r>
       <r>   -1.5032    1.0000 </r>
       <r>   -1.5032    1.0000 </r>
       <r>   -1.4479    1.0000 </r>
       <r>   -1.4479    1.0000 </r>
       <r>   -1.4479    1.0000 </r>
       <r>   -1.4479    1.0000 </r>
       <r>   -1.2063    1.0000 </r>
       <r>   -1.2063    1.0000 </r>
       <r>   -1.2063    1.0000 </r>
       <r>   -1.2063    1.0000 </r>
       <r>   -1.1593    1.0000 </r>
       <r>   -1.1593    1.0000 </r>
       <r>   -1.1593    1.0000 </r>
       <r>   -1.1593    1.0000 </r>
       <r>   -1.1117    1.0000 </r>
       <r>   -1.1117    1.0000 </r>
       <r>   -1.1117    1.0000 </r>
       <r>   -1.1117    1.0000 </r>
       <r>   -1.0432    1.0000 </r>
       <r>   -1.0432    1.0000 </r>
       <r>   -1.0432    1.0000 </r>
       <r>   -1.0432    1.0000 </r>
       <r>   -0.8840    1.0000 </r>
       <r>   -0.8840    1.0000 </r>
       <r>   -0.8840    1.0000 </r>
       <r>   -0.8840    1.0000 </r>
       <r>   -0.7148    1.0000 </r>
       <r>   -0.7148    1.0000 </r>
       <r>   -0.7148    1.0000 </r>
       <r>   -0.7148    1.0000 </r>
       <r>   -0.6524    1.0000 </r>
       <r>   -0.6524    1.0000 </r>
       <r>   -0.6524    1.0000 </r>
       <r>   -0.6524    1.0000 </r>
       <r>    3.0219    0.0000 </r>
       <r>    3.0219    0.0000 </r>
       <r>    3.0219    0.0000 </r>
       <r>    3.0219    0.0000 </r>
       <r>    3.9960    0.0000 </r>
       <r>    3.9960    0.0000 </r>
       <r>    3.9960    0.0000 </r>
       <r>    3.9960    0.0000 </r>
       <r>    4.1486    0.0000 </r>
       <r>    4.1486    0.0000 </r>
       <r>    4.1486    0.0000 </r>
       <r>    4.1486    0.0000 </r>
       <r>    4.6677    0.0000 </r>
       <r>    4.6677    0.0000 </r>
       <r>    4.6677    0.0000 </r>
       <r>    4.6677    0.0000 </r>
       <r>    4.8620    0.0000 </r>
       <r>    4.8620    0.0000 </r>
       <r>    4.8620    0.0000 </r>
       <r>    4.8620    0.0000 </r>
       <r>    5.1222    0.0000 </r>
       <r>    5.1222    0.0000 </r>
       <r>    5.1222    0.0000 </r>
       <r>    5.1222    0.0000 </r>
       <r>    5.8844    0.0000 </r>
       <r>    5.8844    0.0000 </r>
       <r>    5.8844    0.0000 </r>
       <r>    5.8844    0.0000 </r>
       <r>    6.0753    0.0000 </r>
       <r>    6.0753    0.0000 </r>
       <r>    6.0753    0.0000 </r>
       <r>    6.0753    0.0000 </r>
       <r>    6.6223    0.0000 </r>
       <r>    6.6223    0.0000 </r>
       <r>    6.6225    0.0000 </r>
       <r>    6.6241    0.0000 </r>
       <r>    6.6971    0.0000 </r>
       <r>    6.6972    0.0000 </r>
       <r>    6.6985    0.0000 </r>
       <r>    6.7141    0.0000 </r>
      </set>
      <set comment="kpoint 6">
       <r>  -20.6798    1.0000 </r>
       <r>  -20.6798    1.0000 </r>
       <r>  -20.6798    1.0000 </r>
       <r>  -20.6798    1.0000 </r>
       <r>  -20.6798    1.0000 </r>
       <r>  -20.6798    1.0000 </r>
       <r>  -20.6798    1.0000 </r>
       <r>  -20.6798    1.0000 </r>
       <r>  -16.6090    1.0000 </r>
       <r>  -16.6090    1.0000 </r>
       <r>  -16.6090    1.0000 </r>
       <r>  -16.6090    1.0000 </r>
       <r>  -16.6090    1.0000 </r>
       <r>  -16.6090    1.0000 </r>
       <r>  -16.6090    1.0000 </r>
       <r>  -16.6090    1.0000 </r>
       <r>  -16.5532    1.0000 </r>
       <r>  -16.5532    1.0000 </r>
       <r>  -16.5532    1.0000 </r>
       <r>  -16.5532    1.0000 </r>
       <r>  -16.5532    1.0000 </r>
       <r>  -16.5532    1.0000 </r>
       <r>  -16.5532    1.0000 </r>
       <r>  -16.5532    1.0000 </r>
       <r>  -16.4921    1.0000 </r>
       <r>  -16.4921    1.0000 </r>
       <r>  -16.4921    1.0000 </r>
       <r>  -16.4921    1.0000 </r>
       <r>  -16.4921    1.0000 </r>
       <r>  -16.4921    1.0000 </r>
       <r>  -16.4921    1.0000 </r>
       <r>  -16.4921    1.0000 </r>
       <r>  -16.4822    1.0000 </r>
       <r>  -16.4822    1.0000 </r>
       <r>  -16.4822    1.0000 </r>
       <r>  -16.4822    1.0000 </r>
       <r>  -16.4822    1.0000 </r>
       <r>  -16.4822    1.0000 </r>
       <r>  -16.4822    1.0000 </r>
       <r>  -16.4822    1.0000 </r>
       <r>  -16.4822    1.0000 </r>
       <r>  -16.4822    1.0000 </r>
       <r>  -16.4822    1.0000 </r>
       <r>  -16.4822    1.0000 </r>
       <r>  -16.4822    1.0000 </r>
       <r>  -16.4822    1.0000 </r>
       <r>  -16.4822    1.0000 </r>
       <r>  -16.4822    1.0000 </r>
       <r>  -14.2176    1.0000 </r>
       <r>  -14.2176    1.0000 </r>
       <r>  -14.2176    1.0000 </r>
       <r>  -14.2176    1.0000 </r>
       <r>  -14.2176    1.0000 </r>
       <r>  -14.2176    1.0000 </r>
       <r>  -14.2176    1.0000 </r>
       <r>  -14.2176    1.0000 </r>
       <r>  -13.8912    1.0000 </r>
       <r>  -13.8912    1.0000 </r>
       <r>  -13.8912    1.0000 </r>
       <r>  -13.8912    1.0000 </r>
       <r>  -13.8912    1.0000 </r>
       <r>  -13.8912    1.0000 </r>
       <r>  -13.8912    1.0000 </r>
       <r>  -13.8912    1.0000 </r>
       <r>  -13.7676    1.0000 </r>
       <r>  -13.7676    1.0000 </r>
       <r>  -13.7676    1.0000 </r>
       <r>  -13.7676    1.0000 </r>
       <r>  -13.7676    1.0000 </r>
       <r>  -13.7676    1.0000 </r>
       <r>  -13.7676    1.0000 </r>
       <r>  -13.7676    1.0000 </r>
       <r>   -7.5404    1.0000 </r>
       <r>   -7.5404    1.0000 </r>
       <r>   -7.5404    1.0000 </r>
       <r>   -7.5404    1.0000 </r>
       <r>   -7.5404    1.0000 </r>
       <r>   -7.5404    1.0000 </r>
       <r>   -7.5404    1.0000 </r>
       <r>   -7.5404    1.0000 </r>
       <r>   -7.1388    1.0000 </r>
       <r>   -7.1388    1.0000 </r>
       <r>   -7.1388    1.0000 </r>
       <r>   -7.1388    1.0000 </r>
       <r>   -7.1388    1.0000 </r>
       <r>   -7.1388    1.0000 </r>
       <r>   -7.1388    1.0000 </r>
       <r>   -7.1388    1.0000 </r>
       <r>   -7.0953    1.0000 </r>
       <r>   -7.0953    1.0000 </r>
       <r>   -7.0953    1.0000 </r>
       <r>   -7.0953    1.0000 </r>
       <r>   -7.0953    1.0000 </r>
       <r>   -7.0953    1.0000 </r>
       <r>   -7.0953    1.0000 </r>
       <r>   -7.0953    1.0000 </r>
       <r>   -7.0698    1.0000 </r>
       <r>   -7.0698    1.0000 </r>
       <r>   -7.0698    1.0000 </r>
       <r>   -7.0698    1.0000 </r>
       <r>   -7.0698    1.0000 </r>
       <r>   -7.0698    1.0000 </r>
       <r>   -7.0698    1.0000 </r>
       <r>   -7.0698    1.0000 </r>
       <r>   -2.5604    1.0000 </r>
       <r>   -2.5604    1.0000 </r>
       <r>   -2.5604    1.0000 </r>
       <r>   -2.5604    1.0000 </r>
       <r>   -2.5604    1.0000 </r>
       <r>   -2.5604    1.0000 </r>
       <r>   -2.5604    1.0000 </r>
       <r>   -2.5604    1.0000 </r>
       <r>   -2.4674    1.0000 </r>
       <r>   -2.4674    1.0000 </r>
       <r>   -2.4674    1.0000 </r>
       <r>   -2.4674    1.0000 </r>
       <r>   -2.4674    1.0000 </r>
       <r>   -2.4674    1.0000 </r>
       <r>   -2.4674    1.0000 </r>
       <r>   -2.4674    1.0000 </r>
       <r>   -2.1483    1.0000 </r>
       <r>   -2.1483    1.0000 </r>
       <r>   -2.1483    1.0000 </r>
       <r>   -2.1483    1.0000 </r>
       <r>   -2.1483    1.0000 </r>
       <r>   -2.1483    1.0000 </r>
       <r>   -2.1483    1.0000 </r>
       <r>   -2.1483    1.0000 </r>
       <r>   -1.7151    1.0000 </r>
       <r>   -1.7151    1.0000 </r>
       <r>   -1.7151    1.0000 </r>
       <r>   -1.7151    1.0000 </r>
       <r>   -1.7151    1.0000 </r>
       <r>   -1.7151    1.0000 </r>
       <r>   -1.7151    1.0000 </r>
       <r>   -1.7151    1.0000 </r>
       <r>   -1.5170    1.0000 </r>
       <r>   -1.5170    1.0000 </r>
       <r>   -1.5170    1.0000 </r>
       <r>   -1.5170    1.0000 </r>
       <r>   -1.5170    1.0000 </r>
       <r>   -1.5170    1.0000 </r>
       <r>   -1.5170    1.0000 </r>
       <r>   -1.5170    1.0000 </r>
       <r>   -1.3802    1.0000 </r>
       <r>   -1.3802    1.0000 </r>
       <r>   -1.3802    1.0000 </r>
       <r>   -1.3802    1.0000 </r>
       <r>   -1.3802    1.0000 </r>
       <r>   -1.3802    1.0000 </r>
       <r>   -1.3802    1.0000 </r>
       <r>   -1.3802    1.0000 </r>
[...]
        <r>  0.0018  0.0033  0.0040 </r>
        <r>  0.0011  0.0003  0.0064 </r>
        <r>  0.0019  0.0003  0.0036 </r>
        <r>  0.0010  0.0000  0.0023 </r>
        <r>  0.0162  0.0004  0.0240 </r>
        <r>  0.0015  0.0003  0.0027 </r>
        <r>  0.0000  0.0029  0.0003 </r>
        <r>  0.0000  0.0113  0.0001 </r>
        <r>  0.0000  0.0118  0.0002 </r>
        <r>  0.0000  0.0082  0.0003 </r>
        <r>  0.0000  0.0034  0.0002 </r>
        <r>  0.0000  0.0035  0.0002 </r>
        <r>  0.0000  0.0032  0.0002 </r>
        <r>  0.0000  0.0040  0.0001 </r>
        <r>  0.0000  0.0018  0.0002 </r>
        <r>  0.0002  0.0008  0.0002 </r>
        <r>  0.0014  0.0011  0.0010 </r>
        <r>  0.0005  0.0020  0.0008 </r>
        <r>  0.0000  0.0002  0.0003 </r>
        <r>  0.0000  0.0004  0.0001 </r>
        <r>  0.0007  0.0015  0.0007 </r>
        <r>  0.0002  0.0011  0.0009 </r>
        <r>  0.0013  0.0053  0.0028 </r>
        <r>  0.0004  0.0037  0.0010 </r>
        <r>  0.0028  0.0026  0.0059 </r>
        <r>  0.0002  0.0078  0.0006 </r>
        <r>  0.0005  0.0028  0.0032 </r>
        <r>  0.0003  0.0018  0.0007 </r>
        <r>  0.0004  0.0042  0.0018 </r>
        <r>  0.0000  0.0017  0.0005 </r>
        <r>  0.0001  0.0027  0.0002 </r>
        <r>  0.0001  0.0008  0.0001 </r>
        <r>  0.0001  0.0027  0.0001 </r>
        <r>  0.0002  0.0013  0.0002 </r>
        <r>  0.0004  0.0008  0.0005 </r>
        <r>  0.0001  0.0017  0.0002 </r>
        <r>  0.0003  0.0014  0.0002 </r>
        <r>  0.0005  0.0013  0.0004 </r>
       </set>
       <set comment="band 208">
        <r>  0.0043  0.0011  0.0069 </r>
        <r>  0.0035  0.0002  0.0066 </r>
        <r>  0.0052  0.0002  0.0101 </r>
        <r>  0.0009  0.0001  0.0035 </r>
        <r>  0.0053  0.0009  0.0111 </r>
        <r>  0.0042  0.0007  0.0077 </r>
        <r>  0.0009  0.0011  0.0044 </r>
        <r>  0.0000  0.0009  0.0032 </r>
        <r>  0.0000  0.0196  0.0000 </r>
        <r>  0.0000  0.0018  0.0005 </r>
        <r>  0.0000  0.0026  0.0002 </r>
        <r>  0.0000  0.0082  0.0001 </r>
        <r>  0.0000  0.0021  0.0001 </r>
        <r>  0.0000  0.0062  0.0001 </r>
        <r>  0.0000  0.0064  0.0000 </r>
        <r>  0.0000  0.0015  0.0004 </r>
        <r>  0.0001  0.0018  0.0003 </r>
        <r>  0.0012  0.0014  0.0007 </r>
        <r>  0.0001  0.0008  0.0001 </r>
        <r>  0.0002  0.0027  0.0002 </r>
        <r>  0.0001  0.0006  0.0006 </r>
        <r>  0.0004  0.0023  0.0003 </r>
        <r>  0.0000  0.0009  0.0001 </r>
        <r>  0.0001  0.0012  0.0002 </r>
        <r>  0.0023  0.0036  0.0052 </r>
        <r>  0.0011  0.0069  0.0023 </r>
        <r>  0.0002  0.0059  0.0007 </r>
        <r>  0.0008  0.0021  0.0016 </r>
        <r>  0.0005  0.0040  0.0011 </r>
        <r>  0.0000  0.0029  0.0007 </r>
        <r>  0.0008  0.0014  0.0035 </r>
        <r>  0.0002  0.0031  0.0013 </r>
        <r>  0.0001  0.0013  0.0002 </r>
        <r>  0.0010  0.0006  0.0007 </r>
        <r>  0.0001  0.0007  0.0005 </r>
        <r>  0.0002  0.0015  0.0003 </r>
        <r>  0.0001  0.0007  0.0004 </r>
        <r>  0.0006  0.0028  0.0005 </r>
        <r>  0.0003  0.0004  0.0005 </r>
        <r>  0.0006  0.0016  0.0005 </r>
       </set>
       <set comment="band 209">
        <r>  0.0007  0.0015  0.0281 </r>
        <r>  0.0000  0.0011  0.0036 </r>
        <r>  0.0003  0.0030  0.0126 </r>
        <r>  0.0001  0.0005  0.0057 </r>
        <r>  0.0004  0.0014  0.0163 </r>
        <r>  0.0000  0.0026  0.0034 </r>
        <r>  0.0003  0.0020  0.0137 </r>
        <r>  0.0005  0.0007  0.0214 </r>
        <r>  0.0000  0.0012  0.0001 </r>
        <r>  0.0000  0.0013  0.0002 </r>
        <r>  0.0000  0.0010  0.0002 </r>
        <r>  0.0000  0.0015  0.0001 </r>
        <r>  0.0000  0.0009  0.0002 </r>
        <r>  0.0000  0.0012  0.0001 </r>
        <r>  0.0000  0.0014  0.0002 </r>
        <r>  0.0000  0.0006  0.0002 </r>
        <r>  0.0001  0.0010  0.0005 </r>
        <r>  0.0001  0.0004  0.0003 </r>
        <r>  0.0002  0.0022  0.0006 </r>
        <r>  0.0005  0.0020  0.0010 </r>
        <r>  0.0005  0.0024  0.0011 </r>
        <r>  0.0003  0.0021  0.0008 </r>
        <r>  0.0001  0.0008  0.0004 </r>
        <r>  0.0002  0.0006  0.0007 </r>
        <r>  0.0005  0.0029  0.0016 </r>
        <r>  0.0003  0.0014  0.0007 </r>
        <r>  0.0008  0.0019  0.0021 </r>
        <r>  0.0001  0.0017  0.0011 </r>
        <r>  0.0005  0.0021  0.0029 </r>
        <r>  0.0003  0.0013  0.0007 </r>
        <r>  0.0004  0.0027  0.0018 </r>
        <r>  0.0001  0.0013  0.0011 </r>
        <r>  0.0006  0.0029  0.0012 </r>
        <r>  0.0005  0.0025  0.0009 </r>
        <r>  0.0004  0.0014  0.0009 </r>
        <r>  0.0001  0.0010  0.0005 </r>
        <r>  0.0006  0.0014  0.0010 </r>
        <r>  0.0001  0.0013  0.0006 </r>
        <r>  0.0009  0.0029  0.0014 </r>
        <r>  0.0004  0.0029  0.0009 </r>
       </set>
       <set comment="band 210">
        <r>  0.0003  0.0010  0.0127 </r>
        <r>  0.0002  0.0015  0.0087 </r>
        <r>  0.0000  0.0022  0.0026 </r>
        <r>  0.0007  0.0008  0.0293 </r>
        <r>  0.0002  0.0018  0.0082 </r>
        <r>  0.0002  0.0017  0.0131 </r>
        <r>  0.0004  0.0006  0.0161 </r>
        <r>  0.0003  0.0035  0.0138 </r>
        <r>  0.0000  0.0010  0.0002 </r>
        <r>  0.0000  0.0011  0.0001 </r>
        <r>  0.0000  0.0022  0.0001 </r>
        <r>  0.0000  0.0008  0.0002 </r>
        <r>  0.0000  0.0011  0.0001 </r>
        <r>  0.0000  0.0007  0.0004 </r>
        <r>  0.0000  0.0007  0.0001 </r>
        <r>  0.0000  0.0015  0.0001 </r>
        <r>  0.0002  0.0013  0.0006 </r>
        <r>  0.0005  0.0029  0.0009 </r>
        <r>  0.0004  0.0013  0.0007 </r>
        <r>  0.0001  0.0011  0.0006 </r>
        <r>  0.0001  0.0009  0.0004 </r>
        <r>  0.0002  0.0009  0.0007 </r>
        <r>  0.0003  0.0023  0.0011 </r>
        <r>  0.0009  0.0032  0.0013 </r>
        <r>  0.0001  0.0010  0.0019 </r>
        <r>  0.0003  0.0035  0.0005 </r>
        <r>  0.0003  0.0025  0.0004 </r>
        <r>  0.0010  0.0010  0.0027 </r>
        <r>  0.0000  0.0021  0.0010 </r>
        <r>  0.0006  0.0007  0.0036 </r>
        <r>  0.0006  0.0008  0.0011 </r>
        <r>  0.0001  0.0039  0.0009 </r>
        <r>  0.0004  0.0015  0.0007 </r>
        <r>  0.0003  0.0013  0.0009 </r>
        <r>  0.0000  0.0009  0.0005 </r>
        <r>  0.0005  0.0021  0.0007 </r>
        <r>  0.0000  0.0017  0.0007 </r>
        <r>  0.0010  0.0028  0.0015 </r>
        <r>  0.0001  0.0018  0.0003 </r>
        <r>  0.0005  0.0015  0.0010 </r>
       </set>
       <set comment="band 211">
        <r>  0.0000  0.0023  0.0030 </r>
        <r>  0.0005  0.0022  0.0220 </r>
        <r>  0.0000  0.0005  0.0043 </r>
        <r>  0.0003  0.0022  0.0104 </r>
        <r>  0.0004  0.0011  0.0175 </r>
        <r>  0.0005  0.0028  0.0204 </r>
        <r>  0.0001  0.0009  0.0052 </r>
        <r>  0.0005  0.0011  0.0217 </r>
        <r>  0.0000  0.0019  0.0001 </r>
        <r>  0.0000  0.0010  0.0002 </r>
        <r>  0.0000  0.0013  0.0002 </r>
        <r>  0.0000  0.0009  0.0001 </r>
        <r>  0.0000  0.0008  0.0001 </r>
        <r>  0.0000  0.0014  0.0002 </r>
        <r>  0.0000  0.0011  0.0001 </r>
        <r>  0.0000  0.0008  0.0002 </r>
        <r>  0.0001  0.0011  0.0005 </r>
        <r>  0.0004  0.0012  0.0009 </r>
        <r>  0.0003  0.0018  0.0007 </r>
        <r>  0.0004  0.0025  0.0007 </r>
        <r>  0.0004  0.0032  0.0012 </r>
        <r>  0.0011  0.0037  0.0017 </r>
        <r>  0.0000  0.0002  0.0003 </r>
        <r>  0.0000  0.0002  0.0003 </r>
        <r>  0.0002  0.0017  0.0004 </r>
        <r>  0.0008  0.0023  0.0023 </r>
        <r>  0.0002  0.0012  0.0010 </r>
        <r>  0.0006  0.0029  0.0018 </r>
        <r>  0.0002  0.0011  0.0008 </r>
        <r>  0.0004  0.0030  0.0021 </r>
        <r>  0.0000  0.0014  0.0009 </r>
        <r>  0.0005  0.0021  0.0028 </r>
        <r>  0.0003  0.0022  0.0007 </r>
        <r>  0.0006  0.0026  0.0010 </r>
        <r>  0.0001  0.0008  0.0005 </r>
        <r>  0.0003  0.0012  0.0007 </r>
        <r>  0.0001  0.0008  0.0005 </r>
        <r>  0.0003  0.0009  0.0006 </r>
        <r>  0.0005  0.0025  0.0011 </r>
        <r>  0.0006  0.0028  0.0011 </r>
       </set>
       <set comment="band 212">
        <r>  0.0006  0.0022  0.0241 </r>
        <r>  0.0002  0.0011  0.0126 </r>
        <r>  0.0002  0.0032  0.0091 </r>
        <r>  0.0005  0.0013  0.0207 </r>
        <r>  0.0005  0.0005  0.0181 </r>
        <r>  0.0001  0.0013  0.0042 </r>
        <r>  0.0001  0.0011  0.0070 </r>
        <r>  0.0002  0.0021  0.0084 </r>
        <r>  0.0000  0.0011  0.0002 </r>
        <r>  0.0000  0.0010  0.0003 </r>
        <r>  0.0000  0.0008  0.0003 </r>
        <r>  0.0000  0.0009  0.0001 </r>
        <r>  0.0000  0.0009  0.0001 </r>
        <r>  0.0000  0.0021  0.0001 </r>
        <r>  0.0000  0.0012  0.0002 </r>
        <r>  0.0000  0.0013  0.0002 </r>
        <r>  0.0004  0.0021  0.0009 </r>
        <r>  0.0006  0.0021  0.0013 </r>
        <r>  0.0006  0.0018  0.0012 </r>
        <r>  0.0003  0.0016  0.0008 </r>
        <r>  0.0000  0.0012  0.0003 </r>
        <r>  0.0003  0.0008  0.0006 </r>
        <r>  0.0005  0.0023  0.0009 </r>
        <r>  0.0003  0.0022  0.0007 </r>
        <r>  0.0001  0.0022  0.0028 </r>
        <r>  0.0007  0.0005  0.0017 </r>
        <r>  0.0000  0.0020  0.0022 </r>
        <r>  0.0000  0.0022  0.0005 </r>
        <r>  0.0007  0.0021  0.0007 </r>
        <r>  0.0001  0.0029  0.0004 </r>
        <r>  0.0009  0.0018  0.0012 </r>
        <r>  0.0003  0.0013  0.0025 </r>
        <r>  0.0004  0.0015  0.0009 </r>
        <r>  0.0004  0.0020  0.0008 </r>
        <r>  0.0009  0.0028  0.0015 </r>
        <r>  0.0003  0.0026  0.0012 </r>
        <r>  0.0005  0.0021  0.0008 </r>
        <r>  0.0001  0.0012  0.0004 </r>
        <r>  0.0002  0.0008  0.0007 </r>
        <r>  0.0001  0.0009  0.0003 </r>
       </set>
       <set comment="band 213">
        <r>  0.0002  0.0007  0.0103 </r>
        <r>  0.0004  0.0026  0.0125 </r>
        <r>  0.0001  0.0010  0.0076 </r>
        <r>  0.0001  0.0015  0.0089 </r>
        <r>  0.0001  0.0044  0.0031 </r>
        <r>  0.0005  0.0003  0.0240 </r>
        <r>  0.0008  0.0006  0.0352 </r>
        <r>  0.0000  0.0020  0.0029 </r>
        <r>  0.0000  0.0013  0.0002 </r>
        <r>  0.0000  0.0009  0.0001 </r>
        <r>  0.0000  0.0016  0.0002 </r>
        <r>  0.0000  0.0014  0.0002 </r>
        <r>  0.0000  0.0016  0.0001 </r>
        <r>  0.0000  0.0013  0.0002 </r>
        <r>  0.0000  0.0007  0.0001 </r>
        <r>  0.0000  0.0008  0.0002 </r>
        <r>  0.0006  0.0022  0.0013 </r>
        <r>  0.0004  0.0028  0.0009 </r>
        <r>  0.0001  0.0003  0.0003 </r>
        <r>  0.0000  0.0005  0.0005 </r>
        <r>  0.0004  0.0011  0.0007 </r>
        <r>  0.0000  0.0009  0.0004 </r>
        <r>  0.0001  0.0018  0.0007 </r>
        <r>  0.0006  0.0025  0.0010 </r>
        <r>  0.0004  0.0026  0.0006 </r>
        <r>  0.0001  0.0026  0.0012 </r>
        <r>  0.0008  0.0012  0.0019 </r>
        <r>  0.0002  0.0017  0.0026 </r>
        <r>  0.0003  0.0019  0.0027 </r>
        <r>  0.0008  0.0012  0.0013 </r>
        <r>  0.0000  0.0029  0.0014 </r>
        <r>  0.0004  0.0021  0.0006 </r>
        <r>  0.0000  0.0013  0.0005 </r>
        <r>  0.0006  0.0018  0.0009 </r>
        <r>  0.0001  0.0016  0.0005 </r>
        <r>  0.0005  0.0014  0.0009 </r>
        <r>  0.0004  0.0020  0.0008 </r>
        <r>  0.0005  0.0021  0.0012 </r>
        <r>  0.0003  0.0020  0.0009 </r>
        <r>  0.0008  0.0027  0.0014 </r>
       </set>
       <set comment="band 214">
        <r>  0.0003  0.0017  0.0157 </r>
        <r>  0.0001  0.0033  0.0065 </r>
        <r>  0.0001  0.0020  0.0059 </r>
        <r>  0.0004  0.0007  0.0158 </r>
        <r>  0.0003  0.0013  0.0172 </r>
        <r>  0.0006  0.0015  0.0280 </r>
        <r>  0.0001  0.0008  0.0064 </r>
        <r>  0.0003  0.0017  0.0093 </r>
        <r>  0.0000  0.0006  0.0003 </r>
        <r>  0.0000  0.0014  0.0001 </r>
        <r>  0.0000  0.0008  0.0001 </r>
        <r>  0.0000  0.0004  0.0003 </r>
        <r>  0.0000  0.0016  0.0001 </r>
        <r>  0.0000  0.0013  0.0002 </r>
        <r>  0.0000  0.0009  0.0002 </r>
        <r>  0.0000  0.0029  0.0001 </r>
        <r>  0.0011  0.0027  0.0019 </r>
        <r>  0.0001  0.0028  0.0012 </r>
        <r>  0.0003  0.0017  0.0008 </r>
        <r>  0.0004  0.0018  0.0008 </r>
        <r>  0.0006  0.0021  0.0013 </r>
        <r>  0.0002  0.0025  0.0007 </r>
        <r>  0.0002  0.0012  0.0005 </r>
        <r>  0.0001  0.0008  0.0005 </r>
        <r>  0.0002  0.0020  0.0010 </r>
        <r>  0.0004  0.0012  0.0030 </r>
        <r>  0.0000  0.0013  0.0021 </r>
        <r>  0.0002  0.0028  0.0012 </r>
        <r>  0.0006  0.0015  0.0010 </r>
        <r>  0.0004  0.0035  0.0009 </r>
        <r>  0.0002  0.0026  0.0010 </r>
        <r>  0.0009  0.0013  0.0022 </r>
        <r>  0.0002  0.0015  0.0007 </r>
        <r>  0.0001  0.0009  0.0005 </r>
        <r>  0.0002  0.0018  0.0008 </r>
        <r>  0.0004  0.0018  0.0008 </r>
        <r>  0.0002  0.0012  0.0005 </r>
        <r>  0.0004  0.0017  0.0009 </r>
        <r>  0.0001  0.0012  0.0004 </r>
        <r>  0.0004  0.0009  0.0009 </r>
       </set>
       <set comment="band 215">
        <r>  0.0001  0.0012  0.0054 </r>
        <r>  0.0002  0.0002  0.0178 </r>
        <r>  0.0014  0.0006  0.0395 </r>
        <r>  0.0002  0.0031  0.0043 </r>
        <r>  0.0001  0.0002  0.0091 </r>
        <r>  0.0000  0.0012  0.0019 </r>
        <r>  0.0001  0.0046  0.0056 </r>
        <r>  0.0003  0.0003  0.0215 </r>
        <r>  0.0000  0.0012  0.0001 </r>
        <r>  0.0000  0.0019  0.0002 </r>
        <r>  0.0000  0.0020  0.0002 </r>
        <r>  0.0000  0.0011  0.0002 </r>
        <r>  0.0000  0.0019  0.0003 </r>
        <r>  0.0000  0.0009  0.0001 </r>
        <r>  0.0000  0.0013  0.0006 </r>
        <r>  0.0000  0.0007  0.0004 </r>
        <r>  0.0000  0.0019  0.0002 </r>
        <r>  0.0000  0.0006  0.0002 </r>
        <r>  0.0006  0.0022  0.0012 </r>
        <r>  0.0009  0.0025  0.0012 </r>
        <r>  0.0001  0.0007  0.0009 </r>
        <r>  0.0002  0.0011  0.0008 </r>
        <r>  0.0014  0.0033  0.0019 </r>
        <r>  0.0006  0.0025  0.0012 </r>
        <r>  0.0012  0.0010  0.0017 </r>
        <r>  0.0004  0.0023  0.0007 </r>
        <r>  0.0001  0.0029  0.0009 </r>
        <r>  0.0002  0.0011  0.0012 </r>
        <r>  0.0003  0.0029  0.0005 </r>
        <r>  0.0002  0.0012  0.0011 </r>
        <r>  0.0003  0.0007  0.0038 </r>
        <r>  0.0001  0.0014  0.0015 </r>
        <r>  0.0002  0.0010  0.0005 </r>
        <r>  0.0000  0.0005  0.0005 </r>
        <r>  0.0005  0.0021  0.0013 </r>
        <r>  0.0004  0.0020  0.0012 </r>
        <r>  0.0002  0.0026  0.0010 </r>
        <r>  0.0001  0.0022  0.0007 </r>
        <r>  0.0004  0.0018  0.0014 </r>
        <r>  0.0000  0.0013  0.0010 </r>
       </set>
       <set comment="band 216">
        <r>  0.0002  0.0008  0.0044 </r>
        <r>  0.0002  0.0005  0.0083 </r>
        <r>  0.0001  0.0002  0.0066 </r>
        <r>  0.0001  0.0008  0.0271 </r>
        <r>  0.0001  0.0008  0.0389 </r>
        <r>  0.0000  0.0007  0.0149 </r>
        <r>  0.0002  0.0005  0.0079 </r>
        <r>  0.0002  0.0004  0.0110 </r>
        <r>  0.0000  0.0043  0.0003 </r>
        <r>  0.0000  0.0025  0.0005 </r>
        <r>  0.0000  0.0018  0.0007 </r>
        <r>  0.0000  0.0012  0.0005 </r>
        <r>  0.0000  0.0018  0.0013 </r>
        <r>  0.0000  0.0018  0.0007 </r>
        <r>  0.0000  0.0060  0.0005 </r>
        <r>  0.0000  0.0047  0.0009 </r>
        <r>  0.0000  0.0049  0.0017 </r>
        <r>  0.0002  0.0014  0.0016 </r>
        <r>  0.0002  0.0029  0.0013 </r>
        <r>  0.0001  0.0017  0.0010 </r>
        <r>  0.0001  0.0035  0.0023 </r>
        <r>  0.0001  0.0005  0.0019 </r>
        <r>  0.0001  0.0024  0.0016 </r>
        <r>  0.0001  0.0006  0.0012 </r>
        <r>  0.0000  0.0003  0.0013 </r>
        <r>  0.0000  0.0003  0.0014 </r>
        <r>  0.0003  0.0015  0.0005 </r>
        <r>  0.0002  0.0017  0.0005 </r>
        <r>  0.0001  0.0013  0.0011 </r>
        <r>  0.0000  0.0017  0.0009 </r>
        <r>  0.0002  0.0008  0.0011 </r>
        <r>  0.0002  0.0007  0.0015 </r>
        <r>  0.0004  0.0010  0.0018 </r>
        <r>  0.0000  0.0005  0.0010 </r>
        <r>  0.0004  0.0012  0.0013 </r>
        <r>  0.0000  0.0003  0.0008 </r>
        <r>  0.0007  0.0015  0.0025 </r>
        <r>  0.0000  0.0012  0.0015 </r>
        <r>  0.0004  0.0009  0.0020 </r>
        <r>  0.0000  0.0004  0.0015 </r>
       </set>
      </set>
     </set>
    </set>
   </array>
  </projected>
 </calculation>
 <structure name="finalpos" >
  <crystal>
   <varray name="basis" >
    <v>      11.73535200       0.00000000       0.00000000 </v>
    <v>       0.00000000      11.73535200       0.00000000 </v>
    <v>       0.00000000       0.00000000      11.73535200 </v>
   </varray>
   <i name="volume">   1616.17491673 </i>
   <varray name="rec_basis" >
    <v>       0.08521261       0.00000000       0.00000000 </v>
    <v>       0.00000000       0.08521261       0.00000000 </v>
    <v>       0.00000000       0.00000000       0.08521261 </v>
   </varray>
  </crystal>
  <varray name="positions" >
   <v>       0.25000000       0.25000000       0.25000000 </v>
   <v>       0.25000000       0.25000000       0.75000000 </v>
   <v>       0.25000000       0.75000000       0.25000000 </v>
   <v>       0.25000000       0.75000000       0.75000000 </v>
   <v>       0.75000000       0.25000000       0.25000000 </v>
   <v>       0.75000000       0.25000000       0.75000000 </v>
   <v>       0.75000000       0.75000000       0.25000000 </v>
   <v>       0.75000000       0.75000000       0.75000000 </v>
   <v>       0.00000000       0.00000000       0.00000000 </v>
   <v>       0.00000000       0.00000000       0.50000000 </v>
   <v>       0.00000000       0.50000000       0.00000000 </v>
   <v>       0.00000000       0.50000000       0.50000000 </v>
   <v>       0.50000000       0.00000000       0.00000000 </v>
   <v>       0.50000000       0.00000000       0.50000000 </v>
   <v>       0.50000000       0.50000000       0.00000000 </v>
   <v>       0.50000000       0.50000000       0.50000000 </v>
   <v>       0.91000000       0.25000000       0.00000000 </v>
   <v>       0.91000000       0.25000000       0.50000000 </v>
   <v>       0.09000000       0.75000000       0.00000000 </v>
   <v>       0.09000000       0.75000000       0.50000000 </v>
   <v>       0.59000000       0.25000000       0.00000000 </v>
   <v>       0.59000000       0.25000000       0.50000000 </v>
   <v>       0.41000000       0.75000000       0.00000000 </v>
   <v>       0.41000000       0.75000000       0.50000000 </v>
   <v>       0.00000000       0.00000000       0.25000000 </v>
   <v>       0.00000000       0.00000000       0.75000000 </v>
   <v>       0.00000000       0.50000000       0.25000000 </v>
   <v>       0.00000000       0.50000000       0.75000000 </v>
   <v>       0.50000000       0.00000000       0.25000000 </v>
   <v>       0.50000000       0.00000000       0.75000000 </v>
   <v>       0.50000000       0.50000000       0.25000000 </v>
   <v>       0.50000000       0.50000000       0.75000000 </v>
   <v>       0.25000000       0.09000000       0.00000000 </v>
   <v>       0.25000000       0.09000000       0.50000000 </v>
   <v>       0.25000000       0.41000000       0.00000000 </v>
   <v>       0.25000000       0.41000000       0.50000000 </v>
   <v>       0.75000000       0.91000000       0.00000000 </v>
   <v>       0.75000000       0.91000000       0.50000000 </v>
   <v>       0.75000000       0.59000000       0.00000000 </v>
   <v>       0.75000000       0.59000000       0.50000000 </v>
  </varray>
 </structure>
</modeling>
