 vasp.5.4.4.18Apr17-6-g9f103f2a35 (build Jun 22 2020 09:27:21) complex           
 executed on tx2_gcc-7.3_libsci-1 date 2021.10.12  05:43:27
 running on   64 total cores
 distrk:  each k-point on   64 cores,    1 groups
 distr:  one band on NCORES_PER_BAND=   8 cores,    8 groups


--------------------------------------------------------------------------------------------------------


 INCAR:
 POTCAR:    PAW_PBE Cs_sv 08Apr2002               
 POTCAR:    PAW_PBE Pb_d 06Sep2000                
 POTCAR:    PAW_PBE Br 06Sep2000                  
 POTCAR:    PAW_PBE Cs_sv 08Apr2002               
   SHA256 =  c1463496f0f6037ed62c6012a8013a89ee9ad6ffb38599dcd6c079e7ed31779b Cs
   COPYR  = (c) Copyright 08Apr2002 Georg Kresse                                
   COPYR  = This file is part of the software VASP. Any use, copying, and all ot
   COPYR  = If you do not have a valid VASP license, you may not use, copy or di
   VRHFIN =Cs: 5s5p6s                                                           
   LEXCH  = PE                                                                  
   EATOM  =   555.6835 eV,   40.8416 Ry                                         
                                                                                
   TITEL  = PAW_PBE Cs_sv 08Apr2002                                             
   LULTRA =        F    use ultrasoft PP ?                                      
   IUNSCR =        1    unscreen: 0-lin 1-nonlin 2-no                           
   RPACOR =    2.200    partial core radius                                     
   POMASS =  132.900; ZVAL   =    9.000    mass and valenz                      
   RCORE  =    2.500    outmost cutoff radius                                   
   RWIGS  =    2.500; RWIGS  =    1.323    wigner-seitz radius (au A)           
   ENMAX  =  220.318; ENMIN  =  165.238 eV                                      
   RCLOC  =    2.207    cutoff for local pot                                    
   LCOR   =        T    correct aug charges                                     
   LPAW   =        T    paw PP                                                  
   EAUG   =  407.933                                                            
   DEXC   =    0.000                                                            
   RMAX   =    2.554    core radius for proj-oper                               
   RAUG   =    1.300    factor for augmentation sphere                          
   RDEP   =    2.590    radius for radial grids                                 
   RDEPT  =    2.117    core radius for aug-charge                              
                                                                                
   Atomic configuration                                                         
   13 entries                                                                   
     n  l   j            E        occ.                                          
     1  0  0.50    -35790.1377   2.0000                                         
     2  0  0.50     -5613.6201   2.0000                                         
     2  1  1.50     -5035.0101   6.0000                                         
     3  0  0.50     -1167.0767   2.0000                                         
     3  1  1.50      -980.9754   6.0000                                         
     3  2  2.50      -708.0703  10.0000                                         
     4  0  0.50      -220.2386   2.0000                                         
     4  1  1.50      -160.7596   6.0000                                         
     4  2  2.50       -74.2354  10.0000                                         
     5  0  0.50       -26.7287   2.0000                                         
     6  0  0.50        -2.0862   1.0000                                         
     5  1  1.50       -13.5159   6.0000                                         
     5  2  2.50        -0.4136   0.0000                                         
   Description                                                                  
     l       E           TYP  RCUT    TYP  RCUT                                 
     0    -26.7287425     23  1.900                                             
     0     -2.0862306     23  1.900                                             
     1    -13.5158719     23  2.500                                             
     1     -2.7211652     23  2.500                                             
     2     -0.4136171     23  2.500                                             
  local pseudopotential read in
  partial core-charges read in
  partial kinetic energy density read in
  atomic valenz-charges read in
  non local Contribution for L=           0  read in
    real space projection operators read in
  non local Contribution for L=           0  read in
    real space projection operators read in
  non local Contribution for L=           1  read in
    real space projection operators read in
  non local Contribution for L=           1  read in
    real space projection operators read in
  non local Contribution for L=           2  read in
    real space projection operators read in
    PAW grid and wavefunctions read in

   number of l-projection  operators is LMAX  =           5
   number of lm-projection operators is LMMAX =          13

 POTCAR:    PAW_PBE Pb_d 06Sep2000                
   SHA256 =  fb885b08f0fba73a15f6a6b0e39bd200c13ec96ef97cf3ecd8e63bade5137abd Pb
   COPYR  = (c) Copyright 06Sep2000 Georg Kresse                                
   COPYR  = This file is part of the software VASP. Any use, copying, and all ot
   COPYR  = If you do not have a valid VASP license, you may not use, copy or di
   VRHFIN =Pb:                                                                  
   LEXCH  = PE                                                                  
   EATOM  =  1661.6185 eV,  122.1255 Ry                                         
                                                                                
   TITEL  = PAW_PBE Pb_d 06Sep2000                                              
   LULTRA =        F    use ultrasoft PP ?                                      
   IUNSCR =        1    unscreen: 0-lin 1-nonlin 2-no                           
   RPACOR =    2.200    partial core radius                                     
   POMASS =  207.200; ZVAL   =   14.000    mass and valenz                      
   RCORE  =    2.500    outmost cutoff radius                                   
   RWIGS  =    3.260; RWIGS  =    1.725    wigner-seitz radius (au A)           
   ENMAX  =  237.835; ENMIN  =  178.376 eV                                      
   ICORE  =        3    local potential                                         
   LCOR   =        T    correct aug charges                                     
   LPAW   =        T    paw PP                                                  
   EAUG   =  391.914                                                            
   DEXC   =    0.000                                                            
   RMAX   =    2.565    core radius for proj-oper                               
   RAUG   =    1.300    factor for augmentation sphere                          
   RDEP   =    2.643    radius for radial grids                                 
   RDEPT  =    2.092    core radius for aug-charge                              
                                                                                
   Atomic configuration                                                         
   16 entries                                                                   
     n  l   j            E        occ.                                          
     1  0  0.50    -88091.8466   2.0000                                         
     2  0  0.50    -15753.4197   2.0000                                         
     2  1  1.50    -13508.1797   6.0000                                         
     3  0  0.50     -3781.7194   2.0000                                         
     3  1  1.50     -3138.2529   6.0000                                         
     3  2  2.50     -2483.2977  10.0000                                         
     4  0  0.50      -856.2895   2.0000                                         
     4  1  1.50      -645.4942   6.0000                                         
     4  2  2.50      -401.8768  10.0000                                         
     4  3  3.50      -132.9059  14.0000                                         
     5  0  0.50      -144.0950   2.0000                                         
     5  1  1.50       -85.7879   6.0000                                         
     5  2  2.50       -21.1769  10.0000                                         
     6  0  0.50       -12.0372   2.0000                                         
     6  1  1.50        -3.4971   2.0000                                         
     5  3  2.50        -2.7212   0.0000                                         
   Description                                                                  
     l       E           TYP  RCUT    TYP  RCUT                                 
     2    -21.1768523     23  2.500                                             
     2      1.3605826     23  2.500                                             
     0    -12.0371562     23  2.500                                             
     0     13.6058260     23  2.500                                             
     1     -3.4971339     23  2.500                                             
     1     13.6058260     23  2.500                                             
     3     -1.3605826      7  2.500                                             
  local pseudopotential read in
  partial core-charges read in
  partial kinetic energy density read in
  atomic valenz-charges read in
  non local Contribution for L=           2  read in
    real space projection operators read in
  non local Contribution for L=           2  read in
    real space projection operators read in
  non local Contribution for L=           0  read in
    real space projection operators read in
  non local Contribution for L=           0  read in
    real space projection operators read in
  non local Contribution for L=           1  read in
    real space projection operators read in
  non local Contribution for L=           1  read in
    real space projection operators read in
    PAW grid and wavefunctions read in

   number of l-projection  operators is LMAX  =           6
   number of lm-projection operators is LMMAX =          18

 POTCAR:    PAW_PBE Br 06Sep2000                  
   SHA256 =  96a73d2954943bbee26f4990d676cc6c3bf44b8dd2c75cd4b3b825d8403f0103 Br
   COPYR  = (c) Copyright 06Sep2000 Georg Kresse                                
   COPYR  = This file is part of the software VASP. Any use, copying, and all ot
   COPYR  = If you do not have a valid VASP license, you may not use, copy or di
   VRHFIN =Br: s2p5                                                             
   LEXCH  = PE                                                                  
   EATOM  =   368.4488 eV,   27.0802 Ry                                         
                                                                                
   TITEL  = PAW_PBE Br 06Sep2000                                                
   LULTRA =        F    use ultrasoft PP ?                                      
   IUNSCR =        1    unscreen: 0-lin 1-nonlin 2-no                           
   RPACOR =    1.900    partial core radius                                     
   POMASS =   79.904; ZVAL   =    7.000    mass and valenz                      
   RCORE  =    2.100    outmost cutoff radius                                   
   RWIGS  =    2.200; RWIGS  =    1.164    wigner-seitz radius (au A)           
   ENMAX  =  216.285; ENMIN  =  162.214 eV                                      
   ICORE  =        3    local potential                                         
   LCOR   =        T    correct aug charges                                     
   LPAW   =        T    paw PP                                                  
   EAUG   =  503.852                                                            
   DEXC   =    0.000                                                            
   RMAX   =    2.139    core radius for proj-oper                               
   RAUG   =    1.300    factor for augmentation sphere                          
   RDEP   =    2.186    radius for radial grids                                 
   RDEPT  =    1.890    core radius for aug-charge                              
                                                                                
   Atomic configuration                                                         
   10 entries                                                                   
     n  l   j            E        occ.                                          
     1  0  0.50    -13316.2796   2.0000                                         
     2  0  0.50     -1732.8239   2.0000                                         
     2  1  1.50     -1528.2193   6.0000                                         
     3  0  0.50      -238.0460   2.0000                                         
     3  1  1.50      -173.4609   6.0000                                         
     3  2  2.50       -66.7132  10.0000                                         
     4  0  0.50       -20.1334   2.0000                                         
     4  1  0.50        -7.8591   5.0000                                         
     4  2  2.50        -8.1635   0.0000                                         
     4  3  2.50        -8.1635   0.0000                                         
   Description                                                                  
     l       E           TYP  RCUT    TYP  RCUT                                 
     0    -20.1333652     23  2.100                                             
     0    -21.4939478     23  2.100                                             
     1     -7.8591052     23  2.100                                             
     1     -3.1608434     23  2.100                                             
     2     -8.1634956     23  2.100                                             
     3     -1.3605826      7  2.100                                             
  local pseudopotential read in
  partial core-charges read in
  partial kinetic energy density read in
  atomic valenz-charges read in
  non local Contribution for L=           0  read in
    real space projection operators read in
  non local Contribution for L=           0  read in
    real space projection operators read in
  non local Contribution for L=           1  read in
    real space projection operators read in
  non local Contribution for L=           1  read in
    real space projection operators read in
  non local Contribution for L=           2  read in
    real space projection operators read in
    PAW grid and wavefunctions read in

   number of l-projection  operators is LMAX  =           5
   number of lm-projection operators is LMMAX =          13

 Optimization of the real space projectors (new method)

 maximal supplied QI-value         = 15.12
 optimisation between [QCUT,QGAM] = [  8.77, 17.69] = [ 21.53, 87.61] Ry 
 Optimized for a Real-space Cutoff    1.85 Angstroem

   l    n(q)    QCUT    max X(q) W(low)/X(q) W(high)/X(q)  e(spline) 
   0     10     8.768    25.322    0.81E-04    0.51E-04    0.48E-06
   0     10     8.768    99.187    0.78E-04    0.50E-04    0.47E-06
   1      9     8.768    11.761    0.21E-03    0.20E-03    0.37E-06
   1      9     8.768     8.275    0.24E-03    0.22E-03    0.41E-06
   2      9     8.768     3.829    0.23E-04    0.15E-03    0.18E-06
 Optimization of the real space projectors (new method)

 maximal supplied QI-value         = 15.12
 optimisation between [QCUT,QGAM] = [  8.77, 17.69] = [ 21.53, 87.61] Ry 
 Optimized for a Real-space Cutoff    1.59 Angstroem

   l    n(q)    QCUT    max X(q) W(low)/X(q) W(high)/X(q)  e(spline) 
   2      7     8.768     3.846    0.48E-04    0.11E-03    0.11E-06
   2      7     8.768     8.593    0.20E-03    0.22E-04    0.24E-06
   0      8     8.768    20.082    0.68E-04    0.88E-04    0.41E-07
   0      8     8.768     8.597    0.89E-04    0.13E-03    0.59E-07
   1      8     8.768    33.223    0.15E-03    0.53E-04    0.87E-07
   1      8     8.768    15.899    0.14E-03    0.44E-04    0.78E-07
 Optimization of the real space projectors (new method)

 maximal supplied QI-value         = 17.95
 optimisation between [QCUT,QGAM] = [  8.80, 17.59] = [ 21.67, 86.68] Ry 
 Optimized for a Real-space Cutoff    1.59 Angstroem

   l    n(q)    QCUT    max X(q) W(low)/X(q) W(high)/X(q)  e(spline) 
   0      8     8.797   175.082    0.82E-04    0.14E-03    0.89E-07
   0      8     8.797   174.004    0.79E-04    0.14E-03    0.86E-07
   1      8     8.797    54.315    0.16E-03    0.14E-04    0.30E-06
   1      8     8.797    42.441    0.16E-03    0.14E-04    0.30E-06
   2      7     8.797     3.596    0.92E-04    0.15E-03    0.85E-07
  PAW_PBE Cs_sv 08Apr2002               :
 energy of atom  1       EATOM= -555.6835
 kinetic energy error for atom=    0.0069 (will be added to EATOM!!)
  PAW_PBE Pb_d 06Sep2000                :
 energy of atom  2       EATOM=-1661.6185
 kinetic energy error for atom=    0.0498 (will be added to EATOM!!)
  PAW_PBE Br 06Sep2000                  :
 energy of atom  3       EATOM= -368.4488
 kinetic energy error for atom=    0.0072 (will be added to EATOM!!)


 POSCAR: Cs8 Pb8 Br23                            
  positions in direct lattice
  No initial velocities read in

 METAGGA = SCAN     LMAXTAU =  6    LMIXTAU =  F

 exchange correlation table for  LEXCH =        8
   RHO(1)=    0.500       N(1)  =     2000
   RHO(2)=  100.500       N(2)  =     4000

 VTST: version 3.2, (02/03/18)

 CHAIN: initializing optimizer
 
 OPT: Using VASP Conjugate-Gradient optimizer
 CHAIN: Read ICHAIN            0

 POSCAR: Cs8 Pb8 Br23                            
  positions in direct lattice
  No initial velocities read in



--------------------------------------------------------------------------------------------------------


 ion  position               nearest neighbor table
   1  0.271  0.250  0.177-
   2  0.771  0.256  0.766-
   3  0.707  0.749  0.247-
   4  0.214  0.745  0.785-
   5  0.263  0.259  0.757-
   6  0.808  0.250  0.214-
   7  0.721  0.749  0.772-
   8  0.250  0.739  0.291-
   9  0.008  0.993  0.999-  21 2.93  34 2.96  30 2.97  32 3.00  19 3.02  29 3.11
  10  0.491  0.051  0.492-  20 2.79  31 2.95  33 2.98  28 2.98
  11  0.507  0.002  0.993-  23 2.95  17 2.96  32 2.96  30 3.00  28 3.01  33 3.04
  12  0.038  0.993  0.505-  31 2.88  29 2.91  18 2.96  24 3.05  34 3.09
  13  0.507  0.500  0.994-  37 2.96  25 2.97  23 2.97  17 2.97  26 2.98  35 2.98
  14  0.001  0.494  0.501-  36 2.79  24 2.96  38 3.00  27 3.01  18 3.13
  15  0.006  0.505  0.001-  21 2.94  35 2.96  25 2.97  19 3.01  27 3.02  38 3.03
  16  0.492  0.478  0.494-  39 2.94  26 2.97  37 2.97  22 2.97  20 3.21  36 3.21
  17  0.487  0.751  0.974-  11 2.96  13 2.97
  18  0.967  0.755  0.456-  12 2.96  14 3.13
  19  0.008  0.249  0.974-  15 3.01   9 3.02
  20  0.351  0.243  0.473-  10 2.79  16 3.21
  21  0.039  0.749  0.047-   9 2.93  15 2.94
  22  0.549  0.725  0.503-  16 2.97
  23  0.541  0.250  0.022-  11 2.95  13 2.97
  24  0.010  0.247  0.554-  14 2.96  12 3.05
  25  0.254  0.486  0.957-  13 2.97  15 2.97
  26  0.463  0.515  0.243-  16 2.97  13 2.98
  27  0.949  0.536  0.748-  14 3.01  15 3.02
  28  0.549  0.036  0.743-  10 2.98  11 3.01
  29  0.057  0.036  0.260-  12 2.91   9 3.11
  30  0.760  0.978  0.044-   9 2.97  11 3.00
  31  0.276  0.935  0.547-  12 2.88  10 2.95
  32  0.255  0.018  0.946-  11 2.96   9 3.00
  33  0.464  0.979  0.247-  10 2.98  11 3.04
  34  0.958  0.957  0.751-   9 2.96  12 3.09
  35  0.759  0.521  0.045-  15 2.96  13 2.98
  36  0.232  0.537  0.554-  14 2.79  16 3.21
  37  0.540  0.466  0.746-  13 2.96  16 2.97
  38  0.054  0.460  0.255-  14 3.00  15 3.03
  39  0.674  0.308  0.473-  16 2.94


IMPORTANT INFORMATION: All symmetrisations will be switched off!
NOSYMM: (Re-)initialisation of all symmetry stuff for point group C_1.



 KPOINTS: 1x1x1                                   

Automatic generation of k-mesh.
Space group operators:
 irot       det(A)        alpha          n_x          n_y          n_z        tau_x        tau_y        tau_z
    1     1.000000     0.000001     1.000000     0.000000     0.000000     0.000000     0.000000     0.000000
 
 Subroutine IBZKPT returns following result:
 ===========================================
 
 Found      8 irreducible k-points:
 
 Following reciprocal coordinates:
            Coordinates               Weight
  0.000000  0.000000  0.000000      1.000000
  0.500000  0.000000  0.000000      1.000000
  0.000000  0.500000  0.000000      1.000000
  0.500000  0.500000  0.000000      1.000000
  0.000000  0.000000  0.500000      1.000000
  0.500000  0.000000  0.500000      1.000000
  0.000000  0.500000  0.500000      1.000000
  0.500000  0.500000  0.500000      1.000000
 
 Following cartesian coordinates:
            Coordinates               Weight
 -0.000000  0.000000  0.000000      1.000000
  0.029563  0.000000  0.031093      1.000000
 -0.000000  0.042626  0.000000      1.000000
  0.029563  0.042626  0.031093      1.000000
 -0.029563  0.000000  0.031093      1.000000
  0.000000  0.000000  0.062187      1.000000
 -0.029563  0.042626  0.031093      1.000000
  0.000000  0.042626  0.062187      1.000000
 


--------------------------------------------------------------------------------------------------------




 Dimension of arrays:
   k-points           NKPTS =      8   k-points in BZ     NKDIM =      8   number of bands    NBANDS=    208
   number of dos      NEDOS =    301   number of ions     NIONS =     39
   non local maximal  LDIM  =      6   non local SUM 2l+1 LMDIM =     18
   total plane-waves  NPLWV = 343000
   max r-space proj   IRMAX =   5734   max aug-charges    IRDMAX=  91523
   dimension x,y,z NGX =    70 NGY =   70 NGZ =   70
   dimension x,y,z NGXF=   140 NGYF=  140 NGZF=  140
   support grid    NGXF=   280 NGYF=  280 NGZF=  280
   ions per type =               8   8  23
   NGX,Y,Z   is equivalent  to a cutoff of   9.97,  9.92,  9.97 a.u.
   NGXF,Y,Z  is equivalent  to a cutoff of  19.95, 19.84, 19.95 a.u.

 SYSTEM =  CsPbBr3 cubic bulk                      
 POSCAR =  Cs8 Pb8 Br23                            

 Startparameter for this run:
   NWRITE =      2    write-flag & timer
   PREC   = accura    normal or accurate (medium, high low for compatibility)
   ISTART =      0    job   : 0-new  1-cont  2-samecut
   ICHARG =      2    charge: 1-file 2-atom 10-const
   ISPIN  =      1    spin polarized calculation?
   LNONCOLLINEAR =      F non collinear calculations
   LSORBIT =      F    spin-orbit coupling
   INIWAV =      1    electr: 0-lowe 1-rand  2-diag
   LASPH  =      T    aspherical Exc in radial PAW
   METAGGA=      F    non-selfconsistent MetaGGA calc.

 Electronic Relaxation 1
   ENCUT  =  300.0 eV  22.05 Ry    4.70 a.u.  16.48 16.57 16.48*2*pi/ulx,y,z
   ENINI  =  300.0     initial cutoff
   ENAUG  =  503.9 eV  augmentation charge cutoff
   NELM   =    200;   NELMIN=  2; NELMDL= -5     # of ELM steps 
   EDIFF  = 0.1E-05   stopping-criterion for ELM
   LREAL  =      T    real-space projection
   NLSPLINE    = F    spline interpolate recip. space projectors
   LCOMPAT=      F    compatible to vasp.4.4
   GGA_COMPAT  = T    GGA compatible to vasp.4.4-vasp.4.6
   LMAXPAW     = -100 max onsite density
   LMAXMIX     =    2 max onsite mixed and CHGCAR
   VOSKOWN=      0    Vosko Wilk Nusair interpolation
   ROPT   =   -0.00025  -0.00025  -0.00025
 Ionic relaxation
   EDIFFG = -.1E-01   stopping-criterion for IOM
   NSW    =      0    number of steps for IOM
   NBLOCK =      1;   KBLOCK =      1    inner block; outer block 
   IBRION =     -1    ionic relax: 0-MD 1-quasi-New 2-CG
   NFREE  =      1    steps in history (QN), initial steepest desc. (CG)
   ISIF   =      2    stress and relaxation
   IWAVPR =     10    prediction:  0-non 1-charg 2-wave 3-comb
   ISYM   =      0    0-nonsym 1-usesym 2-fastsym
   LCORR  =      T    Harris-Foulkes like correction to forces

   POTIM  = 0.5000    time-step for ionic-motion
   TEIN   =    0.0    initial temperature
   TEBEG  =    0.0;   TEEND  =   0.0 temperature during run
   SMASS  =  -3.00    Nose mass-parameter (am)
   estimated Nose-frequenzy (Omega)   =  0.10E-29 period in steps =****** mass=  -0.311E-26a.u.
   SCALEE = 1.0000    scale energy and forces
   NPACO  =    256;   APACO  = 16.0  distance and # of slots for P.C.
   PSTRESS=    0.0 pullay stress

  Mass of Ions in am
   POMASS = 132.90207.20 79.90
  Ionic Valenz
   ZVAL   =   9.00 14.00  7.00
  Atomic Wigner-Seitz radii
   RWIGS  =  -1.00 -1.00 -1.00
  virtual crystal weights 
   VCA    =   1.00  1.00  1.00
   NELECT =     344.0000    total number of electrons
   NUPDOWN=       0.0000    fix difference up-down

 DOS related values:
   EMIN   =  10.00;   EMAX   =-10.00  energy-range for DOS
   EFERMI =   0.00
   ISMEAR =     0;   SIGMA  =   0.01  broadening in eV -4-tet -1-fermi 0-gaus

 Electronic relaxation 2 (details)
   IALGO  =     38    algorithm
   LDIAG  =      T    sub-space diagonalisation (order eigenvalues)
   LSUBROT=      F    optimize rotation matrix (better conditioning)
   TURBO    =      0    0=normal 1=particle mesh
   IRESTART =      0    0=no restart 2=restart with 2 vectors
   NREBOOT  =      0    no. of reboots
   NMIN     =      0    reboot dimension
   EREF     =   0.00    reference energy to select bands
   IMIX   =      4    mixing-type and parameters
     AMIX     =   0.40;   BMIX     =  1.00
     AMIX_MAG =   1.60;   BMIX_MAG =  1.00
     AMIN     =   0.10
     WC   =   100.;   INIMIX=   1;  MIXPRE=   1;  MAXMIX= -45

 Intra band minimization:
   WEIMIN = 0.0000     energy-eigenvalue tresh-hold
   EBREAK =  0.12E-08  absolut break condition
   DEPER  =   0.30     relativ break condition  

   TIME   =   0.40     timestep for ELM

  volume/ion in A,a.u.               =      40.90       276.00
  Fermi-wavevector in a.u.,A,eV,Ry     =   0.981747  1.855232 13.113654  0.963826
  Thomas-Fermi vector in A             =   2.112777

 Write flags
   LWAVE        =      F    write WAVECAR
   LDOWNSAMPLE  =      F    k-point downsampling of WAVECAR
   LCHARG       =      F    write CHGCAR
   LVTOT        =      F    write LOCPOT, total local potential
   LVHAR        =      T    write LOCPOT, Hartree potential only
   LELF         =      F    write electronic localiz. function (ELF)
   LORBIT       =     10    0 simple, 1 ext, 2 COOP (PROOUT), +10 PAW based schemes


 Dipole corrections
   LMONO  =      F    monopole corrections only (constant potential shift)
   LDIPOL =      F    correct potential (dipole corrections)
   IDIPOL =      0    1-x, 2-y, 3-z, 4-all directions 
   EPSILON=  1.0000000 bulk dielectric constant

 Exchange correlation treatment:
   GGA     =    --    GGA type
   LEXCH   =     8    internal setting for exchange type
   VOSKOWN=      0    Vosko Wilk Nusair interpolation
   LHFCALC =     F    Hartree Fock is set to
   LHFONE  =     F    Hartree Fock one center treatment
   AEXX    =    0.0000 exact exchange contribution

 Linear response parameters
   LEPSILON=     F    determine dielectric tensor
   LRPA    =     F    only Hartree local field effects (RPA)
   LNABLA  =     F    use nabla operator in PAW spheres
   LVEL    =     F    velocity operator in full k-point grid
   LINTERFAST=   F  fast interpolation
   KINTER  =     0    interpolate to denser k-point grid
   CSHIFT  =0.1000    complex shift for real part using Kramers Kronig
   OMEGAMAX=  -1.0    maximum frequency
   DEG_THRESHOLD= 0.2000000E-02 threshold for treating states as degnerate
   RTIME   =   -0.100 relaxation time in fs
  (WPLASMAI=    0.000 imaginary part of plasma frequency in eV, 0.658/RTIME)
   DFIELD  = 0.0000000 0.0000000 0.0000000 field for delta impulse in time

 Orbital magnetization related:
   ORBITALMAG=     F  switch on orbital magnetization
   LCHIMAG   =     F  perturbation theory with respect to B field
   DQ        =  0.001000  dq finite difference perturbation B field
   LLRAUG    =     F  two centre corrections for induced B field



--------------------------------------------------------------------------------------------------------


 Static calculation
 charge density and potential will be updated during run
 non-spin polarized calculation
 Variant of blocked Davidson
 Davidson routine will perform the subspace rotation
 perform sub-space diagonalisation
    after iterative eigenvector-optimisation
 modified Broyden-mixing scheme, WC =      100.0
 initial mixing is a Kerker type mixing with AMIX =  0.4000 and BMIX =      1.0000
 Hartree-type preconditioning will be used
 using additional bands           36
 real space projection scheme for non local part
 use partial core corrections
 calculate Harris-corrections to forces   (improved forces if not selfconsistent)
 use gradient corrections 
 use of overlap-Matrix (Vanderbilt PP)
 Gauss-broadening in eV      SIGMA  =   0.01


--------------------------------------------------------------------------------------------------------


  energy-cutoff  :      300.00
  volume of cell :     1595.09
      direct lattice vectors                 reciprocal lattice vectors
     8.456489000  0.000000000  8.040301000     0.059126193 -0.000000000  0.062186727
     0.000000000 11.729847000  0.000000000     0.000000000  0.085252604 -0.000000000
    -8.456489000  0.000000000  8.040301000    -0.059126193  0.000000000  0.062186727

  length of vectors
    11.668703715 11.729847000 11.668703715     0.085808482  0.085252604  0.085808482



 k-points in units of 2pi/SCALE and weight: 1x1x1                                   
  -0.00000000  0.00000000  0.00000000       0.125
   0.02956310  0.00000000  0.03109336       0.125
  -0.00000000  0.04262630  0.00000000       0.125
   0.02956310  0.04262630  0.03109336       0.125
  -0.02956310  0.00000000  0.03109336       0.125
   0.00000000  0.00000000  0.06218673       0.125
  -0.02956310  0.04262630  0.03109336       0.125
   0.00000000  0.04262630  0.06218673       0.125

 k-points in reciprocal lattice and weights: 1x1x1                                   
   0.00000000  0.00000000  0.00000000       0.125
   0.50000000  0.00000000  0.00000000       0.125
   0.00000000  0.50000000  0.00000000       0.125
   0.50000000  0.50000000  0.00000000       0.125
   0.00000000  0.00000000  0.50000000       0.125
   0.50000000  0.00000000  0.50000000       0.125
   0.00000000  0.50000000  0.50000000       0.125
   0.50000000  0.50000000  0.50000000       0.125

 position of ions in fractional coordinates (direct lattice) 
   0.27138000  0.24957800  0.17681500
   0.77135700  0.25637700  0.76641200
   0.70657900  0.74868300  0.24709400
   0.21424000  0.74455000  0.78522900
   0.26281000  0.25922100  0.75691600
   0.80839900  0.24963900  0.21367600
   0.72077500  0.74941400  0.77174700
   0.25010500  0.73873400  0.29137400
   0.00763400  0.99337000  0.99937100
   0.49108000  0.05119900  0.49177900
   0.50657600  0.00231700  0.99317200
   0.03817700  0.99316500  0.50461200
   0.50720400  0.49974500  0.99412900
   0.00058600  0.49379300  0.50102700
   0.00636300  0.50471500  0.00128200
   0.49151500  0.47775700  0.49410100
   0.48689100  0.75144300  0.97367900
   0.96680700  0.75513900  0.45565300
   0.00790000  0.24925900  0.97359600
   0.35065800  0.24310100  0.47278800
   0.03873700  0.74944700  0.04737900
   0.54890300  0.72475500  0.50334800
   0.54093100  0.25034300  0.02182800
   0.01000200  0.24694300  0.55372400
   0.25428900  0.48594000  0.95689700
   0.46323900  0.51481600  0.24272300
   0.94928000  0.53644600  0.74803500
   0.54937100  0.03576500  0.74300100
   0.05687100  0.03639500  0.26026400
   0.75987800  0.97846300  0.04407500
   0.27642400  0.93531000  0.54654200
   0.25504300  0.01779600  0.94630900
   0.46387300  0.97921400  0.24739700
   0.95782900  0.95727900  0.75060000
   0.75939200  0.52122400  0.04464000
   0.23249300  0.53662800  0.55404600
   0.54008200  0.46641500  0.74642300
   0.05422300  0.46019300  0.25467200
   0.67432900  0.30785600  0.47335600

 position of ions in cartesian coordinates  (Angst):
   0.79968788  2.92751175  3.60362271
   0.04181734  3.00726298 12.36412563
   3.88562985  8.78193704  7.66781798
  -4.82856220  8.73345758  8.03603160
  -4.17840195  3.04062267  8.19890398
   5.02926851  2.92822728  8.21779064
  -0.43104416  8.79051156 12.00032613
  -0.34899084  8.66523679  4.35365415
  -8.38661303 11.65207811  8.09662331
  -0.00591109  0.60055644  7.90248220
  -4.11489372  0.02717806 12.05842534
  -3.94440245 11.64967350  4.36418694
  -4.11767591  5.86193239 12.07116922
  -4.23197381  5.79211634  4.03311951
   0.04296742  5.92022973  0.06146810
  -0.02186848  5.60401651  7.92464931
  -4.11651737  8.81431142 11.74342243
   4.32256818  8.85766493 11.43700656
  -8.16639760  2.92376993  7.89152327
  -1.03279100  2.85153754  6.62075370
  -0.07308098  8.79089864  0.69239856
   0.38523536  8.50126526  8.46041477
   4.38978881  2.93648509  4.52475175
  -4.59797911  2.89660361  4.53252672
  -5.94159682  5.70000185  9.73830001
   1.86479113  6.03871291  5.67614697
   1.70182613  6.29242950 13.64692349
  -1.63742997  0.41951798 10.39105988
  -1.71999067  0.42690778  2.54986086
   6.05318020 11.47722129  6.46402411
  -2.28424990 10.97104320  6.61689435
  -5.84568333  0.20874436  9.65923169
   1.83062691 11.48603040  5.71882489
   1.75242976 11.22873621 13.73628340
   6.04429243  6.11387777  6.46465929
  -2.71920941  6.29456434  6.32401031
  -1.74492040  5.47097659 10.34388744
  -1.69509476  5.39799348  2.48360878
   1.69952596  3.61110378  9.22773285



--------------------------------------------------------------------------------------------------------


 k-point  1 :   0.0000 0.0000 0.0000  plane waves:   18809
 k-point  2 :   0.5000 0.0000 0.0000  plane waves:   18808
 k-point  3 :   0.0000 0.5000 0.0000  plane waves:   18794
 k-point  4 :   0.5000 0.5000 0.0000  plane waves:   18804
 k-point  5 :   0.0000 0.0000 0.5000  plane waves:   18808
 k-point  6 :   0.5000 0.0000 0.5000  plane waves:   18790
 k-point  7 :   0.0000 0.5000 0.5000  plane waves:   18804
 k-point  8 :   0.5000 0.5000 0.5000  plane waves:   18800

 maximum and minimum number of plane-waves per node :      2389     2304

 maximum number of plane-waves:     18809
 maximum index in each direction: 
   IXMAX=   16   IYMAX=   16   IZMAX=   16
   IXMIN=  -16   IYMIN=  -17   IZMIN=  -16


 real space projection operators:
  total allocation   :      16719.55 KBytes
  max/ min on nodes  :       2197.66       1809.07


 parallel 3D FFT for wavefunctions:
    minimum data exchange during FFTs selected (reduces bandwidth)
 parallel 3D FFT for charge:
    minimum data exchange during FFTs selected (reduces bandwidth)


 total amount of memory used by VASP MPI-rank0    60654. kBytes
=======================================================================

   base      :      30000. kBytes
   nonlr-proj:       6489. kBytes
   fftplans  :       8423. kBytes
   grid      :       7465. kBytes
   one-center:         77. kBytes
   wavefun   :       8200. kBytes

     INWAV:  cpu time    0.0000: real time    0.0000
 Broyden mixing: mesh for mixing (old mesh)
   NGX = 33   NGY = 33   NGZ = 33
  (NGX  =140   NGY  =140   NGZ  =140)
  gives a total of  35937 points

 initial charge density was supplied:
 charge density of overlapping atoms calculated
 number of electron     345.0000000 magnetization 
 keeping initial charge density in first step


--------------------------------------------------------------------------------------------------------


 Maximum index for non-local projection operator          729
 Maximum index for augmentation-charges         2970 (set IRDMAX)


--------------------------------------------------------------------------------------------------------


 First call to EWALD:  gamma=   0.152
 Maximum number of real-space cells 3x 3x 3
 Maximum number of reciprocal cells 3x 3x 3

    FEWALD:  cpu time    0.0038: real time    0.0038


--------------------------------------- Iteration      1(   1)  ---------------------------------------


    POTLOK:  cpu time    0.2622: real time    0.2746
    SETDIJ:  cpu time    1.1936: real time    1.1937
     EDDAV:  cpu time   16.4661: real time   16.4731
       DOS:  cpu time    0.0008: real time    0.0008
    --------------------------------------------
      LOOP:  cpu time   17.9228: real time   17.9422

 eigenvalue-minimisations  :  3448
 total energy-change (2. order) : 0.1335865E+04  (-0.1105055E+05)
 number of electron     345.0000000 magnetization 
 augmentation part      345.0000000 magnetization 

 Free energy of the ion-electron system (eV)
  ---------------------------------------------------
  alpha Z        PSCENC =       872.70583573
  Ewald energy   TEWEN  =    -17845.64035340
  -Hartree energ DENC   =     -7510.75995914
  -exchange      EXHF   =         0.00000000
  -V(xc)+E(xc)   XCENC  =       907.99169012
  PAW double counting   =     21345.28103884   -22405.85761495
  entropy T*S    EENTRO =        -0.00182832
  eigenvalues    EBANDS =      -239.97236554
  atomic energy  EATOM  =     26212.11861568
  Solvation  Ediel_sol  =         0.00000000
  ---------------------------------------------------
  free energy    TOTEN  =      1335.86505902 eV

  energy without entropy =     1335.86688734  energy(sigma->0) =     1335.86597318


--------------------------------------------------------------------------------------------------------




--------------------------------------- Iteration      1(   2)  ---------------------------------------


     EDDAV:  cpu time   18.3446: real time   18.3873
       DOS:  cpu time    0.0004: real time    0.0004
    --------------------------------------------
      LOOP:  cpu time   18.3449: real time   18.3877

 eigenvalue-minimisations  :  4080
 total energy-change (2. order) :-0.2449203E+04  (-0.2366011E+04)
 number of electron     345.0000000 magnetization 
 augmentation part      345.0000000 magnetization 

 Free energy of the ion-electron system (eV)
  ---------------------------------------------------
  alpha Z        PSCENC =       872.70583573
  Ewald energy   TEWEN  =    -17845.64035340
  -Hartree energ DENC   =     -7510.75995914
  -exchange      EXHF   =         0.00000000
  -V(xc)+E(xc)   XCENC  =       907.99169012
  PAW double counting   =     21345.28103884   -22405.85761495
  entropy T*S    EENTRO =        -0.00000000
  eigenvalues    EBANDS =     -2689.17690244
  atomic energy  EATOM  =     26212.11861568
  Solvation  Ediel_sol  =         0.00000000
  ---------------------------------------------------
  free energy    TOTEN  =     -1113.33764955 eV

  energy without entropy =    -1113.33764955  energy(sigma->0) =    -1113.33764955


--------------------------------------------------------------------------------------------------------




--------------------------------------- Iteration      1(   3)  ---------------------------------------


     EDDAV:  cpu time   19.3824: real time   19.3946
       DOS:  cpu time    0.0004: real time    0.0004
    --------------------------------------------
      LOOP:  cpu time   19.3828: real time   19.3950

 eigenvalue-minimisations  :  4440
 total energy-change (2. order) :-0.3616306E+03  (-0.3596778E+03)
 number of electron     345.0000000 magnetization 
 augmentation part      345.0000000 magnetization 

 Free energy of the ion-electron system (eV)
  ---------------------------------------------------
  alpha Z        PSCENC =       872.70583573
  Ewald energy   TEWEN  =    -17845.64035340
  -Hartree energ DENC   =     -7510.75995914
  -exchange      EXHF   =         0.00000000
  -V(xc)+E(xc)   XCENC  =       907.99169012
  PAW double counting   =     21345.28103884   -22405.85761495
  entropy T*S    EENTRO =        -0.00000000
  eigenvalues    EBANDS =     -3050.80753091
  atomic energy  EATOM  =     26212.11861568
  Solvation  Ediel_sol  =         0.00000000
  ---------------------------------------------------
  free energy    TOTEN  =     -1474.96827802 eV

  energy without entropy =    -1474.96827802  energy(sigma->0) =    -1474.96827802


--------------------------------------------------------------------------------------------------------




--------------------------------------- Iteration      1(   4)  ---------------------------------------


     EDDAV:  cpu time   17.8520: real time   17.8839
       DOS:  cpu time    0.0004: real time    0.0004
    --------------------------------------------
      LOOP:  cpu time   17.8524: real time   17.8843

 eigenvalue-minimisations  :  3920
 total energy-change (2. order) :-0.1193248E+02  (-0.1189686E+02)
 number of electron     345.0000000 magnetization 
 augmentation part      345.0000000 magnetization 

 Free energy of the ion-electron system (eV)
  ---------------------------------------------------
  alpha Z        PSCENC =       872.70583573
  Ewald energy   TEWEN  =    -17845.64035340
  -Hartree energ DENC   =     -7510.75995914
  -exchange      EXHF   =         0.00000000
  -V(xc)+E(xc)   XCENC  =       907.99169012
  PAW double counting   =     21345.28103884   -22405.85761495
  entropy T*S    EENTRO =        -0.00000000
  eigenvalues    EBANDS =     -3062.74001248
  atomic energy  EATOM  =     26212.11861568
  Solvation  Ediel_sol  =         0.00000000
  ---------------------------------------------------
  free energy    TOTEN  =     -1486.90075960 eV

  energy without entropy =    -1486.90075960  energy(sigma->0) =    -1486.90075960


--------------------------------------------------------------------------------------------------------




--------------------------------------- Iteration      1(   5)  ---------------------------------------


     EDDAV:  cpu time   19.2726: real time   19.3079
       DOS:  cpu time    0.0004: real time    0.0004
    CHARGE:  cpu time    2.7028: real time    2.7029
    MIXING:  cpu time    0.0015: real time    0.0015
    --------------------------------------------
      LOOP:  cpu time   21.9773: real time   22.0127

 eigenvalue-minimisations  :  4416
 total energy-change (2. order) :-0.5402876E+00  (-0.5400220E+00)
 number of electron     343.9999998 magnetization 
 augmentation part       -5.0346339 magnetization 

 Broyden mixing:
  rms(total) = 0.10112E+01    rms(broyden)= 0.10105E+01
  rms(prec ) = 0.14099E+01
  weight for this iteration     100.00

 Free energy of the ion-electron system (eV)
  ---------------------------------------------------
  alpha Z        PSCENC =       872.70583573
  Ewald energy   TEWEN  =    -17845.64035340
  -Hartree energ DENC   =     -7510.75995914
  -exchange      EXHF   =         0.00000000
  -V(xc)+E(xc)   XCENC  =       907.99169012
  PAW double counting   =     21345.28103884   -22405.85761495
  entropy T*S    EENTRO =        -0.00000000
  eigenvalues    EBANDS =     -3063.28030011
  atomic energy  EATOM  =     26212.11861568
  Solvation  Ediel_sol  =         0.00000000
  ---------------------------------------------------
  free energy    TOTEN  =     -1487.44104722 eV

  energy without entropy =    -1487.44104722  energy(sigma->0) =    -1487.44104722


--------------------------------------------------------------------------------------------------------




--------------------------------------- Iteration      1(   6)  ---------------------------------------


    POTLOK:  cpu time    0.2829: real time    0.3100
    SETDIJ:  cpu time    1.1956: real time    1.1956
     EDDAV:  cpu time   19.0209: real time   19.0220
       DOS:  cpu time    0.0004: real time    0.0004
    CHARGE:  cpu time    2.7039: real time    2.7040
    MIXING:  cpu time    0.0016: real time    0.0016
    --------------------------------------------
      LOOP:  cpu time   23.2053: real time   23.2337

 eigenvalue-minimisations  :  4320
 total energy-change (2. order) : 0.7788351E+02  (-0.2355813E+01)
 number of electron     343.9999998 magnetization 
 augmentation part       -3.6684373 magnetization 

 Broyden mixing:
  rms(total) = 0.72182E+00    rms(broyden)= 0.72173E+00
  rms(prec ) = 0.90844E+00
  weight for this iteration     100.00

 eigenvalues of (default mixing * dielectric matrix)
  average eigenvalue GAMMA=   1.1865
  1.1865

 Free energy of the ion-electron system (eV)
  ---------------------------------------------------
  alpha Z        PSCENC =       872.70583573
  Ewald energy   TEWEN  =    -17845.64035340
  -Hartree energ DENC   =     -7490.74802871
  -exchange      EXHF   =         0.00000000
  -V(xc)+E(xc)   XCENC  =       936.01796720
  PAW double counting   =     21618.86507874   -22677.44970821
  entropy T*S    EENTRO =        -0.00000000
  eigenvalues    EBANDS =     -3035.42694902
  atomic energy  EATOM  =     26212.11861568
  Solvation  Ediel_sol  =         0.00000000
  ---------------------------------------------------
  free energy    TOTEN  =     -1409.55754199 eV

  energy without entropy =    -1409.55754199  energy(sigma->0) =    -1409.55754199


--------------------------------------------------------------------------------------------------------




--------------------------------------- Iteration      1(   7)  ---------------------------------------


    POTLOK:  cpu time    0.2984: real time    0.3112
    SETDIJ:  cpu time    1.1951: real time    1.1952
     EDDAV:  cpu time   18.1912: real time   18.1922
       DOS:  cpu time    0.0004: real time    0.0004
    CHARGE:  cpu time    2.6959: real time    2.6959
    MIXING:  cpu time    0.0016: real time    0.0016
    --------------------------------------------
      LOOP:  cpu time   22.3826: real time   22.3963

 eigenvalue-minimisations  :  4040
 total energy-change (2. order) : 0.5068870E+00  (-0.9301418E+00)
 number of electron     343.9999998 magnetization 
 augmentation part       -3.0618917 magnetization 

 Broyden mixing:
  rms(total) = 0.37921E+00    rms(broyden)= 0.37919E+00
  rms(prec ) = 0.42303E+00
  weight for this iteration     100.00

 eigenvalues of (default mixing * dielectric matrix)
  average eigenvalue GAMMA=   1.2903
  1.2903  1.2903

 Free energy of the ion-electron system (eV)
  ---------------------------------------------------
  alpha Z        PSCENC =       872.70583573
  Ewald energy   TEWEN  =    -17845.64035340
  -Hartree energ DENC   =     -7532.62920622
  -exchange      EXHF   =         0.00000000
  -V(xc)+E(xc)   XCENC  =       941.00589467
  PAW double counting   =     22233.72507818   -23290.25590267
  entropy T*S    EENTRO =        -0.00000000
  eigenvalues    EBANDS =     -3000.08061695
  atomic energy  EATOM  =     26212.11861568
  Solvation  Ediel_sol  =         0.00000000
  ---------------------------------------------------
  free energy    TOTEN  =     -1409.05065498 eV

  energy without entropy =    -1409.05065498  energy(sigma->0) =    -1409.05065498


--------------------------------------------------------------------------------------------------------




--------------------------------------- Iteration      1(   8)  ---------------------------------------


    POTLOK:  cpu time    0.2636: real time    0.3120
    SETDIJ:  cpu time    1.1946: real time    1.1946
     EDDAV:  cpu time   17.9460: real time   17.9467
       DOS:  cpu time    0.0004: real time    0.0004
    CHARGE:  cpu time    2.6959: real time    2.6961
    MIXING:  cpu time    0.0015: real time    0.0015
    --------------------------------------------
      LOOP:  cpu time   22.1020: real time   22.1514

 eigenvalue-minimisations  :  3960
 total energy-change (2. order) :-0.1777725E+00  (-0.4916722E-01)
 number of electron     343.9999998 magnetization 
 augmentation part       -3.1635194 magnetization 

 Broyden mixing:
  rms(total) = 0.22436E+00    rms(broyden)= 0.22436E+00
  rms(prec ) = 0.25508E+00
  weight for this iteration     100.00

 eigenvalues of (default mixing * dielectric matrix)
  average eigenvalue GAMMA=   1.6833
  1.2043  1.2043  2.6415

 Free energy of the ion-electron system (eV)
  ---------------------------------------------------
  alpha Z        PSCENC =       872.70583573
  Ewald energy   TEWEN  =    -17845.64035340
  -Hartree energ DENC   =     -7538.22529854
  -exchange      EXHF   =         0.00000000
  -V(xc)+E(xc)   XCENC  =       941.61228177
  PAW double counting   =     22454.36955464   -23511.25837735
  entropy T*S    EENTRO =        -0.00000000
  eigenvalues    EBANDS =     -2994.91068602
  atomic energy  EATOM  =     26212.11861568
  Solvation  Ediel_sol  =         0.00000000
  ---------------------------------------------------
  free energy    TOTEN  =     -1409.22842748 eV

  energy without entropy =    -1409.22842748  energy(sigma->0) =    -1409.22842748


--------------------------------------------------------------------------------------------------------




--------------------------------------- Iteration      1(   9)  ---------------------------------------


    POTLOK:  cpu time    0.2944: real time    0.3130
    SETDIJ:  cpu time    1.1940: real time    1.1940
     EDDAV:  cpu time   17.2864: real time   17.2871
       DOS:  cpu time    0.0004: real time    0.0004
    CHARGE:  cpu time    2.6964: real time    2.6967
    MIXING:  cpu time    0.0018: real time    0.0018
    --------------------------------------------
      LOOP:  cpu time   21.4735: real time   21.4931

 eigenvalue-minimisations  :  3720
 total energy-change (2. order) :-0.6628358E-01  (-0.1949299E-01)
 number of electron     343.9999998 magnetization 
 augmentation part       -3.1972743 magnetization 

 Broyden mixing:
  rms(total) = 0.47157E-01    rms(broyden)= 0.47153E-01
  rms(prec ) = 0.56887E-01
  weight for this iteration     100.00

 eigenvalues of (default mixing * dielectric matrix)
  average eigenvalue GAMMA=   1.4618
  2.5365  1.2364  1.2364  0.8380

 Free energy of the ion-electron system (eV)
  ---------------------------------------------------
  alpha Z        PSCENC =       872.70583573
  Ewald energy   TEWEN  =    -17845.64035340
  -Hartree energ DENC   =     -7545.86855292
  -exchange      EXHF   =         0.00000000
  -V(xc)+E(xc)   XCENC  =       943.56868377
  PAW double counting   =     22789.91017560   -23847.66759212
  entropy T*S    EENTRO =        -0.00000000
  eigenvalues    EBANDS =     -2988.42152340
  atomic energy  EATOM  =     26212.11861568
  Solvation  Ediel_sol  =         0.00000000
  ---------------------------------------------------
  free energy    TOTEN  =     -1409.29471105 eV

  energy without entropy =    -1409.29471105  energy(sigma->0) =    -1409.29471105


--------------------------------------------------------------------------------------------------------




--------------------------------------- Iteration      1(  10)  ---------------------------------------


    POTLOK:  cpu time    0.3092: real time    0.3175
    SETDIJ:  cpu time    1.1943: real time    1.1944
     EDDAV:  cpu time   19.9496: real time   19.9505
       DOS:  cpu time    0.0005: real time    0.0005
    CHARGE:  cpu time    2.6993: real time    2.6995
    MIXING:  cpu time    0.0016: real time    0.0016
    --------------------------------------------
      LOOP:  cpu time   24.1545: real time   24.1638

 eigenvalue-minimisations  :  4656
 total energy-change (2. order) :-0.4103954E-02  (-0.2466517E-02)
 number of electron     343.9999998 magnetization 
 augmentation part       -3.1857167 magnetization 

 Broyden mixing:
  rms(total) = 0.33614E-01    rms(broyden)= 0.33611E-01
  rms(prec ) = 0.42434E-01
  weight for this iteration     100.00

 eigenvalues of (default mixing * dielectric matrix)
  average eigenvalue GAMMA=   1.2998
  2.4389  1.2942  1.2942  0.7358  0.7358

 Free energy of the ion-electron system (eV)
  ---------------------------------------------------
  alpha Z        PSCENC =       872.70583573
  Ewald energy   TEWEN  =    -17845.64035340
  -Hartree energ DENC   =     -7544.16589632
  -exchange      EXHF   =         0.00000000
  -V(xc)+E(xc)   XCENC  =       943.42124108
  PAW double counting   =     22762.53440643   -23820.35230997
  entropy T*S    EENTRO =        -0.00000000
  eigenvalues    EBANDS =     -2989.92035424
  atomic energy  EATOM  =     26212.11861568
  Solvation  Ediel_sol  =         0.00000000
  ---------------------------------------------------
  free energy    TOTEN  =     -1409.29881501 eV

  energy without entropy =    -1409.29881501  energy(sigma->0) =    -1409.29881501


--------------------------------------------------------------------------------------------------------




--------------------------------------- Iteration      1(  11)  ---------------------------------------


    POTLOK:  cpu time    0.2716: real time    0.3098
    SETDIJ:  cpu time    1.1932: real time    1.1933
     EDDAV:  cpu time   17.3549: real time   17.3558
       DOS:  cpu time    0.0005: real time    0.0005
    CHARGE:  cpu time    2.6999: real time    2.7000
    MIXING:  cpu time    0.0016: real time    0.0016
    --------------------------------------------
      LOOP:  cpu time   21.5218: real time   21.5610

 eigenvalue-minimisations  :  3744
 total energy-change (2. order) :-0.2034429E-02  (-0.2886720E-03)
 number of electron     343.9999998 magnetization 
 augmentation part       -3.1857793 magnetization 

 Broyden mixing:
  rms(total) = 0.16448E-01    rms(broyden)= 0.16448E-01
  rms(prec ) = 0.24583E-01
  weight for this iteration     100.00

 eigenvalues of (default mixing * dielectric matrix)
  average eigenvalue GAMMA=   1.5947
  2.7354  2.7354  1.1927  1.1927  0.8559  0.8559

 Free energy of the ion-electron system (eV)
  ---------------------------------------------------
  alpha Z        PSCENC =       872.70583573
  Ewald energy   TEWEN  =    -17845.64035340
  -Hartree energ DENC   =     -7542.88362953
  -exchange      EXHF   =         0.00000000
  -V(xc)+E(xc)   XCENC  =       943.35526489
  PAW double counting   =     22748.47424027   -23806.46982268
  entropy T*S    EENTRO =        -0.00000000
  eigenvalues    EBANDS =     -2990.96100040
  atomic energy  EATOM  =     26212.11861568
  Solvation  Ediel_sol  =         0.00000000
  ---------------------------------------------------
  free energy    TOTEN  =     -1409.30084944 eV

  energy without entropy =    -1409.30084944  energy(sigma->0) =    -1409.30084944


--------------------------------------------------------------------------------------------------------




--------------------------------------- Iteration      1(  12)  ---------------------------------------


    POTLOK:  cpu time    0.2892: real time    0.3144
    SETDIJ:  cpu time    1.1940: real time    1.1941
     EDDAV:  cpu time   16.9021: real time   16.9028
       DOS:  cpu time    0.0007: real time    0.0007
    CHARGE:  cpu time    2.6966: real time    2.6967
    MIXING:  cpu time    0.0016: real time    0.0016
    --------------------------------------------
      LOOP:  cpu time   21.0843: real time   21.1102

 eigenvalue-minimisations  :  3592
 total energy-change (2. order) :-0.3587403E-02  (-0.5951631E-03)
 number of electron     343.9999998 magnetization 
 augmentation part       -3.1887793 magnetization 

 Broyden mixing:
  rms(total) = 0.10354E-01    rms(broyden)= 0.10352E-01
  rms(prec ) = 0.13504E-01
  weight for this iteration     100.00

 eigenvalues of (default mixing * dielectric matrix)
  average eigenvalue GAMMA=   1.5832
  2.8198  2.8198  1.3002  1.3002  0.8956  0.9734  0.9734

 Free energy of the ion-electron system (eV)
  ---------------------------------------------------
  alpha Z        PSCENC =       872.70583573
  Ewald energy   TEWEN  =    -17845.64035340
  -Hartree energ DENC   =     -7542.04472703
  -exchange      EXHF   =         0.00000000
  -V(xc)+E(xc)   XCENC  =       943.37126689
  PAW double counting   =     22741.33300813   -23799.62477844
  entropy T*S    EENTRO =        -0.00000000
  eigenvalues    EBANDS =     -2991.52330441
  atomic energy  EATOM  =     26212.11861568
  Solvation  Ediel_sol  =         0.00000000
  ---------------------------------------------------
  free energy    TOTEN  =     -1409.30443684 eV

  energy without entropy =    -1409.30443684  energy(sigma->0) =    -1409.30443684


--------------------------------------------------------------------------------------------------------




--------------------------------------- Iteration      1(  13)  ---------------------------------------


    POTLOK:  cpu time    0.2804: real time    0.3048
    SETDIJ:  cpu time    1.1950: real time    1.1950
     EDDAV:  cpu time   19.0171: real time   19.0179
       DOS:  cpu time    0.0004: real time    0.0004
    CHARGE:  cpu time    2.6968: real time    2.6969
    MIXING:  cpu time    0.0020: real time    0.0020
    --------------------------------------------
      LOOP:  cpu time   23.1915: real time   23.2170

 eigenvalue-minimisations  :  4320
 total energy-change (2. order) : 0.1753235E-03  (-0.1288293E-03)
 number of electron     343.9999998 magnetization 
 augmentation part       -3.1891165 magnetization 

 Broyden mixing:
  rms(total) = 0.52664E-02    rms(broyden)= 0.52659E-02
  rms(prec ) = 0.63823E-02
  weight for this iteration     100.00

 eigenvalues of (default mixing * dielectric matrix)
  average eigenvalue GAMMA=   1.5572
  3.2009  2.5216  1.3626  1.3626  1.1296  1.1296  0.9389  0.8119

 Free energy of the ion-electron system (eV)
  ---------------------------------------------------
  alpha Z        PSCENC =       872.70583573
  Ewald energy   TEWEN  =    -17845.64035340
  -Hartree energ DENC   =     -7543.04361341
  -exchange      EXHF   =         0.00000000
  -V(xc)+E(xc)   XCENC  =       943.43481454
  PAW double counting   =     22740.52230296   -23798.76791535
  entropy T*S    EENTRO =        -0.00000000
  eigenvalues    EBANDS =     -2990.63394826
  atomic energy  EATOM  =     26212.11861568
  Solvation  Ediel_sol  =         0.00000000
  ---------------------------------------------------
  free energy    TOTEN  =     -1409.30426152 eV

  energy without entropy =    -1409.30426152  energy(sigma->0) =    -1409.30426152


--------------------------------------------------------------------------------------------------------




--------------------------------------- Iteration      1(  14)  ---------------------------------------


    POTLOK:  cpu time    0.2486: real time    0.2906
    SETDIJ:  cpu time    1.1936: real time    1.1937
     EDDAV:  cpu time   17.8450: real time   17.8457
       DOS:  cpu time    0.0004: real time    0.0004
    CHARGE:  cpu time    2.6936: real time    2.6937
    MIXING:  cpu time    0.0017: real time    0.0018
    --------------------------------------------
      LOOP:  cpu time   21.9830: real time   22.0258

 eigenvalue-minimisations  :  3920
 total energy-change (2. order) : 0.1783184E-04  (-0.4162451E-04)
 number of electron     343.9999998 magnetization 
 augmentation part       -3.1880949 magnetization 

 Broyden mixing:
  rms(total) = 0.24060E-02    rms(broyden)= 0.24050E-02
  rms(prec ) = 0.32857E-02
  weight for this iteration     100.00

 eigenvalues of (default mixing * dielectric matrix)
  average eigenvalue GAMMA=   1.5548
  3.1987  2.2103  2.2103  1.1412  1.1412  1.1471  1.1471  0.8986  0.8986

 Free energy of the ion-electron system (eV)
  ---------------------------------------------------
  alpha Z        PSCENC =       872.70583573
  Ewald energy   TEWEN  =    -17845.64035340
  -Hartree energ DENC   =     -7543.38483302
  -exchange      EXHF   =         0.00000000
  -V(xc)+E(xc)   XCENC  =       943.45496881
  PAW double counting   =     22741.81317577   -23800.03634420
  entropy T*S    EENTRO =        -0.00000000
  eigenvalues    EBANDS =     -2990.33530905
  atomic energy  EATOM  =     26212.11861568
  Solvation  Ediel_sol  =         0.00000000
  ---------------------------------------------------
  free energy    TOTEN  =     -1409.30424369 eV

  energy without entropy =    -1409.30424369  energy(sigma->0) =    -1409.30424369


--------------------------------------------------------------------------------------------------------




--------------------------------------- Iteration      1(  15)  ---------------------------------------


    POTLOK:  cpu time    0.2596: real time    0.3205
    SETDIJ:  cpu time    1.1909: real time    1.1910
     EDDAV:  cpu time   18.0810: real time   18.0817
       DOS:  cpu time    0.0006: real time    0.0006
    CHARGE:  cpu time    2.6986: real time    2.6986
    MIXING:  cpu time    0.0018: real time    0.0018
    --------------------------------------------
      LOOP:  cpu time   22.2326: real time   22.2943

 eigenvalue-minimisations  :  4000
 total energy-change (2. order) :-0.9629677E-05  (-0.3646738E-05)
 number of electron     343.9999998 magnetization 
 augmentation part       -3.1882921 magnetization 

 Broyden mixing:
  rms(total) = 0.13963E-02    rms(broyden)= 0.13951E-02
  rms(prec ) = 0.20108E-02
  weight for this iteration     100.00

 eigenvalues of (default mixing * dielectric matrix)
  average eigenvalue GAMMA=   1.6292
  3.6412  2.4403  2.4403  1.4073  1.4073  1.1444  1.1444  0.9877  0.8399  0.8399

 Free energy of the ion-electron system (eV)
  ---------------------------------------------------
  alpha Z        PSCENC =       872.70583573
  Ewald energy   TEWEN  =    -17845.64035340
  -Hartree energ DENC   =     -7543.53508426
  -exchange      EXHF   =         0.00000000
  -V(xc)+E(xc)   XCENC  =       943.45838656
  PAW double counting   =     22742.21878239   -23800.43324872
  entropy T*S    EENTRO =        -0.00000000
  eigenvalues    EBANDS =     -2990.19718730
  atomic energy  EATOM  =     26212.11861568
  Solvation  Ediel_sol  =         0.00000000
  ---------------------------------------------------
  free energy    TOTEN  =     -1409.30425332 eV

  energy without entropy =    -1409.30425332  energy(sigma->0) =    -1409.30425332


--------------------------------------------------------------------------------------------------------




--------------------------------------- Iteration      1(  16)  ---------------------------------------


    POTLOK:  cpu time    0.3032: real time    0.3156
    SETDIJ:  cpu time    1.1946: real time    1.1947
     EDDAV:  cpu time   16.9061: real time   16.9067
       DOS:  cpu time    0.0004: real time    0.0004
    CHARGE:  cpu time    2.6946: real time    2.6947
    MIXING:  cpu time    0.0018: real time    0.0018
    --------------------------------------------
      LOOP:  cpu time   21.1008: real time   21.1139

 eigenvalue-minimisations  :  3584
 total energy-change (2. order) :-0.6950095E-04  (-0.4576013E-05)
 number of electron     343.9999998 magnetization 
 augmentation part       -3.1879286 magnetization 

 Broyden mixing:
  rms(total) = 0.64076E-03    rms(broyden)= 0.63830E-03
  rms(prec ) = 0.78928E-03
  weight for this iteration     100.00

 eigenvalues of (default mixing * dielectric matrix)
  average eigenvalue GAMMA=   1.6801
  4.1713  2.7493  2.4310  1.8898  1.1158  1.1158  1.1345  1.1345  0.8443  0.9476
  0.9476

 Free energy of the ion-electron system (eV)
  ---------------------------------------------------
  alpha Z        PSCENC =       872.70583573
  Ewald energy   TEWEN  =    -17845.64035340
  -Hartree energ DENC   =     -7543.58569745
  -exchange      EXHF   =         0.00000000
  -V(xc)+E(xc)   XCENC  =       943.45131076
  PAW double counting   =     22741.56054436   -23799.77113920
  entropy T*S    EENTRO =        -0.00000000
  eigenvalues    EBANDS =     -2990.14343930
  atomic energy  EATOM  =     26212.11861568
  Solvation  Ediel_sol  =         0.00000000
  ---------------------------------------------------
  free energy    TOTEN  =     -1409.30432282 eV

  energy without entropy =    -1409.30432282  energy(sigma->0) =    -1409.30432282


--------------------------------------------------------------------------------------------------------




--------------------------------------- Iteration      1(  17)  ---------------------------------------


    POTLOK:  cpu time    0.2564: real time    0.2951
    SETDIJ:  cpu time    1.1960: real time    1.1961
     EDDAV:  cpu time   17.4698: real time   17.4704
       DOS:  cpu time    0.0008: real time    0.0008
    CHARGE:  cpu time    2.7026: real time    2.7027
    MIXING:  cpu time    0.0023: real time    0.0023
    --------------------------------------------
      LOOP:  cpu time   21.6279: real time   21.6674

 eigenvalue-minimisations  :  3768
 total energy-change (2. order) : 0.3476360E-05  (-0.7864068E-06)
 number of electron     343.9999998 magnetization 
 augmentation part       -3.1878271 magnetization 

 Broyden mixing:
  rms(total) = 0.41819E-03    rms(broyden)= 0.41444E-03
  rms(prec ) = 0.47228E-03
  weight for this iteration     100.00

 eigenvalues of (default mixing * dielectric matrix)
  average eigenvalue GAMMA=   1.6278
  4.2421  2.8816  2.1899  2.1899  1.1776  1.1776  1.1501  1.1501  0.9448  0.9448
  0.7897  0.6952

 Free energy of the ion-electron system (eV)
  ---------------------------------------------------
  alpha Z        PSCENC =       872.70583573
  Ewald energy   TEWEN  =    -17845.64035340
  -Hartree energ DENC   =     -7543.59438695
  -exchange      EXHF   =         0.00000000
  -V(xc)+E(xc)   XCENC  =       943.44990597
  PAW double counting   =     22741.73540159   -23799.94317339
  entropy T*S    EENTRO =        -0.00000000
  eigenvalues    EBANDS =     -2990.13616457
  atomic energy  EATOM  =     26212.11861568
  Solvation  Ediel_sol  =         0.00000000
  ---------------------------------------------------
  free energy    TOTEN  =     -1409.30431934 eV

  energy without entropy =    -1409.30431934  energy(sigma->0) =    -1409.30431934


--------------------------------------------------------------------------------------------------------




--------------------------------------- Iteration      1(  18)  ---------------------------------------


    POTLOK:  cpu time    0.3109: real time    0.3126
    SETDIJ:  cpu time    1.1927: real time    1.1928
     EDDAV:  cpu time   14.0225: real time   14.0231
       DOS:  cpu time    0.0004: real time    0.0004
    CHARGE:  cpu time    2.7019: real time    2.7019
    MIXING:  cpu time    0.0019: real time    0.0019
    --------------------------------------------
      LOOP:  cpu time   18.2302: real time   18.2327

 eigenvalue-minimisations  :  2552
 total energy-change (2. order) : 0.2213979E-05  (-0.1502604E-06)
 number of electron     343.9999998 magnetization 
 augmentation part       -3.1878940 magnetization 

 Broyden mixing:
  rms(total) = 0.21445E-03    rms(broyden)= 0.20708E-03
  rms(prec ) = 0.24562E-03
  weight for this iteration     100.00

 eigenvalues of (default mixing * dielectric matrix)
  average eigenvalue GAMMA=   1.6671
  4.6348  3.0156  2.3345  2.0696  1.3138  1.3138  1.0436  1.0436  1.0907  1.0907
  0.9541  0.9541  0.8136

 Free energy of the ion-electron system (eV)
  ---------------------------------------------------
  alpha Z        PSCENC =       872.70583573
  Ewald energy   TEWEN  =    -17845.64035340
  -Hartree energ DENC   =     -7543.59278347
  -exchange      EXHF   =         0.00000000
  -V(xc)+E(xc)   XCENC  =       943.44951108
  PAW double counting   =     22741.78264700   -23799.99006002
  entropy T*S    EENTRO =        -0.00000000
  eigenvalues    EBANDS =     -2990.13772973
  atomic energy  EATOM  =     26212.11861568
  Solvation  Ediel_sol  =         0.00000000
  ---------------------------------------------------
  free energy    TOTEN  =     -1409.30431713 eV

  energy without entropy =    -1409.30431713  energy(sigma->0) =    -1409.30431713


--------------------------------------------------------------------------------------------------------




--------------------------------------- Iteration      1(  19)  ---------------------------------------


    POTLOK:  cpu time    0.2768: real time    0.3170
    SETDIJ:  cpu time    1.1948: real time    1.1949
     EDDAV:  cpu time   13.6383: real time   13.6388
       DOS:  cpu time    0.0004: real time    0.0004
    CHARGE:  cpu time    2.6988: real time    2.6989
    MIXING:  cpu time    0.0020: real time    0.0020
    --------------------------------------------
      LOOP:  cpu time   17.8111: real time   17.8520

 eigenvalue-minimisations  :  2424
 total energy-change (2. order) : 0.5474330E-05  (-0.1777770E-06)
 number of electron     343.9999998 magnetization 
 augmentation part       -3.1879038 magnetization 

 Broyden mixing:
  rms(total) = 0.18752E-03    rms(broyden)= 0.17904E-03
  rms(prec ) = 0.19405E-03
  weight for this iteration     100.00

 eigenvalues of (default mixing * dielectric matrix)
  average eigenvalue GAMMA=   1.5755
  4.6587  3.0205  2.3548  2.0330  1.3357  1.3357  1.0711  1.0711  1.0822  1.0822
  0.9588  0.9588  0.8098  0.2849

 Free energy of the ion-electron system (eV)
  ---------------------------------------------------
  alpha Z        PSCENC =       872.70583573
  Ewald energy   TEWEN  =    -17845.64035340
  -Hartree energ DENC   =     -7543.60470694
  -exchange      EXHF   =         0.00000000
  -V(xc)+E(xc)   XCENC  =       943.45003145
  PAW double counting   =     22741.85160795   -23800.06094157
  entropy T*S    EENTRO =        -0.00000000
  eigenvalues    EBANDS =     -2990.12440055
  atomic energy  EATOM  =     26212.11861568
  Solvation  Ediel_sol  =         0.00000000
  ---------------------------------------------------
  free energy    TOTEN  =     -1409.30431165 eV

  energy without entropy =    -1409.30431165  energy(sigma->0) =    -1409.30431165


--------------------------------------------------------------------------------------------------------




--------------------------------------- Iteration      1(  20)  ---------------------------------------


    POTLOK:  cpu time    0.2673: real time    0.3171
    SETDIJ:  cpu time    1.1945: real time    1.1946
     EDDAV:  cpu time   13.1767: real time   13.1772
       DOS:  cpu time    0.0008: real time    0.0008
    CHARGE:  cpu time    2.7006: real time    2.7007
    MIXING:  cpu time    0.0021: real time    0.0021
    --------------------------------------------
      LOOP:  cpu time   17.3420: real time   17.3926

 eigenvalue-minimisations  :  2256
 total energy-change (2. order) : 0.1064524E-05  (-0.1499310E-06)
 number of electron     343.9999998 magnetization 
 augmentation part       -3.1878861 magnetization 

 Broyden mixing:
  rms(total) = 0.11795E-03    rms(broyden)= 0.10396E-03
  rms(prec ) = 0.11859E-03
  weight for this iteration     100.00
  WARNING: grid for Broyden might be to small

 eigenvalues of (default mixing * dielectric matrix)
  average eigenvalue GAMMA=   1.5905
  4.8041  3.0767  2.2728  2.2728  1.8182  1.2037  1.2037  1.1219  1.1219  1.1069
  0.9497  0.9497  0.8278  0.8278  0.2998

 Free energy of the ion-electron system (eV)
  ---------------------------------------------------
  alpha Z        PSCENC =       872.70583573
  Ewald energy   TEWEN  =    -17845.64035340
  -Hartree energ DENC   =     -7543.60596812
  -exchange      EXHF   =         0.00000000
  -V(xc)+E(xc)   XCENC  =       943.45006031
  PAW double counting   =     22741.84806207   -23800.05485520
  entropy T*S    EENTRO =        -0.00000000
  eigenvalues    EBANDS =     -2990.12570767
  atomic energy  EATOM  =     26212.11861568
  Solvation  Ediel_sol  =         0.00000000
  ---------------------------------------------------
  free energy    TOTEN  =     -1409.30431059 eV

  energy without entropy =    -1409.30431059  energy(sigma->0) =    -1409.30431059


--------------------------------------------------------------------------------------------------------




--------------------------------------- Iteration      1(  21)  ---------------------------------------


    POTLOK:  cpu time    0.2836: real time    0.3102
    SETDIJ:  cpu time    1.1953: real time    1.1954
     EDDAV:  cpu time   12.5272: real time   12.5278
       DOS:  cpu time    0.0006: real time    0.0006
    CHARGE:  cpu time    2.6994: real time    2.6995
    MIXING:  cpu time    0.0022: real time    0.0022
    --------------------------------------------
      LOOP:  cpu time   16.7083: real time   16.7356

 eigenvalue-minimisations  :  2032
 total energy-change (2. order) : 0.1093834E-05  (-0.1354980E-07)
 number of electron     343.9999998 magnetization 
 augmentation part       -3.1879049 magnetization 

 Broyden mixing:
  rms(total) = 0.96780E-04    rms(broyden)= 0.79139E-04
  rms(prec ) = 0.88622E-04
  weight for this iteration     100.00
  WARNING: grid for Broyden might be to small

 eigenvalues of (default mixing * dielectric matrix)
  average eigenvalue GAMMA=   1.5969
  4.8451  3.1289  2.4468  2.4468  1.8038  1.3025  1.3025  1.1457  1.1457  1.0729
  1.0729  0.8846  0.8846  0.9508  0.8030  0.3140

 Free energy of the ion-electron system (eV)
  ---------------------------------------------------
  alpha Z        PSCENC =       872.70583573
  Ewald energy   TEWEN  =    -17845.64035340
  -Hartree energ DENC   =     -7543.60810175
  -exchange      EXHF   =         0.00000000
  -V(xc)+E(xc)   XCENC  =       943.45013630
  PAW double counting   =     22741.85016628   -23800.05668135
  entropy T*S    EENTRO =        -0.00000000
  eigenvalues    EBANDS =     -2990.12392699
  atomic energy  EATOM  =     26212.11861568
  Solvation  Ediel_sol  =         0.00000000
  ---------------------------------------------------
  free energy    TOTEN  =     -1409.30430949 eV

  energy without entropy =    -1409.30430949  energy(sigma->0) =    -1409.30430949


--------------------------------------------------------------------------------------------------------




--------------------------------------- Iteration      1(  22)  ---------------------------------------


    POTLOK:  cpu time    0.2974: real time    0.3072
    SETDIJ:  cpu time    1.1956: real time    1.1956
     EDDAV:  cpu time   12.1811: real time   12.1817
       DOS:  cpu time    0.0004: real time    0.0004
    --------------------------------------------
      LOOP:  cpu time   13.6745: real time   13.6849

 eigenvalue-minimisations  :  1912
 total energy-change (2. order) :-0.5282063E-06  (-0.4568518E-08)
 number of electron     343.9999998 magnetization 
 augmentation part       -3.1879049 magnetization 

 Free energy of the ion-electron system (eV)
  ---------------------------------------------------
  alpha Z        PSCENC =       872.70583573
  Ewald energy   TEWEN  =    -17845.64035340
  -Hartree energ DENC   =     -7543.60732700
  -exchange      EXHF   =         0.00000000
  -V(xc)+E(xc)   XCENC  =       943.45015685
  PAW double counting   =     22741.86142152   -23800.06799064
  entropy T*S    EENTRO =        -0.00000000
  eigenvalues    EBANDS =     -2990.12466877
  atomic energy  EATOM  =     26212.11861568
  Solvation  Ediel_sol  =         0.00000000
  ---------------------------------------------------
  free energy    TOTEN  =     -1409.30431002 eV

  energy without entropy =    -1409.30431002  energy(sigma->0) =    -1409.30431002


--------------------------------------------------------------------------------------------------------




 average (electrostatic) potential at core
  the test charge radii are     1.1312  1.1541  1.0178
  (the norm of the test charge is              1.0000)
       1 -55.0650       2 -55.0963       3 -55.3223       4 -55.2024       5 -55.2255
       6 -55.3122       7 -55.2058       8 -55.2236       9-101.6929      10-102.0588
      11-101.6646      12-101.9717      13-101.5795      14-101.8358      15-101.6632
      16-101.5952      17 -69.0528      18 -68.9717      19 -69.0822      20 -69.2516
      21 -69.0941      22 -68.4929      23 -69.0677      24 -68.9684      25 -69.0907
      26 -68.9414      27 -68.9980      28 -69.0514      29 -69.0479      30 -69.0954
      31 -69.5931      32 -69.0748      33 -69.0609      34 -69.0240      35 -69.1020
      36 -69.2257      37 -68.9456      38 -68.9847      39 -68.7194



 E-fermi :   0.4409     XC(G=0):  -7.9553     alpha+bet : -6.9586


 k-point     1 :       0.0000    0.0000    0.0000
  band No.  band energies     occupation 
      1     -20.8525      2.00000
      2     -20.8481      2.00000
      3     -20.7654      2.00000
      4     -20.7463      2.00000
      5     -20.7402      2.00000
      6     -20.7338      2.00000
      7     -20.6355      2.00000
      8     -20.6135      2.00000
      9     -16.8283      2.00000
     10     -16.7839      2.00000
     11     -16.7375      2.00000
     12     -16.7216      2.00000
     13     -16.7092      2.00000
     14     -16.6963      2.00000
     15     -16.6776      2.00000
     16     -16.6489      2.00000
     17     -16.6397      2.00000
     18     -16.6107      2.00000
     19     -16.5863      2.00000
     20     -16.5765      2.00000
     21     -16.5114      2.00000
     22     -16.4871      2.00000
     23     -16.4846      2.00000
     24     -16.4838      2.00000
     25     -16.4759      2.00000
     26     -16.4669      2.00000
     27     -16.4553      2.00000
     28     -16.4294      2.00000
     29     -16.4187      2.00000
     30     -16.3972      2.00000
     31     -16.3659      2.00000
     32     -16.3592      2.00000
     33     -16.3552      2.00000
     34     -16.3462      2.00000
     35     -16.3366      2.00000
     36     -16.3333      2.00000
     37     -16.3330      2.00000
     38     -16.3290      2.00000
     39     -16.3264      2.00000
     40     -16.3207      2.00000
     41     -16.3193      2.00000
     42     -16.3116      2.00000
     43     -16.2763      2.00000
     44     -16.2665      2.00000
     45     -16.2539      2.00000
     46     -16.2508      2.00000
     47     -16.2364      2.00000
     48     -16.2150      2.00000
     49     -14.6292      2.00000
     50     -14.3932      2.00000
     51     -14.2984      2.00000
     52     -14.2583      2.00000
     53     -14.1791      2.00000
     54     -14.1693      2.00000
     55     -14.1494      2.00000
     56     -14.1370      2.00000
     57     -14.1269      2.00000
     58     -14.1101      2.00000
     59     -14.0596      2.00000
     60     -14.0393      2.00000
     61     -14.0088      2.00000
     62     -13.9861      2.00000
     63     -13.9809      2.00000
     64     -13.9577      2.00000
     65     -13.9311      2.00000
     66     -13.8573      2.00000
     67     -13.8381      2.00000
     68     -13.8179      2.00000
     69     -13.7612      2.00000
     70     -13.6347      2.00000
     71     -13.4276      2.00000
     72      -8.2067      2.00000
     73      -7.8057      2.00000
     74      -7.7872      2.00000
     75      -7.6314      2.00000
     76      -7.3652      2.00000
     77      -7.2897      2.00000
     78      -7.2791      2.00000
     79      -7.2599      2.00000
     80      -7.2516      2.00000
     81      -7.2500      2.00000
     82      -7.2327      2.00000
     83      -7.2272      2.00000
     84      -7.2041      2.00000
     85      -7.1823      2.00000
     86      -7.1787      2.00000
     87      -7.1711      2.00000
     88      -7.1649      2.00000
     89      -7.1515      2.00000
     90      -7.1468      2.00000
     91      -7.1412      2.00000
     92      -7.1356      2.00000
     93      -7.1252      2.00000
     94      -7.1166      2.00000
     95      -7.1148      2.00000
     96      -7.0928      2.00000
[...]


--------------------------------------------------------------------------------------------------------


 soft charge-density along one line, spin component           1
         0         1         2         3         4         5         6         7         8         9
 total charge-density along one line

 pseudopotential strength for first ion, spin component:           1
 17.879  -4.680  -0.001  -0.001   0.002   0.001   0.001  -0.003
 -4.680   1.234   0.000   0.000  -0.001  -0.000  -0.000   0.001
 -0.001   0.000   2.227   0.000  -0.000  -2.655   0.000   0.000
 -0.001   0.000   0.000   2.227  -0.000   0.000  -2.655   0.000
  0.002  -0.001  -0.000  -0.000   2.227   0.000   0.000  -2.655
  0.001  -0.000  -2.655   0.000   0.000   3.131  -0.000  -0.000
  0.001  -0.000   0.000  -2.655   0.000  -0.000   3.132  -0.000
 -0.003   0.001   0.000   0.000  -2.655  -0.000  -0.000   3.132
 -0.000   0.000   0.001  -0.000  -0.000  -0.002   0.000   0.000
  0.000  -0.000   0.000  -0.000  -0.000  -0.000   0.000   0.000
  0.000  -0.000   0.000  -0.001   0.000  -0.000   0.001  -0.000
 -0.000   0.000  -0.000   0.002  -0.001   0.000  -0.003   0.002
  0.000  -0.000   0.001  -0.001   0.001  -0.001   0.001  -0.001
 total augmentation occupancy for first ion, spin component:           1
  1.915  -0.132  -0.000  -0.000   0.001  -0.000  -0.000   0.001  -0.000   0.000  -0.000  -0.000  -0.000
 -0.132   0.134  -0.002  -0.004   0.008   0.001   0.000  -0.002   0.000  -0.001   0.001  -0.002   0.002
 -0.000  -0.002   2.020  -0.000  -0.000   0.006  -0.000  -0.000   0.003   0.000   0.000  -0.000   0.001
 -0.000  -0.004  -0.000   2.020  -0.001  -0.000   0.006  -0.000  -0.000  -0.001  -0.001   0.004  -0.001
  0.001   0.008  -0.000  -0.001   2.020  -0.000  -0.000   0.006  -0.001  -0.000  -0.000  -0.002   0.002
 -0.000   0.001   0.006  -0.000  -0.000   0.009  -0.000   0.000  -0.000  -0.002  -0.000   0.000  -0.000
 -0.000   0.000  -0.000   0.006  -0.000  -0.000   0.010  -0.001   0.000   0.000   0.001  -0.002   0.001
  0.001  -0.002  -0.000  -0.000   0.006   0.000  -0.001   0.010   0.000   0.000  -0.002   0.001   0.001
 -0.000   0.000   0.003  -0.000  -0.001  -0.000   0.000   0.000   0.007   0.001   0.000  -0.000  -0.000
  0.000  -0.001   0.000  -0.001  -0.000  -0.002   0.000   0.000   0.001   0.005  -0.000   0.000  -0.000
 -0.000   0.001   0.000  -0.001  -0.000  -0.000   0.001  -0.002   0.000  -0.000   0.006  -0.002  -0.000
 -0.000  -0.002  -0.000   0.004  -0.002   0.000  -0.002   0.001  -0.000   0.000  -0.002   0.006   0.000
 -0.000   0.002   0.001  -0.001   0.002  -0.000   0.001   0.001  -0.000  -0.000  -0.000   0.000   0.005


------------------------ aborting loop because EDIFF is reached ----------------------------------------





 total charge     

# of ion       s       p       d       tot
------------------------------------------
    1        1.788   4.717   0.022   6.527
    2        1.787   4.717   0.020   6.524
    3        1.786   4.717   0.018   6.521
    4        1.786   4.717   0.019   6.523
    5        1.787   4.716   0.021   6.524
    6        1.786   4.717   0.019   6.523
    7        1.786   4.717   0.017   6.519
    8        1.785   4.716   0.016   6.517
    9        1.552   0.421   9.834  11.807
   10        1.524   0.438   9.827  11.789
   11        1.554   0.421   9.835  11.810
   12        1.541   0.427   9.827  11.796
   13        1.554   0.430   9.836  11.820
   14        1.527   0.441   9.829  11.797
   15        1.554   0.423   9.835  11.811
   16        1.551   0.412   9.829  11.792
   17        1.615   3.286   0.007   4.907
   18        1.614   3.270   0.005   4.889
   19        1.614   3.291   0.007   4.912
   20        1.618   3.277   0.009   4.904
   21        1.615   3.282   0.007   4.904
   22        1.611   3.276   0.004   4.891
   23        1.615   3.286   0.007   4.908
   24        1.615   3.273   0.006   4.894
   25        1.615   3.294   0.007   4.916
   26        1.615   3.284   0.007   4.905
   27        1.614   3.278   0.006   4.898
   28        1.615   3.277   0.006   4.897
   29        1.614   3.276   0.006   4.896
   30        1.614   3.284   0.006   4.904
   31        1.617   3.266   0.008   4.891
   32        1.614   3.288   0.007   4.909
   33        1.614   3.275   0.006   4.895
   34        1.614   3.275   0.006   4.894
   35        1.615   3.286   0.007   4.907
   36        1.616   3.273   0.007   4.896
   37        1.614   3.283   0.007   4.904
   38        1.614   3.279   0.006   4.898
   39        1.612   3.276   0.005   4.893
--------------------------------------------------
tot         63.781 116.579  78.952 259.312

    CHARGE:  cpu time    0.3942: real time    0.3942
    FORLOC:  cpu time    0.0112: real time    0.0113
    FORNL :  cpu time    1.9047: real time    1.9047
    STRESS:  cpu time   49.6428: real time   49.6449
    FORCOR:  cpu time    0.2412: real time    0.2413
    FORHAR:  cpu time    0.0277: real time    0.0277
    MIXING:  cpu time    0.0021: real time    0.0021
    OFIELD:  cpu time    0.0000: real time    0.0000

  FORCE on cell =-STRESS in cart. coord.  units (eV):
  Direction    XX          YY          ZZ          XY          YZ          ZX
  --------------------------------------------------------------------------------------
  Alpha Z   872.70584   872.70584   872.70584
  Ewald   -6059.28384 -5515.85636 -6270.57850    17.47229     9.42763  -321.77704
  Hartree  2422.51050  2857.57629  2263.52088    23.35721    15.67707  -225.81729
  E(xc)   -1449.21714 -1449.12688 -1449.24944    -0.09990    -0.03313    -0.26905
  Local   -2753.93953 -3731.73279 -2383.53312   -40.25694   -25.79766   548.67763
  n-local  1746.61890  1748.05358  1746.34317    -1.08478    -0.91047    -1.34568
  augment   817.94064   818.68104   817.18688    -0.09718    -0.10392    -0.91812
  Kinetic  4396.86566  4392.50472  4398.60960    -0.26658     1.35220     0.32535
  Fock        0.00000     0.00000     0.00000     0.00000     0.00000     0.00000
  -------------------------------------------------------------------------------------
  Total      -5.79897    -7.19456    -4.99468    -0.97588    -0.38828    -1.12420
  in kB      -5.82474    -7.22653    -5.01688    -0.98022    -0.39001    -1.12920
  external pressure =       -6.02 kB  Pullay stress =        0.00 kB


 VOLUME and BASIS-vectors are now :
 -----------------------------------------------------------------------------
  energy-cutoff  :      300.00
  volume of cell :     1595.09
      direct lattice vectors                 reciprocal lattice vectors
     8.456489000  0.000000000  8.040301000     0.059126193 -0.000000000  0.062186727
     0.000000000 11.729847000  0.000000000     0.000000000  0.085252604 -0.000000000
    -8.456489000  0.000000000  8.040301000    -0.059126193  0.000000000  0.062186727

  length of vectors
    11.668703715 11.729847000 11.668703715     0.085808482  0.085252604  0.085808482


 FORCES acting on ions
    electron-ion (+dipol)            ewald-force                    non-local-force                 convergence-correction
 -----------------------------------------------------------------------------------------------
   0.285E+02 0.885E+01 -.297E+02   -.287E+02 -.879E+01 0.298E+02   0.207E+00 -.646E-01 -.683E-01   0.165E-04 0.268E-04 0.612E-04
   -.274E+02 0.272E+02 0.269E+02   0.276E+02 -.271E+02 -.272E+02   -.178E+00 -.177E+00 0.315E+00   -.228E-03 -.583E-04 0.105E-03
   0.187E+02 -.224E+02 -.818E+02   -.189E+02 0.223E+02 0.816E+02   0.178E+00 0.670E-01 0.227E+00   -.932E-04 0.754E-04 -.130E-03
   -.461E+02 -.980E+01 0.828E+01   0.460E+02 0.970E+01 -.815E+01   0.156E+00 0.110E+00 -.133E+00   0.682E-04 -.470E-04 0.177E-05
   -.188E+00 0.141E+02 0.132E+02   0.150E+00 -.140E+02 -.134E+02   0.353E-01 -.157E+00 0.173E+00   0.537E-04 0.428E-04 0.394E-04
   0.782E+02 0.249E+02 -.273E+02   -.781E+02 -.248E+02 0.271E+02   -.118E+00 -.201E+00 0.118E+00   0.134E-03 -.545E-04 -.131E-03
   -.591E+02 -.200E+02 0.378E+02   0.591E+02 0.199E+02 -.381E+02   -.207E-01 0.799E-01 0.269E+00   -.232E-04 0.928E-05 -.876E-04
   -.162E+02 -.142E+02 0.408E+00   0.162E+02 0.141E+02 -.378E+00   0.711E-01 0.953E-01 -.365E-01   0.259E-04 -.239E-04 0.130E-03
   0.430E+02 0.247E+02 0.168E+02   -.438E+02 -.237E+02 -.156E+02   0.794E+00 -.104E+01 -.119E+01   -.227E-04 0.108E-03 -.504E-04
   -.159E+03 0.788E+02 -.124E+03   0.165E+03 -.810E+02 0.129E+03   -.539E+01 0.228E+01 -.471E+01   -.640E-03 0.103E-03 -.477E-03
   -.158E+02 0.267E+02 -.279E+02   0.157E+02 -.269E+02 0.282E+02   0.383E-01 0.195E+00 -.286E+00   0.459E-04 0.610E-04 0.305E-04
   0.101E+03 -.371E+01 0.112E+03   -.104E+03 0.542E+01 -.113E+03   0.366E+01 -.171E+01 0.158E+01   0.414E-03 -.105E-03 0.438E-03
   -.187E+02 -.285E+02 -.253E+02   0.188E+02 0.287E+02 0.254E+02   -.933E-01 -.228E+00 -.674E-01   0.128E-04 -.565E-04 -.302E-04
   0.842E+02 -.231E+02 0.141E+03   -.878E+02 0.237E+02 -.147E+03   0.365E+01 -.617E+00 0.592E+01   0.363E-03 -.243E-04 0.693E-03
   0.353E+02 -.302E+02 0.237E+02   -.351E+02 0.296E+02 -.240E+02   -.123E+00 0.621E+00 0.265E+00   0.690E-04 -.110E-03 -.333E-04
   -.594E+02 -.578E+02 -.427E+02   0.571E+02 0.575E+02 0.408E+02   0.231E+01 0.279E+00 0.190E+01   -.141E-03 0.111E-03 -.896E-04
   -.162E+01 -.684E+01 0.167E+02   0.147E+01 0.682E+01 -.169E+02   0.129E+00 0.917E-02 0.190E+00   0.345E-04 -.838E-05 0.400E-04
   0.491E+02 0.496E+00 0.846E+02   -.492E+02 -.701E+00 -.850E+02   0.628E-01 0.192E+00 0.332E+00   -.202E-04 0.102E-03 0.366E-04
   -.651E+01 0.856E+01 0.313E+02   0.675E+01 -.856E+01 -.313E+02   -.221E+00 0.110E-01 0.185E-01   -.603E-05 -.170E-04 -.325E-04
   0.328E+02 -.249E+02 0.655E+02   -.335E+02 0.256E+02 -.664E+02   0.693E+00 -.622E+00 0.778E+00   0.169E-04 -.112E-04 -.904E-05
   0.408E+02 -.717E+01 -.340E+02   -.410E+02 0.717E+01 0.344E+02   0.222E+00 0.650E-02 -.423E+00   -.219E-04 0.220E-04 -.494E-05
   -.363E+02 -.804E+02 -.523E+02   0.362E+02 0.809E+02 0.523E+02   0.715E-01 -.482E+00 -.146E-01   -.446E-04 0.342E-04 -.174E-04
   -.106E+02 0.775E+01 -.524E+02   0.107E+02 -.773E+01 0.528E+02   -.104E+00 -.216E-01 -.333E+00   0.236E-04 -.906E-07 -.219E-04
   0.389E+02 0.278E+02 0.285E+02   -.392E+02 -.280E+02 -.285E+02   0.320E+00 0.198E+00 -.800E-01   0.554E-04 -.397E-04 0.720E-04
   -.180E+02 -.110E+02 0.162E+02   0.181E+02 0.110E+02 -.163E+02   -.111E+00 0.221E-01 0.152E+00   0.226E-04 -.445E-04 0.367E-04
   0.112E+02 -.255E+02 -.191E+02   -.113E+02 0.257E+02 0.189E+02   0.142E+00 -.158E+00 0.159E+00   -.689E-04 -.333E-05 0.228E-05
   0.191E+02 -.359E+02 0.684E+02   -.192E+02 0.361E+02 -.686E+02   0.182E+00 -.181E+00 0.242E+00   -.137E-04 -.688E-05 0.164E-04
   -.670E+02 0.210E+02 -.174E+02   0.672E+02 -.210E+02 0.176E+02   -.224E+00 0.100E-01 -.172E+00   0.290E-04 0.840E-05 -.114E-05
   0.193E+02 -.721E+01 0.328E+01   -.190E+02 0.745E+01 -.336E+01   -.320E+00 -.222E+00 0.662E-01   0.101E-04 0.181E-05 0.577E-04
   0.355E+02 0.225E+02 -.361E+02   -.357E+02 -.227E+02 0.363E+02   0.213E+00 0.120E+00 -.153E+00   0.233E-05 0.229E-04 -.400E-04
   0.835E+01 0.740E+02 -.437E+02   -.848E+01 -.749E+02 0.443E+02   0.141E+00 0.840E+00 -.560E+00   0.758E-04 0.640E-04 -.408E-04
   -.228E+02 0.989E+01 0.219E+02   0.230E+02 -.984E+01 -.221E+02   -.160E+00 -.607E-01 0.271E+00   -.192E-05 0.516E-04 0.291E-04
   0.453E+01 0.373E+02 -.310E+02   -.465E+01 -.377E+02 0.308E+02   0.116E+00 0.335E+00 0.183E+00   -.430E-04 -.384E-05 0.262E-04
   0.116E+02 0.227E+02 0.958E+02   -.117E+02 -.229E+02 -.963E+02   0.464E-01 0.156E+00 0.448E+00   -.201E-04 0.198E-04 -.573E-04
   0.320E+02 -.262E+02 -.343E+02   -.323E+02 0.263E+02 0.345E+02   0.218E+00 -.115E+00 -.173E+00   0.188E-04 -.175E-04 -.104E-03
   -.115E+02 -.495E+02 -.526E+02   0.118E+02 0.499E+02 0.535E+02   -.273E+00 -.313E+00 -.834E+00   0.870E-04 -.283E-04 0.416E-04
   -.469E+02 -.906E+01 -.129E+02   0.471E+02 0.892E+01 0.131E+02   -.204E+00 0.140E+00 -.160E+00   -.185E-05 0.327E-05 -.435E-04
   0.193E+02 0.782E+01 -.207E+02   -.190E+02 -.801E+01 0.210E+02   -.235E+00 0.191E+00 -.242E+00   0.985E-04 -.391E-04 0.887E-04
   -.929E+02 0.483E+02 -.504E+02   0.934E+02 -.487E+02 0.508E+02   -.438E+00 0.345E+00 -.411E+00   -.138E-03 -.425E-04 -.682E-04
 -----------------------------------------------------------------------------------------------
   -.535E+01 0.317E-01 -.356E+01   -.284E-13 -.135E-12 0.497E-13   0.545E+01 -.640E-01 0.356E+01   0.149E-03 0.126E-03 0.476E-03


 POSITION                                       TOTAL-FORCE (eV/Angst)
 -----------------------------------------------------------------------------------
      0.79969      2.92751      3.60362         0.000038      0.000033      0.000047
      0.04182      3.00726     12.36413        -0.000163     -0.000002      0.000002
      3.88563      8.78194      7.66782         0.000179     -0.000106     -0.000110
     -4.82856      8.73346      8.03603        -0.000003     -0.000001      0.000076
     -4.17840      3.04062      8.19890        -0.000077      0.000053     -0.000166
      5.02927      2.92823      8.21779         0.000116      0.000052      0.000113
     -0.43104      8.79051     12.00033        -0.000043     -0.000081      0.000165
     -0.34899      8.66524      4.35365         0.000096      0.000030     -0.000134
     -8.38661     11.65208      8.09662        -0.000087      0.000098      0.000030
     -0.00591      0.60056      7.90248        -0.000116     -0.000090      0.000160
     -4.11489      0.02718     12.05843         0.000337      0.000152      0.000161
     -3.94440     11.64967      4.36419         0.000227     -0.000291      0.000289
     -4.11768      5.86193     12.07117        -0.000112     -0.000093     -0.000125
     -4.23197      5.79212      4.03312        -0.000367      0.000331      0.000223
      0.04297      5.92023      0.06147         0.000170      0.000227     -0.000465
     -0.02187      5.60402      7.92465        -0.000365     -0.000066      0.000050
     -4.11652      8.81431     11.74342        -0.000113      0.000068      0.000057
      4.32257      8.85766     11.43701         0.000124     -0.000075     -0.000118
     -8.16640      2.92377      7.89152        -0.000024     -0.000125      0.000058
     -1.03279      2.85154      6.62075         0.000027     -0.000077      0.000098
     -0.07308      8.79090      0.69240         0.000182     -0.000091     -0.000106
      0.38524      8.50127      8.46041        -0.000011     -0.000117      0.000102
      4.38979      2.93649      4.52475        -0.000030      0.000073      0.000263
     -4.59798      2.89660      4.53253         0.000013      0.000232     -0.000305
     -5.94160      5.70000      9.73830         0.000001      0.000085      0.000095
      1.86479      6.03871      5.67615        -0.000016      0.000065     -0.000094
      1.70183      6.29243     13.64692         0.000042     -0.000060      0.000042
     -1.63743      0.41952     10.39106        -0.000073     -0.000030      0.000037
     -1.71999      0.42691      2.54986         0.000303     -0.000064      0.000121
      6.05318     11.47722      6.46402         0.000095     -0.000035      0.000016
     -2.28425     10.97104      6.61689        -0.000246     -0.000038     -0.000216
     -5.84568      0.20874      9.65923         0.000047     -0.000005     -0.000038
      1.83063     11.48603      5.71882        -0.000068     -0.000043     -0.000196
      1.75243     11.22874     13.73628         0.000052      0.000027      0.000071
      6.04429      6.11388      6.46466        -0.000003      0.000022      0.000194
     -2.71921      6.29456      6.32401        -0.000085     -0.000045     -0.000380
     -1.74492      5.47098     10.34389        -0.000084      0.000019     -0.000041
     -1.69509      5.39799      2.48361         0.000032     -0.000029      0.000043
      1.69953      3.61110      9.22773         0.000003     -0.000005     -0.000020
 -----------------------------------------------------------------------------------
    total drift:                                0.096092     -0.032152     -0.004633


--------------------------------------------------------------------------------------------------------



  FREE ENERGIE OF THE ION-ELECTRON SYSTEM (eV)
  ---------------------------------------------------
  free  energy   TOTEN  =     -1409.30431002 eV

  energy  without entropy=    -1409.30431002  energy(sigma->0) =    -1409.30431002



--------------------------------------------------------------------------------------------------------


    POTLOK:  cpu time    1.4283: real time    1.4283


--------------------------------------------------------------------------------------------------------


 stress matrix after NEB project (eV)
     -5.79897     -0.97592     -1.12420
     -0.97588     -7.19456     -0.38826
     -1.12438     -0.38828     -4.99468
  FORCES: max atom, RMS     0.000545    0.000246
  FORCE total and by dimension    0.001538    0.000465
  Stress total and by dimension   10.727109    7.194556
     LOOP+:  cpu time  500.2689: real time  500.9379
    4ORBIT:  cpu time    0.0000: real time    0.0000



 total charge     

# of ion       s       p       d       tot
------------------------------------------
    1        1.788   4.717   0.022   6.527
    2        1.787   4.717   0.020   6.524
    3        1.786   4.717   0.018   6.521
    4        1.786   4.717   0.019   6.523
    5        1.787   4.716   0.021   6.524
    6        1.786   4.717   0.019   6.523
    7        1.786   4.717   0.017   6.519
    8        1.785   4.716   0.016   6.517
    9        1.552   0.421   9.834  11.807
   10        1.524   0.438   9.827  11.789
   11        1.554   0.421   9.835  11.810
   12        1.541   0.427   9.827  11.796
   13        1.554   0.430   9.836  11.820
   14        1.527   0.441   9.829  11.797
   15        1.554   0.423   9.835  11.811
   16        1.551   0.412   9.829  11.792
   17        1.615   3.286   0.007   4.907
   18        1.614   3.270   0.005   4.889
   19        1.614   3.291   0.007   4.912
   20        1.618   3.277   0.009   4.904
   21        1.615   3.282   0.007   4.904
   22        1.611   3.276   0.004   4.891
   23        1.615   3.286   0.007   4.908
   24        1.615   3.273   0.006   4.894
   25        1.615   3.294   0.007   4.916
   26        1.615   3.284   0.007   4.905
   27        1.614   3.278   0.006   4.898
   28        1.615   3.277   0.006   4.897
   29        1.614   3.276   0.006   4.896
   30        1.614   3.284   0.006   4.904
   31        1.617   3.266   0.008   4.891
   32        1.614   3.288   0.007   4.909
   33        1.614   3.275   0.006   4.895
   34        1.614   3.275   0.006   4.894
   35        1.615   3.286   0.007   4.907
   36        1.616   3.273   0.007   4.896
   37        1.614   3.283   0.007   4.904
   38        1.614   3.279   0.006   4.898
   39        1.612   3.276   0.005   4.893
--------------------------------------------------
tot         63.781 116.579  78.952 259.312


 total amount of memory used by VASP MPI-rank0    60654. kBytes
=======================================================================

   base      :      30000. kBytes
   nonlr-proj:       6489. kBytes
   fftplans  :       8423. kBytes
   grid      :       7465. kBytes
   one-center:         77. kBytes
   wavefun   :       8200. kBytes

  
  
 General timing and accounting informations for this job:
 ========================================================
  
                  Total CPU time used (sec):      512.650
                            User time (sec):      511.122
                          System time (sec):        1.528
                         Elapsed time (sec):      514.045
  
                   Maximum memory used (kb):       78404.
                   Average memory used (kb):           0.
  
                          Minor page faults:        21060
                          Major page faults:            2
                 Voluntary context switches:         1765
