CsPbBr3 cubic bulk                      
           1
     8.456489    0.000000    8.040301
     0.000000   11.729847    0.000000
    -8.456489    0.000000    8.040301
   Cs   Pb   Br
   8   8  23
Direct configuration=     1
   0.27138000  0.24957800  0.17681500
   0.77135700  0.25637700  0.76641200
   0.70657900  0.74868300  0.24709400
   0.21424000  0.74455000  0.78522900
   0.26281000  0.25922100  0.75691600
   0.80839900  0.24963900  0.21367600
   0.72077500  0.74941400  0.77174700
   0.25010500  0.73873400  0.29137400
   0.00763400  0.99337000  0.99937100
   0.49108000  0.05119900  0.49177900
   0.50657600  0.00231700  0.99317200
   0.03817700  0.99316500  0.50461200
   0.50720400  0.49974500  0.99412900
   0.00058600  0.49379300  0.50102700
   0.00636300  0.50471500  0.00128200
   0.49151500  0.47775700  0.49410100
   0.48689100  0.75144300  0.97367900
   0.96680700  0.75513900  0.45565300
   0.00790000  0.24925900  0.97359600
   0.35065800  0.24310100  0.47278800
   0.03873700  0.74944700  0.04737900
   0.54890300  0.72475500  0.50334800
   0.54093100  0.25034300  0.02182800
   0.01000200  0.24694300  0.55372400
   0.25428900  0.48594000  0.95689700
   0.46323900  0.51481600  0.24272300
   0.94928000  0.53644600  0.74803500
   0.54937100  0.03576500  0.74300100
   0.05687100  0.03639500  0.26026400
   0.75987800  0.97846300  0.04407500
   0.27642400  0.93531000  0.54654200
   0.25504300  0.01779600  0.94630900
   0.46387300  0.97921400  0.24739700
   0.95782900  0.95727900  0.75060000
   0.75939200  0.52122400  0.04464000
   0.23249300  0.53662800  0.55404600
   0.54008200  0.46641500  0.74642300
   0.05422300  0.46019300  0.25467200
   0.67432900  0.30785600  0.47335600
