  40  40   1   0
  0.4040437E+02  0.1173535E-08  0.1173535E-08  0.1173535E-08  0.5000000E-15
   1.0000000000000000E-004
  CAR 
 CsPbBr3 cubic bulk                      
      8.18589342    -22.28979920  301      0.69395232      1.00000000
    -22.290  0.0000E+00  0.0000E+00
    -22.188  0.0000E+00  0.0000E+00
    -22.087  0.0000E+00  0.0000E+00
    -21.985  0.0000E+00  0.0000E+00
    -21.883  0.0000E+00  0.0000E+00
    -21.782  0.0000E+00  0.0000E+00
    -21.680  0.0000E+00  0.0000E+00
    -21.579  0.0000E+00  0.0000E+00
    -21.477  0.0000E+00  0.0000E+00
    -21.376  0.0000E+00  0.0000E+00
    -21.274  0.0000E+00  0.0000E+00
    -21.172  0.0000E+00  0.0000E+00
    -21.071  0.0000E+00  0.0000E+00
    -20.969  0.0000E+00  0.0000E+00
    -20.868  0.1575E+03  0.1600E+02
    -20.766  0.0000E+00  0.1600E+02
    -20.664  0.0000E+00  0.1600E+02
    -20.563  0.0000E+00  0.1600E+02
    -20.461  0.0000E+00  0.1600E+02
    -20.360  0.0000E+00  0.1600E+02
    -20.258  0.0000E+00  0.1600E+02
    -20.157  0.0000E+00  0.1600E+02
    -20.055  0.0000E+00  0.1600E+02
    -19.953  0.0000E+00  0.1600E+02
    -19.852  0.0000E+00  0.1600E+02
    -19.750  0.0000E+00  0.1600E+02
    -19.649  0.0000E+00  0.1600E+02
    -19.547  0.0000E+00  0.1600E+02
    -19.445  0.0000E+00  0.1600E+02
    -19.344  0.0000E+00  0.1600E+02
    -19.242  0.0000E+00  0.1600E+02
    -19.141  0.0000E+00  0.1600E+02
    -19.039  0.0000E+00  0.1600E+02
    -18.937  0.0000E+00  0.1600E+02
    -18.836  0.0000E+00  0.1600E+02
    -18.734  0.0000E+00  0.1600E+02
    -18.633  0.0000E+00  0.1600E+02
    -18.531  0.0000E+00  0.1600E+02
    -18.430  0.0000E+00  0.1600E+02
    -18.328  0.0000E+00  0.1600E+02
    -18.226  0.0000E+00  0.1600E+02
    -18.125  0.0000E+00  0.1600E+02
    -18.023  0.0000E+00  0.1600E+02
    -17.922  0.0000E+00  0.1600E+02
    -17.820  0.0000E+00  0.1600E+02
    -17.718  0.0000E+00  0.1600E+02
    -17.617  0.0000E+00  0.1600E+02
    -17.515  0.0000E+00  0.1600E+02
    -17.414  0.0000E+00  0.1600E+02
    -17.312  0.0000E+00  0.1600E+02
    -17.211  0.0000E+00  0.1600E+02
    -17.109  0.0000E+00  0.1600E+02
    -17.007  0.0000E+00  0.1600E+02
    -16.906  0.0000E+00  0.1600E+02
    -16.804  0.0000E+00  0.1600E+02
    -16.703  0.0000E+00  0.1600E+02
    -16.601  0.0000E+00  0.1600E+02
    -16.499  0.8197E-15  0.1600E+02
    -16.398  0.7497E+02  0.2362E+02
    -16.296  0.1624E+03  0.4800E+02
    -16.195  0.4725E+03  0.9600E+02
    -16.093  0.0000E+00  0.9600E+02
    -15.991  0.0000E+00  0.9600E+02
    -15.890  0.0000E+00  0.9600E+02
    -15.788  0.0000E+00  0.9600E+02
    -15.687  0.0000E+00  0.9600E+02
    -15.585  0.0000E+00  0.9600E+02
    -15.484  0.0000E+00  0.9600E+02
    -15.382  0.0000E+00  0.9600E+02
    -15.280  0.0000E+00  0.9600E+02
    -15.179  0.0000E+00  0.9600E+02
    -15.077  0.0000E+00  0.9600E+02
    -14.976  0.0000E+00  0.9600E+02
    -14.874  0.0000E+00  0.9600E+02
    -14.772  0.0000E+00  0.9600E+02
    -14.671  0.0000E+00  0.9600E+02
    -14.569  0.0000E+00  0.9600E+02
    -14.468  0.0000E+00  0.9600E+02
    -14.366  0.1658E+00  0.9602E+02
    -14.265  0.1480E+02  0.9775E+02
    -14.163  0.3460E+02  0.1033E+03
    -14.061  0.8092E+02  0.1125E+03
    -13.960  0.5593E+02  0.1192E+03
    -13.858  0.5318E+02  0.1277E+03
    -13.757  0.9938E+02  0.1403E+03
    -13.655  0.2707E+02  0.1440E+03
    -13.553  0.0000E+00  0.1440E+03
    -13.452  0.0000E+00  0.1440E+03
    -13.350  0.0000E+00  0.1440E+03
    -13.249  0.0000E+00  0.1440E+03
    -13.147  0.0000E+00  0.1440E+03
    -13.046  0.0000E+00  0.1440E+03
    -12.944  0.0000E+00  0.1440E+03
    -12.842  0.0000E+00  0.1440E+03
    -12.741  0.0000E+00  0.1440E+03
    -12.639  0.0000E+00  0.1440E+03
    -12.538  0.0000E+00  0.1440E+03
    -12.436  0.0000E+00  0.1440E+03
    -12.334  0.0000E+00  0.1440E+03
    -12.233  0.0000E+00  0.1440E+03
    -12.131  0.0000E+00  0.1440E+03
    -12.030  0.0000E+00  0.1440E+03
    -11.928  0.0000E+00  0.1440E+03
    -11.826  0.0000E+00  0.1440E+03
    -11.725  0.0000E+00  0.1440E+03
    -11.623  0.0000E+00  0.1440E+03
    -11.522  0.0000E+00  0.1440E+03
    -11.420  0.0000E+00  0.1440E+03
    -11.319  0.0000E+00  0.1440E+03
    -11.217  0.0000E+00  0.1440E+03
    -11.115  0.0000E+00  0.1440E+03
    -11.014  0.0000E+00  0.1440E+03
    -10.912  0.0000E+00  0.1440E+03
    -10.811  0.0000E+00  0.1440E+03
    -10.709  0.0000E+00  0.1440E+03
    -10.607  0.0000E+00  0.1440E+03
    -10.506  0.0000E+00  0.1440E+03
    -10.404  0.0000E+00  0.1440E+03
    -10.303  0.0000E+00  0.1440E+03
    -10.201  0.0000E+00  0.1440E+03
    -10.100  0.0000E+00  0.1440E+03
     -9.998  0.0000E+00  0.1440E+03
     -9.896  0.0000E+00  0.1440E+03
     -9.795  0.0000E+00  0.1440E+03
     -9.693  0.0000E+00  0.1440E+03
     -9.592  0.0000E+00  0.1440E+03
     -9.490  0.0000E+00  0.1440E+03
     -9.388  0.0000E+00  0.1440E+03
     -9.287  0.0000E+00  0.1440E+03
     -9.185  0.0000E+00  0.1440E+03
     -9.084  0.0000E+00  0.1440E+03
     -8.982  0.0000E+00  0.1440E+03
     -8.880  0.0000E+00  0.1440E+03
     -8.779  0.0000E+00  0.1440E+03
     -8.677  0.0000E+00  0.1440E+03
     -8.576  0.0000E+00  0.1440E+03
     -8.474  0.0000E+00  0.1440E+03
     -8.373  0.0000E+00  0.1440E+03
     -8.271  0.0000E+00  0.1440E+03
     -8.169  0.2461E+01  0.1442E+03
     -8.068  0.0000E+00  0.1442E+03
     -7.966  0.9684E+01  0.1452E+03
     -7.865  0.4922E+01  0.1457E+03
     -7.763  0.5757E+01  0.1463E+03
     -7.661  0.2461E+02  0.1492E+03
     -7.560  0.1130E-01  0.1493E+03
     -7.458  0.2956E+02  0.1525E+03
     -7.357  0.2278E+01  0.1537E+03
     -7.255  0.3711E+03  0.1927E+03
     -7.154  0.4103E+02  0.2047E+03
     -7.052  0.9025E+01  0.2057E+03
     -6.950  0.4922E+01  0.2062E+03
     -6.849  0.4922E+01  0.2067E+03
     -6.747  0.9818E+01  0.2077E+03
     -6.646  0.0000E+00  0.2078E+03
     -6.544  0.0000E+00  0.2078E+03
     -6.442  0.7191E+00  0.2078E+03
     -6.341  0.0000E+00  0.2080E+03
     -6.239  0.0000E+00  0.2080E+03
     -6.138  0.0000E+00  0.2080E+03
     -6.036  0.0000E+00  0.2080E+03
     -5.935  0.0000E+00  0.2080E+03
     -5.833  0.0000E+00  0.2080E+03
     -5.731  0.0000E+00  0.2080E+03
     -5.630  0.0000E+00  0.2080E+03
     -5.528  0.0000E+00  0.2080E+03
     -5.427  0.0000E+00  0.2080E+03
     -5.325  0.0000E+00  0.2080E+03
     -5.223  0.0000E+00  0.2080E+03
     -5.122  0.0000E+00  0.2080E+03
     -5.020  0.0000E+00  0.2080E+03
     -4.919  0.0000E+00  0.2080E+03
     -4.817  0.0000E+00  0.2080E+03
     -4.715  0.0000E+00  0.2080E+03
     -4.614  0.0000E+00  0.2080E+03
     -4.512  0.0000E+00  0.2080E+03
     -4.411  0.0000E+00  0.2080E+03
     -4.309  0.0000E+00  0.2080E+03
     -4.208  0.0000E+00  0.2080E+03
     -4.106  0.0000E+00  0.2080E+03
     -4.004  0.0000E+00  0.2080E+03
     -3.903  0.0000E+00  0.2080E+03
     -3.801  0.0000E+00  0.2080E+03
     -3.700  0.0000E+00  0.2080E+03
     -3.598  0.0000E+00  0.2080E+03
     -3.496  0.1044E-04  0.2080E+03
     -3.395  0.2038E+02  0.2101E+03
     -3.293  0.1004E+02  0.2118E+03
     -3.192  0.1996E+02  0.2140E+03
     -3.090  0.2954E+02  0.2175E+03
     -2.989  0.1971E+02  0.2195E+03
     -2.887  0.0000E+00  0.2200E+03
     -2.785  0.0000E+00  0.2200E+03
     -2.684  0.4938E-07  0.2200E+03
     -2.582  0.4827E+02  0.2249E+03
     -2.481  0.5089E+02  0.2302E+03
     -2.379  0.3445E+02  0.2345E+03
     -2.277  0.3741E+02  0.2383E+03
     -2.176  0.3458E+02  0.2435E+03
     -2.074  0.2471E+01  0.2448E+03
     -1.973  0.7849E+02  0.2527E+03
     -1.871  0.5689E+01  0.2533E+03
     -1.769  0.2015E+02  0.2568E+03
     -1.668  0.3492E+02  0.2623E+03
     -1.566  0.5436E+02  0.2698E+03
     -1.465  0.4577E+02  0.2764E+03
     -1.363  0.1032E+03  0.2892E+03
     -1.262  0.1011E+03  0.3005E+03
     -1.160  0.1000E+03  0.3129E+03
     -1.058  0.1371E+03  0.3289E+03
     -0.957  0.4362E+02  0.3342E+03
     -0.855  0.3156E+02  0.3375E+03
     -0.754  0.3091E+02  0.3429E+03
     -0.652  0.0000E+00  0.3432E+03
     -0.550  0.1876E+02  0.3452E+03
     -0.449  0.1787E+01  0.3454E+03
     -0.347  0.4504E-05  0.3475E+03
     -0.246  0.9844E+01  0.3485E+03
     -0.144  0.9844E+01  0.3495E+03
     -0.043  0.2461E+01  0.3498E+03
      0.059  0.9762E+01  0.3507E+03
      0.161  0.1252E+00  0.3508E+03
      0.262  0.0000E+00  0.3518E+03
      0.364  0.0000E+00  0.3518E+03
      0.465  0.0000E+00  0.3518E+03
      0.567  0.2765E-12  0.3518E+03
      0.669  0.2461E+01  0.3520E+03
      0.770  0.0000E+00  0.3520E+03
      0.872  0.0000E+00  0.3520E+03
      0.973  0.0000E+00  0.3520E+03
      1.075  0.0000E+00  0.3520E+03
      1.176  0.0000E+00  0.3520E+03
      1.278  0.0000E+00  0.3520E+03
      1.380  0.0000E+00  0.3520E+03
      1.481  0.0000E+00  0.3520E+03
      1.583  0.0000E+00  0.3520E+03
      1.684  0.0000E+00  0.3520E+03
      1.786  0.0000E+00  0.3520E+03
      1.888  0.0000E+00  0.3520E+03
      1.989  0.0000E+00  0.3520E+03
      2.091  0.0000E+00  0.3520E+03
      2.192  0.0000E+00  0.3520E+03
      2.294  0.0000E+00  0.3520E+03
      2.396  0.0000E+00  0.3520E+03
      2.497  0.0000E+00  0.3520E+03
      2.599  0.0000E+00  0.3520E+03
      2.700  0.0000E+00  0.3520E+03
      2.802  0.7197E+01  0.3527E+03
      2.903  0.0000E+00  0.3528E+03
      3.005  0.1304E+02  0.3541E+03
      3.107  0.9844E+01  0.3557E+03
      3.208  0.2360E+02  0.3581E+03
      3.310  0.6442E+00  0.3598E+03
      3.411  0.1853E+02  0.3621E+03
      3.513  0.9844E+01  0.3632E+03
      3.615  0.6739E+01  0.3639E+03
      3.716  0.0000E+00  0.3640E+03
      3.818  0.0000E+00  0.3640E+03
      3.919  0.0000E+00  0.3640E+03
      4.021  0.0000E+00  0.3640E+03
      4.122  0.0000E+00  0.3640E+03
      4.224  0.2230E+00  0.3640E+03
      4.326  0.6856E-01  0.3650E+03
      4.427  0.8739E+00  0.3661E+03
      4.529  0.1848E+02  0.3709E+03
      4.630  0.3173E+02  0.3742E+03
      4.732  0.1697E+02  0.3762E+03
      4.834  0.1972E+02  0.3808E+03
      4.935  0.2592E+02  0.3844E+03
      5.037  0.9843E+01  0.3858E+03
      5.138  0.2461E+02  0.3882E+03
      5.240  0.0000E+00  0.3882E+03
      5.341  0.2306E-12  0.3882E+03
      5.443  0.9844E+01  0.3892E+03
      5.545  0.4922E+01  0.3897E+03
      5.646  0.7383E+01  0.3905E+03
      5.748  0.2932E-01  0.3905E+03
      5.849  0.2938E+02  0.3947E+03
      5.951  0.1954E+02  0.3985E+03
      6.053  0.9414E+01  0.4005E+03
      6.154  0.5114E+02  0.4057E+03
      6.256  0.3690E+02  0.4095E+03
      6.357  0.4400E+02  0.4140E+03
      6.459  0.4917E+01  0.4160E+03
      6.561  0.5722E+02  0.4218E+03
      6.662  0.2501E+02  0.4253E+03
      6.764  0.5522E+02  0.4311E+03
      6.865  0.4922E+01  0.4320E+03
      6.967  0.0000E+00  0.4320E+03
      7.068  0.0000E+00  0.4320E+03
      7.170  0.0000E+00  0.4320E+03
      7.272  0.0000E+00  0.4320E+03
      7.373  0.0000E+00  0.4320E+03
      7.475  0.0000E+00  0.4320E+03
      7.576  0.0000E+00  0.4320E+03
      7.678  0.0000E+00  0.4320E+03
      7.780  0.0000E+00  0.4320E+03
      7.881  0.0000E+00  0.4320E+03
      7.983  0.0000E+00  0.4320E+03
      8.084  0.0000E+00  0.4320E+03
      8.186  0.0000E+00  0.4320E+03
      8.18589342    -22.28979920  301      0.69395232      1.00000000
    -22.290  0.0000E+00  0.0000E+00  0.0000E+00
    -22.188  0.0000E+00  0.0000E+00  0.0000E+00
    -22.087  0.0000E+00  0.0000E+00  0.0000E+00
    -21.985  0.0000E+00  0.0000E+00  0.0000E+00
    -21.883  0.0000E+00  0.0000E+00  0.0000E+00
    -21.782  0.0000E+00  0.0000E+00  0.0000E+00
    -21.680  0.0000E+00  0.0000E+00  0.0000E+00
    -21.579  0.0000E+00  0.0000E+00  0.0000E+00
    -21.477  0.0000E+00  0.0000E+00  0.0000E+00
    -21.376  0.0000E+00  0.0000E+00  0.0000E+00
    -21.274  0.0000E+00  0.0000E+00  0.0000E+00
    -21.172  0.0000E+00  0.0000E+00  0.0000E+00
    -21.071  0.0000E+00  0.0000E+00  0.0000E+00
    -20.969  0.0000E+00  0.0000E+00  0.0000E+00
    -20.868  0.1748E+02  0.1343E-06  0.2040E-04
    -20.766  0.0000E+00  0.0000E+00  0.0000E+00
    -20.664  0.0000E+00  0.0000E+00  0.0000E+00
    -20.563  0.0000E+00  0.0000E+00  0.0000E+00
    -20.461  0.0000E+00  0.0000E+00  0.0000E+00
    -20.360  0.0000E+00  0.0000E+00  0.0000E+00
    -20.258  0.0000E+00  0.0000E+00  0.0000E+00
    -20.157  0.0000E+00  0.0000E+00  0.0000E+00
    -20.055  0.0000E+00  0.0000E+00  0.0000E+00
    -19.953  0.0000E+00  0.0000E+00  0.0000E+00
    -19.852  0.0000E+00  0.0000E+00  0.0000E+00
    -19.750  0.0000E+00  0.0000E+00  0.0000E+00
    -19.649  0.0000E+00  0.0000E+00  0.0000E+00
    -19.547  0.0000E+00  0.0000E+00  0.0000E+00
    -19.445  0.0000E+00  0.0000E+00  0.0000E+00
    -19.344  0.0000E+00  0.0000E+00  0.0000E+00
    -19.242  0.0000E+00  0.0000E+00  0.0000E+00
    -19.141  0.0000E+00  0.0000E+00  0.0000E+00
    -19.039  0.0000E+00  0.0000E+00  0.0000E+00
    -18.937  0.0000E+00  0.0000E+00  0.0000E+00
    -18.836  0.0000E+00  0.0000E+00  0.0000E+00
    -18.734  0.0000E+00  0.0000E+00  0.0000E+00
    -18.633  0.0000E+00  0.0000E+00  0.0000E+00
    -18.531  0.0000E+00  0.0000E+00  0.0000E+00
    -18.430  0.0000E+00  0.0000E+00  0.0000E+00
    -18.328  0.0000E+00  0.0000E+00  0.0000E+00
    -18.226  0.0000E+00  0.0000E+00  0.0000E+00
    -18.125  0.0000E+00  0.0000E+00  0.0000E+00
    -18.023  0.0000E+00  0.0000E+00  0.0000E+00
    -17.922  0.0000E+00  0.0000E+00  0.0000E+00
    -17.820  0.0000E+00  0.0000E+00  0.0000E+00
    -17.718  0.0000E+00  0.0000E+00  0.0000E+00
    -17.617  0.0000E+00  0.0000E+00  0.0000E+00
    -17.515  0.0000E+00  0.0000E+00  0.0000E+00
    -17.414  0.0000E+00  0.0000E+00  0.0000E+00
    -17.312  0.0000E+00  0.0000E+00  0.0000E+00
    -17.211  0.0000E+00  0.0000E+00  0.0000E+00
    -17.109  0.0000E+00  0.0000E+00  0.0000E+00
    -17.007  0.0000E+00  0.0000E+00  0.0000E+00
    -16.906  0.0000E+00  0.0000E+00  0.0000E+00
    -16.804  0.0000E+00  0.0000E+00  0.0000E+00
    -16.703  0.0000E+00  0.0000E+00  0.0000E+00
    -16.601  0.0000E+00  0.0000E+00  0.0000E+00
    -16.499  0.2041E-22  0.6561E-33  0.1049E-21
    -16.398  0.2046E-04  0.1362E-04  0.3506E-05
    -16.296  0.4923E-04  0.7661E-04  0.8674E-05
    -16.195  0.3021E-04  0.1888E-04  0.1987E-05
    -16.093  0.0000E+00  0.0000E+00  0.0000E+00
    -15.991  0.0000E+00  0.0000E+00  0.0000E+00
    -15.890  0.0000E+00  0.0000E+00  0.0000E+00
    -15.788  0.0000E+00  0.0000E+00  0.0000E+00
    -15.687  0.0000E+00  0.0000E+00  0.0000E+00
    -15.585  0.0000E+00  0.0000E+00  0.0000E+00
    -15.484  0.0000E+00  0.0000E+00  0.0000E+00
    -15.382  0.0000E+00  0.0000E+00  0.0000E+00
    -15.280  0.0000E+00  0.0000E+00  0.0000E+00
    -15.179  0.0000E+00  0.0000E+00  0.0000E+00
    -15.077  0.0000E+00  0.0000E+00  0.0000E+00
    -14.976  0.0000E+00  0.0000E+00  0.0000E+00
    -14.874  0.0000E+00  0.0000E+00  0.0000E+00
    -14.772  0.0000E+00  0.0000E+00  0.0000E+00
    -14.671  0.0000E+00  0.0000E+00  0.0000E+00
    -14.569  0.0000E+00  0.0000E+00  0.0000E+00
    -14.468  0.0000E+00  0.0000E+00  0.0000E+00
    -14.366  0.2527E-04  0.3591E-19  0.1890E-06
    -14.265  0.1584E-02  0.3283E-03  0.1449E-04
    -14.163  0.1364E-02  0.1960E-02  0.5354E-04
    -14.061  0.3208E-03  0.5346E-02  0.1549E-03
    -13.960  0.9649E-03  0.1848E-02  0.9956E-04
    -13.858  0.5989E-03  0.2427E-02  0.4841E-03
    -13.757  0.2215E-02  0.4473E-02  0.4116E-03
    -13.655  0.4521E-03  0.8335E-03  0.4690E-04
    -13.553  0.0000E+00  0.0000E+00  0.0000E+00
    -13.452  0.0000E+00  0.0000E+00  0.0000E+00
    -13.350  0.0000E+00  0.0000E+00  0.0000E+00
    -13.249  0.0000E+00  0.0000E+00  0.0000E+00
    -13.147  0.0000E+00  0.0000E+00  0.0000E+00
    -13.046  0.0000E+00  0.0000E+00  0.0000E+00
    -12.944  0.0000E+00  0.0000E+00  0.0000E+00
    -12.842  0.0000E+00  0.0000E+00  0.0000E+00
    -12.741  0.0000E+00  0.0000E+00  0.0000E+00
    -12.639  0.0000E+00  0.0000E+00  0.0000E+00
    -12.538  0.0000E+00  0.0000E+00  0.0000E+00
    -12.436  0.0000E+00  0.0000E+00  0.0000E+00
    -12.334  0.0000E+00  0.0000E+00  0.0000E+00
    -12.233  0.0000E+00  0.0000E+00  0.0000E+00
    -12.131  0.0000E+00  0.0000E+00  0.0000E+00
    -12.030  0.0000E+00  0.0000E+00  0.0000E+00
    -11.928  0.0000E+00  0.0000E+00  0.0000E+00
    -11.826  0.0000E+00  0.0000E+00  0.0000E+00
    -11.725  0.0000E+00  0.0000E+00  0.0000E+00
    -11.623  0.0000E+00  0.0000E+00  0.0000E+00
    -11.522  0.0000E+00  0.0000E+00  0.0000E+00
    -11.420  0.0000E+00  0.0000E+00  0.0000E+00
    -11.319  0.0000E+00  0.0000E+00  0.0000E+00
    -11.217  0.0000E+00  0.0000E+00  0.0000E+00
    -11.115  0.0000E+00  0.0000E+00  0.0000E+00
    -11.014  0.0000E+00  0.0000E+00  0.0000E+00
    -10.912  0.0000E+00  0.0000E+00  0.0000E+00
    -10.811  0.0000E+00  0.0000E+00  0.0000E+00
    -10.709  0.0000E+00  0.0000E+00  0.0000E+00
    -10.607  0.0000E+00  0.0000E+00  0.0000E+00
    -10.506  0.0000E+00  0.0000E+00  0.0000E+00
    -10.404  0.0000E+00  0.0000E+00  0.0000E+00
    -10.303  0.0000E+00  0.0000E+00  0.0000E+00
    -10.201  0.0000E+00  0.0000E+00  0.0000E+00
    -10.100  0.0000E+00  0.0000E+00  0.0000E+00
     -9.998  0.0000E+00  0.0000E+00  0.0000E+00
     -9.896  0.0000E+00  0.0000E+00  0.0000E+00
     -9.795  0.0000E+00  0.0000E+00  0.0000E+00
     -9.693  0.0000E+00  0.0000E+00  0.0000E+00
     -9.592  0.0000E+00  0.0000E+00  0.0000E+00
     -9.490  0.0000E+00  0.0000E+00  0.0000E+00
     -9.388  0.0000E+00  0.0000E+00  0.0000E+00
     -9.287  0.0000E+00  0.0000E+00  0.0000E+00
     -9.185  0.0000E+00  0.0000E+00  0.0000E+00
     -9.084  0.0000E+00  0.0000E+00  0.0000E+00
     -8.982  0.0000E+00  0.0000E+00  0.0000E+00
     -8.880  0.0000E+00  0.0000E+00  0.0000E+00
     -8.779  0.0000E+00  0.0000E+00  0.0000E+00
     -8.677  0.0000E+00  0.0000E+00  0.0000E+00
     -8.576  0.0000E+00  0.0000E+00  0.0000E+00
     -8.474  0.0000E+00  0.0000E+00  0.0000E+00
     -8.373  0.0000E+00  0.0000E+00  0.0000E+00
     -8.271  0.0000E+00  0.0000E+00  0.0000E+00
     -8.169  0.3235E-20  0.3521E-18  0.8259E-20
     -8.068  0.0000E+00  0.0000E+00  0.0000E+00
     -7.966  0.3498E-17  0.3351E-17  0.4693E-05
     -7.865  0.4184E-18  0.9267E-18  0.1767E-05
     -7.763  0.2413E-18  0.2989E-02  0.8525E-05
     -7.661  0.6288E-17  0.2223E-01  0.2297E-04
     -7.560  0.3694E-20  0.8579E-14  0.1151E-07
     -7.458  0.2235E-04  0.1267E+00  0.5693E-04
     -7.357  0.4693E-10  0.3644E-01  0.1164E-05
     -7.255  0.3380E-04  0.3547E+02  0.4934E-04
     -7.154  0.3346E-04  0.2545E+01  0.4817E-04
     -7.052  0.1773E-04  0.4973E-01  0.9519E-05
     -6.950  0.2465E-17  0.4277E-01  0.2090E-16
     -6.849  0.2168E-04  0.3646E-02  0.6292E-05
     -6.747  0.2958E-04  0.1654E-01  0.8643E-05
     -6.646  0.0000E+00  0.0000E+00  0.0000E+00
     -6.544  0.0000E+00  0.0000E+00  0.0000E+00
     -6.442  0.4541E-05  0.5147E-17  0.1934E-05
     -6.341  0.0000E+00  0.0000E+00  0.0000E+00
     -6.239  0.0000E+00  0.0000E+00  0.0000E+00
     -6.138  0.0000E+00  0.0000E+00  0.0000E+00
     -6.036  0.0000E+00  0.0000E+00  0.0000E+00
     -5.935  0.0000E+00  0.0000E+00  0.0000E+00
     -5.833  0.0000E+00  0.0000E+00  0.0000E+00
     -5.731  0.0000E+00  0.0000E+00  0.0000E+00
     -5.630  0.0000E+00  0.0000E+00  0.0000E+00
     -5.528  0.0000E+00  0.0000E+00  0.0000E+00
     -5.427  0.0000E+00  0.0000E+00  0.0000E+00
     -5.325  0.0000E+00  0.0000E+00  0.0000E+00
     -5.223  0.0000E+00  0.0000E+00  0.0000E+00
     -5.122  0.0000E+00  0.0000E+00  0.0000E+00
     -5.020  0.0000E+00  0.0000E+00  0.0000E+00
     -4.919  0.0000E+00  0.0000E+00  0.0000E+00
     -4.817  0.0000E+00  0.0000E+00  0.0000E+00
     -4.715  0.0000E+00  0.0000E+00  0.0000E+00
     -4.614  0.0000E+00  0.0000E+00  0.0000E+00
     -4.512  0.0000E+00  0.0000E+00  0.0000E+00
     -4.411  0.0000E+00  0.0000E+00  0.0000E+00
     -4.309  0.0000E+00  0.0000E+00  0.0000E+00
     -4.208  0.0000E+00  0.0000E+00  0.0000E+00
     -4.106  0.0000E+00  0.0000E+00  0.0000E+00
     -4.004  0.0000E+00  0.0000E+00  0.0000E+00
     -3.903  0.0000E+00  0.0000E+00  0.0000E+00
     -3.801  0.0000E+00  0.0000E+00  0.0000E+00
     -3.700  0.0000E+00  0.0000E+00  0.0000E+00
     -3.598  0.0000E+00  0.0000E+00  0.0000E+00
     -3.496  0.6806E-24  0.1176E-07  0.2702E-22
     -3.395  0.5738E-18  0.9754E-02  0.4872E-03
     -3.293  0.1060E-14  0.2468E-13  0.5120E-03
     -3.192  0.1880E-15  0.1142E-01  0.2856E-03
     -3.090  0.5385E-15  0.2004E-02  0.1025E-02
     -2.989  0.1383E-15  0.1278E-15  0.6517E-03
     -2.887  0.0000E+00  0.0000E+00  0.0000E+00
     -2.785  0.0000E+00  0.0000E+00  0.0000E+00
     -2.684  0.1086E-11  0.3956E-10  0.1816E-11
     -2.582  0.3857E-03  0.3519E-01  0.1172E-02
     -2.481  0.1749E-03  0.2008E-01  0.2891E-02
     -2.379  0.4199E-03  0.1089E-01  0.3166E-02
     -2.277  0.3167E-02  0.2665E-01  0.2358E-02
     -2.176  0.3100E-02  0.3519E-02  0.2529E-02
     -2.074  0.1010E-02  0.4771E-05  0.5678E-03
     -1.973  0.3168E-01  0.4917E-01  0.6263E-02
     -1.871  0.3630E-04  0.2231E-01  0.5369E-04
     -1.769  0.3314E-03  0.7681E-01  0.1659E-02
     -1.668  0.1697E-02  0.6166E-01  0.2443E-02
     -1.566  0.3454E-02  0.1031E+00  0.8645E-02
     -1.465  0.1357E-04  0.2162E-01  0.7252E-02
     -1.363  0.2802E-02  0.9056E-02  0.2351E-01
     -1.262  0.3624E-02  0.8202E-01  0.9727E-02
     -1.160  0.3547E-02  0.4649E-01  0.1287E-01
     -1.058  0.2240E-02  0.1173E+00  0.2021E-01
     -0.957  0.7372E-03  0.1995E-01  0.2425E-02
     -0.855  0.6123E-03  0.4136E-02  0.3170E-02
     -0.754  0.9507E-04  0.1276E-01  0.2396E-02
     -0.652  0.0000E+00  0.0000E+00  0.0000E+00
     -0.550  0.1249E-15  0.2168E-02  0.5261E-03
     -0.449  0.3045E-16  0.5433E-04  0.2400E-04
     -0.347  0.7858E-23  0.2095E-09  0.2733E-09
     -0.246  0.1718E-16  0.4579E-03  0.5974E-03
     -0.144  0.4667E-15  0.6711E-05  0.3756E-03
     -0.043  0.2663E-17  0.1150E-16  0.1891E-03
      0.059  0.1252E-15  0.1593E-16  0.6428E-03
      0.161  0.7574E-18  0.1444E-16  0.1077E-08
      0.262  0.0000E+00  0.0000E+00  0.0000E+00
      0.364  0.0000E+00  0.0000E+00  0.0000E+00
      0.465  0.0000E+00  0.0000E+00  0.0000E+00
      0.567  0.1369E-30  0.7671E-31  0.1362E-29
      0.669  0.1218E-17  0.6828E-18  0.1213E-16
      0.770  0.0000E+00  0.0000E+00  0.0000E+00
      0.872  0.0000E+00  0.0000E+00  0.0000E+00
      0.973  0.0000E+00  0.0000E+00  0.0000E+00
      1.075  0.0000E+00  0.0000E+00  0.0000E+00
      1.176  0.0000E+00  0.0000E+00  0.0000E+00
      1.278  0.0000E+00  0.0000E+00  0.0000E+00
      1.380  0.0000E+00  0.0000E+00  0.0000E+00
      1.481  0.0000E+00  0.0000E+00  0.0000E+00
      1.583  0.0000E+00  0.0000E+00  0.0000E+00
      1.684  0.0000E+00  0.0000E+00  0.0000E+00
      1.786  0.0000E+00  0.0000E+00  0.0000E+00
      1.888  0.0000E+00  0.0000E+00  0.0000E+00
      1.989  0.0000E+00  0.0000E+00  0.0000E+00
      2.091  0.0000E+00  0.0000E+00  0.0000E+00
      2.192  0.0000E+00  0.0000E+00  0.0000E+00
      2.294  0.0000E+00  0.0000E+00  0.0000E+00
      2.396  0.0000E+00  0.0000E+00  0.0000E+00
      2.497  0.0000E+00  0.0000E+00  0.0000E+00
      2.599  0.0000E+00  0.0000E+00  0.0000E+00
      2.700  0.0000E+00  0.0000E+00  0.0000E+00
      2.802  0.2211E-13  0.2196E-15  0.2620E-02
      2.903  0.0000E+00  0.0000E+00  0.0000E+00
      3.005  0.2096E-14  0.1030E-02  0.2323E-02
      3.107  0.2686E-14  0.2246E-03  0.1596E-02
      3.208  0.5110E-03  0.2733E-02  0.3043E-02
      3.310  0.2257E-17  0.1413E-04  0.2992E-16
      3.411  0.6185E-03  0.2057E-02  0.1699E-02
      3.513  0.9928E-03  0.4686E-03  0.1201E-02
      3.615  0.4703E-03  0.1295E-16  0.1407E-02
      3.716  0.0000E+00  0.0000E+00  0.0000E+00
      3.818  0.0000E+00  0.0000E+00  0.0000E+00
      3.919  0.0000E+00  0.0000E+00  0.0000E+00
      4.021  0.0000E+00  0.0000E+00  0.0000E+00
      4.122  0.0000E+00  0.0000E+00  0.0000E+00
      4.224  0.5876E-15  0.1105E-14  0.1549E-03
      4.326  0.8057E-15  0.7013E-05  0.1043E-04
      4.427  0.3996E-14  0.1132E-03  0.3812E-03
      4.529  0.1825E-02  0.1312E-02  0.5117E-02
      4.630  0.1556E-02  0.8247E-02  0.1307E-01
      4.732  0.1483E-01  0.1232E-02  0.5490E-02
      4.834  0.7524E-05  0.1348E-02  0.1695E-01
      4.935  0.1075E-01  0.7592E-02  0.1603E-01
      5.037  0.1821E-10  0.3392E-02  0.2701E-02
      5.138  0.2067E-01  0.1246E-01  0.1913E-01
      5.240  0.0000E+00  0.0000E+00  0.0000E+00
      5.341  0.7738E-15  0.2132E-15  0.2513E-15
      5.443  0.3303E-01  0.9101E-02  0.1073E-01
      5.545  0.9555E-02  0.9363E-03  0.1491E-02
      5.646  0.5914E-04  0.3474E-13  0.3647E-01
      5.748  0.5062E-04  0.3811E-13  0.1252E-03
      5.849  0.5654E-01  0.1488E-01  0.1259E+00
      5.951  0.6928E-06  0.2626E-03  0.9489E-02
      6.053  0.3906E-10  0.9519E-11  0.3383E-02
      6.154  0.8285E-01  0.2302E-01  0.4570E+00
      6.256  0.3765E-01  0.3927E-02  0.1720E+00
      6.357  0.8271E-01  0.2111E-01  0.4258E+00
      6.459  0.6267E-03  0.4853E-02  0.6727E-01
      6.561  0.5357E-01  0.1798E-01  0.8804E+00
      6.662  0.9525E-03  0.3480E-01  0.5064E+00
      6.764  0.3657E-01  0.2819E-01  0.5009E+00
      6.865  0.1303E-02  0.6886E-03  0.7566E-01
      6.967  0.0000E+00  0.0000E+00  0.0000E+00
      7.068  0.0000E+00  0.0000E+00  0.0000E+00
      7.170  0.0000E+00  0.0000E+00  0.0000E+00
      7.272  0.0000E+00  0.0000E+00  0.0000E+00
      7.373  0.0000E+00  0.0000E+00  0.0000E+00
      7.475  0.0000E+00  0.0000E+00  0.0000E+00
      7.576  0.0000E+00  0.0000E+00  0.0000E+00
      7.678  0.0000E+00  0.0000E+00  0.0000E+00
      7.780  0.0000E+00  0.0000E+00  0.0000E+00
      7.881  0.0000E+00  0.0000E+00  0.0000E+00
      7.983  0.0000E+00  0.0000E+00  0.0000E+00
      8.084  0.0000E+00  0.0000E+00  0.0000E+00
      8.186  0.0000E+00  0.0000E+00  0.0000E+00
      8.18589342    -22.28979920  301      0.69395232      1.00000000
    -22.290  0.0000E+00  0.0000E+00  0.0000E+00
    -22.188  0.0000E+00  0.0000E+00  0.0000E+00
    -22.087  0.0000E+00  0.0000E+00  0.0000E+00
    -21.985  0.0000E+00  0.0000E+00  0.0000E+00
    -21.883  0.0000E+00  0.0000E+00  0.0000E+00
    -21.782  0.0000E+00  0.0000E+00  0.0000E+00
    -21.680  0.0000E+00  0.0000E+00  0.0000E+00
    -21.579  0.0000E+00  0.0000E+00  0.0000E+00
    -21.477  0.0000E+00  0.0000E+00  0.0000E+00
    -21.376  0.0000E+00  0.0000E+00  0.0000E+00
    -21.274  0.0000E+00  0.0000E+00  0.0000E+00
    -21.172  0.0000E+00  0.0000E+00  0.0000E+00
    -21.071  0.0000E+00  0.0000E+00  0.0000E+00
    -20.969  0.0000E+00  0.0000E+00  0.0000E+00
    -20.868  0.1748E+02  0.1343E-06  0.2040E-04
    -20.766  0.0000E+00  0.0000E+00  0.0000E+00
    -20.664  0.0000E+00  0.0000E+00  0.0000E+00
    -20.563  0.0000E+00  0.0000E+00  0.0000E+00
    -20.461  0.0000E+00  0.0000E+00  0.0000E+00
    -20.360  0.0000E+00  0.0000E+00  0.0000E+00
    -20.258  0.0000E+00  0.0000E+00  0.0000E+00
    -20.157  0.0000E+00  0.0000E+00  0.0000E+00
    -20.055  0.0000E+00  0.0000E+00  0.0000E+00
    -19.953  0.0000E+00  0.0000E+00  0.0000E+00
    -19.852  0.0000E+00  0.0000E+00  0.0000E+00
    -19.750  0.0000E+00  0.0000E+00  0.0000E+00
    -19.649  0.0000E+00  0.0000E+00  0.0000E+00
    -19.547  0.0000E+00  0.0000E+00  0.0000E+00
    -19.445  0.0000E+00  0.0000E+00  0.0000E+00
    -19.344  0.0000E+00  0.0000E+00  0.0000E+00
    -19.242  0.0000E+00  0.0000E+00  0.0000E+00
    -19.141  0.0000E+00  0.0000E+00  0.0000E+00
    -19.039  0.0000E+00  0.0000E+00  0.0000E+00
    -18.937  0.0000E+00  0.0000E+00  0.0000E+00
    -18.836  0.0000E+00  0.0000E+00  0.0000E+00
    -18.734  0.0000E+00  0.0000E+00  0.0000E+00
    -18.633  0.0000E+00  0.0000E+00  0.0000E+00
    -18.531  0.0000E+00  0.0000E+00  0.0000E+00
    -18.430  0.0000E+00  0.0000E+00  0.0000E+00
    -18.328  0.0000E+00  0.0000E+00  0.0000E+00
    -18.226  0.0000E+00  0.0000E+00  0.0000E+00
    -18.125  0.0000E+00  0.0000E+00  0.0000E+00
    -18.023  0.0000E+00  0.0000E+00  0.0000E+00
    -17.922  0.0000E+00  0.0000E+00  0.0000E+00
    -17.820  0.0000E+00  0.0000E+00  0.0000E+00
    -17.718  0.0000E+00  0.0000E+00  0.0000E+00
    -17.617  0.0000E+00  0.0000E+00  0.0000E+00
    -17.515  0.0000E+00  0.0000E+00  0.0000E+00
    -17.414  0.0000E+00  0.0000E+00  0.0000E+00
    -17.312  0.0000E+00  0.0000E+00  0.0000E+00
    -17.211  0.0000E+00  0.0000E+00  0.0000E+00
    -17.109  0.0000E+00  0.0000E+00  0.0000E+00
    -17.007  0.0000E+00  0.0000E+00  0.0000E+00
    -16.906  0.0000E+00  0.0000E+00  0.0000E+00
    -16.804  0.0000E+00  0.0000E+00  0.0000E+00
    -16.703  0.0000E+00  0.0000E+00  0.0000E+00
    -16.601  0.0000E+00  0.0000E+00  0.0000E+00
    -16.499  0.2041E-22  0.7482E-33  0.1049E-21
    -16.398  0.2046E-04  0.1362E-04  0.3506E-05
    -16.296  0.4923E-04  0.7661E-04  0.8674E-05
    -16.195  0.3021E-04  0.1888E-04  0.1987E-05
    -16.093  0.0000E+00  0.0000E+00  0.0000E+00
    -15.991  0.0000E+00  0.0000E+00  0.0000E+00
    -15.890  0.0000E+00  0.0000E+00  0.0000E+00
    -15.788  0.0000E+00  0.0000E+00  0.0000E+00
    -15.687  0.0000E+00  0.0000E+00  0.0000E+00
    -15.585  0.0000E+00  0.0000E+00  0.0000E+00
    -15.484  0.0000E+00  0.0000E+00  0.0000E+00
    -15.382  0.0000E+00  0.0000E+00  0.0000E+00
    -15.280  0.0000E+00  0.0000E+00  0.0000E+00
    -15.179  0.0000E+00  0.0000E+00  0.0000E+00
    -15.077  0.0000E+00  0.0000E+00  0.0000E+00
    -14.976  0.0000E+00  0.0000E+00  0.0000E+00
    -14.874  0.0000E+00  0.0000E+00  0.0000E+00
    -14.772  0.0000E+00  0.0000E+00  0.0000E+00
    -14.671  0.0000E+00  0.0000E+00  0.0000E+00
    -14.569  0.0000E+00  0.0000E+00  0.0000E+00
    -14.468  0.0000E+00  0.0000E+00  0.0000E+00
    -14.366  0.2527E-04  0.3938E-19  0.1890E-06
    -14.265  0.1584E-02  0.3283E-03  0.1449E-04
    -14.163  0.1364E-02  0.1960E-02  0.5354E-04
    -14.061  0.3208E-03  0.5346E-02  0.1549E-03
    -13.960  0.9649E-03  0.1848E-02  0.9956E-04
    -13.858  0.5989E-03  0.2427E-02  0.4841E-03
    -13.757  0.2215E-02  0.4473E-02  0.4116E-03
    -13.655  0.4521E-03  0.8335E-03  0.4690E-04
    -13.553  0.0000E+00  0.0000E+00  0.0000E+00
    -13.452  0.0000E+00  0.0000E+00  0.0000E+00
    -13.350  0.0000E+00  0.0000E+00  0.0000E+00
    -13.249  0.0000E+00  0.0000E+00  0.0000E+00