       N       E                     dE             d eps       ncg     rms          rms(c)
DAV:   1     0.133388290414E+04    0.13339E+04   -0.11058E+05  3488   0.973E+02
DAV:   2    -0.111335283061E+04   -0.24472E+04   -0.23635E+04  4080   0.300E+02
DAV:   3    -0.147416627678E+04   -0.36081E+03   -0.35888E+03  4432   0.137E+02
DAV:   4    -0.148601278113E+04   -0.11847E+02   -0.11810E+02  3912   0.327E+01
DAV:   5    -0.148653869968E+04   -0.52592E+00   -0.52564E+00  4456   0.545E+00    0.108E+01
DAV:   6    -0.140892281012E+04    0.77616E+02   -0.23443E+01  4304   0.310E+01    0.761E+00
DAV:   7    -0.140840872599E+04    0.51408E+00   -0.86933E+00  4064   0.565E+00    0.377E+00
DAV:   8    -0.140857857888E+04   -0.16985E+00   -0.45559E-01  4064   0.207E+00    0.218E+00
DAV:   9    -0.140863966628E+04   -0.61087E-01   -0.15928E-01  3808   0.128E+00    0.448E-01
DAV:  10    -0.140864268067E+04   -0.30144E-02   -0.20127E-02  4712   0.441E-01    0.317E-01
DAV:  11    -0.140864514307E+04   -0.24624E-02   -0.33353E-03  3880   0.174E-01    0.129E-01
DAV:  12    -0.140864755662E+04   -0.24136E-02   -0.44384E-03  3720   0.175E-01    0.105E-01
DAV:  13    -0.140864712722E+04    0.42940E-03   -0.16331E-03  4496   0.117E-01    0.444E-02
DAV:  14    -0.140864712986E+04   -0.26385E-05   -0.38830E-04  3840   0.377E-02    0.274E-02
DAV:  15    -0.140864711955E+04    0.10307E-04   -0.39912E-05  3776   0.151E-02    0.152E-02
DAV:  16    -0.140864719044E+04   -0.70896E-04   -0.36683E-05  3880   0.186E-02    0.748E-03
DAV:  17    -0.140864718277E+04    0.76775E-05   -0.72577E-06  3896   0.709E-03    0.439E-03
DAV:  18    -0.140864718021E+04    0.25577E-05   -0.23973E-06  2800   0.307E-03    0.210E-03
DAV:  19    -0.140864717644E+04    0.37668E-05   -0.33354E-07  2168   0.175E-03    0.120E-03
DAV:  20    -0.140864717467E+04    0.17756E-05   -0.15557E-07  2096   0.128E-03    0.859E-04
DAV:  21    -0.140864717486E+04   -0.19622E-06   -0.46994E-07  2192   0.129E-03
   1 F= -.14086472E+04 E0= -.14086472E+04  d E =-.292941E-23
