 vasp.5.4.4.18Apr17-6-g9f103f2a35 (build Jun 22 2020 09:27:21) complex           
 executed on tx2_gcc-7.3_libsci-1 date 2021.10.12  02:54:17
 running on   64 total cores
 distrk:  each k-point on   64 cores,    1 groups
 distr:  one band on NCORES_PER_BAND=   8 cores,    8 groups


--------------------------------------------------------------------------------------------------------


 INCAR:
 POTCAR:    PAW_PBE Cs_sv 08Apr2002               
 POTCAR:    PAW_PBE Pb_d 06Sep2000                
 POTCAR:    PAW_PBE Br 06Sep2000                  
 POTCAR:    PAW_PBE Cs_sv 08Apr2002               
   SHA256 =  c1463496f0f6037ed62c6012a8013a89ee9ad6ffb38599dcd6c079e7ed31779b Cs
   COPYR  = (c) Copyright 08Apr2002 Georg Kresse                                
   COPYR  = This file is part of the software VASP. Any use, copying, and all ot
   COPYR  = If you do not have a valid VASP license, you may not use, copy or di
   VRHFIN =Cs: 5s5p6s                                                           
   LEXCH  = PE                                                                  
   EATOM  =   555.6835 eV,   40.8416 Ry                                         
                                                                                
   TITEL  = PAW_PBE Cs_sv 08Apr2002                                             
   LULTRA =        F    use ultrasoft PP ?                                      
   IUNSCR =        1    unscreen: 0-lin 1-nonlin 2-no                           
   RPACOR =    2.200    partial core radius                                     
   POMASS =  132.900; ZVAL   =    9.000    mass and valenz                      
   RCORE  =    2.500    outmost cutoff radius                                   
   RWIGS  =    2.500; RWIGS  =    1.323    wigner-seitz radius (au A)           
   ENMAX  =  220.318; ENMIN  =  165.238 eV                                      
   RCLOC  =    2.207    cutoff for local pot                                    
   LCOR   =        T    correct aug charges                                     
   LPAW   =        T    paw PP                                                  
   EAUG   =  407.933                                                            
   DEXC   =    0.000                                                            
   RMAX   =    2.554    core radius for proj-oper                               
   RAUG   =    1.300    factor for augmentation sphere                          
   RDEP   =    2.590    radius for radial grids                                 
   RDEPT  =    2.117    core radius for aug-charge                              
                                                                                
   Atomic configuration                                                         
   13 entries                                                                   
     n  l   j            E        occ.                                          
     1  0  0.50    -35790.1377   2.0000                                         
     2  0  0.50     -5613.6201   2.0000                                         
     2  1  1.50     -5035.0101   6.0000                                         
     3  0  0.50     -1167.0767   2.0000                                         
     3  1  1.50      -980.9754   6.0000                                         
     3  2  2.50      -708.0703  10.0000                                         
     4  0  0.50      -220.2386   2.0000                                         
     4  1  1.50      -160.7596   6.0000                                         
     4  2  2.50       -74.2354  10.0000                                         
     5  0  0.50       -26.7287   2.0000                                         
     6  0  0.50        -2.0862   1.0000                                         
     5  1  1.50       -13.5159   6.0000                                         
     5  2  2.50        -0.4136   0.0000                                         
   Description                                                                  
     l       E           TYP  RCUT    TYP  RCUT                                 
     0    -26.7287425     23  1.900                                             
     0     -2.0862306     23  1.900                                             
     1    -13.5158719     23  2.500                                             
     1     -2.7211652     23  2.500                                             
     2     -0.4136171     23  2.500                                             
  local pseudopotential read in
  partial core-charges read in
  partial kinetic energy density read in
  atomic valenz-charges read in
  non local Contribution for L=           0  read in
    real space projection operators read in
  non local Contribution for L=           0  read in
    real space projection operators read in
  non local Contribution for L=           1  read in
    real space projection operators read in
  non local Contribution for L=           1  read in
    real space projection operators read in
  non local Contribution for L=           2  read in
    real space projection operators read in
    PAW grid and wavefunctions read in

   number of l-projection  operators is LMAX  =           5
   number of lm-projection operators is LMMAX =          13

 POTCAR:    PAW_PBE Pb_d 06Sep2000                
   SHA256 =  fb885b08f0fba73a15f6a6b0e39bd200c13ec96ef97cf3ecd8e63bade5137abd Pb
   COPYR  = (c) Copyright 06Sep2000 Georg Kresse                                
   COPYR  = This file is part of the software VASP. Any use, copying, and all ot
   COPYR  = If you do not have a valid VASP license, you may not use, copy or di
   VRHFIN =Pb:                                                                  
   LEXCH  = PE                                                                  
   EATOM  =  1661.6185 eV,  122.1255 Ry                                         
                                                                                
   TITEL  = PAW_PBE Pb_d 06Sep2000                                              
   LULTRA =        F    use ultrasoft PP ?                                      
   IUNSCR =        1    unscreen: 0-lin 1-nonlin 2-no                           
   RPACOR =    2.200    partial core radius                                     
   POMASS =  207.200; ZVAL   =   14.000    mass and valenz                      
   RCORE  =    2.500    outmost cutoff radius                                   
   RWIGS  =    3.260; RWIGS  =    1.725    wigner-seitz radius (au A)           
   ENMAX  =  237.835; ENMIN  =  178.376 eV                                      
   ICORE  =        3    local potential                                         
   LCOR   =        T    correct aug charges                                     
   LPAW   =        T    paw PP                                                  
   EAUG   =  391.914                                                            
   DEXC   =    0.000                                                            
   RMAX   =    2.565    core radius for proj-oper                               
   RAUG   =    1.300    factor for augmentation sphere                          
   RDEP   =    2.643    radius for radial grids                                 
   RDEPT  =    2.092    core radius for aug-charge                              
                                                                                
   Atomic configuration                                                         
   16 entries                                                                   
     n  l   j            E        occ.                                          
     1  0  0.50    -88091.8466   2.0000                                         
     2  0  0.50    -15753.4197   2.0000                                         
     2  1  1.50    -13508.1797   6.0000                                         
     3  0  0.50     -3781.7194   2.0000                                         
     3  1  1.50     -3138.2529   6.0000                                         
     3  2  2.50     -2483.2977  10.0000                                         
     4  0  0.50      -856.2895   2.0000                                         
     4  1  1.50      -645.4942   6.0000                                         
     4  2  2.50      -401.8768  10.0000                                         
     4  3  3.50      -132.9059  14.0000                                         
     5  0  0.50      -144.0950   2.0000                                         
     5  1  1.50       -85.7879   6.0000                                         
     5  2  2.50       -21.1769  10.0000                                         
     6  0  0.50       -12.0372   2.0000                                         
     6  1  1.50        -3.4971   2.0000                                         
     5  3  2.50        -2.7212   0.0000                                         
   Description                                                                  
     l       E           TYP  RCUT    TYP  RCUT                                 
     2    -21.1768523     23  2.500                                             
     2      1.3605826     23  2.500                                             
     0    -12.0371562     23  2.500                                             
     0     13.6058260     23  2.500                                             
     1     -3.4971339     23  2.500                                             
     1     13.6058260     23  2.500                                             
     3     -1.3605826      7  2.500                                             
  local pseudopotential read in
  partial core-charges read in
  partial kinetic energy density read in
  atomic valenz-charges read in
  non local Contribution for L=           2  read in
    real space projection operators read in
  non local Contribution for L=           2  read in
    real space projection operators read in
  non local Contribution for L=           0  read in
    real space projection operators read in
  non local Contribution for L=           0  read in
    real space projection operators read in
  non local Contribution for L=           1  read in
    real space projection operators read in
  non local Contribution for L=           1  read in
    real space projection operators read in
    PAW grid and wavefunctions read in

   number of l-projection  operators is LMAX  =           6
   number of lm-projection operators is LMMAX =          18

 POTCAR:    PAW_PBE Br 06Sep2000                  
   SHA256 =  96a73d2954943bbee26f4990d676cc6c3bf44b8dd2c75cd4b3b825d8403f0103 Br
   COPYR  = (c) Copyright 06Sep2000 Georg Kresse                                
   COPYR  = This file is part of the software VASP. Any use, copying, and all ot
   COPYR  = If you do not have a valid VASP license, you may not use, copy or di
   VRHFIN =Br: s2p5                                                             
   LEXCH  = PE                                                                  
   EATOM  =   368.4488 eV,   27.0802 Ry                                         
                                                                                
   TITEL  = PAW_PBE Br 06Sep2000                                                
   LULTRA =        F    use ultrasoft PP ?                                      
   IUNSCR =        1    unscreen: 0-lin 1-nonlin 2-no                           
   RPACOR =    1.900    partial core radius                                     
   POMASS =   79.904; ZVAL   =    7.000    mass and valenz                      
   RCORE  =    2.100    outmost cutoff radius                                   
   RWIGS  =    2.200; RWIGS  =    1.164    wigner-seitz radius (au A)           
   ENMAX  =  216.285; ENMIN  =  162.214 eV                                      
   ICORE  =        3    local potential                                         
   LCOR   =        T    correct aug charges                                     
   LPAW   =        T    paw PP                                                  
   EAUG   =  503.852                                                            
   DEXC   =    0.000                                                            
   RMAX   =    2.139    core radius for proj-oper                               
   RAUG   =    1.300    factor for augmentation sphere                          
   RDEP   =    2.186    radius for radial grids                                 
   RDEPT  =    1.890    core radius for aug-charge                              
                                                                                
   Atomic configuration                                                         
   10 entries                                                                   
     n  l   j            E        occ.                                          
     1  0  0.50    -13316.2796   2.0000                                         
     2  0  0.50     -1732.8239   2.0000                                         
     2  1  1.50     -1528.2193   6.0000                                         
     3  0  0.50      -238.0460   2.0000                                         
     3  1  1.50      -173.4609   6.0000                                         
     3  2  2.50       -66.7132  10.0000                                         
     4  0  0.50       -20.1334   2.0000                                         
     4  1  0.50        -7.8591   5.0000                                         
     4  2  2.50        -8.1635   0.0000                                         
     4  3  2.50        -8.1635   0.0000                                         
   Description                                                                  
     l       E           TYP  RCUT    TYP  RCUT                                 
     0    -20.1333652     23  2.100                                             
     0    -21.4939478     23  2.100                                             
     1     -7.8591052     23  2.100                                             
     1     -3.1608434     23  2.100                                             
     2     -8.1634956     23  2.100                                             
     3     -1.3605826      7  2.100                                             
  local pseudopotential read in
  partial core-charges read in
  partial kinetic energy density read in
  atomic valenz-charges read in
  non local Contribution for L=           0  read in
    real space projection operators read in
  non local Contribution for L=           0  read in
    real space projection operators read in
  non local Contribution for L=           1  read in
    real space projection operators read in
  non local Contribution for L=           1  read in
    real space projection operators read in
  non local Contribution for L=           2  read in
    real space projection operators read in
    PAW grid and wavefunctions read in

   number of l-projection  operators is LMAX  =           5
   number of lm-projection operators is LMMAX =          13

 Optimization of the real space projectors (new method)

 maximal supplied QI-value         = 15.12
 optimisation between [QCUT,QGAM] = [  8.77, 17.69] = [ 21.53, 87.61] Ry 
 Optimized for a Real-space Cutoff    1.85 Angstroem

   l    n(q)    QCUT    max X(q) W(low)/X(q) W(high)/X(q)  e(spline) 
   0     10     8.768    25.322    0.81E-04    0.51E-04    0.48E-06
   0     10     8.768    99.187    0.78E-04    0.50E-04    0.47E-06
   1      9     8.768    11.761    0.21E-03    0.20E-03    0.37E-06
   1      9     8.768     8.275    0.24E-03    0.22E-03    0.41E-06
   2      9     8.768     3.829    0.23E-04    0.15E-03    0.18E-06
 Optimization of the real space projectors (new method)

 maximal supplied QI-value         = 15.12
 optimisation between [QCUT,QGAM] = [  8.77, 17.69] = [ 21.53, 87.61] Ry 
 Optimized for a Real-space Cutoff    1.59 Angstroem

   l    n(q)    QCUT    max X(q) W(low)/X(q) W(high)/X(q)  e(spline) 
   2      7     8.768     3.846    0.48E-04    0.11E-03    0.11E-06
   2      7     8.768     8.593    0.20E-03    0.22E-04    0.24E-06
   0      8     8.768    20.082    0.68E-04    0.88E-04    0.41E-07
   0      8     8.768     8.597    0.89E-04    0.13E-03    0.59E-07
   1      8     8.768    33.223    0.15E-03    0.53E-04    0.87E-07
   1      8     8.768    15.899    0.14E-03    0.44E-04    0.78E-07
 Optimization of the real space projectors (new method)

 maximal supplied QI-value         = 17.95
 optimisation between [QCUT,QGAM] = [  8.80, 17.59] = [ 21.67, 86.68] Ry 
 Optimized for a Real-space Cutoff    1.59 Angstroem

   l    n(q)    QCUT    max X(q) W(low)/X(q) W(high)/X(q)  e(spline) 
   0      8     8.797   175.082    0.82E-04    0.14E-03    0.89E-07
   0      8     8.797   174.004    0.79E-04    0.14E-03    0.86E-07
   1      8     8.797    54.315    0.16E-03    0.14E-04    0.30E-06
   1      8     8.797    42.441    0.16E-03    0.14E-04    0.30E-06
   2      7     8.797     3.596    0.92E-04    0.15E-03    0.85E-07
  PAW_PBE Cs_sv 08Apr2002               :
 energy of atom  1       EATOM= -555.6835
 kinetic energy error for atom=    0.0069 (will be added to EATOM!!)
  PAW_PBE Pb_d 06Sep2000                :
 energy of atom  2       EATOM=-1661.6185
 kinetic energy error for atom=    0.0498 (will be added to EATOM!!)
  PAW_PBE Br 06Sep2000                  :
 energy of atom  3       EATOM= -368.4488
 kinetic energy error for atom=    0.0072 (will be added to EATOM!!)


 POSCAR: Cs8 Pb8 Br23                            
  positions in direct lattice
  No initial velocities read in

 METAGGA = SCAN     LMAXTAU =  6    LMIXTAU =  F

 exchange correlation table for  LEXCH =        8
   RHO(1)=    0.500       N(1)  =     2000
   RHO(2)=  100.500       N(2)  =     4000

 VTST: version 3.2, (02/03/18)

 CHAIN: initializing optimizer
 
 OPT: Using VASP Conjugate-Gradient optimizer
 CHAIN: Read ICHAIN            0

 POSCAR: Cs8 Pb8 Br23                            
  positions in direct lattice
  No initial velocities read in



--------------------------------------------------------------------------------------------------------


 ion  position               nearest neighbor table
   1  0.267  0.249  0.198-
   2  0.776  0.246  0.716-
   3  0.717  0.753  0.265-
   4  0.202  0.754  0.778-
   5  0.290  0.240  0.742-
   6  0.794  0.247  0.223-
   7  0.735  0.750  0.806-
   8  0.223  0.756  0.270-
   9  0.998  0.001  1.000-  19 2.96  21 2.97  32 2.98  30 3.00  35 3.00  29 3.01
  10  0.498  0.006  0.500-  20 2.94  34 2.97  28 2.99  31 2.99  33 2.99
  11  0.501  0.998  0.001-  30 2.97  17 2.98  22 2.98  32 3.00  28 3.02  34 3.02
  12  0.001  0.002  0.500-  18 3.00  29 3.00  35 3.00  31 3.01  23 3.01  33 3.03
  13  0.500  0.500  0.000-  17 2.97  22 2.98  36 2.99  24 3.00  37 3.03  26 3.04
  14  0.998  0.501  0.500-  25 2.92  23 2.97  18 2.97  27 2.98  38 3.00
  15  0.000  0.499  0.000-  19 2.96  21 2.97  24 3.00  36 3.01  38 3.02  27 3.02
  16  0.509  0.491  0.498-  39 2.39  20 2.93  25 2.96  26 2.97  37 2.97
  17  0.470  0.749  0.963-  13 2.97  11 2.98
  18  0.976  0.750  0.461-  14 2.97  12 3.00
  19  0.972  0.250  0.969-  15 2.96   9 2.96
  20  0.447  0.249  0.471-  16 2.93  10 2.94
  21  0.019  0.750  0.027-  15 2.97   9 2.97
  22  0.527  0.249  0.035-  13 2.98  11 2.98
  23  0.034  0.253  0.542-  14 2.97  12 3.01
  24  0.247  0.471  0.946-  13 3.00  15 3.00
  25  0.753  0.467  0.447-  14 2.92  16 2.96
  26  0.452  0.538  0.251-  16 2.97  13 3.04
  27  0.949  0.535  0.746-  14 2.98  15 3.02
  28  0.552  0.030  0.752-  10 2.99  11 3.02
  29  0.049  0.036  0.253-  12 3.00   9 3.01
  30  0.751  0.970  0.051-  11 2.97   9 3.00
  31  0.253  0.963  0.552-  10 2.99  12 3.01
  32  0.247  0.024  0.955-   9 2.98  11 3.00
  33  0.746  0.037  0.452-  10 2.99  12 3.03
  34  0.455  0.961  0.251-  10 2.97  11 3.02
  35  0.949  0.966  0.747-   9 3.00  12 3.00
  36  0.752  0.529  0.053-  13 2.99  15 3.01
  37  0.549  0.465  0.750-  16 2.97  13 3.03
  38  0.054  0.468  0.254-  14 3.00  15 3.02
  39  0.389  0.649  0.538-  16 2.39


IMPORTANT INFORMATION: All symmetrisations will be switched off!
NOSYMM: (Re-)initialisation of all symmetry stuff for point group C_1.



 KPOINTS: 1x1x1                                   

Automatic generation of k-mesh.
Space group operators:
 irot       det(A)        alpha          n_x          n_y          n_z        tau_x        tau_y        tau_z
    1     1.000000     0.000001     1.000000     0.000000     0.000000     0.000000     0.000000     0.000000
 
 Subroutine IBZKPT returns following result:
 ===========================================
 
 Found      8 irreducible k-points:
 
 Following reciprocal coordinates:
            Coordinates               Weight
  0.000000  0.000000  0.000000      1.000000
  0.500000  0.000000  0.000000      1.000000
  0.000000  0.500000  0.000000      1.000000
  0.500000  0.500000  0.000000      1.000000
  0.000000  0.000000  0.500000      1.000000
  0.500000  0.000000  0.500000      1.000000
  0.000000  0.500000  0.500000      1.000000
  0.500000  0.500000  0.500000      1.000000
 
 Following cartesian coordinates:
            Coordinates               Weight
 -0.000000  0.000000  0.000000      1.000000
  0.029563  0.000000  0.031093      1.000000
 -0.000000  0.042626  0.000000      1.000000
  0.029563  0.042626  0.031093      1.000000
 -0.029563  0.000000  0.031093      1.000000
  0.000000  0.000000  0.062187      1.000000
 -0.029563  0.042626  0.031093      1.000000
  0.000000  0.042626  0.062187      1.000000
 


--------------------------------------------------------------------------------------------------------




 Dimension of arrays:
   k-points           NKPTS =      8   k-points in BZ     NKDIM =      8   number of bands    NBANDS=    208
   number of dos      NEDOS =    301   number of ions     NIONS =     39
   non local maximal  LDIM  =      6   non local SUM 2l+1 LMDIM =     18
   total plane-waves  NPLWV = 343000
   max r-space proj   IRMAX =   5734   max aug-charges    IRDMAX=  91523
   dimension x,y,z NGX =    70 NGY =   70 NGZ =   70
   dimension x,y,z NGXF=   140 NGYF=  140 NGZF=  140
   support grid    NGXF=   280 NGYF=  280 NGZF=  280
   ions per type =               8   8  23
   NGX,Y,Z   is equivalent  to a cutoff of   9.97,  9.92,  9.97 a.u.
   NGXF,Y,Z  is equivalent  to a cutoff of  19.95, 19.84, 19.95 a.u.

 SYSTEM =  CsPbBr3 cubic bulk                      
 POSCAR =  Cs8 Pb8 Br23                            

 Startparameter for this run:
   NWRITE =      2    write-flag & timer
   PREC   = accura    normal or accurate (medium, high low for compatibility)
   ISTART =      0    job   : 0-new  1-cont  2-samecut
   ICHARG =      2    charge: 1-file 2-atom 10-const
   ISPIN  =      1    spin polarized calculation?
   LNONCOLLINEAR =      F non collinear calculations
   LSORBIT =      F    spin-orbit coupling
   INIWAV =      1    electr: 0-lowe 1-rand  2-diag
   LASPH  =      T    aspherical Exc in radial PAW
   METAGGA=      F    non-selfconsistent MetaGGA calc.

 Electronic Relaxation 1
   ENCUT  =  300.0 eV  22.05 Ry    4.70 a.u.  16.48 16.57 16.48*2*pi/ulx,y,z
   ENINI  =  300.0     initial cutoff
   ENAUG  =  503.9 eV  augmentation charge cutoff
   NELM   =    200;   NELMIN=  2; NELMDL= -5     # of ELM steps 
   EDIFF  = 0.1E-05   stopping-criterion for ELM
   LREAL  =      T    real-space projection
   NLSPLINE    = F    spline interpolate recip. space projectors
   LCOMPAT=      F    compatible to vasp.4.4
   GGA_COMPAT  = T    GGA compatible to vasp.4.4-vasp.4.6
   LMAXPAW     = -100 max onsite density
   LMAXMIX     =    2 max onsite mixed and CHGCAR
   VOSKOWN=      0    Vosko Wilk Nusair interpolation
   ROPT   =   -0.00025  -0.00025  -0.00025
 Ionic relaxation
   EDIFFG = -.1E-01   stopping-criterion for IOM
   NSW    =      0    number of steps for IOM
   NBLOCK =      1;   KBLOCK =      1    inner block; outer block 
   IBRION =     -1    ionic relax: 0-MD 1-quasi-New 2-CG
   NFREE  =      1    steps in history (QN), initial steepest desc. (CG)
   ISIF   =      2    stress and relaxation
   IWAVPR =     10    prediction:  0-non 1-charg 2-wave 3-comb
   ISYM   =      0    0-nonsym 1-usesym 2-fastsym
   LCORR  =      T    Harris-Foulkes like correction to forces

   POTIM  = 0.5000    time-step for ionic-motion
   TEIN   =    0.0    initial temperature
   TEBEG  =    0.0;   TEEND  =   0.0 temperature during run
   SMASS  =  -3.00    Nose mass-parameter (am)
   estimated Nose-frequenzy (Omega)   =  0.10E-29 period in steps =****** mass=  -0.311E-26a.u.
   SCALEE = 1.0000    scale energy and forces
   NPACO  =    256;   APACO  = 16.0  distance and # of slots for P.C.
   PSTRESS=    0.0 pullay stress

  Mass of Ions in am
   POMASS = 132.90207.20 79.90
  Ionic Valenz
   ZVAL   =   9.00 14.00  7.00
  Atomic Wigner-Seitz radii
   RWIGS  =  -1.00 -1.00 -1.00
  virtual crystal weights 
   VCA    =   1.00  1.00  1.00
   NELECT =     344.0000    total number of electrons
   NUPDOWN=       0.0000    fix difference up-down

 DOS related values:
   EMIN   =  10.00;   EMAX   =-10.00  energy-range for DOS
   EFERMI =   0.00
   ISMEAR =     0;   SIGMA  =   0.01  broadening in eV -4-tet -1-fermi 0-gaus

 Electronic relaxation 2 (details)
   IALGO  =     38    algorithm
   LDIAG  =      T    sub-space diagonalisation (order eigenvalues)
   LSUBROT=      F    optimize rotation matrix (better conditioning)
   TURBO    =      0    0=normal 1=particle mesh
   IRESTART =      0    0=no restart 2=restart with 2 vectors
   NREBOOT  =      0    no. of reboots
   NMIN     =      0    reboot dimension
   EREF     =   0.00    reference energy to select bands
   IMIX   =      4    mixing-type and parameters
     AMIX     =   0.40;   BMIX     =  1.00
     AMIX_MAG =   1.60;   BMIX_MAG =  1.00
     AMIN     =   0.10
     WC   =   100.;   INIMIX=   1;  MIXPRE=   1;  MAXMIX= -45

 Intra band minimization:
   WEIMIN = 0.0000     energy-eigenvalue tresh-hold
   EBREAK =  0.12E-08  absolut break condition
   DEPER  =   0.30     relativ break condition  

   TIME   =   0.40     timestep for ELM

  volume/ion in A,a.u.               =      40.90       276.00
  Fermi-wavevector in a.u.,A,eV,Ry     =   0.981747  1.855232 13.113654  0.963826
  Thomas-Fermi vector in A             =   2.112777

 Write flags
   LWAVE        =      F    write WAVECAR
   LDOWNSAMPLE  =      F    k-point downsampling of WAVECAR
   LCHARG       =      F    write CHGCAR
   LVTOT        =      F    write LOCPOT, total local potential
   LVHAR        =      T    write LOCPOT, Hartree potential only
   LELF         =      F    write electronic localiz. function (ELF)
   LORBIT       =     10    0 simple, 1 ext, 2 COOP (PROOUT), +10 PAW based schemes


 Dipole corrections
   LMONO  =      F    monopole corrections only (constant potential shift)
   LDIPOL =      F    correct potential (dipole corrections)
   IDIPOL =      0    1-x, 2-y, 3-z, 4-all directions 
   EPSILON=  1.0000000 bulk dielectric constant

 Exchange correlation treatment:
   GGA     =    --    GGA type
   LEXCH   =     8    internal setting for exchange type
   VOSKOWN=      0    Vosko Wilk Nusair interpolation
   LHFCALC =     F    Hartree Fock is set to
   LHFONE  =     F    Hartree Fock one center treatment
   AEXX    =    0.0000 exact exchange contribution

 Linear response parameters
   LEPSILON=     F    determine dielectric tensor
   LRPA    =     F    only Hartree local field effects (RPA)
   LNABLA  =     F    use nabla operator in PAW spheres
   LVEL    =     F    velocity operator in full k-point grid
   LINTERFAST=   F  fast interpolation
   KINTER  =     0    interpolate to denser k-point grid
   CSHIFT  =0.1000    complex shift for real part using Kramers Kronig
   OMEGAMAX=  -1.0    maximum frequency
   DEG_THRESHOLD= 0.2000000E-02 threshold for treating states as degnerate
   RTIME   =   -0.100 relaxation time in fs
  (WPLASMAI=    0.000 imaginary part of plasma frequency in eV, 0.658/RTIME)
   DFIELD  = 0.0000000 0.0000000 0.0000000 field for delta impulse in time

 Orbital magnetization related:
   ORBITALMAG=     F  switch on orbital magnetization
   LCHIMAG   =     F  perturbation theory with respect to B field
   DQ        =  0.001000  dq finite difference perturbation B field
   LLRAUG    =     F  two centre corrections for induced B field



--------------------------------------------------------------------------------------------------------


 Static calculation
 charge density and potential will be updated during run
 non-spin polarized calculation
 Variant of blocked Davidson
 Davidson routine will perform the subspace rotation
 perform sub-space diagonalisation
    after iterative eigenvector-optimisation
 modified Broyden-mixing scheme, WC =      100.0
 initial mixing is a Kerker type mixing with AMIX =  0.4000 and BMIX =      1.0000
 Hartree-type preconditioning will be used
 using additional bands           36
 real space projection scheme for non local part
 use partial core corrections
 calculate Harris-corrections to forces   (improved forces if not selfconsistent)
 use gradient corrections 
 use of overlap-Matrix (Vanderbilt PP)
 Gauss-broadening in eV      SIGMA  =   0.01


--------------------------------------------------------------------------------------------------------


  energy-cutoff  :      300.00
  volume of cell :     1595.09
      direct lattice vectors                 reciprocal lattice vectors
     8.456489000  0.000000000  8.040301000     0.059126193 -0.000000000  0.062186727
     0.000000000 11.729847000  0.000000000     0.000000000  0.085252604 -0.000000000
    -8.456489000  0.000000000  8.040301000    -0.059126193  0.000000000  0.062186727

  length of vectors
    11.668703715 11.729847000 11.668703715     0.085808482  0.085252604  0.085808482



 k-points in units of 2pi/SCALE and weight: 1x1x1                                   
  -0.00000000  0.00000000  0.00000000       0.125
   0.02956310  0.00000000  0.03109336       0.125
  -0.00000000  0.04262630  0.00000000       0.125
   0.02956310  0.04262630  0.03109336       0.125
  -0.02956310  0.00000000  0.03109336       0.125
   0.00000000  0.00000000  0.06218673       0.125
  -0.02956310  0.04262630  0.03109336       0.125
   0.00000000  0.04262630  0.06218673       0.125

 k-points in reciprocal lattice and weights: 1x1x1                                   
   0.00000000  0.00000000  0.00000000       0.125
   0.50000000  0.00000000  0.00000000       0.125
   0.00000000  0.50000000  0.00000000       0.125
   0.50000000  0.50000000  0.00000000       0.125
   0.00000000  0.00000000  0.50000000       0.125
   0.50000000  0.00000000  0.50000000       0.125
   0.00000000  0.50000000  0.50000000       0.125
   0.50000000  0.50000000  0.50000000       0.125

 position of ions in fractional coordinates (direct lattice) 
   0.26654300  0.24858900  0.19788600
   0.77556000  0.24626600  0.71591400
   0.71704100  0.75315700  0.26480900
   0.20204700  0.75400700  0.77779000
   0.29031200  0.24034200  0.74170600
   0.79362400  0.24698200  0.22309700
   0.73474900  0.75027500  0.80633200
   0.22298200  0.75644900  0.26979400
   0.99832000  0.00102100  0.99971400
   0.49792600  0.00561500  0.49978100
   0.50057000  0.99838800  0.00059400
   0.00086300  0.00186600  0.50025900
   0.50017500  0.49968000  0.00046400
   0.99842600  0.50075300  0.50022300
   0.00007000  0.49913000  0.00028900
   0.50895000  0.49080100  0.49766600
   0.46972100  0.74889500  0.96287900
   0.97622100  0.75036800  0.46109100
   0.97163500  0.25029100  0.96888200
   0.44730300  0.24940300  0.47065100
   0.01872800  0.74995700  0.02681300
   0.52685600  0.24913900  0.03454100
   0.03429300  0.25340500  0.54159300
   0.24747200  0.47134200  0.94607600
   0.75347900  0.46710700  0.44661300
   0.45172500  0.53822600  0.25143800
   0.94897300  0.53463400  0.74637700
   0.55163700  0.02970600  0.75158400
   0.04865700  0.03587400  0.25261200
   0.75114000  0.96997100  0.05123600
   0.25328800  0.96315100  0.55156000
   0.24674800  0.02412100  0.95495400
   0.74558600  0.03651400  0.45168000
   0.45534500  0.96144200  0.25064300
   0.94912300  0.96625400  0.74732900
   0.75216600  0.52875900  0.05251600
   0.54917700  0.46496300  0.74992700
   0.05373200  0.46765800  0.25413300
   0.38867500  0.64911200  0.53802700

 position of ions in cartesian coordinates  (Angst):
   0.58059717  2.91591094  3.73414895
   0.50439574  2.88866250 11.99189989
   3.82429493  8.83441638  7.89436954
  -4.86876435  8.84438675  7.87818441
  -3.81720840  2.81917489  8.29773536
   4.82465530  2.89706107  8.17474287
  -0.60534085  8.80061096 12.39075511
  -0.39586516  8.87303103  3.96206737
  -0.01178835  0.01197617 16.06479477
  -0.01568679  0.06586309  8.02186459
   4.22804154 11.71093849  4.02950941
  -4.22313678  0.02188789  4.02917172
   4.22580057  5.86116995  4.02528825
   4.21304819  5.87375607 12.04958905
  -0.00185197  5.85471853  0.00288647
   0.09542302  5.75702064  8.09349563
  -4.17038520  8.78442377 11.51853521
   4.35619118  8.80170183 11.55642111
   0.02328071  2.93587514 15.60234078
  -0.19744211  2.92545903  7.38062646
  -0.06837071  8.79688087  0.36616335
   4.16325638  2.92236235  4.51380086
  -4.28997687  2.97240188  4.63029678
  -5.90773704  5.52876954  9.59648518
   2.59500895  5.47909364  9.64910091
   1.69372481  6.31330863  5.65364217
   1.71325085  6.27117502 13.63112430
  -1.69084961  0.34844683 10.47828911
  -1.72474321  0.42079653  2.42229344
   5.91873048 11.37761142  6.45134456
  -2.52233389 11.29761387  6.47122018
  -5.98893625  0.28293564  9.66204579
   2.48541286  0.42830363  9.62637902
   1.73106021 11.27756756  5.67635602
   1.70646874 11.33401158 13.63998471
   5.91658253  6.20226217  6.46988549
  -1.69764017  5.45394485 10.44518719
  -1.69468885  5.48555679  2.47532727
  -1.26299355  7.61398445  7.45096302



--------------------------------------------------------------------------------------------------------


 k-point  1 :   0.0000 0.0000 0.0000  plane waves:   18809
 k-point  2 :   0.5000 0.0000 0.0000  plane waves:   18808
 k-point  3 :   0.0000 0.5000 0.0000  plane waves:   18794
 k-point  4 :   0.5000 0.5000 0.0000  plane waves:   18804
 k-point  5 :   0.0000 0.0000 0.5000  plane waves:   18808
 k-point  6 :   0.5000 0.0000 0.5000  plane waves:   18790
 k-point  7 :   0.0000 0.5000 0.5000  plane waves:   18804
 k-point  8 :   0.5000 0.5000 0.5000  plane waves:   18800

 maximum and minimum number of plane-waves per node :      2389     2304

 maximum number of plane-waves:     18809
 maximum index in each direction: 
   IXMAX=   16   IYMAX=   16   IZMAX=   16
   IXMIN=  -16   IYMIN=  -17   IZMIN=  -16


 real space projection operators:
  total allocation   :      16738.01 KBytes
  max/ min on nodes  :       2190.98       1818.72


 parallel 3D FFT for wavefunctions:
    minimum data exchange during FFTs selected (reduces bandwidth)
 parallel 3D FFT for charge:
    minimum data exchange during FFTs selected (reduces bandwidth)


 total amount of memory used by VASP MPI-rank0    60660. kBytes
=======================================================================

   base      :      30000. kBytes
   nonlr-proj:       6495. kBytes
   fftplans  :       8423. kBytes
   grid      :       7465. kBytes
   one-center:         77. kBytes
   wavefun   :       8200. kBytes

     INWAV:  cpu time    0.0000: real time    0.0000
 Broyden mixing: mesh for mixing (old mesh)
   NGX = 33   NGY = 33   NGZ = 33
  (NGX  =140   NGY  =140   NGZ  =140)
  gives a total of  35937 points

 initial charge density was supplied:
 charge density of overlapping atoms calculated
 number of electron     345.0000000 magnetization 
 keeping initial charge density in first step


--------------------------------------------------------------------------------------------------------


 Maximum index for non-local projection operator          732
 Maximum index for augmentation-charges         3068 (set IRDMAX)


--------------------------------------------------------------------------------------------------------


 First call to EWALD:  gamma=   0.152
 Maximum number of real-space cells 3x 3x 3
 Maximum number of reciprocal cells 3x 3x 3

    FEWALD:  cpu time    0.0038: real time    0.0038


--------------------------------------- Iteration      1(   1)  ---------------------------------------


    POTLOK:  cpu time    0.2559: real time    0.2687
    SETDIJ:  cpu time    1.2273: real time    1.2273
     EDDAV:  cpu time   16.7281: real time   16.7343
       DOS:  cpu time    0.0008: real time    0.0008
    --------------------------------------------
      LOOP:  cpu time   18.2121: real time   18.2311

 eigenvalue-minimisations  :  3488
 total energy-change (2. order) : 0.1333883E+04  (-0.1105814E+05)
 number of electron     345.0000000 magnetization 
 augmentation part      345.0000000 magnetization 

 Free energy of the ion-electron system (eV)
  ---------------------------------------------------
  alpha Z        PSCENC =       872.70583573
  Ewald energy   TEWEN  =    -17905.83159163
  -Hartree energ DENC   =     -7447.94150642
  -exchange      EXHF   =         0.00000000
  -V(xc)+E(xc)   XCENC  =       908.46008025
  PAW double counting   =     21345.28103884   -22405.85761495
  entropy T*S    EENTRO =        -0.00136361
  eigenvalues    EBANDS =      -245.05058975
  atomic energy  EATOM  =     26212.11861568
  Solvation  Ediel_sol  =         0.00000000
  ---------------------------------------------------
  free energy    TOTEN  =      1333.88290414 eV

  energy without entropy =     1333.88426775  energy(sigma->0) =     1333.88358594


--------------------------------------------------------------------------------------------------------




--------------------------------------- Iteration      1(   2)  ---------------------------------------


     EDDAV:  cpu time   18.5253: real time   18.5709
       DOS:  cpu time    0.0004: real time    0.0004
    --------------------------------------------
      LOOP:  cpu time   18.5257: real time   18.5713

 eigenvalue-minimisations  :  4080
 total energy-change (2. order) :-0.2447236E+04  (-0.2363544E+04)
 number of electron     345.0000000 magnetization 
 augmentation part      345.0000000 magnetization 

 Free energy of the ion-electron system (eV)
  ---------------------------------------------------
  alpha Z        PSCENC =       872.70583573
  Ewald energy   TEWEN  =    -17905.83159163
  -Hartree energ DENC   =     -7447.94150642
  -exchange      EXHF   =         0.00000000
  -V(xc)+E(xc)   XCENC  =       908.46008025
  PAW double counting   =     21345.28103884   -22405.85761495
  entropy T*S    EENTRO =        -0.00000000
  eigenvalues    EBANDS =     -2692.28768811
  atomic energy  EATOM  =     26212.11861568
  Solvation  Ediel_sol  =         0.00000000
  ---------------------------------------------------
  free energy    TOTEN  =     -1113.35283061 eV

  energy without entropy =    -1113.35283061  energy(sigma->0) =    -1113.35283061


--------------------------------------------------------------------------------------------------------




--------------------------------------- Iteration      1(   3)  ---------------------------------------


     EDDAV:  cpu time   19.5290: real time   19.5720
       DOS:  cpu time    0.0004: real time    0.0004
    --------------------------------------------
      LOOP:  cpu time   19.5294: real time   19.5723

 eigenvalue-minimisations  :  4432
 total energy-change (2. order) :-0.3608134E+03  (-0.3588828E+03)
 number of electron     345.0000000 magnetization 
 augmentation part      345.0000000 magnetization 

 Free energy of the ion-electron system (eV)
  ---------------------------------------------------
  alpha Z        PSCENC =       872.70583573
  Ewald energy   TEWEN  =    -17905.83159163
  -Hartree energ DENC   =     -7447.94150642
  -exchange      EXHF   =         0.00000000
  -V(xc)+E(xc)   XCENC  =       908.46008025
  PAW double counting   =     21345.28103884   -22405.85761495
  entropy T*S    EENTRO =        -0.00000000
  eigenvalues    EBANDS =     -3053.10113428
  atomic energy  EATOM  =     26212.11861568
  Solvation  Ediel_sol  =         0.00000000
  ---------------------------------------------------
  free energy    TOTEN  =     -1474.16627678 eV

  energy without entropy =    -1474.16627678  energy(sigma->0) =    -1474.16627678


--------------------------------------------------------------------------------------------------------




--------------------------------------- Iteration      1(   4)  ---------------------------------------


     EDDAV:  cpu time   18.0350: real time   18.0458
       DOS:  cpu time    0.0004: real time    0.0004
    --------------------------------------------
      LOOP:  cpu time   18.0354: real time   18.0462

 eigenvalue-minimisations  :  3912
 total energy-change (2. order) :-0.1184650E+02  (-0.1180980E+02)
 number of electron     345.0000000 magnetization 
 augmentation part      345.0000000 magnetization 

 Free energy of the ion-electron system (eV)
  ---------------------------------------------------
  alpha Z        PSCENC =       872.70583573
  Ewald energy   TEWEN  =    -17905.83159163
  -Hartree energ DENC   =     -7447.94150642
  -exchange      EXHF   =         0.00000000
  -V(xc)+E(xc)   XCENC  =       908.46008025
  PAW double counting   =     21345.28103884   -22405.85761495
  entropy T*S    EENTRO =        -0.00000000
  eigenvalues    EBANDS =     -3064.94763863
  atomic energy  EATOM  =     26212.11861568
  Solvation  Ediel_sol  =         0.00000000
  ---------------------------------------------------
  free energy    TOTEN  =     -1486.01278113 eV

  energy without entropy =    -1486.01278113  energy(sigma->0) =    -1486.01278113


--------------------------------------------------------------------------------------------------------




--------------------------------------- Iteration      1(   5)  ---------------------------------------


     EDDAV:  cpu time   19.5708: real time   19.6356
       DOS:  cpu time    0.0005: real time    0.0005
    CHARGE:  cpu time    2.7144: real time    2.7145
    MIXING:  cpu time    0.0015: real time    0.0015
    --------------------------------------------
      LOOP:  cpu time   22.2872: real time   22.3521

 eigenvalue-minimisations  :  4456
 total energy-change (2. order) :-0.5259185E+00  (-0.5256439E+00)
 number of electron     343.9999999 magnetization 
 augmentation part       -5.0696705 magnetization 

 Broyden mixing:
  rms(total) = 0.10814E+01    rms(broyden)= 0.10808E+01
  rms(prec ) = 0.14469E+01
  weight for this iteration     100.00

 Free energy of the ion-electron system (eV)
  ---------------------------------------------------
  alpha Z        PSCENC =       872.70583573
  Ewald energy   TEWEN  =    -17905.83159163
  -Hartree energ DENC   =     -7447.94150642
  -exchange      EXHF   =         0.00000000
  -V(xc)+E(xc)   XCENC  =       908.46008025
  PAW double counting   =     21345.28103884   -22405.85761495
  entropy T*S    EENTRO =        -0.00000000
  eigenvalues    EBANDS =     -3065.47355717
  atomic energy  EATOM  =     26212.11861568
  Solvation  Ediel_sol  =         0.00000000
  ---------------------------------------------------
  free energy    TOTEN  =     -1486.53869968 eV

  energy without entropy =    -1486.53869968  energy(sigma->0) =    -1486.53869968


--------------------------------------------------------------------------------------------------------




--------------------------------------- Iteration      1(   6)  ---------------------------------------


    POTLOK:  cpu time    0.2803: real time    0.3199
    SETDIJ:  cpu time    1.2187: real time    1.2188
     EDDAV:  cpu time   19.1039: real time   19.1046
       DOS:  cpu time    0.0005: real time    0.0005
    CHARGE:  cpu time    2.7010: real time    2.7011
    MIXING:  cpu time    0.0017: real time    0.0017
    --------------------------------------------
      LOOP:  cpu time   23.3061: real time   23.3466

 eigenvalue-minimisations  :  4304
 total energy-change (2. order) : 0.7761589E+02  (-0.2344307E+01)
 number of electron     343.9999999 magnetization 
 augmentation part       -3.6786047 magnetization 

 Broyden mixing:
  rms(total) = 0.76058E+00    rms(broyden)= 0.76050E+00
  rms(prec ) = 0.93255E+00
  weight for this iteration     100.00

 eigenvalues of (default mixing * dielectric matrix)
  average eigenvalue GAMMA=   1.2894
  1.2894

 Free energy of the ion-electron system (eV)
  ---------------------------------------------------
  alpha Z        PSCENC =       872.70583573
  Ewald energy   TEWEN  =    -17905.83159163
  -Hartree energ DENC   =     -7429.55131443
  -exchange      EXHF   =         0.00000000
  -V(xc)+E(xc)   XCENC  =       936.50147121
  PAW double counting   =     21670.76861465   -22730.03554747
  entropy T*S    EENTRO =        -0.00000000
  eigenvalues    EBANDS =     -3035.59889387
  atomic energy  EATOM  =     26212.11861568
  Solvation  Ediel_sol  =         0.00000000
  ---------------------------------------------------
  free energy    TOTEN  =     -1408.92281012 eV

  energy without entropy =    -1408.92281012  energy(sigma->0) =    -1408.92281012


--------------------------------------------------------------------------------------------------------




--------------------------------------- Iteration      1(   7)  ---------------------------------------


    POTLOK:  cpu time    0.3036: real time    0.3062
    SETDIJ:  cpu time    1.2244: real time    1.2245
     EDDAV:  cpu time   18.3901: real time   18.3908
       DOS:  cpu time    0.0005: real time    0.0005
    CHARGE:  cpu time    2.6903: real time    2.6904
    MIXING:  cpu time    0.0016: real time    0.0016
    --------------------------------------------
      LOOP:  cpu time   22.6105: real time   22.6140

 eigenvalue-minimisations  :  4064
 total energy-change (2. order) : 0.5140841E+00  (-0.8693299E+00)
 number of electron     343.9999999 magnetization 
 augmentation part       -3.1155136 magnetization 

 Broyden mixing:
  rms(total) = 0.37684E+00    rms(broyden)= 0.37682E+00
  rms(prec ) = 0.41745E+00
  weight for this iteration     100.00

 eigenvalues of (default mixing * dielectric matrix)
  average eigenvalue GAMMA=   1.3243
  1.3243  1.3243

 Free energy of the ion-electron system (eV)
  ---------------------------------------------------
  alpha Z        PSCENC =       872.70583573
  Ewald energy   TEWEN  =    -17905.83159163
  -Hartree energ DENC   =     -7473.69350833
  -exchange      EXHF   =         0.00000000
  -V(xc)+E(xc)   XCENC  =       941.72459814
  PAW double counting   =     22339.02550485   -23396.76416864
  entropy T*S    EENTRO =        -0.00000000
  eigenvalues    EBANDS =     -2997.69401180
  atomic energy  EATOM  =     26212.11861568
  Solvation  Ediel_sol  =         0.00000000
  ---------------------------------------------------
  free energy    TOTEN  =     -1408.40872599 eV

  energy without entropy =    -1408.40872599  energy(sigma->0) =    -1408.40872599


--------------------------------------------------------------------------------------------------------




--------------------------------------- Iteration      1(   8)  ---------------------------------------


    POTLOK:  cpu time    0.2690: real time    0.3178
    SETDIJ:  cpu time    1.2227: real time    1.2228
     EDDAV:  cpu time   18.4075: real time   18.4083
       DOS:  cpu time    0.0008: real time    0.0008
    CHARGE:  cpu time    2.6982: real time    2.6984
    MIXING:  cpu time    0.0016: real time    0.0016
    --------------------------------------------
      LOOP:  cpu time   22.5998: real time   22.6496

 eigenvalue-minimisations  :  4064
 total energy-change (2. order) :-0.1698529E+00  (-0.4555913E-01)
 number of electron     343.9999999 magnetization 
 augmentation part       -3.2042049 magnetization 

 Broyden mixing:
  rms(total) = 0.21776E+00    rms(broyden)= 0.21776E+00
  rms(prec ) = 0.24571E+00
  weight for this iteration     100.00

 eigenvalues of (default mixing * dielectric matrix)
  average eigenvalue GAMMA=   1.6954
  1.1022  1.3469  2.6371

 Free energy of the ion-electron system (eV)
  ---------------------------------------------------
  alpha Z        PSCENC =       872.70583573
  Ewald energy   TEWEN  =    -17905.83159163
  -Hartree energ DENC   =     -7479.57083587
  -exchange      EXHF   =         0.00000000
  -V(xc)+E(xc)   XCENC  =       942.41328865
  PAW double counting   =     22587.30246969   -23645.54014641
  entropy T*S    EENTRO =        -0.00000000
  eigenvalues    EBANDS =     -2992.17621472
  atomic energy  EATOM  =     26212.11861568
  Solvation  Ediel_sol  =         0.00000000
  ---------------------------------------------------
  free energy    TOTEN  =     -1408.57857888 eV

  energy without entropy =    -1408.57857888  energy(sigma->0) =    -1408.57857888


--------------------------------------------------------------------------------------------------------




--------------------------------------- Iteration      1(   9)  ---------------------------------------


    POTLOK:  cpu time    0.2541: real time    0.3145
    SETDIJ:  cpu time    1.2224: real time    1.2224
     EDDAV:  cpu time   17.6532: real time   17.6543
       DOS:  cpu time    0.0004: real time    0.0004
    CHARGE:  cpu time    2.6940: real time    2.6941
    MIXING:  cpu time    0.0017: real time    0.0017
    --------------------------------------------
      LOOP:  cpu time   21.8257: real time   21.8874

 eigenvalue-minimisations  :  3808
 total energy-change (2. order) :-0.6108740E-01  (-0.1592841E-01)
 number of electron     343.9999999 magnetization 
 augmentation part       -3.2478814 magnetization 

 Broyden mixing:
  rms(total) = 0.44784E-01    rms(broyden)= 0.44781E-01
  rms(prec ) = 0.55245E-01
  weight for this iteration     100.00

 eigenvalues of (default mixing * dielectric matrix)
  average eigenvalue GAMMA=   1.4754
  2.5206  1.2623  1.2623  0.8565

 Free energy of the ion-electron system (eV)
  ---------------------------------------------------
  alpha Z        PSCENC =       872.70583573
  Ewald energy   TEWEN  =    -17905.83159163
  -Hartree energ DENC   =     -7486.25175376
  -exchange      EXHF   =         0.00000000
  -V(xc)+E(xc)   XCENC  =       944.18924290
  PAW double counting   =     22925.98015333   -23985.23227896
  entropy T*S    EENTRO =        -0.00000000
  eigenvalues    EBANDS =     -2986.31788957
  atomic energy  EATOM  =     26212.11861568
  Solvation  Ediel_sol  =         0.00000000
  ---------------------------------------------------
  free energy    TOTEN  =     -1408.63966628 eV

  energy without entropy =    -1408.63966628  energy(sigma->0) =    -1408.63966628


--------------------------------------------------------------------------------------------------------




--------------------------------------- Iteration      1(  10)  ---------------------------------------


    POTLOK:  cpu time    0.2805: real time    0.3148
    SETDIJ:  cpu time    1.2261: real time    1.2261
     EDDAV:  cpu time   20.2771: real time   20.2779
       DOS:  cpu time    0.0005: real time    0.0005
    CHARGE:  cpu time    2.6937: real time    2.6938
    MIXING:  cpu time    0.0016: real time    0.0016
    --------------------------------------------
      LOOP:  cpu time   24.4796: real time   24.5147

 eigenvalue-minimisations  :  4712
 total energy-change (2. order) :-0.3014398E-02  (-0.2012669E-02)
 number of electron     343.9999999 magnetization 
 augmentation part       -3.2339729 magnetization 

 Broyden mixing:
  rms(total) = 0.31666E-01    rms(broyden)= 0.31664E-01
  rms(prec ) = 0.40777E-01
  weight for this iteration     100.00

 eigenvalues of (default mixing * dielectric matrix)
  average eigenvalue GAMMA=   1.3326
  2.4034  1.3522  1.3522  0.8276  0.7274

 Free energy of the ion-electron system (eV)
  ---------------------------------------------------
  alpha Z        PSCENC =       872.70583573
  Ewald energy   TEWEN  =    -17905.83159163
  -Hartree energ DENC   =     -7484.66570773
  -exchange      EXHF   =         0.00000000
  -V(xc)+E(xc)   XCENC  =       944.06732904
  PAW double counting   =     22895.14320128   -23954.42845453
  entropy T*S    EENTRO =        -0.00000000
  eigenvalues    EBANDS =     -2987.75190852
  atomic energy  EATOM  =     26212.11861568
  Solvation  Ediel_sol  =         0.00000000
  ---------------------------------------------------
  free energy    TOTEN  =     -1408.64268067 eV

  energy without entropy =    -1408.64268067  energy(sigma->0) =    -1408.64268067


--------------------------------------------------------------------------------------------------------




--------------------------------------- Iteration      1(  11)  ---------------------------------------


    POTLOK:  cpu time    0.2820: real time    0.3164
    SETDIJ:  cpu time    1.2245: real time    1.2246
     EDDAV:  cpu time   17.8819: real time   17.8825
       DOS:  cpu time    0.0005: real time    0.0005
    CHARGE:  cpu time    2.7023: real time    2.7024
    MIXING:  cpu time    0.0017: real time    0.0017
    --------------------------------------------
      LOOP:  cpu time   22.0928: real time   22.1281

 eigenvalue-minimisations  :  3880
 total energy-change (2. order) :-0.2462396E-02  (-0.3335318E-03)
 number of electron     343.9999999 magnetization 
 augmentation part       -3.2323932 magnetization 

 Broyden mixing:
  rms(total) = 0.12928E-01    rms(broyden)= 0.12928E-01
  rms(prec ) = 0.21323E-01
  weight for this iteration     100.00

 eigenvalues of (default mixing * dielectric matrix)
  average eigenvalue GAMMA=   1.6147
  2.7787  2.7787  1.2159  1.2159  0.8495  0.8495

 Free energy of the ion-electron system (eV)
  ---------------------------------------------------
  alpha Z        PSCENC =       872.70583573
  Ewald energy   TEWEN  =    -17905.83159163
  -Hartree energ DENC   =     -7483.29145114
  -exchange      EXHF   =         0.00000000
  -V(xc)+E(xc)   XCENC  =       944.01061452
  PAW double counting   =     22875.02403137   -23934.47501062
  entropy T*S    EENTRO =        -0.00000000
  eigenvalues    EBANDS =     -2988.90618698
  atomic energy  EATOM  =     26212.11861568
  Solvation  Ediel_sol  =         0.00000000
  ---------------------------------------------------
  free energy    TOTEN  =     -1408.64514307 eV

  energy without entropy =    -1408.64514307  energy(sigma->0) =    -1408.64514307


--------------------------------------------------------------------------------------------------------




--------------------------------------- Iteration      1(  12)  ---------------------------------------


    POTLOK:  cpu time    0.2500: real time    0.3203
    SETDIJ:  cpu time    1.2251: real time    1.2251
     EDDAV:  cpu time   17.4138: real time   17.4145
       DOS:  cpu time    0.0005: real time    0.0005
    CHARGE:  cpu time    2.7055: real time    2.7056
    MIXING:  cpu time    0.0017: real time    0.0017
    --------------------------------------------
      LOOP:  cpu time   21.5967: real time   21.6678

 eigenvalue-minimisations  :  3720
 total energy-change (2. order) :-0.2413552E-02  (-0.4438441E-03)
 number of electron     343.9999999 magnetization 
 augmentation part       -3.2355735 magnetization 

 Broyden mixing:
  rms(total) = 0.10457E-01    rms(broyden)= 0.10457E-01
  rms(prec ) = 0.13222E-01
  weight for this iteration     100.00

 eigenvalues of (default mixing * dielectric matrix)
  average eigenvalue GAMMA=   1.6243
  3.0586  2.6187  1.3874  1.3874  0.9345  0.9915  0.9915

 Free energy of the ion-electron system (eV)
  ---------------------------------------------------
  alpha Z        PSCENC =       872.70583573
  Ewald energy   TEWEN  =    -17905.83159163
  -Hartree energ DENC   =     -7482.87603750
  -exchange      EXHF   =         0.00000000
  -V(xc)+E(xc)   XCENC  =       944.06522478
  PAW double counting   =     22869.73725151   -23929.40862188
  entropy T*S    EENTRO =        -0.00000000
  eigenvalues    EBANDS =     -2989.15823331
  atomic energy  EATOM  =     26212.11861568
  Solvation  Ediel_sol  =         0.00000000
  ---------------------------------------------------
  free energy    TOTEN  =     -1408.64755662 eV

  energy without entropy =    -1408.64755662  energy(sigma->0) =    -1408.64755662


--------------------------------------------------------------------------------------------------------




--------------------------------------- Iteration      1(  13)  ---------------------------------------


    POTLOK:  cpu time    0.2685: real time    0.3219
    SETDIJ:  cpu time    1.2241: real time    1.2241
     EDDAV:  cpu time   19.6983: real time   19.6990
       DOS:  cpu time    0.0010: real time    0.0010
    CHARGE:  cpu time    2.7005: real time    2.7007
    MIXING:  cpu time    0.0019: real time    0.0019
    --------------------------------------------
      LOOP:  cpu time   23.8943: real time   23.9486

 eigenvalue-minimisations  :  4496
 total energy-change (2. order) : 0.4294041E-03  (-0.1633085E-03)
 number of electron     343.9999999 magnetization 
 augmentation part       -3.2363020 magnetization 

 Broyden mixing:
  rms(total) = 0.44416E-02    rms(broyden)= 0.44409E-02
  rms(prec ) = 0.52238E-02
  weight for this iteration     100.00

 eigenvalues of (default mixing * dielectric matrix)
  average eigenvalue GAMMA=   1.5593
  3.2317  2.3809  1.7441  1.0714  1.0714  1.1850  1.0065  0.7833

 Free energy of the ion-electron system (eV)
  ---------------------------------------------------
  alpha Z        PSCENC =       872.70583573
  Ewald energy   TEWEN  =    -17905.83159163
  -Hartree energ DENC   =     -7484.03112378
  -exchange      EXHF   =         0.00000000
  -V(xc)+E(xc)   XCENC  =       944.13653300
  PAW double counting   =     22872.13188129   -23931.75973340
  entropy T*S    EENTRO =        -0.00000000
  eigenvalues    EBANDS =     -2988.11754410
  atomic energy  EATOM  =     26212.11861568
  Solvation  Ediel_sol  =         0.00000000
  ---------------------------------------------------
  free energy    TOTEN  =     -1408.64712722 eV

  energy without entropy =    -1408.64712722  energy(sigma->0) =    -1408.64712722


--------------------------------------------------------------------------------------------------------




--------------------------------------- Iteration      1(  14)  ---------------------------------------


    POTLOK:  cpu time    0.2632: real time    0.3189
    SETDIJ:  cpu time    1.2236: real time    1.2237
     EDDAV:  cpu time   17.7498: real time   17.7504
       DOS:  cpu time    0.0004: real time    0.0004
    CHARGE:  cpu time    2.7030: real time    2.7031
    MIXING:  cpu time    0.0018: real time    0.0018
    --------------------------------------------
      LOOP:  cpu time   21.9418: real time   21.9983

 eigenvalue-minimisations  :  3840
 total energy-change (2. order) :-0.2638535E-05  (-0.3883026E-04)
 number of electron     343.9999999 magnetization 
 augmentation part       -3.2358572 magnetization 

 Broyden mixing:
  rms(total) = 0.27361E-02    rms(broyden)= 0.27351E-02
  rms(prec ) = 0.35101E-02
  weight for this iteration     100.00

 eigenvalues of (default mixing * dielectric matrix)
  average eigenvalue GAMMA=   1.5783
  3.2975  2.3124  2.3124  1.1671  1.1671  0.8816  0.8816  1.0928  1.0928

 Free energy of the ion-electron system (eV)
  ---------------------------------------------------
  alpha Z        PSCENC =       872.70583573
  Ewald energy   TEWEN  =    -17905.83159163
  -Hartree energ DENC   =     -7484.20245228
  -exchange      EXHF   =         0.00000000
  -V(xc)+E(xc)   XCENC  =       944.14053668
  PAW double counting   =     22873.00238887   -23932.61193310
  entropy T*S    EENTRO =        -0.00000000
  eigenvalues    EBANDS =     -2987.96852980
  atomic energy  EATOM  =     26212.11861568
  Solvation  Ediel_sol  =         0.00000000
  ---------------------------------------------------
  free energy    TOTEN  =     -1408.64712986 eV

  energy without entropy =    -1408.64712986  energy(sigma->0) =    -1408.64712986


--------------------------------------------------------------------------------------------------------




--------------------------------------- Iteration      1(  15)  ---------------------------------------


    POTLOK:  cpu time    0.2884: real time    0.3139
    SETDIJ:  cpu time    1.2229: real time    1.2230
     EDDAV:  cpu time   17.5903: real time   17.5910
       DOS:  cpu time    0.0004: real time    0.0004
    CHARGE:  cpu time    2.6995: real time    2.6996
    MIXING:  cpu time    0.0018: real time    0.0018
    --------------------------------------------
      LOOP:  cpu time   21.8033: real time   21.8297

 eigenvalue-minimisations  :  3776
 total energy-change (2. order) : 0.1030703E-04  (-0.3991221E-05)
 number of electron     343.9999999 magnetization 
 augmentation part       -3.2356470 magnetization 

 Broyden mixing:
  rms(total) = 0.15234E-02    rms(broyden)= 0.15221E-02
  rms(prec ) = 0.20813E-02
  weight for this iteration     100.00

 eigenvalues of (default mixing * dielectric matrix)
  average eigenvalue GAMMA=   1.6533
  3.8464  2.4545  2.4545  1.5086  1.3568  1.0641  1.0641  0.8394  0.9724  0.9724

 Free energy of the ion-electron system (eV)
  ---------------------------------------------------
  alpha Z        PSCENC =       872.70583573
  Ewald energy   TEWEN  =    -17905.83159163
  -Hartree energ DENC   =     -7484.34657136
  -exchange      EXHF   =         0.00000000
  -V(xc)+E(xc)   XCENC  =       944.14570987
  PAW double counting   =     22873.39759965   -23933.00180395
  entropy T*S    EENTRO =        -0.00000000
  eigenvalues    EBANDS =     -2987.83491355
  atomic energy  EATOM  =     26212.11861568
  Solvation  Ediel_sol  =         0.00000000
  ---------------------------------------------------
  free energy    TOTEN  =     -1408.64711955 eV

  energy without entropy =    -1408.64711955  energy(sigma->0) =    -1408.64711955


--------------------------------------------------------------------------------------------------------




--------------------------------------- Iteration      1(  16)  ---------------------------------------


    POTLOK:  cpu time    0.2681: real time    0.3160
    SETDIJ:  cpu time    1.2200: real time    1.2200
     EDDAV:  cpu time   17.9037: real time   17.9045
       DOS:  cpu time    0.0004: real time    0.0004
    CHARGE:  cpu time    2.7017: real time    2.7018
    MIXING:  cpu time    0.0020: real time    0.0020
    --------------------------------------------
      LOOP:  cpu time   22.0958: real time   22.1446

 eigenvalue-minimisations  :  3880
 total energy-change (2. order) :-0.7089624E-04  (-0.3668268E-05)
 number of electron     343.9999999 magnetization 
 augmentation part       -3.2352819 magnetization 

 Broyden mixing:
  rms(total) = 0.74764E-03    rms(broyden)= 0.74516E-03
  rms(prec ) = 0.87933E-03
  weight for this iteration     100.00

 eigenvalues of (default mixing * dielectric matrix)
  average eigenvalue GAMMA=   1.6981
  4.2402  2.8467  2.3852  1.8824  1.1170  1.1170  1.1069  1.1069  0.8203  1.0282
  1.0282

 Free energy of the ion-electron system (eV)
  ---------------------------------------------------
  alpha Z        PSCENC =       872.70583573
  Ewald energy   TEWEN  =    -17905.83159163
  -Hartree energ DENC   =     -7484.31567311
  -exchange      EXHF   =         0.00000000
  -V(xc)+E(xc)   XCENC  =       944.13364689
  PAW double counting   =     22872.34820679   -23931.94941020
  entropy T*S    EENTRO =        -0.00000000
  eigenvalues    EBANDS =     -2987.85682059
  atomic energy  EATOM  =     26212.11861568
  Solvation  Ediel_sol  =         0.00000000
  ---------------------------------------------------
  free energy    TOTEN  =     -1408.64719044 eV

  energy without entropy =    -1408.64719044  energy(sigma->0) =    -1408.64719044


--------------------------------------------------------------------------------------------------------




--------------------------------------- Iteration      1(  17)  ---------------------------------------


    POTLOK:  cpu time    0.3128: real time    0.3175
    SETDIJ:  cpu time    1.2199: real time    1.2199
     EDDAV:  cpu time   17.9843: real time   17.9850
       DOS:  cpu time    0.0006: real time    0.0006
    CHARGE:  cpu time    2.7066: real time    2.7067
    MIXING:  cpu time    0.0020: real time    0.0020
    --------------------------------------------
      LOOP:  cpu time   22.2261: real time   22.2317

 eigenvalue-minimisations  :  3896
 total energy-change (2. order) : 0.7677487E-05  (-0.7257688E-06)
 number of electron     343.9999999 magnetization 
 augmentation part       -3.2352837 magnetization 

 Broyden mixing:
  rms(total) = 0.43912E-03    rms(broyden)= 0.43494E-03
  rms(prec ) = 0.48483E-03
  weight for this iteration     100.00

 eigenvalues of (default mixing * dielectric matrix)
  average eigenvalue GAMMA=   1.6306
  4.2864  2.8869  2.3293  1.9710  1.1935  1.1935  1.1337  1.1337  0.9930  0.9930
  0.7948  0.6579

 Free energy of the ion-electron system (eV)
  ---------------------------------------------------
  alpha Z        PSCENC =       872.70583573
  Ewald energy   TEWEN  =    -17905.83159163
  -Hartree energ DENC   =     -7484.32455531
  -exchange      EXHF   =         0.00000000
  -V(xc)+E(xc)   XCENC  =       944.13195647
  PAW double counting   =     22872.51046827   -23932.10820178
  entropy T*S    EENTRO =        -0.00000000
  eigenvalues    EBANDS =     -2987.84971021
  atomic energy  EATOM  =     26212.11861568
  Solvation  Ediel_sol  =         0.00000000
  ---------------------------------------------------
  free energy    TOTEN  =     -1408.64718277 eV

  energy without entropy =    -1408.64718277  energy(sigma->0) =    -1408.64718277


--------------------------------------------------------------------------------------------------------




--------------------------------------- Iteration      1(  18)  ---------------------------------------


    POTLOK:  cpu time    0.2819: real time    0.3145
    SETDIJ:  cpu time    1.2215: real time    1.2216
     EDDAV:  cpu time   14.8228: real time   14.8237
       DOS:  cpu time    0.0004: real time    0.0004
    CHARGE:  cpu time    2.7095: real time    2.7096
    MIXING:  cpu time    0.0020: real time    0.0020
    --------------------------------------------
      LOOP:  cpu time   19.0382: real time   19.0718

 eigenvalue-minimisations  :  2800
 total energy-change (2. order) : 0.2557745E-05  (-0.2397322E-06)
 number of electron     343.9999999 magnetization 
 augmentation part       -3.2353253 magnetization 

 Broyden mixing:
  rms(total) = 0.20952E-03    rms(broyden)= 0.20062E-03
  rms(prec ) = 0.23442E-03
  weight for this iteration     100.00

 eigenvalues of (default mixing * dielectric matrix)
  average eigenvalue GAMMA=   1.6697
  4.6455  2.9667  2.4143  2.0761  1.3126  1.3126  1.1620  1.1620  0.9605  0.9605
  0.9666  0.9666  0.7997

 Free energy of the ion-electron system (eV)
  ---------------------------------------------------
  alpha Z        PSCENC =       872.70583573
  Ewald energy   TEWEN  =    -17905.83159163
  -Hartree energ DENC   =     -7484.32183601
  -exchange      EXHF   =         0.00000000
  -V(xc)+E(xc)   XCENC  =       944.13171760
  PAW double counting   =     22872.55704111   -23932.15427059
  entropy T*S    EENTRO =        -0.00000000
  eigenvalues    EBANDS =     -2987.85269210
  atomic energy  EATOM  =     26212.11861568
  Solvation  Ediel_sol  =         0.00000000
  ---------------------------------------------------
  free energy    TOTEN  =     -1408.64718021 eV

  energy without entropy =    -1408.64718021  energy(sigma->0) =    -1408.64718021


--------------------------------------------------------------------------------------------------------




--------------------------------------- Iteration      1(  19)  ---------------------------------------


    POTLOK:  cpu time    0.2903: real time    0.3146
    SETDIJ:  cpu time    1.2196: real time    1.2197
     EDDAV:  cpu time   13.0344: real time   13.0349
       DOS:  cpu time    0.0004: real time    0.0004
    CHARGE:  cpu time    2.7006: real time    2.7006
    MIXING:  cpu time    0.0021: real time    0.0021
    --------------------------------------------
      LOOP:  cpu time   17.2473: real time   17.2723

 eigenvalue-minimisations  :  2168
 total energy-change (2. order) : 0.3766813E-05  (-0.3335427E-07)
 number of electron     343.9999999 magnetization 
 augmentation part       -3.2353431 magnetization 

 Broyden mixing:
  rms(total) = 0.12037E-03    rms(broyden)= 0.10416E-03
  rms(prec ) = 0.12084E-03
  weight for this iteration     100.00
  WARNING: grid for Broyden might be to small

 eigenvalues of (default mixing * dielectric matrix)
  average eigenvalue GAMMA=   1.6661
  4.6736  3.0271  2.3167  1.9682  1.9682  1.2270  1.2270  1.1706  1.1706  0.9567
  0.9567  1.0056  0.8288  0.8288

 Free energy of the ion-electron system (eV)
  ---------------------------------------------------
  alpha Z        PSCENC =       872.70583573
  Ewald energy   TEWEN  =    -17905.83159163
  -Hartree energ DENC   =     -7484.32526027
  -exchange      EXHF   =         0.00000000
  -V(xc)+E(xc)   XCENC  =       944.13171060
  PAW double counting   =     22872.64298617   -23932.23982400
  entropy T*S    EENTRO =        -0.00000000
  eigenvalues    EBANDS =     -2987.84964873
  atomic energy  EATOM  =     26212.11861568
  Solvation  Ediel_sol  =         0.00000000
  ---------------------------------------------------
  free energy    TOTEN  =     -1408.64717644 eV

  energy without entropy =    -1408.64717644  energy(sigma->0) =    -1408.64717644


--------------------------------------------------------------------------------------------------------




--------------------------------------- Iteration      1(  20)  ---------------------------------------


    POTLOK:  cpu time    0.2737: real time    0.3173
    SETDIJ:  cpu time    1.2211: real time    1.2211
     EDDAV:  cpu time   12.8311: real time   12.8316
       DOS:  cpu time    0.0004: real time    0.0004
    CHARGE:  cpu time    2.7003: real time    2.7004
    MIXING:  cpu time    0.0022: real time    0.0022
    --------------------------------------------
      LOOP:  cpu time   17.0289: real time   17.0731

 eigenvalue-minimisations  :  2096
 total energy-change (2. order) : 0.1775609E-05  (-0.1555725E-07)
 number of electron     343.9999999 magnetization 
 augmentation part       -3.2353617 magnetization 

 Broyden mixing:
  rms(total) = 0.85879E-04    rms(broyden)= 0.61118E-04
  rms(prec ) = 0.70213E-04
  weight for this iteration     100.00
  WARNING: grid for Broyden might be to small

 eigenvalues of (default mixing * dielectric matrix)
  average eigenvalue GAMMA=   1.6417
  4.7527  3.0219  2.4175  2.0197  2.0197  1.2333  1.2333  1.2166  1.2166  0.9148
  0.9148  0.9566  0.9566  0.9613  0.7900

 Free energy of the ion-electron system (eV)
  ---------------------------------------------------
  alpha Z        PSCENC =       872.70583573
  Ewald energy   TEWEN  =    -17905.83159163
  -Hartree energ DENC   =     -7484.32976605
  -exchange      EXHF   =         0.00000000
  -V(xc)+E(xc)   XCENC  =       944.13193214
  PAW double counting   =     22872.62164553   -23932.21807975
  entropy T*S    EENTRO =        -0.00000000
  eigenvalues    EBANDS =     -2987.84576631
  atomic energy  EATOM  =     26212.11861568
  Solvation  Ediel_sol  =         0.00000000
  ---------------------------------------------------
  free energy    TOTEN  =     -1408.64717467 eV

  energy without entropy =    -1408.64717467  energy(sigma->0) =    -1408.64717467


--------------------------------------------------------------------------------------------------------




--------------------------------------- Iteration      1(  21)  ---------------------------------------


    POTLOK:  cpu time    0.2792: real time    0.2956
    SETDIJ:  cpu time    1.2236: real time    1.2236
     EDDAV:  cpu time   13.0905: real time   13.0911
       DOS:  cpu time    0.0004: real time    0.0004
    --------------------------------------------
      LOOP:  cpu time   14.5937: real time   14.6107

 eigenvalue-minimisations  :  2192
 total energy-change (2. order) :-0.1962153E-06  (-0.4699436E-07)
 number of electron     343.9999999 magnetization 
 augmentation part       -3.2353617 magnetization 

 Free energy of the ion-electron system (eV)
  ---------------------------------------------------
  alpha Z        PSCENC =       872.70583573
  Ewald energy   TEWEN  =    -17905.83159163
  -Hartree energ DENC   =     -7484.32920060
  -exchange      EXHF   =         0.00000000
  -V(xc)+E(xc)   XCENC  =       944.13196917
  PAW double counting   =     22872.62760124   -23932.22578758
  entropy T*S    EENTRO =        -0.00000000
  eigenvalues    EBANDS =     -2987.84461688
  atomic energy  EATOM  =     26212.11861568
  Solvation  Ediel_sol  =         0.00000000
  ---------------------------------------------------
  free energy    TOTEN  =     -1408.64717486 eV

  energy without entropy =    -1408.64717486  energy(sigma->0) =    -1408.64717486


--------------------------------------------------------------------------------------------------------




 average (electrostatic) potential at core
  the test charge radii are     1.1312  1.1541  1.0178
  (the norm of the test charge is              1.0000)
       1 -55.1706       2 -55.1832       3 -55.4110       4 -55.2590       5 -55.3051
       6 -55.1778       7 -55.3520       8 -55.1595       9-101.6056      10-101.9420
      11-101.6212      12-101.6829      13-101.5525      14-101.9221      15-101.6360
      16-101.4749      17 -68.9595      18 -69.0760      19 -69.0351      20 -69.2926
      21 -69.0412      22 -68.9389      23 -69.0504      24 -68.9615      25 -69.3068
      26 -68.8526      27 -69.0420      28 -69.0411      29 -68.9619      30 -69.0197
      31 -68.9869      32 -69.0136      33 -69.0342      34 -69.0399      35 -68.9720
      36 -68.9463      37 -68.8465      38 -69.0175      39 -69.5667



 E-fermi :   0.4818     XC(G=0):  -7.9540     alpha+bet : -6.9586


 k-point     1 :       0.0000    0.0000    0.0000
  band No.  band energies     occupation 
      1     -20.9325      2.00000
      2     -20.8799      2.00000
      3     -20.8329      2.00000
      4     -20.7886      2.00000
      5     -20.7114      2.00000
      6     -20.7072      2.00000
      7     -20.7020      2.00000
      8     -20.6939      2.00000
      9     -16.8771      2.00000
     10     -16.6987      2.00000
     11     -16.6809      2.00000
     12     -16.6774      2.00000
     13     -16.6700      2.00000
     14     -16.6081      2.00000
     15     -16.6006      2.00000
     16     -16.5819      2.00000
     17     -16.5802      2.00000
     18     -16.5570      2.00000
     19     -16.5463      2.00000
     20     -16.4591      2.00000
     21     -16.4519      2.00000
     22     -16.4443      2.00000
     23     -16.4210      2.00000
     24     -16.4133      2.00000
     25     -16.4045      2.00000
     26     -16.3693      2.00000
     27     -16.3603      2.00000
     28     -16.3444      2.00000
     29     -16.3408      2.00000
     30     -16.3369      2.00000
     31     -16.3322      2.00000
     32     -16.3164      2.00000
     33     -16.3070      2.00000
     34     -16.3029      2.00000
     35     -16.2967      2.00000
     36     -16.2901      2.00000
     37     -16.2893      2.00000
     38     -16.2866      2.00000
     39     -16.2816      2.00000
     40     -16.2728      2.00000
     41     -16.2720      2.00000
     42     -16.2716      2.00000
     43     -16.2616      2.00000
     44     -16.2343      2.00000
     45     -16.2144      2.00000
     46     -16.2118      2.00000
     47     -16.2022      2.00000
     48     -16.1399      2.00000
     49     -14.5587      2.00000
     50     -14.3798      2.00000
     51     -14.2871      2.00000
     52     -14.2733      2.00000
     53     -14.1428      2.00000
     54     -14.1069      2.00000
     55     -14.1014      2.00000
     56     -14.0904      2.00000
     57     -14.0680      2.00000
     58     -14.0586      2.00000
     59     -14.0498      2.00000
     60     -14.0310      2.00000
     61     -14.0217      2.00000
     62     -13.9955      2.00000
     63     -13.9892      2.00000
     64     -13.9796      2.00000
     65     -13.9235      2.00000
     66     -13.8976      2.00000
     67     -13.8741      2.00000
     68     -13.7802      2.00000
     69     -13.7568      2.00000
     70     -13.7206      2.00000
     71     -13.6521      2.00000
     72      -8.1899      2.00000
     73      -7.7839      2.00000
     74      -7.7400      2.00000
     75      -7.7066      2.00000
     76      -7.3676      2.00000
     77      -7.3545      2.00000
     78      -7.3247      2.00000
     79      -7.3001      2.00000
     80      -7.2871      2.00000
     81      -7.2678      2.00000
     82      -7.2547      2.00000
     83      -7.2431      2.00000
     84      -7.2281      2.00000
     85      -7.2272      2.00000
     86      -7.2175      2.00000
     87      -7.2009      2.00000
     88      -7.1865      2.00000
     89      -7.1725      2.00000
     90      -7.1484      2.00000
     91      -7.1375      2.00000
     92      -7.1246      2.00000
     93      -7.1160      2.00000
     94      -7.1129      2.00000
     95      -7.1037      2.00000
     96      -7.1018      2.00000
     97      -7.1011      2.00000
     98      -7.0954      2.00000
     99      -7.0919      2.00000
    100      -7.0881      2.00000
    101      -7.0740      2.00000
    102      -7.0321      2.00000
    103      -6.5864      2.00000
    104      -3.3796      2.00000
    105      -3.3243      2.00000
    106      -3.2973      2.00000
    107      -3.2744      2.00000
    108      -3.2596      2.00000
    109      -3.2154      2.00000
    110      -3.2039      2.00000
    111      -3.1654      2.00000
    112      -3.1472      2.00000
    113      -3.0754      2.00000
    114      -3.0563      2.00000
    115      -2.8709      2.00000
    116      -2.3263      2.00000
    117      -2.2149      2.00000
    118      -2.1380      2.00000
    119      -2.1171      2.00000
    120      -2.0508      2.00000
    121      -1.9949      2.00000
    122      -1.9536      2.00000
    123      -1.8972      2.00000
    124      -1.8894      2.00000
    125      -1.8337      2.00000
    126      -1.8175      2.00000
    127      -1.7882      2.00000
    128      -1.6939      2.00000
    129      -1.6614      2.00000
    130      -1.6581      2.00000
    131      -1.6158      2.00000
    132      -1.5992      2.00000
    133      -1.5391      2.00000
    134      -1.5272      2.00000
    135      -1.5143      2.00000
    136      -1.4978      2.00000
    137      -1.4809      2.00000
    138      -1.4721      2.00000
    139      -1.4557      2.00000
    140      -1.4494      2.00000
    141      -1.4329      2.00000
    142      -1.4256      2.00000
    143      -1.4037      2.00000
    144      -1.3984      2.00000
    145      -1.3702      2.00000
    146      -1.3583      2.00000
    147      -1.3494      2.00000
    148      -1.3340      2.00000
    149      -1.3184      2.00000
    150      -1.3166      2.00000
    151      -1.3048      2.00000
    152      -1.2849      2.00000
    153      -1.2744      2.00000
[...]


--------------------------------------------------------------------------------------------------------


 soft charge-density along one line, spin component           1
         0         1         2         3         4         5         6         7         8         9
 total charge-density along one line

 pseudopotential strength for first ion, spin component:           1
 17.923  -4.692   0.000   0.000  -0.000   0.000  -0.000   0.000
 -4.692   1.237   0.000   0.000   0.000  -0.000  -0.000  -0.000
  0.000   0.000   2.244  -0.000  -0.000  -2.680   0.000   0.000
  0.000   0.000  -0.000   2.245  -0.001   0.000  -2.681   0.001
 -0.000   0.000  -0.000  -0.001   2.244   0.000   0.001  -2.679
  0.000  -0.000  -2.680   0.000   0.000   3.167  -0.000  -0.000
 -0.000  -0.000   0.000  -2.681   0.001  -0.000   3.168  -0.002
  0.000  -0.000   0.000   0.001  -2.679  -0.000  -0.002   3.166
 -0.000   0.000   0.000  -0.000   0.000  -0.001   0.000  -0.000
 -0.000   0.000   0.001   0.000  -0.000  -0.001  -0.000   0.000
  0.001  -0.000   0.000  -0.001   0.001  -0.000   0.002  -0.001
 -0.001   0.000  -0.000   0.001   0.001   0.000  -0.001  -0.001
 -0.000   0.000   0.000  -0.000  -0.001  -0.001   0.000   0.002
 total augmentation occupancy for first ion, spin component:           1
  1.912  -0.137  -0.000   0.000  -0.000   0.000   0.000  -0.000  -0.000  -0.000   0.001  -0.001  -0.000
 -0.137   0.118   0.001  -0.001  -0.001  -0.000  -0.001   0.001  -0.000   0.001  -0.003   0.004   0.002
 -0.000   0.001   2.017  -0.000  -0.000   0.004  -0.000  -0.000   0.002   0.002   0.000  -0.000   0.000
  0.000  -0.001  -0.000   2.020  -0.003  -0.000   0.006  -0.002  -0.000   0.000  -0.003  -0.000  -0.001
 -0.000  -0.001  -0.000  -0.003   2.017  -0.000  -0.002   0.004   0.000  -0.000   0.001   0.001  -0.003
  0.000  -0.000   0.004  -0.000  -0.000   0.008   0.000  -0.000  -0.002  -0.002  -0.000   0.000  -0.000
  0.000  -0.001  -0.000   0.006  -0.002   0.000   0.007   0.001   0.000  -0.000   0.002  -0.001   0.001
 -0.000   0.001  -0.000  -0.002   0.004  -0.000   0.001   0.009  -0.000   0.000  -0.001  -0.001   0.003
 -0.000  -0.000   0.002  -0.000   0.000  -0.002   0.000  -0.000   0.006   0.002   0.000   0.000   0.000
 -0.000   0.001   0.002   0.000  -0.000  -0.002  -0.000   0.000   0.002   0.005  -0.000   0.000  -0.000
  0.001  -0.003   0.000  -0.003   0.001  -0.000   0.002  -0.001   0.000  -0.000   0.005  -0.002  -0.001
 -0.001   0.004  -0.000  -0.000   0.001   0.000  -0.001  -0.001   0.000   0.000  -0.002   0.004   0.001
 -0.000   0.002   0.000  -0.001  -0.003  -0.000   0.001   0.003   0.000  -0.000  -0.001   0.001   0.004


------------------------ aborting loop because EDIFF is reached ----------------------------------------





 total charge     

# of ion       s       p       d       tot
------------------------------------------
    1        1.786   4.717   0.018   6.521
    2        1.785   4.716   0.018   6.519
    3        1.785   4.716   0.017   6.517
    4        1.786   4.716   0.018   6.520
    5        1.785   4.716   0.018   6.520
    6        1.786   4.717   0.018   6.520
    7        1.785   4.716   0.018   6.519
    8        1.786   4.717   0.019   6.522
    9        1.554   0.422   9.835  11.811
   10        1.534   0.428   9.829  11.791
   11        1.554   0.417   9.834  11.805
   12        1.554   0.409   9.832  11.795
   13        1.554   0.413   9.833  11.800
   14        1.530   0.437   9.829  11.797
   15        1.554   0.417   9.834  11.805
   16        1.528   0.591   9.857  11.976
   17        1.614   3.283   0.007   4.904
   18        1.614   3.281   0.006   4.901
   19        1.615   3.286   0.007   4.908
   20        1.618   3.267   0.008   4.893
   21        1.615   3.288   0.007   4.910
   22        1.614   3.283   0.006   4.904
   23        1.614   3.279   0.006   4.900
   24        1.614   3.282   0.006   4.901
   25        1.619   3.262   0.008   4.890
   26        1.614   3.279   0.006   4.900
   27        1.614   3.280   0.006   4.900
   28        1.614   3.279   0.006   4.899
   29        1.614   3.282   0.006   4.902
   30        1.614   3.286   0.007   4.906
   31        1.614   3.277   0.006   4.897
   32        1.614   3.285   0.006   4.906
   33        1.614   3.278   0.006   4.897
   34        1.614   3.279   0.006   4.899
   35        1.614   3.282   0.006   4.902
   36        1.614   3.282   0.006   4.902
   37        1.614   3.281   0.006   4.901
   38        1.614   3.278   0.006   4.897
   39        1.624   3.327   0.022   4.972
--------------------------------------------------
tot         63.790 116.752  78.987 259.530

    CHARGE:  cpu time    0.3956: real time    0.3956
    FORLOC:  cpu time    0.0112: real time    0.0112
    FORNL :  cpu time    1.9107: real time    1.9109
    STRESS:  cpu time   49.8475: real time   49.8490
    FORCOR:  cpu time    0.2407: real time    0.2407
    FORHAR:  cpu time    0.0277: real time    0.0277
    MIXING:  cpu time    0.0022: real time    0.0022
    OFIELD:  cpu time    0.0000: real time    0.0000

  FORCE on cell =-STRESS in cart. coord.  units (eV):
  Direction    XX          YY          ZZ          XY          YZ          ZX
  --------------------------------------------------------------------------------------
  Alpha Z   872.70584   872.70584   872.70584
  Ewald   -5903.66602 -5845.17071 -6157.07408  -169.42408  -102.85822  -124.66017
  Hartree  2549.90608  2544.31388  2390.10760   -89.77387   -56.60588   -97.30998
  E(xc)   -1449.69314 -1449.58128 -1449.88089    -0.16095    -0.10371    -0.00103
  Local   -3039.27414 -3088.27457 -2628.67617   257.26026   158.87120   223.48786
  n-local  1751.81250  1754.27153  1748.36786    -4.73613    -2.48821     0.38917
  augment   818.02829   816.90088   817.20841    -0.05482    -0.10517    -0.76838
  Kinetic  4397.39081  4396.31000  4402.03094     2.59732     0.91277     0.16155
  Fock        0.00000     0.00000     0.00000     0.00000     0.00000     0.00000
  -------------------------------------------------------------------------------------
  Total      -2.78977     1.47556    -5.21050    -4.29228    -2.37721     1.29904
  in kB      -2.80217     1.48212    -5.23365    -4.31135    -2.38778     1.30481
  external pressure =       -2.18 kB  Pullay stress =        0.00 kB


 VOLUME and BASIS-vectors are now :
 -----------------------------------------------------------------------------
  energy-cutoff  :      300.00
  volume of cell :     1595.09
      direct lattice vectors                 reciprocal lattice vectors
     8.456489000  0.000000000  8.040301000     0.059126193 -0.000000000  0.062186727
     0.000000000 11.729847000  0.000000000     0.000000000  0.085252604 -0.000000000
    -8.456489000  0.000000000  8.040301000    -0.059126193  0.000000000  0.062186727

  length of vectors
    11.668703715 11.729847000 11.668703715     0.085808482  0.085252604  0.085808482


 FORCES acting on ions
    electron-ion (+dipol)            ewald-force                    non-local-force                 convergence-correction
 -----------------------------------------------------------------------------------------------
   0.370E+02 -.132E+02 -.365E+02   -.369E+02 0.132E+02 0.365E+02   -.617E-01 0.329E-01 0.240E-01   0.707E-04 0.900E-04 0.132E-03
   0.210E+02 -.881E+01 0.950E+01   -.209E+02 0.879E+01 -.934E+01   -.459E-01 0.629E-01 -.197E+00   -.794E-04 0.157E-03 -.162E-03
   0.332E+02 0.481E+01 -.311E+02   -.327E+02 -.479E+01 0.309E+02   -.499E+00 -.537E-01 0.148E+00   0.184E-03 -.402E-03 -.335E-03
   -.578E+02 0.310E+02 0.682E+01   0.576E+02 -.307E+02 -.655E+01   0.224E+00 -.311E+00 -.263E+00   -.215E-04 0.175E-04 0.104E-03
   0.881E+00 -.357E+02 0.347E+02   -.943E+00 0.354E+02 -.346E+02   0.763E-01 0.265E+00 -.737E-01   0.648E-04 -.204E-03 0.193E-03
   0.449E+02 -.741E+01 0.187E+01   -.448E+02 0.736E+01 -.200E+01   -.166E+00 0.690E-01 0.136E+00   -.112E-03 0.170E-03 -.496E-04
   -.463E+02 0.557E+01 0.763E+02   0.461E+02 -.557E+01 -.758E+02   0.229E+00 -.194E-01 -.521E+00   -.119E-03 -.154E-03 0.252E-04
   -.100E+02 0.197E+02 -.232E+02   0.100E+02 -.196E+02 0.232E+02   0.188E-01 -.624E-01 0.455E-01   0.109E-03 -.598E-04 0.305E-04
   -.195E+01 -.275E+01 0.224E+01   0.181E+01 0.271E+01 -.219E+01   0.156E+00 0.486E-01 -.541E-02   0.927E-05 -.526E-04 -.226E-04
   -.116E+02 0.986E+02 -.288E+02   0.118E+02 -.103E+03 0.299E+02   -.207E+00 0.500E+01 -.113E+01   -.128E-03 0.951E-03 -.205E-03
   -.224E+01 0.356E+01 0.395E+01   0.202E+01 -.338E+01 -.422E+01   0.217E+00 -.151E+00 0.256E+00   0.151E-04 -.824E-05 -.236E-04
   0.674E+01 0.677E+01 0.404E+01   -.697E+01 -.658E+01 -.427E+01   0.251E+00 -.191E+00 0.241E+00   0.940E-05 0.207E-04 0.540E-04
   0.765E+00 -.354E+01 0.922E+01   -.857E+00 0.342E+01 -.923E+01   0.923E-01 0.102E+00 0.254E-01   0.682E-04 0.360E-04 0.110E-03
   -.569E+02 -.200E+02 -.908E+02   0.600E+02 0.207E+02 0.950E+02   -.327E+01 -.816E+00 -.463E+01   -.520E-03 -.980E-04 -.816E-03
   -.112E+02 0.201E+01 -.353E+01   0.112E+02 -.197E+01 0.359E+01   -.281E-01 -.516E-01 -.661E-01   -.112E-03 0.589E-04 -.524E-04
   -.113E+02 0.794E+01 -.146E+02   0.185E+02 -.170E+02 0.184E+02   -.504E+01 0.615E+01 -.272E+01   0.295E-03 -.367E-03 0.231E-03
   0.246E-01 0.537E+01 0.438E+02   -.125E+00 -.536E+01 -.442E+02   0.972E-01 0.281E-01 0.308E+00   0.544E-04 -.104E-03 0.735E-04
   0.132E+02 0.125E+02 0.235E+02   -.132E+02 -.125E+02 -.238E+02   -.288E-01 -.187E-01 0.225E+00   -.755E-04 -.540E-04 -.310E-04
   -.170E+02 -.658E+01 0.352E+02   0.171E+02 0.658E+01 -.355E+02   -.129E+00 -.460E-02 0.250E+00   -.931E-05 0.686E-04 -.144E-04
   0.125E+02 -.138E+02 0.483E+02   -.124E+02 0.140E+02 -.485E+02   -.242E+00 -.102E+01 0.168E+00   0.645E-04 0.587E-04 0.689E-04
   0.134E+02 0.683E+01 -.303E+02   -.136E+02 -.683E+01 0.305E+02   0.169E+00 0.180E-03 -.168E+00   -.334E-04 -.702E-04 -.308E-04
   -.632E+01 -.485E+01 -.344E+02   0.642E+01 0.487E+01 0.347E+02   -.898E-01 -.446E-01 -.273E+00   -.166E-04 0.111E-03 -.197E-04
   -.219E+02 -.165E+02 -.470E+02   0.220E+02 0.165E+02 0.473E+02   -.502E-01 0.389E-01 -.289E+00   -.144E-05 0.197E-05 -.645E-04
   -.363E+02 0.849E+01 0.343E+02   0.365E+02 -.862E+01 -.345E+02   -.226E+00 0.125E+00 0.196E+00   0.395E-04 0.200E-04 0.127E-03
   -.715E+01 0.136E+01 0.293E+02   0.708E+01 -.161E+01 -.297E+02   0.706E+00 0.372E+00 0.105E+01   -.101E-03 0.427E-04 -.391E-04
   0.312E+02 -.258E+02 0.188E+02   -.314E+02 0.261E+02 -.191E+02   0.401E+00 -.273E+00 0.808E-01   0.724E-04 -.552E-04 0.673E-04
   -.229E+01 -.196E+02 0.332E+02   0.206E+01 0.197E+02 -.334E+02   0.233E+00 -.150E+00 0.188E+00   -.119E-03 0.386E-05 -.139E-03
   -.363E+02 0.353E+01 -.105E+02   0.365E+02 -.338E+01 0.108E+02   -.198E+00 -.154E+00 -.278E+00   -.144E-04 0.599E-04 -.359E-04
   -.107E+02 -.190E+02 -.368E+02   0.109E+02 0.192E+02 0.370E+02   -.208E+00 -.185E+00 -.206E+00   0.678E-05 0.126E-04 0.644E-04
   0.262E+02 0.134E+02 -.232E+02   -.264E+02 -.136E+02 0.235E+02   0.193E+00 0.141E+00 -.266E+00   -.334E-04 -.792E-04 -.722E-04
   0.824E+01 0.313E+02 -.299E+02   -.845E+01 -.316E+02 0.301E+02   0.181E+00 0.291E+00 -.239E+00   0.461E-04 0.746E-04 0.125E-04
   -.265E+02 -.966E+01 0.191E+02   0.267E+02 0.976E+01 -.192E+02   -.175E+00 -.982E-01 0.162E+00   0.751E-04 0.299E-04 0.425E-04
   -.459E+01 0.124E+01 0.246E+02   0.481E+01 -.107E+01 -.248E+02   -.212E+00 -.173E+00 0.204E+00   -.796E-04 0.834E-04 0.126E-04
   0.279E+02 0.312E+02 0.223E+01   -.280E+02 -.314E+02 -.248E+01   0.135E+00 0.185E+00 0.245E+00   -.223E-05 0.205E-04 -.152E-04
   0.116E+02 0.242E+02 0.431E+02   -.118E+02 -.243E+02 -.433E+02   0.184E+00 0.157E+00 0.229E+00   -.948E-05 -.338E-04 -.565E-04
   0.266E+02 -.116E+02 -.229E+02   -.268E+02 0.117E+02 0.231E+02   0.228E+00 -.113E+00 -.233E+00   -.107E-03 0.546E-04 -.635E-04
   -.209E+02 0.539E+01 -.961E+01   0.209E+02 -.550E+01 0.982E+01   -.194E+00 0.273E-01 0.150E-02   0.726E-04 0.220E-04 0.268E-04
   -.128E+02 0.124E+02 -.557E+02   0.130E+02 -.126E+02 0.560E+02   -.187E+00 0.168E+00 -.189E+00   -.528E-05 0.176E-04 -.245E-04
   0.105E+03 -.129E+03 0.326E+02   -.107E+03 0.131E+03 -.335E+02   -.753E+00 0.103E+01 -.433E+00   0.129E-03 -.103E-03 0.113E-03
 -----------------------------------------------------------------------------------------------
   0.824E+01 -.104E+02 0.802E+01   0.853E-13 0.114E-12 -.213E-13   -.821E+01 0.104E+02 -.800E+01   -.316E-03 0.339E-03 -.785E-03


 POSITION                                       TOTAL-FORCE (eV/Angst)
 -----------------------------------------------------------------------------------
      0.58060      2.91591      3.73415         0.005092      0.010975      0.021898
      0.50440      2.88866     11.99190        -0.010146      0.034486     -0.033583
      3.82429      8.83442      7.89437         0.011812     -0.036303     -0.025139
     -4.86876      8.84439      7.87818         0.001486     -0.000029      0.003383
     -3.81721      2.81917      8.29774         0.014661     -0.035625      0.043677
      4.82466      2.89706      8.17474        -0.013481      0.026857     -0.011594
     -0.60534      8.80061     12.39076        -0.025447     -0.023265      0.018766
     -0.39587      8.87303      3.96207         0.010992      0.011783      0.002251
     -0.01179      0.01198     16.06479         0.011367      0.009534      0.024844
     -0.01569      0.06586      8.02186        -0.067149      0.314103     -0.131546
      4.22804     11.71094      4.02951        -0.007009      0.020954     -0.002587
     -4.22314      0.02189      4.02917         0.026344      0.003702      0.018829
      4.22580      5.86117      4.02529        -0.003108     -0.017041      0.012955
      4.21305      5.87376     12.04959        -0.175550     -0.070320     -0.354728
     -0.00185      5.85472      0.00289        -0.011498     -0.011189     -0.000661
      0.09542      5.75702      8.09350         2.152658     -2.992775      1.063761
     -4.17039      8.78442     11.51854         0.009529      0.033043     -0.006442
      4.35619      8.80170     11.55642        -0.003972     -0.000897     -0.000889
      0.02328      2.93588     15.60234         0.002522     -0.001897      0.000523
     -0.19744      2.92546      7.38063        -0.106188     -0.851199     -0.061033
     -0.06837      8.79688      0.36616        -0.001879      0.002676     -0.013143
      4.16326      2.92236      4.51380        -0.003212     -0.037510     -0.004654
     -4.28998      2.97240      4.63030         0.003176      0.007864      0.007067
     -5.90774      5.52877      9.59649        -0.019259      0.000331     -0.029782
      2.59501      5.47909      9.64910         0.657228      0.132436      0.669697
      1.69372      6.31331      5.65364         0.194626     -0.005366     -0.182752
      1.71325      6.27118     13.63112         0.012067      0.013692     -0.007955
     -1.69085      0.34845     10.47829         0.014190     -0.018013     -0.015191
     -1.72474      0.42080      2.42229        -0.008909     -0.004696      0.007630
      5.91873     11.37761      6.45134         0.011465      0.006413      0.002224
     -2.52233     11.29761      6.47122        -0.019057      0.025281     -0.018654
     -5.98894      0.28294      9.66205         0.003775     -0.001565     -0.001754
      2.48541      0.42830      9.62638        -0.000318     -0.015478      0.001045
      1.73106     11.27757      5.67636        -0.014557     -0.012990      0.016717
      1.70647     11.33401     13.63998         0.000331     -0.014124     -0.010649
      5.91658      6.20226      6.46989         0.025065      0.012772      0.017415
     -1.69764      5.45394     10.44519        -0.099435     -0.087000      0.197793
     -1.69469      5.48556      2.47533        -0.004398      0.007719      0.032419
     -1.26299      7.61398      7.45096        -2.573816      3.562661     -1.250160
 -----------------------------------------------------------------------------------
    total drift:                                0.024212     -0.031594      0.019542


--------------------------------------------------------------------------------------------------------



  FREE ENERGIE OF THE ION-ELECTRON SYSTEM (eV)
  ---------------------------------------------------
  free  energy   TOTEN  =     -1408.64717486 eV

  energy  without entropy=    -1408.64717486  energy(sigma->0) =    -1408.64717486



--------------------------------------------------------------------------------------------------------


    POTLOK:  cpu time    1.4557: real time    1.4558


--------------------------------------------------------------------------------------------------------


 stress matrix after NEB project (eV)
     -2.78977     -4.29231      1.29904
     -4.29228      1.47556     -2.37725
      1.29905     -2.37721     -5.21050
  FORCES: max atom, RMS     4.569462    0.982863
  FORCE total and by dimension    6.137975    3.562661
  Stress total and by dimension    9.414586    5.210496
     LOOP+:  cpu time  490.2077: real time  491.0375
    4ORBIT:  cpu time    0.0000: real time    0.0000



 total charge     

# of ion       s       p       d       tot
------------------------------------------
    1        1.786   4.717   0.018   6.521
    2        1.785   4.716   0.018   6.519
    3        1.785   4.716   0.017   6.517
    4        1.786   4.716   0.018   6.520
    5        1.785   4.716   0.018   6.520
    6        1.786   4.717   0.018   6.520
    7        1.785   4.716   0.018   6.519
    8        1.786   4.717   0.019   6.522
    9        1.554   0.422   9.835  11.811
   10        1.534   0.428   9.829  11.791
   11        1.554   0.417   9.834  11.805
   12        1.554   0.409   9.832  11.795
   13        1.554   0.413   9.833  11.800
   14        1.530   0.437   9.829  11.797
   15        1.554   0.417   9.834  11.805
   16        1.528   0.591   9.857  11.976
   17        1.614   3.283   0.007   4.904
   18        1.614   3.281   0.006   4.901
   19        1.615   3.286   0.007   4.908
   20        1.618   3.267   0.008   4.893
   21        1.615   3.288   0.007   4.910
   22        1.614   3.283   0.006   4.904
   23        1.614   3.279   0.006   4.900
   24        1.614   3.282   0.006   4.901
   25        1.619   3.262   0.008   4.890
   26        1.614   3.279   0.006   4.900
   27        1.614   3.280   0.006   4.900
   28        1.614   3.279   0.006   4.899
   29        1.614   3.282   0.006   4.902
   30        1.614   3.286   0.007   4.906
   31        1.614   3.277   0.006   4.897
   32        1.614   3.285   0.006   4.906
   33        1.614   3.278   0.006   4.897
   34        1.614   3.279   0.006   4.899
   35        1.614   3.282   0.006   4.902
   36        1.614   3.282   0.006   4.902
   37        1.614   3.281   0.006   4.901
   38        1.614   3.278   0.006   4.897
   39        1.624   3.327   0.022   4.972
--------------------------------------------------
tot         63.790 116.752  78.987 259.530


 total amount of memory used by VASP MPI-rank0    60660. kBytes
=======================================================================

   base      :      30000. kBytes
   nonlr-proj:       6495. kBytes
   fftplans  :       8423. kBytes
   grid      :       7465. kBytes
   one-center:         77. kBytes
   wavefun   :       8200. kBytes

  
  
 General timing and accounting informations for this job:
 ========================================================
  
                  Total CPU time used (sec):      502.526
                            User time (sec):      500.730
                          System time (sec):        1.796
                         Elapsed time (sec):      503.931
  
                   Maximum memory used (kb):       78444.
                   Average memory used (kb):           0.
  
                          Minor page faults:        21064
                          Major page faults:            2
                 Voluntary context switches:         1893
