CsPbBr3 cubic bulk                      
           1
     8.456489    0.000000    8.040301
     0.000000   11.729847    0.000000
    -8.456489    0.000000    8.040301
   Cs   Pb   Br
   8   8  23
Direct configuration=     1
   0.26654300  0.24858900  0.19788600
   0.77556000  0.24626600  0.71591400
   0.71704100  0.75315700  0.26480900
   0.20204700  0.75400700  0.77779000
   0.29031200  0.24034200  0.74170600
   0.79362400  0.24698200  0.22309700
   0.73474900  0.75027500  0.80633200
   0.22298200  0.75644900  0.26979400
   0.99832000  0.00102100  0.99971400
   0.49792600  0.00561500  0.49978100
   0.50057000  0.99838800  0.00059400
   0.00086300  0.00186600  0.50025900
   0.50017500  0.49968000  0.00046400
   0.99842600  0.50075300  0.50022300
   0.00007000  0.49913000  0.00028900
   0.50895000  0.49080100  0.49766600
   0.46972100  0.74889500  0.96287900
   0.97622100  0.75036800  0.46109100
   0.97163500  0.25029100  0.96888200
   0.44730300  0.24940300  0.47065100
   0.01872800  0.74995700  0.02681300
   0.52685600  0.24913900  0.03454100
   0.03429300  0.25340500  0.54159300
   0.24747200  0.47134200  0.94607600
   0.75347900  0.46710700  0.44661300
   0.45172500  0.53822600  0.25143800
   0.94897300  0.53463400  0.74637700
   0.55163700  0.02970600  0.75158400
   0.04865700  0.03587400  0.25261200
   0.75114000  0.96997100  0.05123600
   0.25328800  0.96315100  0.55156000
   0.24674800  0.02412100  0.95495400
   0.74558600  0.03651400  0.45168000
   0.45534500  0.96144200  0.25064300
   0.94912300  0.96625400  0.74732900
   0.75216600  0.52875900  0.05251600
   0.54917700  0.46496300  0.74992700
   0.05373200  0.46765800  0.25413300
   0.38867500  0.64911200  0.53802700
