  39  39   1   0
  0.4103261E+02  0.1166835E-08  0.1176381E-08  0.1166835E-08  0.5000000E-15
   1.0000000000000000E-004
  CAR 
 CsPbBr3 cubic bulk                      
      8.00537500    -22.66437574  301      0.36349544      1.00000000
    -22.664  0.0000E+00  0.0000E+00
    -22.562  0.0000E+00  0.0000E+00
    -22.460  0.0000E+00  0.0000E+00
    -22.358  0.0000E+00  0.0000E+00
    -22.255  0.0000E+00  0.0000E+00
    -22.153  0.0000E+00  0.0000E+00
    -22.051  0.0000E+00  0.0000E+00
    -21.949  0.0000E+00  0.0000E+00
    -21.847  0.0000E+00  0.0000E+00
    -21.744  0.0000E+00  0.0000E+00
    -21.642  0.0000E+00  0.0000E+00
    -21.540  0.0000E+00  0.0000E+00
    -21.438  0.0000E+00  0.0000E+00
    -21.335  0.0000E+00  0.0000E+00
    -21.233  0.1956E+02  0.2000E+01
    -21.131  0.0000E+00  0.2000E+01
    -21.029  0.2570E+00  0.2026E+01
    -20.926  0.7043E+02  0.1120E+02
    -20.824  0.1954E+02  0.1400E+02
    -20.722  0.0000E+00  0.1400E+02
    -20.620  0.0000E+00  0.1400E+02
    -20.517  0.0000E+00  0.1400E+02
    -20.415  0.0000E+00  0.1400E+02
    -20.313  0.0000E+00  0.1400E+02
    -20.211  0.0000E+00  0.1400E+02
    -20.109  0.0000E+00  0.1400E+02
    -20.006  0.0000E+00  0.1400E+02
    -19.904  0.0000E+00  0.1400E+02
    -19.802  0.0000E+00  0.1400E+02
    -19.700  0.0000E+00  0.1400E+02
    -19.597  0.0000E+00  0.1400E+02
    -19.495  0.0000E+00  0.1400E+02
    -19.393  0.0000E+00  0.1400E+02
    -19.291  0.0000E+00  0.1400E+02
    -19.188  0.0000E+00  0.1400E+02
    -19.086  0.0000E+00  0.1400E+02
    -18.984  0.0000E+00  0.1400E+02
    -18.882  0.0000E+00  0.1400E+02
    -18.780  0.0000E+00  0.1400E+02
    -18.677  0.0000E+00  0.1400E+02
    -18.575  0.0000E+00  0.1400E+02
    -18.473  0.0000E+00  0.1400E+02
    -18.371  0.0000E+00  0.1400E+02
    -18.268  0.0000E+00  0.1400E+02
    -18.166  0.0000E+00  0.1400E+02
    -18.064  0.0000E+00  0.1400E+02
    -17.962  0.0000E+00  0.1400E+02
    -17.859  0.0000E+00  0.1400E+02
    -17.757  0.0000E+00  0.1400E+02
    -17.655  0.0000E+00  0.1400E+02
    -17.553  0.0000E+00  0.1400E+02
    -17.451  0.0000E+00  0.1400E+02
    -17.348  0.0000E+00  0.1400E+02
    -17.246  0.0000E+00  0.1400E+02
    -17.144  0.0000E+00  0.1400E+02
    -17.042  0.0000E+00  0.1400E+02
    -16.939  0.0000E+00  0.1400E+02
    -16.837  0.2399E+00  0.1402E+02
    -16.735  0.1183E+03  0.2660E+02
    -16.633  0.1817E+03  0.4857E+02
    -16.530  0.7629E+02  0.6180E+02
    -16.428  0.1756E+03  0.8195E+02
    -16.326  0.1174E+03  0.9400E+02
    -16.224  0.0000E+00  0.9400E+02
    -16.121  0.0000E+00  0.9400E+02
    -16.019  0.0000E+00  0.9400E+02
    -15.917  0.0000E+00  0.9400E+02
    -15.815  0.0000E+00  0.9400E+02
    -15.713  0.0000E+00  0.9400E+02
    -15.610  0.0000E+00  0.9400E+02
    -15.508  0.0000E+00  0.9400E+02
    -15.406  0.0000E+00  0.9400E+02
    -15.304  0.0000E+00  0.9400E+02
    -15.201  0.0000E+00  0.9400E+02
    -15.099  0.0000E+00  0.9400E+02
    -14.997  0.0000E+00  0.9400E+02
    -14.895  0.0000E+00  0.9400E+02
    -14.792  0.0000E+00  0.9400E+02
    -14.690  0.2646E-03  0.9400E+02
    -14.588  0.2104E+02  0.9615E+02
    -14.486  0.1493E+02  0.9953E+02
    -14.384  0.2959E+02  0.1040E+03
    -14.281  0.3126E+02  0.1084E+03
    -14.179  0.4406E+02  0.1138E+03
    -14.077  0.7667E+02  0.1236E+03
    -13.975  0.3924E+02  0.1298E+03
    -13.872  0.6476E+02  0.1379E+03
    -13.770  0.9780E+01  0.1400E+03
    -13.668  0.1956E+02  0.1420E+03
    -13.566  0.0000E+00  0.1420E+03
    -13.463  0.0000E+00  0.1420E+03
    -13.361  0.0000E+00  0.1420E+03
    -13.259  0.0000E+00  0.1420E+03
    -13.157  0.0000E+00  0.1420E+03
    -13.055  0.0000E+00  0.1420E+03
    -12.952  0.0000E+00  0.1420E+03
    -12.850  0.0000E+00  0.1420E+03
    -12.748  0.0000E+00  0.1420E+03
    -12.646  0.0000E+00  0.1420E+03
    -12.543  0.0000E+00  0.1420E+03
    -12.441  0.0000E+00  0.1420E+03
    -12.339  0.0000E+00  0.1420E+03
    -12.237  0.0000E+00  0.1420E+03
    -12.134  0.0000E+00  0.1420E+03
    -12.032  0.0000E+00  0.1420E+03
    -11.930  0.0000E+00  0.1420E+03
    -11.828  0.0000E+00  0.1420E+03
    -11.725  0.0000E+00  0.1420E+03
    -11.623  0.0000E+00  0.1420E+03
    -11.521  0.0000E+00  0.1420E+03
    -11.419  0.0000E+00  0.1420E+03
    -11.317  0.0000E+00  0.1420E+03
    -11.214  0.0000E+00  0.1420E+03
    -11.112  0.0000E+00  0.1420E+03
    -11.010  0.0000E+00  0.1420E+03
    -10.908  0.0000E+00  0.1420E+03
    -10.805  0.0000E+00  0.1420E+03
    -10.703  0.0000E+00  0.1420E+03
    -10.601  0.0000E+00  0.1420E+03
    -10.499  0.0000E+00  0.1420E+03
    -10.396  0.0000E+00  0.1420E+03
    -10.294  0.0000E+00  0.1420E+03
    -10.192  0.0000E+00  0.1420E+03
    -10.090  0.0000E+00  0.1420E+03
     -9.988  0.0000E+00  0.1420E+03
     -9.885  0.0000E+00  0.1420E+03
     -9.783  0.0000E+00  0.1420E+03
     -9.681  0.0000E+00  0.1420E+03
     -9.579  0.0000E+00  0.1420E+03
     -9.476  0.0000E+00  0.1420E+03
     -9.374  0.0000E+00  0.1420E+03
     -9.272  0.0000E+00  0.1420E+03
     -9.170  0.0000E+00  0.1420E+03
     -9.067  0.0000E+00  0.1420E+03
     -8.965  0.0000E+00  0.1420E+03
     -8.863  0.0000E+00  0.1420E+03
     -8.761  0.0000E+00  0.1420E+03
     -8.659  0.0000E+00  0.1420E+03
     -8.556  0.0000E+00  0.1420E+03
     -8.454  0.5006E+00  0.1421E+03
     -8.352  0.4294E-01  0.1423E+03
     -8.250  0.2342E+01  0.1427E+03
     -8.147  0.9781E+01  0.1437E+03
     -8.045  0.1112E+02  0.1449E+03
     -7.943  0.1459E+02  0.1465E+03
     -7.841  0.2143E+02  0.1489E+03
     -7.738  0.1664E+02  0.1515E+03
     -7.636  0.2459E+02  0.1560E+03
     -7.534  0.1783E+02  0.1588E+03
     -7.432  0.2573E+02  0.1616E+03
     -7.330  0.2154E+03  0.1860E+03
     -7.227  0.8093E+02  0.1978E+03
     -7.125  0.4891E+01  0.1985E+03
     -7.023  0.9281E+01  0.1994E+03
     -6.921  0.2445E+01  0.1997E+03
     -6.818  0.0000E+00  0.1998E+03
     -6.716  0.2310E+01  0.2000E+03
     -6.614  0.0000E+00  0.2000E+03
     -6.512  0.0000E+00  0.2000E+03
     -6.409  0.0000E+00  0.2000E+03
     -6.307  0.0000E+00  0.2000E+03
     -6.205  0.0000E+00  0.2000E+03
     -6.103  0.0000E+00  0.2000E+03
     -6.000  0.0000E+00  0.2000E+03
     -5.898  0.0000E+00  0.2000E+03
     -5.796  0.0000E+00  0.2000E+03
     -5.694  0.0000E+00  0.2000E+03
     -5.592  0.0000E+00  0.2000E+03
     -5.489  0.0000E+00  0.2000E+03
     -5.387  0.0000E+00  0.2000E+03
     -5.285  0.0000E+00  0.2000E+03
     -5.183  0.0000E+00  0.2000E+03
     -5.080  0.0000E+00  0.2000E+03
     -4.978  0.0000E+00  0.2000E+03
     -4.876  0.0000E+00  0.2000E+03
     -4.774  0.0000E+00  0.2000E+03
     -4.671  0.0000E+00  0.2000E+03
     -4.569  0.0000E+00  0.2000E+03
     -4.467  0.0000E+00  0.2000E+03
     -4.365  0.0000E+00  0.2000E+03
     -4.263  0.0000E+00  0.2000E+03
     -4.160  0.0000E+00  0.2000E+03
     -4.058  0.0000E+00  0.2000E+03
     -3.956  0.0000E+00  0.2000E+03
     -3.854  0.0000E+00  0.2000E+03
     -3.751  0.0000E+00  0.2000E+03
     -3.649  0.1210E+02  0.2012E+03
     -3.547  0.1467E+02  0.2030E+03
     -3.445  0.9780E+01  0.2040E+03
     -3.342  0.1397E+02  0.2054E+03
     -3.240  0.3468E+02  0.2100E+03
     -3.138  0.1188E+02  0.2117E+03
     -3.036  0.4861E+01  0.2125E+03
     -2.934  0.1132E+02  0.2137E+03
     -2.831  0.2270E+02  0.2168E+03
     -2.729  0.3135E+02  0.2207E+03
     -2.627  0.2045E+02  0.2233E+03
     -2.525  0.3472E+02  0.2275E+03
     -2.422  0.3480E+02  0.2321E+03
     -2.320  0.3878E+02  0.2365E+03
     -2.218  0.3332E+02  0.2412E+03
     -2.116  0.1429E+02  0.2440E+03
     -2.013  0.3668E+02  0.2478E+03
     -1.911  0.4272E+02  0.2531E+03
     -1.809  0.4445E+02  0.2595E+03
     -1.707  0.5596E+02  0.2662E+03
     -1.604  0.6911E+02  0.2748E+03
     -1.502  0.8016E+02  0.2849E+03
     -1.400  0.8434E+02  0.2946E+03
     -1.298  0.8983E+02  0.3069E+03
     -1.196  0.7201E+02  0.3164E+03
     -1.093  0.5976E+02  0.3244E+03
     -0.991  0.3658E+02  0.3292E+03
     -0.889  0.3160E+02  0.3332E+03
     -0.787  0.1424E+02  0.3352E+03
     -0.684  0.2198E+02  0.3382E+03
     -0.582  0.1222E+02  0.3400E+03
     -0.480  0.8357E+01  0.3409E+03
     -0.378  0.3051E+01  0.3413E+03
     -0.275  0.8224E+01  0.3423E+03
     -0.173  0.4881E+01  0.3430E+03
     -0.071  0.3335E+01  0.3433E+03
      0.031  0.2445E+01  0.3438E+03
      0.133  0.0000E+00  0.3438E+03
      0.236  0.8851E-05  0.3438E+03
      0.338  0.2445E+01  0.3440E+03
      0.440  0.0000E+00  0.3440E+03
      0.542  0.0000E+00  0.3440E+03
      0.645  0.0000E+00  0.3440E+03
      0.747  0.0000E+00  0.3440E+03
      0.849  0.0000E+00  0.3440E+03
      0.951  0.0000E+00  0.3440E+03
      1.054  0.0000E+00  0.3440E+03
      1.156  0.0000E+00  0.3440E+03
      1.258  0.0000E+00  0.3440E+03
      1.360  0.0000E+00  0.3440E+03
      1.462  0.0000E+00  0.3440E+03
      1.565  0.0000E+00  0.3440E+03
      1.667  0.0000E+00  0.3440E+03
      1.769  0.0000E+00  0.3440E+03
      1.871  0.0000E+00  0.3440E+03
      1.974  0.0000E+00  0.3440E+03
      2.076  0.0000E+00  0.3440E+03
      2.178  0.0000E+00  0.3440E+03
      2.280  0.0000E+00  0.3440E+03
      2.383  0.0000E+00  0.3440E+03
      2.485  0.2876E-09  0.3440E+03
      2.587  0.4493E+01  0.3445E+03
      2.689  0.1075E+02  0.3456E+03
      2.792  0.1234E+02  0.3470E+03
      2.894  0.1225E+02  0.3485E+03
      2.996  0.1361E+02  0.3504E+03
      3.098  0.1133E+02  0.3522E+03
      3.200  0.1392E+02  0.3544E+03
      3.303  0.2473E+01  0.3550E+03
      3.405  0.4639E+01  0.3557E+03
      3.507  0.5164E+01  0.3563E+03
      3.609  0.2381E-12  0.3565E+03
      3.712  0.2714E+01  0.3568E+03
      3.814  0.2647E+01  0.3573E+03
      3.916  0.1333E+00  0.3575E+03
      4.018  0.9775E+01  0.3590E+03
      4.121  0.1407E+02  0.3607E+03
      4.223  0.1645E+02  0.3632E+03
      4.325  0.2914E+02  0.3665E+03
      4.427  0.2407E+02  0.3697E+03
      4.529  0.2569E+02  0.3734E+03
      4.632  0.1776E+02  0.3756E+03
      4.734  0.1920E+02  0.3782E+03
      4.836  0.1712E+02  0.3802E+03
      4.938  0.8090E-05  0.3803E+03
      5.041  0.4723E+01  0.3807E+03
      5.143  0.0000E+00  0.3808E+03
      5.245  0.5472E-05  0.3808E+03
      5.347  0.1707E+02  0.3825E+03
      5.450  0.5142E+01  0.3833E+03
      5.552  0.1817E+02  0.3856E+03
      5.654  0.1383E+02  0.3879E+03
      5.756  0.1630E+02  0.3899E+03
      5.858  0.7938E+01  0.3908E+03
      5.961  0.2416E+02  0.3942E+03
      6.063  0.2333E+02  0.3971E+03
      6.165  0.3628E+02  0.4017E+03
      6.267  0.2608E+02  0.4052E+03
      6.370  0.2776E+02  0.4083E+03
      6.472  0.2683E+02  0.4127E+03
      6.574  0.2560E+02  0.4156E+03
      6.676  0.2445E+01  0.4160E+03
      6.779  0.0000E+00  0.4160E+03
      6.881  0.0000E+00  0.4160E+03
      6.983  0.0000E+00  0.4160E+03
      7.085  0.0000E+00  0.4160E+03
      7.188  0.0000E+00  0.4160E+03
      7.290  0.0000E+00  0.4160E+03
      7.392  0.0000E+00  0.4160E+03
      7.494  0.0000E+00  0.4160E+03
      7.596  0.0000E+00  0.4160E+03
      7.699  0.0000E+00  0.4160E+03
      7.801  0.0000E+00  0.4160E+03
      7.903  0.0000E+00  0.4160E+03
      8.005  0.0000E+00  0.4160E+03
      8.00537500    -22.66437574  301      0.36349544      1.00000000
    -22.664  0.0000E+00  0.0000E+00  0.0000E+00
    -22.562  0.0000E+00  0.0000E+00  0.0000E+00
    -22.460  0.0000E+00  0.0000E+00  0.0000E+00
    -22.358  0.0000E+00  0.0000E+00  0.0000E+00
    -22.255  0.0000E+00  0.0000E+00  0.0000E+00
    -22.153  0.0000E+00  0.0000E+00  0.0000E+00
    -22.051  0.0000E+00  0.0000E+00  0.0000E+00
    -21.949  0.0000E+00  0.0000E+00  0.0000E+00
    -21.847  0.0000E+00  0.0000E+00  0.0000E+00
    -21.744  0.0000E+00  0.0000E+00  0.0000E+00
    -21.642  0.0000E+00  0.0000E+00  0.0000E+00
    -21.540  0.0000E+00  0.0000E+00  0.0000E+00
    -21.438  0.0000E+00  0.0000E+00  0.0000E+00
    -21.335  0.0000E+00  0.0000E+00  0.0000E+00
    -21.233  0.2638E-03  0.2733E-06  0.5903E-07
    -21.131  0.0000E+00  0.0000E+00  0.0000E+00
    -21.029  0.2280E+00  0.2503E-06  0.9961E-07
    -20.926  0.6660E-02  0.2943E-06  0.3243E-07
    -20.824  0.7112E-06  0.1765E-08  0.1855E-09
    -20.722  0.0000E+00  0.0000E+00  0.0000E+00
    -20.620  0.0000E+00  0.0000E+00  0.0000E+00
    -20.517  0.0000E+00  0.0000E+00  0.0000E+00
    -20.415  0.0000E+00  0.0000E+00  0.0000E+00
    -20.313  0.0000E+00  0.0000E+00  0.0000E+00
    -20.211  0.0000E+00  0.0000E+00  0.0000E+00
    -20.109  0.0000E+00  0.0000E+00  0.0000E+00
    -20.006  0.0000E+00  0.0000E+00  0.0000E+00
    -19.904  0.0000E+00  0.0000E+00  0.0000E+00
    -19.802  0.0000E+00  0.0000E+00  0.0000E+00
    -19.700  0.0000E+00  0.0000E+00  0.0000E+00
    -19.597  0.0000E+00  0.0000E+00  0.0000E+00
    -19.495  0.0000E+00  0.0000E+00  0.0000E+00
    -19.393  0.0000E+00  0.0000E+00  0.0000E+00
    -19.291  0.0000E+00  0.0000E+00  0.0000E+00
    -19.188  0.0000E+00  0.0000E+00  0.0000E+00
    -19.086  0.0000E+00  0.0000E+00  0.0000E+00
    -18.984  0.0000E+00  0.0000E+00  0.0000E+00
    -18.882  0.0000E+00  0.0000E+00  0.0000E+00
    -18.780  0.0000E+00  0.0000E+00  0.0000E+00
    -18.677  0.0000E+00  0.0000E+00  0.0000E+00
    -18.575  0.0000E+00  0.0000E+00  0.0000E+00
    -18.473  0.0000E+00  0.0000E+00  0.0000E+00
    -18.371  0.0000E+00  0.0000E+00  0.0000E+00
    -18.268  0.0000E+00  0.0000E+00  0.0000E+00
    -18.166  0.0000E+00  0.0000E+00  0.0000E+00
    -18.064  0.0000E+00  0.0000E+00  0.0000E+00
    -17.962  0.0000E+00  0.0000E+00  0.0000E+00
    -17.859  0.0000E+00  0.0000E+00  0.0000E+00
    -17.757  0.0000E+00  0.0000E+00  0.0000E+00
    -17.655  0.0000E+00  0.0000E+00  0.0000E+00
    -17.553  0.0000E+00  0.0000E+00  0.0000E+00
    -17.451  0.0000E+00  0.0000E+00  0.0000E+00
    -17.348  0.0000E+00  0.0000E+00  0.0000E+00
    -17.246  0.0000E+00  0.0000E+00  0.0000E+00
    -17.144  0.0000E+00  0.0000E+00  0.0000E+00
    -17.042  0.0000E+00  0.0000E+00  0.0000E+00
    -16.939  0.0000E+00  0.0000E+00  0.0000E+00
    -16.837  0.4256E-06  0.7768E-07  0.3728E-07
    -16.735  0.5689E-04  0.6651E-04  0.1319E-04
    -16.633  0.5563E-04  0.2808E-04  0.3262E-05
    -16.530  0.7155E-04  0.6481E-04  0.1118E-04
    -16.428  0.5274E-04  0.3329E-04  0.4016E-05
    -16.326  0.4188E-05  0.2733E-05  0.3253E-06
    -16.224  0.0000E+00  0.0000E+00  0.0000E+00
    -16.121  0.0000E+00  0.0000E+00  0.0000E+00
    -16.019  0.0000E+00  0.0000E+00  0.0000E+00
    -15.917  0.0000E+00  0.0000E+00  0.0000E+00
    -15.815  0.0000E+00  0.0000E+00  0.0000E+00
    -15.713  0.0000E+00  0.0000E+00  0.0000E+00
    -15.610  0.0000E+00  0.0000E+00  0.0000E+00
    -15.508  0.0000E+00  0.0000E+00  0.0000E+00
    -15.406  0.0000E+00  0.0000E+00  0.0000E+00
    -15.304  0.0000E+00  0.0000E+00  0.0000E+00
    -15.201  0.0000E+00  0.0000E+00  0.0000E+00
    -15.099  0.0000E+00  0.0000E+00  0.0000E+00
    -14.997  0.0000E+00  0.0000E+00  0.0000E+00
    -14.895  0.0000E+00  0.0000E+00  0.0000E+00
    -14.792  0.0000E+00  0.0000E+00  0.0000E+00
    -14.690  0.9633E-07  0.4692E-07  0.1002E-08
    -14.588  0.6706E-02  0.3707E-02  0.1057E-03
    -14.486  0.2814E-04  0.1703E-02  0.1161E-03
    -14.384  0.2435E-04  0.6769E-03  0.5252E-04
    -14.281  0.1912E-02  0.2734E-02  0.1151E-03
    -14.179  0.1046E-02  0.3071E-02  0.2667E-03
    -14.077  0.1827E-02  0.4891E-02  0.5970E-03
    -13.975  0.1308E-03  0.6603E-03  0.6362E-04
    -13.872  0.1295E-02  0.4277E-02  0.4781E-03
    -13.770  0.4677E-03  0.4099E-03  0.1827E-04
    -13.668  0.1056E-03  0.3230E-03  0.2452E-04
    -13.566  0.0000E+00  0.0000E+00  0.0000E+00
    -13.463  0.0000E+00  0.0000E+00  0.0000E+00
    -13.361  0.0000E+00  0.0000E+00  0.0000E+00
    -13.259  0.0000E+00  0.0000E+00  0.0000E+00
    -13.157  0.0000E+00  0.0000E+00  0.0000E+00
    -13.055  0.0000E+00  0.0000E+00  0.0000E+00
    -12.952  0.0000E+00  0.0000E+00  0.0000E+00
    -12.850  0.0000E+00  0.0000E+00  0.0000E+00
    -12.748  0.0000E+00  0.0000E+00  0.0000E+00
    -12.646  0.0000E+00  0.0000E+00  0.0000E+00
    -12.543  0.0000E+00  0.0000E+00  0.0000E+00
    -12.441  0.0000E+00  0.0000E+00  0.0000E+00
    -12.339  0.0000E+00  0.0000E+00  0.0000E+00
    -12.237  0.0000E+00  0.0000E+00  0.0000E+00
    -12.134  0.0000E+00  0.0000E+00  0.0000E+00
    -12.032  0.0000E+00  0.0000E+00  0.0000E+00
    -11.930  0.0000E+00  0.0000E+00  0.0000E+00
    -11.828  0.0000E+00  0.0000E+00  0.0000E+00
    -11.725  0.0000E+00  0.0000E+00  0.0000E+00
    -11.623  0.0000E+00  0.0000E+00  0.0000E+00
    -11.521  0.0000E+00  0.0000E+00  0.0000E+00
    -11.419  0.0000E+00  0.0000E+00  0.0000E+00
    -11.317  0.0000E+00  0.0000E+00  0.0000E+00
    -11.214  0.0000E+00  0.0000E+00  0.0000E+00
    -11.112  0.0000E+00  0.0000E+00  0.0000E+00
    -11.010  0.0000E+00  0.0000E+00  0.0000E+00
    -10.908  0.0000E+00  0.0000E+00  0.0000E+00
    -10.805  0.0000E+00  0.0000E+00  0.0000E+00
    -10.703  0.0000E+00  0.0000E+00  0.0000E+00
    -10.601  0.0000E+00  0.0000E+00  0.0000E+00
    -10.499  0.0000E+00  0.0000E+00  0.0000E+00
    -10.396  0.0000E+00  0.0000E+00  0.0000E+00
    -10.294  0.0000E+00  0.0000E+00  0.0000E+00
    -10.192  0.0000E+00  0.0000E+00  0.0000E+00
    -10.090  0.0000E+00  0.0000E+00  0.0000E+00
     -9.988  0.0000E+00  0.0000E+00  0.0000E+00
     -9.885  0.0000E+00  0.0000E+00  0.0000E+00
     -9.783  0.0000E+00  0.0000E+00  0.0000E+00
     -9.681  0.0000E+00  0.0000E+00  0.0000E+00
     -9.579  0.0000E+00  0.0000E+00  0.0000E+00
     -9.476  0.0000E+00  0.0000E+00  0.0000E+00
     -9.374  0.0000E+00  0.0000E+00  0.0000E+00
     -9.272  0.0000E+00  0.0000E+00  0.0000E+00
     -9.170  0.0000E+00  0.0000E+00  0.0000E+00
     -9.067  0.0000E+00  0.0000E+00  0.0000E+00
     -8.965  0.0000E+00  0.0000E+00  0.0000E+00
     -8.863  0.0000E+00  0.0000E+00  0.0000E+00
     -8.761  0.0000E+00  0.0000E+00  0.0000E+00
     -8.659  0.0000E+00  0.0000E+00  0.0000E+00
     -8.556  0.0000E+00  0.0000E+00  0.0000E+00
     -8.454  0.5375E-13  0.1044E-05  0.1684E-05
     -8.352  0.9989E-14  0.5889E-05  0.1397E-06
     -8.250  0.2877E-11  0.2476E-04  0.6474E-05
     -8.147  0.2693E-05  0.5389E-02  0.2994E-04
     -8.045  0.1385E-04  0.1389E-01  0.2998E-04
     -7.943  0.3863E-04  0.4594E-01  0.4299E-04
     -7.841  0.2402E-03  0.2264E+00  0.9426E-04
     -7.738  0.7927E-04  0.1790E+00  0.1296E-03
     -7.636  0.7804E-05  0.6934E-01  0.4335E-04
     -7.534  0.4442E-04  0.5119E+00  0.4022E-04
     -7.432  0.4046E-04  0.1194E+02  0.2113E-04
     -7.330  0.4727E-04  0.1752E+02  0.8006E-04
     -7.227  0.3489E-04  0.8122E+00  0.4349E-04
     -7.125  0.4658E-04  0.7946E-01  0.1390E-04
     -7.023  0.6951E-04  0.5963E-01  0.2052E-04
     -6.921  0.2858E-04  0.1156E-01  0.1252E-04
     -6.818  0.0000E+00  0.0000E+00  0.0000E+00
     -6.716  0.3948E-04  0.2994E-02  0.6302E-05
     -6.614  0.0000E+00  0.0000E+00  0.0000E+00
     -6.512  0.0000E+00  0.0000E+00  0.0000E+00
     -6.409  0.0000E+00  0.0000E+00  0.0000E+00
     -6.307  0.0000E+00  0.0000E+00  0.0000E+00
     -6.205  0.0000E+00  0.0000E+00  0.0000E+00
     -6.103  0.0000E+00  0.0000E+00  0.0000E+00
     -6.000  0.0000E+00  0.0000E+00  0.0000E+00
     -5.898  0.0000E+00  0.0000E+00  0.0000E+00
     -5.796  0.0000E+00  0.0000E+00  0.0000E+00
     -5.694  0.0000E+00  0.0000E+00  0.0000E+00
     -5.592  0.0000E+00  0.0000E+00  0.0000E+00
     -5.489  0.0000E+00  0.0000E+00  0.0000E+00
     -5.387  0.0000E+00  0.0000E+00  0.0000E+00
     -5.285  0.0000E+00  0.0000E+00  0.0000E+00
     -5.183  0.0000E+00  0.0000E+00  0.0000E+00
     -5.080  0.0000E+00  0.0000E+00  0.0000E+00
     -4.978  0.0000E+00  0.0000E+00  0.0000E+00
     -4.876  0.0000E+00  0.0000E+00  0.0000E+00
     -4.774  0.0000E+00  0.0000E+00  0.0000E+00
     -4.671  0.0000E+00  0.0000E+00  0.0000E+00
     -4.569  0.0000E+00  0.0000E+00  0.0000E+00
     -4.467  0.0000E+00  0.0000E+00  0.0000E+00
     -4.365  0.0000E+00  0.0000E+00  0.0000E+00
     -4.263  0.0000E+00  0.0000E+00  0.0000E+00
     -4.160  0.0000E+00  0.0000E+00  0.0000E+00
     -4.058  0.0000E+00  0.0000E+00  0.0000E+00
     -3.956  0.0000E+00  0.0000E+00  0.0000E+00
     -3.854  0.0000E+00  0.0000E+00  0.0000E+00
     -3.751  0.0000E+00  0.0000E+00  0.0000E+00
     -3.649  0.8824E-04  0.1186E-01  0.9015E-03
     -3.547  0.2059E-10  0.3136E-02  0.7836E-03
     -3.445  0.1282E-09  0.2899E-02  0.1814E-03
     -3.342  0.1077E-04  0.1309E-01  0.8718E-03
     -3.240  0.4685E-03  0.1400E-01  0.1995E-02
     -3.138  0.1063E-03  0.5022E-02  0.4602E-03
     -3.036  0.1022E-10  0.1097E-02  0.1702E-03
     -2.934  0.2214E-04  0.1409E-01  0.9391E-03
     -2.831  0.1337E-02  0.1803E-01  0.2009E-02
     -2.729  0.1466E-02  0.2506E-01  0.1920E-02
     -2.627  0.1456E-03  0.2014E-01  0.1646E-02
     -2.525  0.3796E-02  0.2062E-01  0.4367E-02
     -2.422  0.8994E-02  0.6026E-01  0.3848E-02
     -2.320  0.4930E-02  0.6565E-02  0.4490E-02
     -2.218  0.2136E-01  0.2509E-01  0.2854E-02
     -2.116  0.1450E-02  0.3129E-01  0.4367E-02
     -2.013  0.1679E-02  0.1057E+00  0.1037E-01
     -1.911  0.5733E-02  0.1058E+00  0.8347E-02
     -1.809  0.3351E-02  0.5610E-01  0.8115E-02
     -1.707  0.3082E-02  0.7045E-01  0.1261E-01
     -1.604  0.3402E-02  0.4807E-01  0.1307E-01
     -1.502  0.7057E-02  0.9594E-01  0.1729E-01
     -1.400  0.3238E-02  0.7698E-01  0.1810E-01
     -1.298  0.2277E-02  0.6960E-01  0.1155E-01
     -1.196  0.1904E-02  0.4862E-01  0.9235E-02
     -1.093  0.8921E-03  0.3796E-01  0.4844E-02
     -0.991  0.9232E-03  0.1660E-01  0.5084E-02
     -0.889  0.6288E-03  0.1326E-01  0.2887E-02
     -0.787  0.4078E-03  0.6559E-02  0.1653E-02
     -0.684  0.1754E-03  0.3496E-02  0.1741E-02
     -0.582  0.4714E-04  0.1388E-02  0.8968E-03
     -0.480  0.6045E-05  0.8081E-03  0.5370E-03
     -0.378  0.3895E-04  0.1042E-02  0.4239E-03
     -0.275  0.1087E-04  0.1112E-02  0.7705E-03
     -0.173  0.4922E-12  0.1353E-03  0.3104E-03
     -0.071  0.1037E-04  0.8000E-03  0.3873E-03
      0.031  0.9966E-12  0.3343E-03  0.2121E-03
      0.133  0.0000E+00  0.0000E+00  0.0000E+00
      0.236  0.4653E-17  0.2576E-09  0.9329E-09
      0.338  0.1286E-11  0.7117E-04  0.2577E-03
      0.440  0.0000E+00  0.0000E+00  0.0000E+00
      0.542  0.0000E+00  0.0000E+00  0.0000E+00
      0.645  0.0000E+00  0.0000E+00  0.0000E+00
      0.747  0.0000E+00  0.0000E+00  0.0000E+00
      0.849  0.0000E+00  0.0000E+00  0.0000E+00
      0.951  0.0000E+00  0.0000E+00  0.0000E+00
      1.054  0.0000E+00  0.0000E+00  0.0000E+00
      1.156  0.0000E+00  0.0000E+00  0.0000E+00
      1.258  0.0000E+00  0.0000E+00  0.0000E+00
      1.360  0.0000E+00  0.0000E+00  0.0000E+00
      1.462  0.0000E+00  0.0000E+00  0.0000E+00
      1.565  0.0000E+00  0.0000E+00  0.0000E+00
      1.667  0.0000E+00  0.0000E+00  0.0000E+00
      1.769  0.0000E+00  0.0000E+00  0.0000E+00
      1.871  0.0000E+00  0.0000E+00  0.0000E+00
      1.974  0.0000E+00  0.0000E+00  0.0000E+00
      2.076  0.0000E+00  0.0000E+00  0.0000E+00
      2.178  0.0000E+00  0.0000E+00  0.0000E+00
      2.280  0.0000E+00  0.0000E+00  0.0000E+00
      2.383  0.0000E+00  0.0000E+00  0.0000E+00
      2.485  0.3153E-21  0.2849E-15  0.1502E-12
      2.587  0.1636E-04  0.1006E-03  0.1620E-02
      2.689  0.3212E-04  0.8827E-03  0.3087E-02
      2.792  0.1229E-03  0.1786E-02  0.2511E-02
      2.894  0.1816E-03  0.1430E-02  0.1886E-02
      2.996  0.2424E-03  0.2280E-02  0.3523E-02
      3.098  0.7925E-03  0.2337E-02  0.1246E-02
      3.200  0.1052E-02  0.3148E-02  0.2180E-02
      3.303  0.3039E-03  0.3824E-04  0.3446E-03
      3.405  0.1179E-02  0.1405E-02  0.9506E-03
      3.507  0.5941E-03  0.1411E-02  0.2680E-02
      3.609  0.2571E-18  0.7493E-16  0.1857E-15
      3.712  0.2734E-05  0.7939E-03  0.2160E-02
      3.814  0.6103E-11  0.1709E-03  0.1124E-03
      3.916  0.1290E-05  0.2505E-04  0.8256E-04
      4.018  0.1916E-05  0.1018E-02  0.5288E-02
      4.121  0.1240E-03  0.1246E-02  0.6200E-02
      4.223  0.1161E-02  0.1788E-02  0.5228E-02
      4.325  0.1481E-02  0.5722E-02  0.1284E-01
      4.427  0.1033E-02  0.2877E-02  0.7600E-02
      4.529  0.2358E-02  0.4416E-02  0.6996E-02
      4.632  0.3126E-02  0.4207E-02  0.7125E-02
      4.734  0.5281E-02  0.4820E-02  0.1124E-01
      4.836  0.1034E-01  0.1739E-02  0.9121E-02
      4.938  0.1638E-08  0.6706E-10  0.1166E-08
      5.041  0.9734E-03  0.1933E-03  0.1002E-02
      5.143  0.0000E+00  0.0000E+00  0.0000E+00
      5.245  0.1200E-09  0.3946E-08  0.3367E-09
      5.347  0.1538E-01  0.2953E-02  0.1208E-01
      5.450  0.2282E-01  0.4741E-03  0.8600E-02
      5.552  0.3072E-02  0.5002E-02  0.1315E-01
      5.654  0.3980E-03  0.6599E-03  0.7007E-02
      5.756  0.6770E-02  0.1912E-02  0.5581E-01
      5.858  0.1437E-01  0.5651E-03  0.1176E-01
      5.961  0.4217E-01  0.8681E-02  0.1541E+00
      6.063  0.4178E-01  0.1515E-01  0.1498E+00
      6.165  0.5993E-01  0.1107E-01  0.4412E+00
      6.267  0.1236E-01  0.1331E-01  0.3183E+00
      6.370  0.1849E-01  0.8267E-02  0.3738E+00
      6.472  0.1218E-01  0.2191E-01  0.4604E+00
      6.574  0.1138E-01  0.2009E-01  0.3262E+00
      6.676  0.5254E-03  0.5154E-02  0.5603E-01
      6.779  0.0000E+00  0.0000E+00  0.0000E+00
      6.881  0.0000E+00  0.0000E+00  0.0000E+00
      6.983  0.0000E+00  0.0000E+00  0.0000E+00
      7.085  0.0000E+00  0.0000E+00  0.0000E+00
      7.188  0.0000E+00  0.0000E+00  0.0000E+00
      7.290  0.0000E+00  0.0000E+00  0.0000E+00
      7.392  0.0000E+00  0.0000E+00  0.0000E+00
      7.494  0.0000E+00  0.0000E+00  0.0000E+00
      7.596  0.0000E+00  0.0000E+00  0.0000E+00
      7.699  0.0000E+00  0.0000E+00  0.0000E+00
      7.801  0.0000E+00  0.0000E+00  0.0000E+00
      7.903  0.0000E+00  0.0000E+00  0.0000E+00
      8.005  0.0000E+00  0.0000E+00  0.0000E+00
      8.00537500    -22.66437574  301      0.36349544      1.00000000
    -22.664  0.0000E+00  0.0000E+00  0.0000E+00
    -22.562  0.0000E+00  0.0000E+00  0.0000E+00
    -22.460  0.0000E+00  0.0000E+00  0.0000E+00
    -22.358  0.0000E+00  0.0000E+00  0.0000E+00
    -22.255  0.0000E+00  0.0000E+00  0.0000E+00
    -22.153  0.0000E+00  0.0000E+00  0.0000E+00
    -22.051  0.0000E+00  0.0000E+00  0.0000E+00
    -21.949  0.0000E+00  0.0000E+00  0.0000E+00
    -21.847  0.0000E+00  0.0000E+00  0.0000E+00
    -21.744  0.0000E+00  0.0000E+00  0.0000E+00
    -21.642  0.0000E+00  0.0000E+00  0.0000E+00
    -21.540  0.0000E+00  0.0000E+00  0.0000E+00
    -21.438  0.0000E+00  0.0000E+00  0.0000E+00
    -21.335  0.0000E+00  0.0000E+00  0.0000E+00
    -21.233  0.2538E-07  0.2798E-08  0.6317E-10
    -21.131  0.0000E+00  0.0000E+00  0.0000E+00
    -21.029  0.1941E-07  0.2754E-10  0.2721E-11
    -20.926  0.1622E-02  0.2186E-06  0.3262E-07
    -20.824  0.1734E+02  0.6051E-04  0.4882E-06
    -20.722  0.0000E+00  0.0000E+00  0.0000E+00
    -20.620  0.0000E+00  0.0000E+00  0.0000E+00
    -20.517  0.0000E+00  0.0000E+00  0.0000E+00
    -20.415  0.0000E+00  0.0000E+00  0.0000E+00
    -20.313  0.0000E+00  0.0000E+00  0.0000E+00
    -20.211  0.0000E+00  0.0000E+00  0.0000E+00
    -20.109  0.0000E+00  0.0000E+00  0.0000E+00
    -20.006  0.0000E+00  0.0000E+00  0.0000E+00
    -19.904  0.0000E+00  0.0000E+00  0.0000E+00
    -19.802  0.0000E+00  0.0000E+00  0.0000E+00
    -19.700  0.0000E+00  0.0000E+00  0.0000E+00
    -19.597  0.0000E+00  0.0000E+00  0.0000E+00
    -19.495  0.0000E+00  0.0000E+00  0.0000E+00
    -19.393  0.0000E+00  0.0000E+00  0.0000E+00
    -19.291  0.0000E+00  0.0000E+00  0.0000E+00
    -19.188  0.0000E+00  0.0000E+00  0.0000E+00
    -19.086  0.0000E+00  0.0000E+00  0.0000E+00
    -18.984  0.0000E+00  0.0000E+00  0.0000E+00
    -18.882  0.0000E+00  0.0000E+00  0.0000E+00
    -18.780  0.0000E+00  0.0000E+00  0.0000E+00
    -18.677  0.0000E+00  0.0000E+00  0.0000E+00
    -18.575  0.0000E+00  0.0000E+00  0.0000E+00
    -18.473  0.0000E+00  0.0000E+00  0.0000E+00
    -18.371  0.0000E+00  0.0000E+00  0.0000E+00
    -18.268  0.0000E+00  0.0000E+00  0.0000E+00
    -18.166  0.0000E+00  0.0000E+00  0.0000E+00
    -18.064  0.0000E+00  0.0000E+00  0.0000E+00
    -17.962  0.0000E+00  0.0000E+00  0.0000E+00
    -17.859  0.0000E+00  0.0000E+00  0.0000E+00
    -17.757  0.0000E+00  0.0000E+00  0.0000E+00
    -17.655  0.0000E+00  0.0000E+00  0.0000E+00
    -17.553  0.0000E+00  0.0000E+00  0.0000E+00
    -17.451  0.0000E+00  0.0000E+00  0.0000E+00
    -17.348  0.0000E+00  0.0000E+00  0.0000E+00
    -17.246  0.0000E+00  0.0000E+00  0.0000E+00
    -17.144  0.0000E+00  0.0000E+00  0.0000E+00
    -17.042  0.0000E+00  0.0000E+00  0.0000E+00
    -16.939  0.0000E+00  0.0000E+00  0.0000E+00
    -16.837  0.7602E-06  0.1628E-06  0.2170E-07
    -16.735  0.8674E-04  0.5529E-04  0.9962E-05
    -16.633  0.3123E-04  0.1466E-04  0.1695E-05
    -16.530  0.3830E-04  0.3368E-04  0.6841E-05
    -16.428  0.1346E-04  0.3145E-04  0.5328E-05
    -16.326  0.5693E-04  0.3039E-04  0.3399E-05
    -16.224  0.0000E+00  0.0000E+00  0.0000E+00
    -16.121  0.0000E+00  0.0000E+00  0.0000E+00
    -16.019  0.0000E+00  0.0000E+00  0.0000E+00
    -15.917  0.0000E+00  0.0000E+00  0.0000E+00
    -15.815  0.0000E+00  0.0000E+00  0.0000E+00
    -15.713  0.0000E+00  0.0000E+00  0.0000E+00
    -15.610  0.0000E+00  0.0000E+00  0.0000E+00
    -15.508  0.0000E+00  0.0000E+00  0.0000E+00
    -15.406  0.0000E+00  0.0000E+00  0.0000E+00
    -15.304  0.0000E+00  0.0000E+00  0.0000E+00
    -15.201  0.0000E+00  0.0000E+00  0.0000E+00
    -15.099  0.0000E+00  0.0000E+00  0.0000E+00
    -14.997  0.0000E+00  0.0000E+00  0.0000E+00
    -14.895  0.0000E+00  0.0000E+00  0.0000E+00
    -14.792  0.0000E+00  0.0000E+00  0.0000E+00
    -14.690  0.1806E-07  0.4063E-08  0.2407E-10
    -14.588  0.1005E-02  0.4428E-03  0.8234E-05
    -14.486  0.1506E-02  0.1334E-02  0.6989E-04
    -14.384  0.2749E-03  0.2380E-02  0.1551E-03
    -14.281  0.2262E-02  0.2882E-02  0.4764E-04
    -14.179  0.1610E-02  0.5200E-02  0.3346E-03
    -14.077  0.1625E-02  0.5236E-02  0.4615E-03
    -13.975  0.1306E-02  0.2060E-02  0.2756E-03
    -13.872  0.8611E-03  0.3921E-02  0.5346E-03
    -13.770  0.1631E-03  0.2885E-03  0.8418E-04
    -13.668  0.5842E-05  0.3094E-03  0.5289E-04
    -13.566  0.0000E+00  0.0000E+00  0.0000E+00