 vasp.5.4.4.18Apr17-6-g9f103f2a35 (build Jun 22 2020 09:27:21) complex           
 executed on tx2_gcc-7.3_libsci-1 date 2021.10.12  05:52:04
 running on   64 total cores
 distrk:  each k-point on   64 cores,    1 groups
 distr:  one band on NCORES_PER_BAND=   8 cores,    8 groups


--------------------------------------------------------------------------------------------------------


 INCAR:
 POTCAR:    PAW_PBE Cs_sv 08Apr2002               
 POTCAR:    PAW_PBE Pb_d 06Sep2000                
 POTCAR:    PAW_PBE Br 06Sep2000                  
 POTCAR:    PAW_PBE Cs_sv 08Apr2002               
 POTCAR:    PAW_PBE Cs_sv 08Apr2002               
   SHA256 =  c1463496f0f6037ed62c6012a8013a89ee9ad6ffb38599dcd6c079e7ed31779b Cs
   COPYR  = (c) Copyright 08Apr2002 Georg Kresse                                
   COPYR  = This file is part of the software VASP. Any use, copying, and all ot
   COPYR  = If you do not have a valid VASP license, you may not use, copy or di
   VRHFIN =Cs: 5s5p6s                                                           
   LEXCH  = PE                                                                  
   EATOM  =   555.6835 eV,   40.8416 Ry                                         
                                                                                
   TITEL  = PAW_PBE Cs_sv 08Apr2002                                             
   LULTRA =        F    use ultrasoft PP ?                                      
   IUNSCR =        1    unscreen: 0-lin 1-nonlin 2-no                           
   RPACOR =    2.200    partial core radius                                     
   POMASS =  132.900; ZVAL   =    9.000    mass and valenz                      
   RCORE  =    2.500    outmost cutoff radius                                   
   RWIGS  =    2.500; RWIGS  =    1.323    wigner-seitz radius (au A)           
   ENMAX  =  220.318; ENMIN  =  165.238 eV                                      
   RCLOC  =    2.207    cutoff for local pot                                    
   LCOR   =        T    correct aug charges                                     
   LPAW   =        T    paw PP                                                  
   EAUG   =  407.933                                                            
   DEXC   =    0.000                                                            
   RMAX   =    2.554    core radius for proj-oper                               
   RAUG   =    1.300    factor for augmentation sphere                          
   RDEP   =    2.590    radius for radial grids                                 
   RDEPT  =    2.117    core radius for aug-charge                              
                                                                                
   Atomic configuration                                                         
   13 entries                                                                   
     n  l   j            E        occ.                                          
     1  0  0.50    -35790.1377   2.0000                                         
     2  0  0.50     -5613.6201   2.0000                                         
     2  1  1.50     -5035.0101   6.0000                                         
     3  0  0.50     -1167.0767   2.0000                                         
     3  1  1.50      -980.9754   6.0000                                         
     3  2  2.50      -708.0703  10.0000                                         
     4  0  0.50      -220.2386   2.0000                                         
     4  1  1.50      -160.7596   6.0000                                         
     4  2  2.50       -74.2354  10.0000                                         
     5  0  0.50       -26.7287   2.0000                                         
     6  0  0.50        -2.0862   1.0000                                         
     5  1  1.50       -13.5159   6.0000                                         
     5  2  2.50        -0.4136   0.0000                                         
   Description                                                                  
     l       E           TYP  RCUT    TYP  RCUT                                 
     0    -26.7287425     23  1.900                                             
     0     -2.0862306     23  1.900                                             
     1    -13.5158719     23  2.500                                             
     1     -2.7211652     23  2.500                                             
     2     -0.4136171     23  2.500                                             
  local pseudopotential read in
  partial core-charges read in
  partial kinetic energy density read in
  atomic valenz-charges read in
  non local Contribution for L=           0  read in
    real space projection operators read in
  non local Contribution for L=           0  read in
    real space projection operators read in
  non local Contribution for L=           1  read in
    real space projection operators read in
  non local Contribution for L=           1  read in
    real space projection operators read in
  non local Contribution for L=           2  read in
    real space projection operators read in
    PAW grid and wavefunctions read in

   number of l-projection  operators is LMAX  =           5
   number of lm-projection operators is LMMAX =          13

 POTCAR:    PAW_PBE Pb_d 06Sep2000                
   SHA256 =  fb885b08f0fba73a15f6a6b0e39bd200c13ec96ef97cf3ecd8e63bade5137abd Pb
   COPYR  = (c) Copyright 06Sep2000 Georg Kresse                                
   COPYR  = This file is part of the software VASP. Any use, copying, and all ot
   COPYR  = If you do not have a valid VASP license, you may not use, copy or di
   VRHFIN =Pb:                                                                  
   LEXCH  = PE                                                                  
   EATOM  =  1661.6185 eV,  122.1255 Ry                                         
                                                                                
   TITEL  = PAW_PBE Pb_d 06Sep2000                                              
   LULTRA =        F    use ultrasoft PP ?                                      
   IUNSCR =        1    unscreen: 0-lin 1-nonlin 2-no                           
   RPACOR =    2.200    partial core radius                                     
   POMASS =  207.200; ZVAL   =   14.000    mass and valenz                      
   RCORE  =    2.500    outmost cutoff radius                                   
   RWIGS  =    3.260; RWIGS  =    1.725    wigner-seitz radius (au A)           
   ENMAX  =  237.835; ENMIN  =  178.376 eV                                      
   ICORE  =        3    local potential                                         
   LCOR   =        T    correct aug charges                                     
   LPAW   =        T    paw PP                                                  
   EAUG   =  391.914                                                            
   DEXC   =    0.000                                                            
   RMAX   =    2.565    core radius for proj-oper                               
   RAUG   =    1.300    factor for augmentation sphere                          
   RDEP   =    2.643    radius for radial grids                                 
   RDEPT  =    2.092    core radius for aug-charge                              
                                                                                
   Atomic configuration                                                         
   16 entries                                                                   
     n  l   j            E        occ.                                          
     1  0  0.50    -88091.8466   2.0000                                         
     2  0  0.50    -15753.4197   2.0000                                         
     2  1  1.50    -13508.1797   6.0000                                         
     3  0  0.50     -3781.7194   2.0000                                         
     3  1  1.50     -3138.2529   6.0000                                         
     3  2  2.50     -2483.2977  10.0000                                         
     4  0  0.50      -856.2895   2.0000                                         
     4  1  1.50      -645.4942   6.0000                                         
     4  2  2.50      -401.8768  10.0000                                         
     4  3  3.50      -132.9059  14.0000                                         
     5  0  0.50      -144.0950   2.0000                                         
     5  1  1.50       -85.7879   6.0000                                         
     5  2  2.50       -21.1769  10.0000                                         
     6  0  0.50       -12.0372   2.0000                                         
     6  1  1.50        -3.4971   2.0000                                         
     5  3  2.50        -2.7212   0.0000                                         
   Description                                                                  
     l       E           TYP  RCUT    TYP  RCUT                                 
     2    -21.1768523     23  2.500                                             
     2      1.3605826     23  2.500                                             
     0    -12.0371562     23  2.500                                             
     0     13.6058260     23  2.500                                             
     1     -3.4971339     23  2.500                                             
     1     13.6058260     23  2.500                                             
     3     -1.3605826      7  2.500                                             
  local pseudopotential read in
  partial core-charges read in
  partial kinetic energy density read in
  atomic valenz-charges read in
  non local Contribution for L=           2  read in
    real space projection operators read in
  non local Contribution for L=           2  read in
    real space projection operators read in
  non local Contribution for L=           0  read in
    real space projection operators read in
  non local Contribution for L=           0  read in
    real space projection operators read in
  non local Contribution for L=           1  read in
    real space projection operators read in
  non local Contribution for L=           1  read in
    real space projection operators read in
    PAW grid and wavefunctions read in

   number of l-projection  operators is LMAX  =           6
   number of lm-projection operators is LMMAX =          18

 POTCAR:    PAW_PBE Br 06Sep2000                  
   SHA256 =  96a73d2954943bbee26f4990d676cc6c3bf44b8dd2c75cd4b3b825d8403f0103 Br
   COPYR  = (c) Copyright 06Sep2000 Georg Kresse                                
   COPYR  = This file is part of the software VASP. Any use, copying, and all ot
   COPYR  = If you do not have a valid VASP license, you may not use, copy or di
   VRHFIN =Br: s2p5                                                             
   LEXCH  = PE                                                                  
   EATOM  =   368.4488 eV,   27.0802 Ry                                         
                                                                                
   TITEL  = PAW_PBE Br 06Sep2000                                                
   LULTRA =        F    use ultrasoft PP ?                                      
   IUNSCR =        1    unscreen: 0-lin 1-nonlin 2-no                           
   RPACOR =    1.900    partial core radius                                     
   POMASS =   79.904; ZVAL   =    7.000    mass and valenz                      
   RCORE  =    2.100    outmost cutoff radius                                   
   RWIGS  =    2.200; RWIGS  =    1.164    wigner-seitz radius (au A)           
   ENMAX  =  216.285; ENMIN  =  162.214 eV                                      
   ICORE  =        3    local potential                                         
   LCOR   =        T    correct aug charges                                     
   LPAW   =        T    paw PP                                                  
   EAUG   =  503.852                                                            
   DEXC   =    0.000                                                            
   RMAX   =    2.139    core radius for proj-oper                               
   RAUG   =    1.300    factor for augmentation sphere                          
   RDEP   =    2.186    radius for radial grids                                 
   RDEPT  =    1.890    core radius for aug-charge                              
                                                                                
   Atomic configuration                                                         
   10 entries                                                                   
     n  l   j            E        occ.                                          
     1  0  0.50    -13316.2796   2.0000                                         
     2  0  0.50     -1732.8239   2.0000                                         
     2  1  1.50     -1528.2193   6.0000                                         
     3  0  0.50      -238.0460   2.0000                                         
     3  1  1.50      -173.4609   6.0000                                         
     3  2  2.50       -66.7132  10.0000                                         
     4  0  0.50       -20.1334   2.0000                                         
     4  1  0.50        -7.8591   5.0000                                         
     4  2  2.50        -8.1635   0.0000                                         
     4  3  2.50        -8.1635   0.0000                                         
   Description                                                                  
     l       E           TYP  RCUT    TYP  RCUT                                 
     0    -20.1333652     23  2.100                                             
     0    -21.4939478     23  2.100                                             
     1     -7.8591052     23  2.100                                             
     1     -3.1608434     23  2.100                                             
     2     -8.1634956     23  2.100                                             
     3     -1.3605826      7  2.100                                             
  local pseudopotential read in
  partial core-charges read in
  partial kinetic energy density read in
  atomic valenz-charges read in
  non local Contribution for L=           0  read in
    real space projection operators read in
  non local Contribution for L=           0  read in
    real space projection operators read in
  non local Contribution for L=           1  read in
    real space projection operators read in
  non local Contribution for L=           1  read in
    real space projection operators read in
  non local Contribution for L=           2  read in
    real space projection operators read in
    PAW grid and wavefunctions read in

   number of l-projection  operators is LMAX  =           5
   number of lm-projection operators is LMMAX =          13

 POTCAR:    PAW_PBE Cs_sv 08Apr2002               
   SHA256 =  c1463496f0f6037ed62c6012a8013a89ee9ad6ffb38599dcd6c079e7ed31779b Cs
   COPYR  = (c) Copyright 08Apr2002 Georg Kresse                                
   COPYR  = This file is part of the software VASP. Any use, copying, and all ot
   COPYR  = If you do not have a valid VASP license, you may not use, copy or di
   VRHFIN =Cs: 5s5p6s                                                           
   LEXCH  = PE                                                                  
   EATOM  =   555.6835 eV,   40.8416 Ry                                         
                                                                                
   TITEL  = PAW_PBE Cs_sv 08Apr2002                                             
   LULTRA =        F    use ultrasoft PP ?                                      
   IUNSCR =        1    unscreen: 0-lin 1-nonlin 2-no                           
   RPACOR =    2.200    partial core radius                                     
   POMASS =  132.900; ZVAL   =    9.000    mass and valenz                      
   RCORE  =    2.500    outmost cutoff radius                                   
   RWIGS  =    2.500; RWIGS  =    1.323    wigner-seitz radius (au A)           
   ENMAX  =  220.318; ENMIN  =  165.238 eV                                      
   RCLOC  =    2.207    cutoff for local pot                                    
   LCOR   =        T    correct aug charges                                     
   LPAW   =        T    paw PP                                                  
   EAUG   =  407.933                                                            
   DEXC   =    0.000                                                            
   RMAX   =    2.554    core radius for proj-oper                               
   RAUG   =    1.300    factor for augmentation sphere                          
   RDEP   =    2.590    radius for radial grids                                 
   RDEPT  =    2.117    core radius for aug-charge                              
                                                                                
   Atomic configuration                                                         
   13 entries                                                                   
     n  l   j            E        occ.                                          
     1  0  0.50    -35790.1377   2.0000                                         
     2  0  0.50     -5613.6201   2.0000                                         
     2  1  1.50     -5035.0101   6.0000                                         
     3  0  0.50     -1167.0767   2.0000                                         
     3  1  1.50      -980.9754   6.0000                                         
     3  2  2.50      -708.0703  10.0000                                         
     4  0  0.50      -220.2386   2.0000                                         
     4  1  1.50      -160.7596   6.0000                                         
     4  2  2.50       -74.2354  10.0000                                         
     5  0  0.50       -26.7287   2.0000                                         
     6  0  0.50        -2.0862   1.0000                                         
     5  1  1.50       -13.5159   6.0000                                         
     5  2  2.50        -0.4136   0.0000                                         
   Description                                                                  
     l       E           TYP  RCUT    TYP  RCUT                                 
     0    -26.7287425     23  1.900                                             
     0     -2.0862306     23  1.900                                             
     1    -13.5158719     23  2.500                                             
     1     -2.7211652     23  2.500                                             
     2     -0.4136171     23  2.500                                             
  local pseudopotential read in
  partial core-charges read in
  partial kinetic energy density read in
  atomic valenz-charges read in
  non local Contribution for L=           0  read in
    real space projection operators read in
  non local Contribution for L=           0  read in
    real space projection operators read in
  non local Contribution for L=           1  read in
    real space projection operators read in
  non local Contribution for L=           1  read in
    real space projection operators read in
  non local Contribution for L=           2  read in
    real space projection operators read in
    PAW grid and wavefunctions read in

   number of l-projection  operators is LMAX  =           5
   number of lm-projection operators is LMMAX =          13

 Optimization of the real space projectors (new method)

 maximal supplied QI-value         = 15.12
 optimisation between [QCUT,QGAM] = [  8.77, 17.69] = [ 21.53, 87.61] Ry 
 Optimized for a Real-space Cutoff    1.85 Angstroem

   l    n(q)    QCUT    max X(q) W(low)/X(q) W(high)/X(q)  e(spline) 
   0     10     8.768    25.322    0.81E-04    0.51E-04    0.48E-06
   0     10     8.768    99.187    0.78E-04    0.50E-04    0.47E-06
   1      9     8.768    11.761    0.21E-03    0.20E-03    0.37E-06
   1      9     8.768     8.275    0.24E-03    0.22E-03    0.41E-06
   2      9     8.768     3.829    0.23E-04    0.15E-03    0.18E-06
 Optimization of the real space projectors (new method)

 maximal supplied QI-value         = 15.12
 optimisation between [QCUT,QGAM] = [  8.77, 17.69] = [ 21.53, 87.61] Ry 
 Optimized for a Real-space Cutoff    1.59 Angstroem

   l    n(q)    QCUT    max X(q) W(low)/X(q) W(high)/X(q)  e(spline) 
   2      7     8.768     3.846    0.48E-04    0.11E-03    0.11E-06
   2      7     8.768     8.593    0.20E-03    0.22E-04    0.24E-06
   0      8     8.768    20.082    0.68E-04    0.88E-04    0.41E-07
   0      8     8.768     8.597    0.89E-04    0.13E-03    0.59E-07
   1      8     8.768    33.223    0.15E-03    0.53E-04    0.87E-07
   1      8     8.768    15.899    0.14E-03    0.44E-04    0.78E-07
 Optimization of the real space projectors (new method)

 maximal supplied QI-value         = 17.95
 optimisation between [QCUT,QGAM] = [  8.80, 17.59] = [ 21.67, 86.68] Ry 
 Optimized for a Real-space Cutoff    1.59 Angstroem

   l    n(q)    QCUT    max X(q) W(low)/X(q) W(high)/X(q)  e(spline) 
   0      8     8.797   175.082    0.82E-04    0.14E-03    0.89E-07
   0      8     8.797   174.004    0.79E-04    0.14E-03    0.86E-07
   1      8     8.797    54.315    0.16E-03    0.14E-04    0.30E-06
   1      8     8.797    42.441    0.16E-03    0.14E-04    0.30E-06
   2      7     8.797     3.596    0.92E-04    0.15E-03    0.85E-07
 Optimization of the real space projectors (new method)

 maximal supplied QI-value         = 15.12
 optimisation between [QCUT,QGAM] = [  8.77, 17.69] = [ 21.53, 87.61] Ry 
 Optimized for a Real-space Cutoff    1.85 Angstroem

   l    n(q)    QCUT    max X(q) W(low)/X(q) W(high)/X(q)  e(spline) 
   0     10     8.768    25.322    0.81E-04    0.51E-04    0.48E-06
   0     10     8.768    99.187    0.78E-04    0.50E-04    0.47E-06
   1      9     8.768    11.761    0.21E-03    0.20E-03    0.37E-06
   1      9     8.768     8.275    0.24E-03    0.22E-03    0.41E-06
   2      9     8.768     3.829    0.23E-04    0.15E-03    0.18E-06
  PAW_PBE Cs_sv 08Apr2002               :
 energy of atom  1       EATOM= -555.6835
 kinetic energy error for atom=    0.0069 (will be added to EATOM!!)
  PAW_PBE Pb_d 06Sep2000                :
 energy of atom  2       EATOM=-1661.6185
 kinetic energy error for atom=    0.0498 (will be added to EATOM!!)
  PAW_PBE Br 06Sep2000                  :
 energy of atom  3       EATOM= -368.4488
 kinetic energy error for atom=    0.0072 (will be added to EATOM!!)
  PAW_PBE Cs_sv 08Apr2002               :
 energy of atom  4       EATOM= -555.6835
 kinetic energy error for atom=    0.0069 (will be added to EATOM!!)


 POSCAR: Cs7 Pb8 Br24                            
  positions in direct lattice
  No initial velocities read in

 METAGGA = SCAN     LMAXTAU =  6    LMIXTAU =  F

 exchange correlation table for  LEXCH =        8
   RHO(1)=    0.500       N(1)  =     2000
   RHO(2)=  100.500       N(2)  =     4000

 VTST: version 3.2, (02/03/18)

 CHAIN: initializing optimizer
 
 OPT: Using VASP Conjugate-Gradient optimizer
 CHAIN: Read ICHAIN            0

 POSCAR: Cs7 Pb8 Br24                            
  positions in direct lattice
  No initial velocities read in



--------------------------------------------------------------------------------------------------------


 ion  position               nearest neighbor table
   1  0.261  0.250  0.206-
   2  0.774  0.250  0.716-
   3  0.198  0.750  0.760-
   4  0.285  0.250  0.736-
   5  0.770  0.250  0.226-
   6  0.738  0.750  0.786-
   7  0.996  0.997  0.005-  19 2.97  28 2.98  29 2.99  34 2.99  17 3.03  31 3.05
   8  0.502  0.002  0.500-  27 2.95  18 2.97  32 2.98  20 3.01  33 3.02  30 3.02
   9  0.501  0.001  0.992-  21 2.96  27 2.98  33 2.98  29 2.98  31 3.01  15 3.04
  10  0.001  1.000  0.499-  16 2.96  28 2.97  32 3.01  30 3.02  22 3.02  34 3.05
  11  0.501  0.499  0.992-  21 2.96  37 2.98  25 2.98  35 2.98  23 3.01  15 3.04
  12  0.001  0.500  0.499-  16 2.96  38 2.97  24 3.01  36 3.02  22 3.02  26 3.05
  13  0.996  0.503  0.005-  19 2.97  38 2.98  35 2.99  26 2.99  17 3.03  23 3.05
  14  0.502  0.498  0.500-  37 2.95  18 2.97  24 2.98  20 3.01  25 3.02  36 3.02
  15  0.464  0.750  0.940-  11 3.04   9 3.04
  16  0.968  0.750  0.492-  10 2.96  12 2.96
  17  0.959  0.250  0.975-  13 3.03   7 3.03
  18  0.460  0.250  0.488-  14 2.97   8 2.97
  19  0.046  0.750  0.027-   7 2.97  13 2.97
  20  0.539  0.750  0.533-   8 3.01  14 3.01
  21  0.540  0.250  0.998-   9 2.96  11 2.96
  22  0.032  0.250  0.546-  12 3.02  10 3.02
  23  0.247  0.464  0.955-  11 3.01  13 3.05
  24  0.749  0.451  0.463-  14 2.98  12 3.01
  25  0.464  0.485  0.242-  11 2.98  14 3.02
  26  0.951  0.527  0.752-  13 2.99  12 3.05
  27  0.560  0.027  0.747-   8 2.95   9 2.98
  28  0.035  0.050  0.253-  10 2.97   7 2.98
  29  0.748  0.956  0.049-   9 2.98   7 2.99
  30  0.254  0.977  0.559-  10 3.02   8 3.02
  31  0.247  0.036  0.955-   9 3.01   7 3.05
  32  0.749  0.049  0.463-   8 2.98  10 3.01
  33  0.464  0.015  0.242-   9 2.98   8 3.02
  34  0.951  0.973  0.752-   7 2.99  10 3.05
  35  0.748  0.544  0.049-  11 2.98  13 2.99
  36  0.254  0.523  0.559-  12 3.02  14 3.02
  37  0.560  0.473  0.747-  14 2.95  11 2.98
  38  0.035  0.450  0.253-  12 2.97  13 2.98
  39  0.471  0.750  0.256-


IMPORTANT INFORMATION: All symmetrisations will be switched off!
NOSYMM: (Re-)initialisation of all symmetry stuff for point group C_1.



 KPOINTS: 1x1x1                                   

Automatic generation of k-mesh.
Space group operators:
 irot       det(A)        alpha          n_x          n_y          n_z        tau_x        tau_y        tau_z
    1     1.000000     0.000000     1.000000     0.000000     0.000000     0.000000     0.000000     0.000000
 
 Subroutine IBZKPT returns following result:
 ===========================================
 
 Found      8 irreducible k-points:
 
 Following reciprocal coordinates:
            Coordinates               Weight
  0.000000  0.000000  0.000000      1.000000
  0.500000  0.000000  0.000000      1.000000
  0.000000  0.500000  0.000000      1.000000
  0.500000  0.500000  0.000000      1.000000
  0.000000  0.000000  0.500000      1.000000
  0.500000  0.000000  0.500000      1.000000
  0.000000  0.500000  0.500000      1.000000
  0.500000  0.500000  0.500000      1.000000
 
 Following cartesian coordinates:
            Coordinates               Weight
  0.000000  0.000000  0.000000      1.000000
  0.029691  0.000000  0.030948      1.000000
  0.000000  0.042503  0.000000      1.000000
  0.029691  0.042503  0.030948      1.000000
 -0.029691  0.000000  0.030948      1.000000
  0.000000  0.000000  0.061897      1.000000
 -0.029691  0.042503  0.030948      1.000000
  0.000000  0.042503  0.061897      1.000000
 


--------------------------------------------------------------------------------------------------------




 Dimension of arrays:
   k-points           NKPTS =      8   k-points in BZ     NKDIM =      8   number of bands    NBANDS=    208
   number of dos      NEDOS =    301   number of ions     NIONS =     39
   non local maximal  LDIM  =      6   non local SUM 2l+1 LMDIM =     18
   total plane-waves  NPLWV = 343000
   max r-space proj   IRMAX =   5716   max aug-charges    IRDMAX=  91227
   dimension x,y,z NGX =    70 NGY =   70 NGZ =   70
   dimension x,y,z NGXF=   140 NGYF=  140 NGZF=  140
   support grid    NGXF=   280 NGYF=  280 NGZF=  280
   ions per type =               6   8  24   1
   NGX,Y,Z   is equivalent  to a cutoff of   9.97,  9.89,  9.97 a.u.
   NGXF,Y,Z  is equivalent  to a cutoff of  19.95, 19.78, 19.95 a.u.

 SYSTEM =  CsPbBr3 cubic bulk                      
 POSCAR =  Cs7 Pb8 Br24                            

 Startparameter for this run:
   NWRITE =      2    write-flag & timer
   PREC   = accura    normal or accurate (medium, high low for compatibility)
   ISTART =      0    job   : 0-new  1-cont  2-samecut
   ICHARG =      2    charge: 1-file 2-atom 10-const
   ISPIN  =      1    spin polarized calculation?
   LNONCOLLINEAR =      F non collinear calculations
   LSORBIT =      F    spin-orbit coupling
   INIWAV =      1    electr: 0-lowe 1-rand  2-diag
   LASPH  =      T    aspherical Exc in radial PAW
   METAGGA=      F    non-selfconsistent MetaGGA calc.

 Electronic Relaxation 1
   ENCUT  =  300.0 eV  22.05 Ry    4.70 a.u.  16.48 16.61 16.48*2*pi/ulx,y,z
   ENINI  =  300.0     initial cutoff
   ENAUG  =  503.9 eV  augmentation charge cutoff
   NELM   =    200;   NELMIN=  2; NELMDL= -5     # of ELM steps 
   EDIFF  = 0.1E-05   stopping-criterion for ELM
   LREAL  =      T    real-space projection
   NLSPLINE    = F    spline interpolate recip. space projectors
   LCOMPAT=      F    compatible to vasp.4.4
   GGA_COMPAT  = T    GGA compatible to vasp.4.4-vasp.4.6
   LMAXPAW     = -100 max onsite density
   LMAXMIX     =    2 max onsite mixed and CHGCAR
   VOSKOWN=      0    Vosko Wilk Nusair interpolation
   ROPT   =   -0.00025  -0.00025  -0.00025  -0.00025
 Ionic relaxation
   EDIFFG = -.1E-01   stopping-criterion for IOM
   NSW    =      0    number of steps for IOM
   NBLOCK =      1;   KBLOCK =      1    inner block; outer block 
   IBRION =     -1    ionic relax: 0-MD 1-quasi-New 2-CG
   NFREE  =      1    steps in history (QN), initial steepest desc. (CG)
   ISIF   =      2    stress and relaxation
   IWAVPR =     10    prediction:  0-non 1-charg 2-wave 3-comb
   ISYM   =      0    0-nonsym 1-usesym 2-fastsym
   LCORR  =      T    Harris-Foulkes like correction to forces

   POTIM  = 0.5000    time-step for ionic-motion
   TEIN   =    0.0    initial temperature
   TEBEG  =    0.0;   TEEND  =   0.0 temperature during run
   SMASS  =  -3.00    Nose mass-parameter (am)
   estimated Nose-frequenzy (Omega)   =  0.10E-29 period in steps =****** mass=  -0.311E-26a.u.
   SCALEE = 1.0000    scale energy and forces
   NPACO  =    256;   APACO  = 16.0  distance and # of slots for P.C.
   PSTRESS=    0.0 pullay stress

  Mass of Ions in am
   POMASS = 132.90207.20 79.90132.90
  Ionic Valenz
   ZVAL   =   9.00 14.00  7.00  9.00
  Atomic Wigner-Seitz radii
   RWIGS  =  -1.00 -1.00 -1.00 -1.00
  virtual crystal weights 
   VCA    =   1.00  1.00  1.00  1.00
   NELECT =     344.0000    total number of electrons
   NUPDOWN=       0.0000    fix difference up-down

 DOS related values:
   EMIN   =  10.00;   EMAX   =-10.00  energy-range for DOS
   EFERMI =   0.00
   ISMEAR =     0;   SIGMA  =   0.01  broadening in eV -4-tet -1-fermi 0-gaus

 Electronic relaxation 2 (details)
   IALGO  =     38    algorithm
   LDIAG  =      T    sub-space diagonalisation (order eigenvalues)
   LSUBROT=      F    optimize rotation matrix (better conditioning)
   TURBO    =      0    0=normal 1=particle mesh
   IRESTART =      0    0=no restart 2=restart with 2 vectors
   NREBOOT  =      0    no. of reboots
   NMIN     =      0    reboot dimension
   EREF     =   0.00    reference energy to select bands
   IMIX   =      4    mixing-type and parameters
     AMIX     =   0.40;   BMIX     =  1.00
     AMIX_MAG =   1.60;   BMIX_MAG =  1.00
     AMIN     =   0.10
     WC   =   100.;   INIMIX=   1;  MIXPRE=   1;  MAXMIX= -45

 Intra band minimization:
   WEIMIN = 0.0000     energy-eigenvalue tresh-hold
   EBREAK =  0.12E-08  absolut break condition
   DEPER  =   0.30     relativ break condition  

   TIME   =   0.40     timestep for ELM

  volume/ion in A,a.u.               =      41.03       276.90
  Fermi-wavevector in a.u.,A,eV,Ry     =   0.980685  1.853227 13.085320  0.961744
  Thomas-Fermi vector in A             =   2.111635

 Write flags
   LWAVE        =      F    write WAVECAR
   LDOWNSAMPLE  =      F    k-point downsampling of WAVECAR
   LCHARG       =      F    write CHGCAR
   LVTOT        =      F    write LOCPOT, total local potential
   LVHAR        =      T    write LOCPOT, Hartree potential only
   LELF         =      F    write electronic localiz. function (ELF)
   LORBIT       =     10    0 simple, 1 ext, 2 COOP (PROOUT), +10 PAW based schemes


 Dipole corrections
   LMONO  =      F    monopole corrections only (constant potential shift)
   LDIPOL =      F    correct potential (dipole corrections)
   IDIPOL =      0    1-x, 2-y, 3-z, 4-all directions 
   EPSILON=  1.0000000 bulk dielectric constant

 Exchange correlation treatment:
   GGA     =    --    GGA type
   LEXCH   =     8    internal setting for exchange type
   VOSKOWN=      0    Vosko Wilk Nusair interpolation
   LHFCALC =     F    Hartree Fock is set to
   LHFONE  =     F    Hartree Fock one center treatment
   AEXX    =    0.0000 exact exchange contribution

 Linear response parameters
   LEPSILON=     F    determine dielectric tensor
   LRPA    =     F    only Hartree local field effects (RPA)
   LNABLA  =     F    use nabla operator in PAW spheres
   LVEL    =     F    velocity operator in full k-point grid
   LINTERFAST=   F  fast interpolation
   KINTER  =     0    interpolate to denser k-point grid
   CSHIFT  =0.1000    complex shift for real part using Kramers Kronig
   OMEGAMAX=  -1.0    maximum frequency
   DEG_THRESHOLD= 0.2000000E-02 threshold for treating states as degnerate
   RTIME   =   -0.100 relaxation time in fs
  (WPLASMAI=    0.000 imaginary part of plasma frequency in eV, 0.658/RTIME)
   DFIELD  = 0.0000000 0.0000000 0.0000000 field for delta impulse in time

 Orbital magnetization related:
   ORBITALMAG=     F  switch on orbital magnetization
   LCHIMAG   =     F  perturbation theory with respect to B field
   DQ        =  0.001000  dq finite difference perturbation B field
   LLRAUG    =     F  two centre corrections for induced B field



--------------------------------------------------------------------------------------------------------


 Static calculation
 charge density and potential will be updated during run
 non-spin polarized calculation
 Variant of blocked Davidson
 Davidson routine will perform the subspace rotation
 perform sub-space diagonalisation
    after iterative eigenvector-optimisation
 modified Broyden-mixing scheme, WC =      100.0
 initial mixing is a Kerker type mixing with AMIX =  0.4000 and BMIX =      1.0000
 Hartree-type preconditioning will be used
 using additional bands           36
 real space projection scheme for non local part
 use partial core corrections
 calculate Harris-corrections to forces   (improved forces if not selfconsistent)
 use gradient corrections 
 use of overlap-Matrix (Vanderbilt PP)
 Gauss-broadening in eV      SIGMA  =   0.01


--------------------------------------------------------------------------------------------------------


  energy-cutoff  :      300.00
  volume of cell :     1600.27
      direct lattice vectors                 reciprocal lattice vectors
     8.420018000  0.000000000  8.077981000     0.059382296 -0.000000000  0.061896655
     0.000000000 11.763808000  0.000000000     0.000000000  0.085006488 -0.000000000
    -8.420018000  0.000000000  8.077981000    -0.059382296  0.000000000  0.061896655

  length of vectors
    11.668353789 11.763808000 11.668353789     0.085775596  0.085006488  0.085775596



 k-points in units of 2pi/SCALE and weight: 1x1x1                                   
   0.00000000  0.00000000  0.00000000       0.125
   0.02969115  0.00000000  0.03094833       0.125
   0.00000000  0.04250324  0.00000000       0.125
   0.02969115  0.04250324  0.03094833       0.125
  -0.02969115  0.00000000  0.03094833       0.125
   0.00000000  0.00000000  0.06189665       0.125
  -0.02969115  0.04250324  0.03094833       0.125
   0.00000000  0.04250324  0.06189665       0.125

 k-points in reciprocal lattice and weights: 1x1x1                                   
   0.00000000  0.00000000  0.00000000       0.125
   0.50000000  0.00000000  0.00000000       0.125
   0.00000000  0.50000000  0.00000000       0.125
   0.50000000  0.50000000  0.00000000       0.125
   0.00000000  0.00000000  0.50000000       0.125
   0.50000000  0.00000000  0.50000000       0.125
   0.00000000  0.50000000  0.50000000       0.125
   0.50000000  0.50000000  0.50000000       0.125

 position of ions in fractional coordinates (direct lattice) 
   0.26095400  0.24999400  0.20611500
   0.77365800  0.25000200  0.71575600
   0.19767100  0.75000200  0.76039700
   0.28492300  0.25000400  0.73605200
   0.76953300  0.25000400  0.22631200
   0.73751800  0.75000200  0.78595900
   0.99553000  0.99658200  0.00482300
   0.50217000  0.00158500  0.49952300
   0.50117400  0.00099200  0.99181700
   0.00103100  0.99953600  0.49892200
   0.50116500  0.49898900  0.99182300
   0.00103400  0.50045900  0.49892500
   0.99552000  0.50339200  0.00482900
   0.50218300  0.49842600  0.49952200
   0.46394300  0.74998800  0.94047900
   0.96829000  0.75000400  0.49167400
   0.95885400  0.25000600  0.97548100
   0.46017600  0.25001100  0.48833400
   0.04627900  0.74999600  0.02658700
   0.53946300  0.75001900  0.53266700
   0.53991800  0.24999100  0.99826200
   0.03224000  0.25000200  0.54618700
   0.24690900  0.46369000  0.95518200
   0.74903700  0.45059200  0.46300200
   0.46446700  0.48507300  0.24242900
   0.95110000  0.52738300  0.75165900
   0.55958100  0.02662000  0.74723900
   0.03462800  0.04991300  0.25341500
   0.74818900  0.95579200  0.04882300
   0.25391900  0.97731200  0.55923800
   0.24690900  0.03630700  0.95517900
   0.74904200  0.04941600  0.46301000
   0.46447100  0.01492200  0.24243400
   0.95110200  0.97262500  0.75166500
   0.74819100  0.54420100  0.04881600
   0.25392000  0.52270100  0.55923700
   0.55958400  0.47338400  0.74723800
   0.03463200  0.45008300  0.25341700
   0.47071000  0.74999900  0.25613300

 position of ions in cartesian coordinates  (Angst):
   0.46174537  2.94088142  3.77297451
   0.48753588  2.94097553 12.03145799
  -4.73816305  8.82287953  7.73925510
  -3.79851430  2.94099906  8.24741665
   4.57393060  2.94099906  8.04441699
  -0.40787409  8.82287953 12.30661826
   8.34177077 11.72359930  8.08083253
   0.02228779  0.01864564  8.09165702
  -4.13122289  0.01166970 12.06035293
  -4.19225118 11.75834959  4.03861083
  -4.13134919  5.87001079 12.06032870
  -4.19225118  5.88730359  4.03865930
   8.34163605  5.92180684  8.08080022
   0.02240567  5.86338777  8.09175396
  -4.01244170  8.82271483 11.34489423
   4.01311530  8.82290306 11.79356145
  -0.13999964  2.94102258 15.62552138
  -0.23709087  2.94108140  7.66204576
   0.16580699  8.82280894  0.58861016
   0.05722244  8.82307951  8.66064577
  -3.85926473  2.94084613 12.42538881
  -4.32744299  2.94097553  4.67252232
  -5.96367141  5.45476013  9.71046826
   2.40841985  5.30067777  9.79082801
   1.86956396  5.70630564  5.71029246
   1.67929681  6.20403235 13.75485485
  -1.58008374  0.31315257 10.55646713
  -1.84219048  0.58716695  2.32680588
   5.88867431 11.24375358  6.43824779
  -2.57079148 11.49691072  6.56866680
  -5.96364615  0.42710858  9.71044402
   2.40839459  0.58132034  9.79093303
   1.86955554  0.17553954  5.71036516
   1.67926313 11.44177376 13.75491947
   5.88875009  6.40187608  6.43820740
  -2.57077464  6.14895421  6.56866680
  -1.58005006  5.56879849 10.55648329
  -1.84217364  5.29469000  2.32685435
   1.80674220  8.82284424  5.87142394



--------------------------------------------------------------------------------------------------------


 k-point  1 :   0.0000 0.0000 0.0000  plane waves:   18901
 k-point  2 :   0.5000 0.0000 0.0000  plane waves:   18892
 k-point  3 :   0.0000 0.5000 0.0000  plane waves:   18858
 k-point  4 :   0.5000 0.5000 0.0000  plane waves:   18900
 k-point  5 :   0.0000 0.0000 0.5000  plane waves:   18892
 k-point  6 :   0.5000 0.0000 0.5000  plane waves:   18810
 k-point  7 :   0.0000 0.5000 0.5000  plane waves:   18900
 k-point  8 :   0.5000 0.5000 0.5000  plane waves:   18888

 maximum and minimum number of plane-waves per node :      2391     2328

 maximum number of plane-waves:     18901
 maximum index in each direction: 
   IXMAX=   16   IYMAX=   16   IZMAX=   16
   IXMIN=  -16   IYMIN=  -17   IZMIN=  -16


 real space projection operators:
  total allocation   :      16471.61 KBytes
  max/ min on nodes  :       2162.05       1780.98


 parallel 3D FFT for wavefunctions:
    minimum data exchange during FFTs selected (reduces bandwidth)
 parallel 3D FFT for charge:
    minimum data exchange during FFTs selected (reduces bandwidth)


 total amount of memory used by VASP MPI-rank0    61015. kBytes
=======================================================================

   base      :      30000. kBytes
   nonlr-proj:       6427. kBytes
   fftplans  :       8423. kBytes
   grid      :       7942. kBytes
   one-center:         77. kBytes
   wavefun   :       8146. kBytes

     INWAV:  cpu time    0.0000: real time    0.0000
 Broyden mixing: mesh for mixing (old mesh)
   NGX = 33   NGY = 33   NGZ = 33
  (NGX  =140   NGY  =140   NGZ  =140)
  gives a total of  35937 points

 initial charge density was supplied:
 charge density of overlapping atoms calculated
 number of electron     343.0000000 magnetization 
 keeping initial charge density in first step


--------------------------------------------------------------------------------------------------------


 Maximum index for non-local projection operator          714
 Maximum index for augmentation-charges         3169 (set IRDMAX)


--------------------------------------------------------------------------------------------------------


 First call to EWALD:  gamma=   0.152
 Maximum number of real-space cells 3x 3x 3
 Maximum number of reciprocal cells 3x 3x 3

    FEWALD:  cpu time    0.0036: real time    0.0036


--------------------------------------- Iteration      1(   1)  ---------------------------------------


    POTLOK:  cpu time    0.2643: real time    0.2885
    SETDIJ:  cpu time    1.2030: real time    1.2030
     EDDAV:  cpu time   16.5587: real time   16.5649
       DOS:  cpu time    0.0008: real time    0.0008
    --------------------------------------------
      LOOP:  cpu time   18.0268: real time   18.0572

 eigenvalue-minimisations  :  3496
 total energy-change (2. order) : 0.1360999E+04  (-0.1106232E+05)
 number of electron     343.0000000 magnetization 
 augmentation part      343.0000000 magnetization 

 Free energy of the ion-electron system (eV)
  ---------------------------------------------------
  alpha Z        PSCENC =       835.99855037
  Ewald energy   TEWEN  =    -17348.37583825
  -Hartree energ DENC   =     -7776.75106756
  -exchange      EXHF   =         0.00000000
  -V(xc)+E(xc)   XCENC  =       905.78173818
  PAW double counting   =     21217.07306836   -22257.58625956
  entropy T*S    EENTRO =        -0.00111601
  eigenvalues    EBANDS =      -240.02401635
  atomic energy  EATOM  =     26024.88362379
  Solvation  Ediel_sol  =         0.00000000
  ---------------------------------------------------
  free energy    TOTEN  =      1360.99868296 eV

  energy without entropy =     1360.99979897  energy(sigma->0) =     1360.99924097


--------------------------------------------------------------------------------------------------------




--------------------------------------- Iteration      1(   2)  ---------------------------------------


     EDDAV:  cpu time   18.3378: real time   18.3853
       DOS:  cpu time    0.0004: real time    0.0004
    --------------------------------------------
      LOOP:  cpu time   18.3382: real time   18.3856

 eigenvalue-minimisations  :  4096
 total energy-change (2. order) :-0.2450697E+04  (-0.2368983E+04)
 number of electron     343.0000000 magnetization 
 augmentation part      343.0000000 magnetization 

 Free energy of the ion-electron system (eV)
  ---------------------------------------------------
  alpha Z        PSCENC =       835.99855037
  Ewald energy   TEWEN  =    -17348.37583825
  -Hartree energ DENC   =     -7776.75106756
  -exchange      EXHF   =         0.00000000
  -V(xc)+E(xc)   XCENC  =       905.78173818
  PAW double counting   =     21217.07306836   -22257.58625956
  entropy T*S    EENTRO =        -0.00000000
  eigenvalues    EBANDS =     -2690.72235274
  atomic energy  EATOM  =     26024.88362379
  Solvation  Ediel_sol  =         0.00000000
  ---------------------------------------------------
  free energy    TOTEN  =     -1089.69853741 eV

  energy without entropy =    -1089.69853741  energy(sigma->0) =    -1089.69853741


--------------------------------------------------------------------------------------------------------




--------------------------------------- Iteration      1(   3)  ---------------------------------------


     EDDAV:  cpu time   19.2599: real time   19.2842
       DOS:  cpu time    0.0004: real time    0.0004
    --------------------------------------------
      LOOP:  cpu time   19.2603: real time   19.2846

 eigenvalue-minimisations  :  4416
 total energy-change (2. order) :-0.3625931E+03  (-0.3605857E+03)
 number of electron     343.0000000 magnetization 
 augmentation part      343.0000000 magnetization 

 Free energy of the ion-electron system (eV)
  ---------------------------------------------------
  alpha Z        PSCENC =       835.99855037
  Ewald energy   TEWEN  =    -17348.37583825
  -Hartree energ DENC   =     -7776.75106756
  -exchange      EXHF   =         0.00000000
  -V(xc)+E(xc)   XCENC  =       905.78173818
  PAW double counting   =     21217.07306836   -22257.58625956
  entropy T*S    EENTRO =        -0.00000000
  eigenvalues    EBANDS =     -3053.31543259
  atomic energy  EATOM  =     26024.88362379
  Solvation  Ediel_sol  =         0.00000000
  ---------------------------------------------------
  free energy    TOTEN  =     -1452.29161726 eV

  energy without entropy =    -1452.29161726  energy(sigma->0) =    -1452.29161726


--------------------------------------------------------------------------------------------------------




--------------------------------------- Iteration      1(   4)  ---------------------------------------


     EDDAV:  cpu time   17.7986: real time   17.8062
       DOS:  cpu time    0.0004: real time    0.0004
    --------------------------------------------
      LOOP:  cpu time   17.7990: real time   17.8066

 eigenvalue-minimisations  :  3912
 total energy-change (2. order) :-0.1237428E+02  (-0.1233729E+02)
 number of electron     343.0000000 magnetization 
 augmentation part      343.0000000 magnetization 

 Free energy of the ion-electron system (eV)
  ---------------------------------------------------
  alpha Z        PSCENC =       835.99855037
  Ewald energy   TEWEN  =    -17348.37583825
  -Hartree energ DENC   =     -7776.75106756
  -exchange      EXHF   =         0.00000000
  -V(xc)+E(xc)   XCENC  =       905.78173818
  PAW double counting   =     21217.07306836   -22257.58625956
  entropy T*S    EENTRO =        -0.00000000
  eigenvalues    EBANDS =     -3065.68971142
  atomic energy  EATOM  =     26024.88362379
  Solvation  Ediel_sol  =         0.00000000
  ---------------------------------------------------
  free energy    TOTEN  =     -1464.66589609 eV

  energy without entropy =    -1464.66589609  energy(sigma->0) =    -1464.66589609


--------------------------------------------------------------------------------------------------------




--------------------------------------- Iteration      1(   5)  ---------------------------------------


     EDDAV:  cpu time   19.3234: real time   19.3466
       DOS:  cpu time    0.0004: real time    0.0004
    CHARGE:  cpu time    2.6847: real time    2.6848
    MIXING:  cpu time    0.0018: real time    0.0018
    --------------------------------------------
      LOOP:  cpu time   22.0104: real time   22.0336

 eigenvalue-minimisations  :  4440
 total energy-change (2. order) :-0.5620839E+00  (-0.5618101E+00)
 number of electron     344.0000000 magnetization 
 augmentation part       -4.6150152 magnetization 

 Broyden mixing:
  rms(total) = 0.10423E+01    rms(broyden)= 0.10416E+01
  rms(prec ) = 0.14317E+01
  weight for this iteration     100.00

 Free energy of the ion-electron system (eV)
  ---------------------------------------------------
  alpha Z        PSCENC =       835.99855037
  Ewald energy   TEWEN  =    -17348.37583825
  -Hartree energ DENC   =     -7776.75106756
  -exchange      EXHF   =         0.00000000
  -V(xc)+E(xc)   XCENC  =       905.78173818
  PAW double counting   =     21217.07306836   -22257.58625956
  entropy T*S    EENTRO =        -0.00000000
  eigenvalues    EBANDS =     -3066.25179533
  atomic energy  EATOM  =     26024.88362379
  Solvation  Ediel_sol  =         0.00000000
  ---------------------------------------------------
  free energy    TOTEN  =     -1465.22798000 eV

  energy without entropy =    -1465.22798000  energy(sigma->0) =    -1465.22798000


--------------------------------------------------------------------------------------------------------




--------------------------------------- Iteration      1(   6)  ---------------------------------------


    POTLOK:  cpu time    0.2796: real time    0.3100
    SETDIJ:  cpu time    1.1968: real time    1.1969
     EDDAV:  cpu time   18.9683: real time   18.9690
       DOS:  cpu time    0.0005: real time    0.0005
    CHARGE:  cpu time    2.6812: real time    2.6813
    MIXING:  cpu time    0.0017: real time    0.0017
    --------------------------------------------
      LOOP:  cpu time   23.1282: real time   23.1595

 eigenvalue-minimisations  :  4320
 total energy-change (2. order) : 0.7888701E+02  (-0.2325848E+01)
 number of electron     344.0000000 magnetization 
 augmentation part       -3.1965772 magnetization 

 Broyden mixing:
  rms(total) = 0.72564E+00    rms(broyden)= 0.72555E+00
  rms(prec ) = 0.90109E+00
  weight for this iteration     100.00

 eigenvalues of (default mixing * dielectric matrix)
  average eigenvalue GAMMA=   1.2281
  1.2281

 Free energy of the ion-electron system (eV)
  ---------------------------------------------------
  alpha Z        PSCENC =       835.99855037
  Ewald energy   TEWEN  =    -17348.37583825
  -Hartree energ DENC   =     -7761.31607092
  -exchange      EXHF   =         0.00000000
  -V(xc)+E(xc)   XCENC  =       939.63938436
  PAW double counting   =     21563.90429139   -22603.11617121
  entropy T*S    EENTRO =        -0.00000000
  eigenvalues    EBANDS =     -3037.95874246
  atomic energy  EATOM  =     26024.88362379
  Solvation  Ediel_sol  =         0.00000000
  ---------------------------------------------------
  free energy    TOTEN  =     -1386.34097293 eV

  energy without entropy =    -1386.34097293  energy(sigma->0) =    -1386.34097293


--------------------------------------------------------------------------------------------------------




--------------------------------------- Iteration      1(   7)  ---------------------------------------


    POTLOK:  cpu time    0.2774: real time    0.2786
    SETDIJ:  cpu time    1.1990: real time    1.1990
     EDDAV:  cpu time   18.3687: real time   18.3694
       DOS:  cpu time    0.0013: real time    0.0013
    CHARGE:  cpu time    2.6812: real time    2.6813
    MIXING:  cpu time    0.0015: real time    0.0015
    --------------------------------------------
      LOOP:  cpu time   22.5291: real time   22.5310

 eigenvalue-minimisations  :  4112
 total energy-change (2. order) : 0.4182306E+00  (-0.9317294E+00)
 number of electron     344.0000000 magnetization 
 augmentation part       -2.5718394 magnetization 

 Broyden mixing:
  rms(total) = 0.37921E+00    rms(broyden)= 0.37919E+00
  rms(prec ) = 0.41577E+00
  weight for this iteration     100.00

 eigenvalues of (default mixing * dielectric matrix)
  average eigenvalue GAMMA=   1.2985
  1.2985  1.2985

 Free energy of the ion-electron system (eV)
  ---------------------------------------------------
  alpha Z        PSCENC =       835.99855037
  Ewald energy   TEWEN  =    -17348.37583825
  -Hartree energ DENC   =     -7803.86410736
  -exchange      EXHF   =         0.00000000
  -V(xc)+E(xc)   XCENC  =       945.02898347
  PAW double counting   =     22264.37086803   -23301.99256875
  entropy T*S    EENTRO =        -0.00000000
  eigenvalues    EBANDS =     -3001.97225368
  atomic energy  EATOM  =     26024.88362379
  Solvation  Ediel_sol  =         0.00000000
  ---------------------------------------------------
  free energy    TOTEN  =     -1385.92274238 eV

  energy without entropy =    -1385.92274238  energy(sigma->0) =    -1385.92274238


--------------------------------------------------------------------------------------------------------




--------------------------------------- Iteration      1(   8)  ---------------------------------------


    POTLOK:  cpu time    0.2775: real time    0.3079
    SETDIJ:  cpu time    1.1973: real time    1.1973
     EDDAV:  cpu time   18.0316: real time   18.0324
       DOS:  cpu time    0.0004: real time    0.0004
    CHARGE:  cpu time    2.6764: real time    2.6764
    MIXING:  cpu time    0.0015: real time    0.0015
    --------------------------------------------
      LOOP:  cpu time   22.1846: real time   22.2160

 eigenvalue-minimisations  :  4000
 total energy-change (2. order) :-0.1804586E+00  (-0.4078325E-01)
 number of electron     344.0000000 magnetization 
 augmentation part       -2.6709901 magnetization 

 Broyden mixing:
  rms(total) = 0.22245E+00    rms(broyden)= 0.22245E+00
  rms(prec ) = 0.24764E+00
  weight for this iteration     100.00

 eigenvalues of (default mixing * dielectric matrix)
  average eigenvalue GAMMA=   1.6871
  1.1215  1.3114  2.6284

 Free energy of the ion-electron system (eV)
  ---------------------------------------------------
  alpha Z        PSCENC =       835.99855037
  Ewald energy   TEWEN  =    -17348.37583825
  -Hartree energ DENC   =     -7808.41440536
  -exchange      EXHF   =         0.00000000
  -V(xc)+E(xc)   XCENC  =       945.63355273
  PAW double counting   =     22506.84231562   -23544.93754798
  entropy T*S    EENTRO =        -0.00000000
  eigenvalues    EBANDS =     -2997.73345191
  atomic energy  EATOM  =     26024.88362379
  Solvation  Ediel_sol  =         0.00000000
  ---------------------------------------------------
  free energy    TOTEN  =     -1386.10320100 eV

  energy without entropy =    -1386.10320100  energy(sigma->0) =    -1386.10320100


--------------------------------------------------------------------------------------------------------




--------------------------------------- Iteration      1(   9)  ---------------------------------------


    POTLOK:  cpu time    0.2984: real time    0.3178
    SETDIJ:  cpu time    1.1978: real time    1.1978
     EDDAV:  cpu time   16.8867: real time   16.8872
       DOS:  cpu time    0.0006: real time    0.0006
    CHARGE:  cpu time    2.6767: real time    2.6768
    MIXING:  cpu time    0.0016: real time    0.0016
    --------------------------------------------
      LOOP:  cpu time   21.0618: real time   21.0818

 eigenvalue-minimisations  :  3600
 total energy-change (2. order) :-0.8466974E-01  (-0.1644096E-01)
 number of electron     344.0000000 magnetization 
 augmentation part       -2.7159241 magnetization 

 Broyden mixing:
  rms(total) = 0.44325E-01    rms(broyden)= 0.44322E-01
  rms(prec ) = 0.51389E-01
  weight for this iteration     100.00

 eigenvalues of (default mixing * dielectric matrix)
  average eigenvalue GAMMA=   1.4651
  2.5263  1.2463  1.2463  0.8413

 Free energy of the ion-electron system (eV)
  ---------------------------------------------------
  alpha Z        PSCENC =       835.99855037
  Ewald energy   TEWEN  =    -17348.37583825
  -Hartree energ DENC   =     -7815.21541793
  -exchange      EXHF   =         0.00000000
  -V(xc)+E(xc)   XCENC  =       947.66742213
  PAW double counting   =     22865.24846995   -23904.28675987
  entropy T*S    EENTRO =        -0.00000000
  eigenvalues    EBANDS =     -2992.10792092
  atomic energy  EATOM  =     26024.88362379
  Solvation  Ediel_sol  =         0.00000000
  ---------------------------------------------------
  free energy    TOTEN  =     -1386.18787074 eV

  energy without entropy =    -1386.18787074  energy(sigma->0) =    -1386.18787074


--------------------------------------------------------------------------------------------------------




--------------------------------------- Iteration      1(  10)  ---------------------------------------


    POTLOK:  cpu time    0.2798: real time    0.2947
    SETDIJ:  cpu time    1.1974: real time    1.1974
     EDDAV:  cpu time   20.3548: real time   20.3556
       DOS:  cpu time    0.0004: real time    0.0004
    CHARGE:  cpu time    2.6825: real time    2.6826
    MIXING:  cpu time    0.0016: real time    0.0016
    --------------------------------------------
      LOOP:  cpu time   24.5167: real time   24.5325

 eigenvalue-minimisations  :  4800
 total energy-change (2. order) :-0.2667138E-02  (-0.1546161E-02)
 number of electron     344.0000000 magnetization 
 augmentation part       -2.7011508 magnetization 

 Broyden mixing:
  rms(total) = 0.28935E-01    rms(broyden)= 0.28934E-01
  rms(prec ) = 0.35406E-01
  weight for this iteration     100.00

 eigenvalues of (default mixing * dielectric matrix)
  average eigenvalue GAMMA=   1.3808
  2.2389  1.5393  1.3337  0.8960  0.8960

 Free energy of the ion-electron system (eV)
  ---------------------------------------------------
  alpha Z        PSCENC =       835.99855037
  Ewald energy   TEWEN  =    -17348.37583825
  -Hartree energ DENC   =     -7813.59777364
  -exchange      EXHF   =         0.00000000
  -V(xc)+E(xc)   XCENC  =       947.51301002
  PAW double counting   =     22833.82304044   -23872.92339087
  entropy T*S    EENTRO =        -0.00000000
  eigenvalues    EBANDS =     -2993.51175973
  atomic energy  EATOM  =     26024.88362379
  Solvation  Ediel_sol  =         0.00000000
  ---------------------------------------------------
  free energy    TOTEN  =     -1386.19053788 eV

  energy without entropy =    -1386.19053788  energy(sigma->0) =    -1386.19053788


--------------------------------------------------------------------------------------------------------




--------------------------------------- Iteration      1(  11)  ---------------------------------------


    POTLOK:  cpu time    0.2762: real time    0.2954
    SETDIJ:  cpu time    1.2008: real time    1.2008
     EDDAV:  cpu time   17.2112: real time   17.2121
       DOS:  cpu time    0.0006: real time    0.0006
    CHARGE:  cpu time    2.6910: real time    2.6911
    MIXING:  cpu time    0.0016: real time    0.0016
    --------------------------------------------
      LOOP:  cpu time   21.3815: real time   21.4017

 eigenvalue-minimisations  :  3704
 total energy-change (2. order) :-0.3427132E-02  (-0.2824215E-03)
 number of electron     344.0000000 magnetization 
 augmentation part       -2.6992271 magnetization 

 Broyden mixing:
  rms(total) = 0.11557E-01    rms(broyden)= 0.11557E-01
  rms(prec ) = 0.17532E-01
  weight for this iteration     100.00

 eigenvalues of (default mixing * dielectric matrix)
  average eigenvalue GAMMA=   1.5945
  2.7185  2.7185  1.2024  1.2024  0.8627  0.8627

 Free energy of the ion-electron system (eV)
  ---------------------------------------------------
  alpha Z        PSCENC =       835.99855037
  Ewald energy   TEWEN  =    -17348.37583825
  -Hartree energ DENC   =     -7811.98436381
  -exchange      EXHF   =         0.00000000
  -V(xc)+E(xc)   XCENC  =       947.45380999
  PAW double counting   =     22811.31918006   -23850.62887179
  entropy T*S    EENTRO =        -0.00000000
  eigenvalues    EBANDS =     -2994.86005536
  atomic energy  EATOM  =     26024.88362379
  Solvation  Ediel_sol  =         0.00000000
  ---------------------------------------------------
  free energy    TOTEN  =     -1386.19396501 eV

  energy without entropy =    -1386.19396501  energy(sigma->0) =    -1386.19396501


--------------------------------------------------------------------------------------------------------




--------------------------------------- Iteration      1(  12)  ---------------------------------------


    POTLOK:  cpu time    0.2524: real time    0.3129
    SETDIJ:  cpu time    1.1999: real time    1.1999
     EDDAV:  cpu time   17.0239: real time   17.0244
       DOS:  cpu time    0.0004: real time    0.0004
    CHARGE:  cpu time    2.6880: real time    2.6880
    MIXING:  cpu time    0.0016: real time    0.0016
    --------------------------------------------
      LOOP:  cpu time   21.1661: real time   21.2272

 eigenvalue-minimisations  :  3648
 total energy-change (2. order) :-0.2842925E-02  (-0.2909611E-03)
 number of electron     344.0000000 magnetization 
 augmentation part       -2.7023882 magnetization 

 Broyden mixing:
  rms(total) = 0.76889E-02    rms(broyden)= 0.76882E-02
  rms(prec ) = 0.10201E-01
  weight for this iteration     100.00

 eigenvalues of (default mixing * dielectric matrix)
  average eigenvalue GAMMA=   1.5983
  2.8095  2.8095  1.3322  1.3322  0.9135  0.9954  0.9954

 Free energy of the ion-electron system (eV)
  ---------------------------------------------------
  alpha Z        PSCENC =       835.99855037
  Ewald energy   TEWEN  =    -17348.37583825
  -Hartree energ DENC   =     -7811.53560244
  -exchange      EXHF   =         0.00000000
  -V(xc)+E(xc)   XCENC  =       947.53483652
  PAW double counting   =     22808.24272341   -23847.78521265
  entropy T*S    EENTRO =        -0.00000000
  eigenvalues    EBANDS =     -2995.15988868
  atomic energy  EATOM  =     26024.88362379
  Solvation  Ediel_sol  =         0.00000000
  ---------------------------------------------------
  free energy    TOTEN  =     -1386.19680793 eV

  energy without entropy =    -1386.19680793  energy(sigma->0) =    -1386.19680793


--------------------------------------------------------------------------------------------------------




--------------------------------------- Iteration      1(  13)  ---------------------------------------


    POTLOK:  cpu time    0.2617: real time    0.3192
    SETDIJ:  cpu time    1.2003: real time    1.2003
     EDDAV:  cpu time   19.3338: real time   19.3345
       DOS:  cpu time    0.0004: real time    0.0004
    CHARGE:  cpu time    2.6885: real time    2.6886
    MIXING:  cpu time    0.0018: real time    0.0018
    --------------------------------------------
      LOOP:  cpu time   23.4866: real time   23.5448

 eigenvalue-minimisations  :  4448
 total energy-change (2. order) : 0.1654561E-03  (-0.9900985E-04)
 number of electron     344.0000000 magnetization 
 augmentation part       -2.7033846 magnetization 

 Broyden mixing:
  rms(total) = 0.33670E-02    rms(broyden)= 0.33665E-02
  rms(prec ) = 0.41151E-02
  weight for this iteration     100.00

 eigenvalues of (default mixing * dielectric matrix)
  average eigenvalue GAMMA=   1.5745
  3.1555  2.2816  1.4364  1.4364  1.2105  1.2105  0.8835  0.9817

 Free energy of the ion-electron system (eV)
  ---------------------------------------------------
  alpha Z        PSCENC =       835.99855037
  Ewald energy   TEWEN  =    -17348.37583825
  -Hartree energ DENC   =     -7812.56021009
  -exchange      EXHF   =         0.00000000
  -V(xc)+E(xc)   XCENC  =       947.59260606
  PAW double counting   =     22808.19627005   -23847.70091492
  entropy T*S    EENTRO =        -0.00000000
  eigenvalues    EBANDS =     -2994.23072948
  atomic energy  EATOM  =     26024.88362379
  Solvation  Ediel_sol  =         0.00000000
  ---------------------------------------------------
  free energy    TOTEN  =     -1386.19664248 eV

  energy without entropy =    -1386.19664248  energy(sigma->0) =    -1386.19664248


--------------------------------------------------------------------------------------------------------




--------------------------------------- Iteration      1(  14)  ---------------------------------------


    POTLOK:  cpu time    0.2666: real time    0.2843
    SETDIJ:  cpu time    1.2015: real time    1.2015
     EDDAV:  cpu time   17.1872: real time   17.1878
       DOS:  cpu time    0.0004: real time    0.0004
    CHARGE:  cpu time    2.6827: real time    2.6827
    MIXING:  cpu time    0.0018: real time    0.0018
    --------------------------------------------
      LOOP:  cpu time   21.3401: real time   21.3586

 eigenvalue-minimisations  :  3704
 total energy-change (2. order) : 0.4116042E-04  (-0.2211050E-04)
 number of electron     344.0000000 magnetization 
 augmentation part       -2.7028005 magnetization 

 Broyden mixing:
  rms(total) = 0.19633E-02    rms(broyden)= 0.19625E-02
  rms(prec ) = 0.26915E-02
  weight for this iteration     100.00

 eigenvalues of (default mixing * dielectric matrix)
  average eigenvalue GAMMA=   1.5823
  3.1601  2.2894  2.2894  1.1945  1.1945  1.1560  1.1560  0.9005  0.9005

 Free energy of the ion-electron system (eV)
  ---------------------------------------------------
  alpha Z        PSCENC =       835.99855037
  Ewald energy   TEWEN  =    -17348.37583825
  -Hartree energ DENC   =     -7812.75821497
  -exchange      EXHF   =         0.00000000
  -V(xc)+E(xc)   XCENC  =       947.60380290
  PAW double counting   =     22810.69524548   -23850.18337756
  entropy T*S    EENTRO =        -0.00000000
  eigenvalues    EBANDS =     -2994.06039306
  atomic energy  EATOM  =     26024.88362379
  Solvation  Ediel_sol  =         0.00000000
  ---------------------------------------------------
  free energy    TOTEN  =     -1386.19660132 eV

  energy without entropy =    -1386.19660132  energy(sigma->0) =    -1386.19660132


--------------------------------------------------------------------------------------------------------




--------------------------------------- Iteration      1(  15)  ---------------------------------------


    POTLOK:  cpu time    0.2669: real time    0.3189
    SETDIJ:  cpu time    1.2028: real time    1.2028
     EDDAV:  cpu time   17.0207: real time   17.0215
       DOS:  cpu time    0.0006: real time    0.0006
    CHARGE:  cpu time    2.6923: real time    2.6924
    MIXING:  cpu time    0.0019: real time    0.0019
    --------------------------------------------
      LOOP:  cpu time   21.1853: real time   21.2382

 eigenvalue-minimisations  :  3640
 total energy-change (2. order) :-0.1839361E-04  (-0.2691873E-05)
 number of electron     344.0000000 magnetization 
 augmentation part       -2.7026930 magnetization 

 Broyden mixing:
  rms(total) = 0.11608E-02    rms(broyden)= 0.11599E-02
  rms(prec ) = 0.16497E-02
  weight for this iteration     100.00

 eigenvalues of (default mixing * dielectric matrix)
  average eigenvalue GAMMA=   1.6517
  3.6681  2.4574  2.4574  1.3645  1.3645  1.2261  1.2261  0.8691  0.9419  0.9419

 Free energy of the ion-electron system (eV)
  ---------------------------------------------------
  alpha Z        PSCENC =       835.99855037
  Ewald energy   TEWEN  =    -17348.37583825
  -Hartree energ DENC   =     -7812.91013959
  -exchange      EXHF   =         0.00000000
  -V(xc)+E(xc)   XCENC  =       947.60730515
  PAW double counting   =     22810.33387167   -23849.81410363
  entropy T*S    EENTRO =        -0.00000000
  eigenvalues    EBANDS =     -2993.91988922
  atomic energy  EATOM  =     26024.88362379
  Solvation  Ediel_sol  =         0.00000000
  ---------------------------------------------------
  free energy    TOTEN  =     -1386.19661971 eV

  energy without entropy =    -1386.19661971  energy(sigma->0) =    -1386.19661971


--------------------------------------------------------------------------------------------------------




--------------------------------------- Iteration      1(  16)  ---------------------------------------


    POTLOK:  cpu time    0.2587: real time    0.3159
    SETDIJ:  cpu time    1.2042: real time    1.2042
     EDDAV:  cpu time   16.6761: real time   16.6767
       DOS:  cpu time    0.0004: real time    0.0004
    CHARGE:  cpu time    2.6910: real time    2.6911
    MIXING:  cpu time    0.0018: real time    0.0018
    --------------------------------------------
      LOOP:  cpu time   20.8322: real time   20.8902

 eigenvalue-minimisations  :  3528
 total energy-change (2. order) :-0.6893346E-04  (-0.3202038E-05)
 number of electron     344.0000000 magnetization 
 augmentation part       -2.7022654 magnetization 

 Broyden mixing:
  rms(total) = 0.50712E-03    rms(broyden)= 0.50500E-03
  rms(prec ) = 0.59453E-03
  weight for this iteration     100.00

 eigenvalues of (default mixing * dielectric matrix)
  average eigenvalue GAMMA=   1.7359
  4.3476  2.8811  2.4824  1.8362  1.2026  1.2026  1.1321  1.1321  0.8787  0.9998
  0.9998

 Free energy of the ion-electron system (eV)
  ---------------------------------------------------
  alpha Z        PSCENC =       835.99855037
  Ewald energy   TEWEN  =    -17348.37583825
  -Hartree energ DENC   =     -7812.91316397
  -exchange      EXHF   =         0.00000000
  -V(xc)+E(xc)   XCENC  =       947.60066672
  PAW double counting   =     22809.59439249   -23849.07159750
  entropy T*S    EENTRO =        -0.00000000
  eigenvalues    EBANDS =     -2993.91332229
  atomic energy  EATOM  =     26024.88362379
  Solvation  Ediel_sol  =         0.00000000
  ---------------------------------------------------
  free energy    TOTEN  =     -1386.19668864 eV

  energy without entropy =    -1386.19668864  energy(sigma->0) =    -1386.19668864


--------------------------------------------------------------------------------------------------------




--------------------------------------- Iteration      1(  17)  ---------------------------------------


    POTLOK:  cpu time    0.2728: real time    0.3133
    SETDIJ:  cpu time    1.2033: real time    1.2033
     EDDAV:  cpu time   16.6781: real time   16.6786
       DOS:  cpu time    0.0004: real time    0.0004
    CHARGE:  cpu time    2.6960: real time    2.6960
    MIXING:  cpu time    0.0020: real time    0.0020
    --------------------------------------------
      LOOP:  cpu time   20.8525: real time   20.8937

 eigenvalue-minimisations  :  3512
 total energy-change (2. order) : 0.4975819E-05  (-0.5295535E-06)
 number of electron     344.0000000 magnetization 
 augmentation part       -2.7021934 magnetization 

 Broyden mixing:
  rms(total) = 0.31618E-03    rms(broyden)= 0.31282E-03
  rms(prec ) = 0.34660E-03
  weight for this iteration     100.00

 eigenvalues of (default mixing * dielectric matrix)
  average eigenvalue GAMMA=   1.6568
  4.3024  2.9393  2.4288  1.8123  1.2384  1.2384  1.1040  1.1040  1.0515  1.0515
  0.8478  0.7631

 Free energy of the ion-electron system (eV)
  ---------------------------------------------------
  alpha Z        PSCENC =       835.99855037
  Ewald energy   TEWEN  =    -17348.37583825
  -Hartree energ DENC   =     -7812.91535776
  -exchange      EXHF   =         0.00000000
  -V(xc)+E(xc)   XCENC  =       947.59823456
  PAW double counting   =     22809.97813941   -23849.45122178
  entropy T*S    EENTRO =        -0.00000000
  eigenvalues    EBANDS =     -2993.91281400
  atomic energy  EATOM  =     26024.88362379
  Solvation  Ediel_sol  =         0.00000000
  ---------------------------------------------------
  free energy    TOTEN  =     -1386.19668367 eV

  energy without entropy =    -1386.19668367  energy(sigma->0) =    -1386.19668367


--------------------------------------------------------------------------------------------------------




--------------------------------------- Iteration      1(  18)  ---------------------------------------


    POTLOK:  cpu time    0.3030: real time    0.3120
    SETDIJ:  cpu time    1.2046: real time    1.2046
     EDDAV:  cpu time   12.9494: real time   12.9500
       DOS:  cpu time    0.0004: real time    0.0004
    --------------------------------------------
      LOOP:  cpu time   14.4574: real time   14.4670

 eigenvalue-minimisations  :  2192
 total energy-change (2. order) : 0.3575292E-06  (-0.5675624E-07)
 number of electron     344.0000000 magnetization 
 augmentation part       -2.7021934 magnetization 

 Free energy of the ion-electron system (eV)
  ---------------------------------------------------
  alpha Z        PSCENC =       835.99855037
  Ewald energy   TEWEN  =    -17348.37583825
  -Hartree energ DENC   =     -7812.91873367
  -exchange      EXHF   =         0.00000000
  -V(xc)+E(xc)   XCENC  =       947.59827033
  PAW double counting   =     22809.97821296   -23849.45101459
  entropy T*S    EENTRO =        -0.00000000
  eigenvalues    EBANDS =     -2993.90975425
  atomic energy  EATOM  =     26024.88362379
  Solvation  Ediel_sol  =         0.00000000
  ---------------------------------------------------
  free energy    TOTEN  =     -1386.19668331 eV

  energy without entropy =    -1386.19668331  energy(sigma->0) =    -1386.19668331


--------------------------------------------------------------------------------------------------------




 average (electrostatic) potential at core
  the test charge radii are     1.1312  1.1541  1.0178  1.1312
  (the norm of the test charge is              1.0000)
       1 -55.4758       2 -55.3062       3 -55.3939       4 -55.4083       5 -55.4413
       6 -55.4401       7-101.7910       8-101.9729       9-101.9890      10-101.7367
      11-101.9890      12-101.7368      13-101.7909      14-101.9730      15 -69.3565
      16 -68.8116      17 -69.0516      18 -69.2701      19 -68.9928      20 -69.3166
      21 -69.3754      22 -68.9766      23 -69.1607      24 -69.0542      25 -69.3985
      26 -69.0710      27 -69.3215      28 -69.0431      29 -69.0992      30 -69.0626
      31 -69.1607      32 -69.0539      33 -69.3984      34 -69.0711      35 -69.0991
      36 -69.0625      37 -69.3214      38 -69.0432      39 -55.6048



 E-fermi :   0.3635     XC(G=0):  -7.9056     alpha+bet : -6.8224


 k-point     1 :       0.0000    0.0000    0.0000
  band No.  band energies     occupation 
      1     -21.2703      2.00000
      2     -21.0130      2.00000
      3     -20.9727      2.00000
      4     -20.9679      2.00000
      5     -20.9481      2.00000
      6     -20.9282      2.00000
      7     -20.8460      2.00000
      8     -16.8254      2.00000
      9     -16.8015      2.00000
     10     -16.7924      2.00000
     11     -16.7661      2.00000
     12     -16.7427      2.00000
     13     -16.7302      2.00000
     14     -16.7300      2.00000
     15     -16.7193      2.00000
     16     -16.6725      2.00000
     17     -16.6703      2.00000
     18     -16.6526      2.00000
     19     -16.6513      2.00000
     20     -16.6508      2.00000
     21     -16.6501      2.00000
     22     -16.6409      2.00000
     23     -16.6404      2.00000
     24     -16.6379      2.00000
     25     -16.6374      2.00000
     26     -16.6184      2.00000
     27     -16.6177      2.00000
     28     -16.5875      2.00000
     29     -16.5706      2.00000
     30     -16.5703      2.00000
     31     -16.5331      2.00000
     32     -16.5234      2.00000
     33     -16.4976      2.00000
     34     -16.4955      2.00000
     35     -16.4678      2.00000
     36     -16.4571      2.00000
     37     -16.4558      2.00000
     38     -16.4540      2.00000
     39     -16.4538      2.00000
     40     -16.4448      2.00000
     41     -16.4438      2.00000
     42     -16.4048      2.00000
     43     -16.4047      2.00000
     44     -16.3931      2.00000
     45     -16.3908      2.00000
     46     -16.3879      2.00000
     47     -16.3870      2.00000
     48     -14.6558      2.00000
     49     -14.5811      2.00000
     50     -14.4711      2.00000
     51     -14.4127      2.00000
     52     -14.4042      2.00000
     53     -14.3887      2.00000
     54     -14.3553      2.00000
     55     -14.3082      2.00000
     56     -14.1769      2.00000
     57     -14.1588      2.00000
     58     -14.1288      2.00000
     59     -14.1081      2.00000
     60     -14.1058      2.00000
     61     -14.0930      2.00000
     62     -14.0912      2.00000
     63     -14.0817      2.00000
     64     -14.0805      2.00000
     65     -14.0484      2.00000
     66     -14.0482      2.00000
     67     -13.9312      2.00000
     68     -13.8805      2.00000
     69     -13.8702      2.00000
     70     -13.8210      2.00000
     71     -13.6948      2.00000
     72      -8.4482      2.00000
     73      -8.0062      2.00000
     74      -7.9433      2.00000
     75      -7.8915      2.00000
     76      -7.8057      2.00000
     77      -7.7166      2.00000
     78      -7.7049      2.00000
     79      -7.4438      2.00000
     80      -7.4330      2.00000
     81      -7.4116      2.00000
     82      -7.3996      2.00000
     83      -7.3935      2.00000
     84      -7.3839      2.00000
     85      -7.3739      2.00000
     86      -7.3734      2.00000
     87      -7.3658      2.00000
     88      -7.3614      2.00000
     89      -7.3564      2.00000
     90      -7.3446      2.00000
     91      -7.3429      2.00000
     92      -7.3359      2.00000
     93      -7.3315      2.00000
     94      -7.3107      2.00000
     95      -7.3067      2.00000
     96      -7.2738      2.00000
     97      -7.2526      2.00000
     98      -7.2439      2.00000
     99      -7.2408      2.00000
    100      -6.7274      2.00000
    101      -3.6722      2.00000
    102      -3.6517      2.00000
    103      -3.5787      2.00000
    104      -3.4739      2.00000
    105      -3.4177      2.00000
    106      -3.3292      2.00000
    107      -3.3238      2.00000
    108      -3.2829      2.00000
    109      -3.2746      2.00000
    110      -3.2695      2.00000
    111      -3.1400      2.00000
    112      -3.0516      2.00000
    113      -2.5231      2.00000
    114      -2.3649      2.00000
    115      -2.3086      2.00000
    116      -2.2758      2.00000
    117      -2.1784      2.00000
    118      -2.1297      2.00000
    119      -2.1247      2.00000
    120      -2.0497      2.00000
    121      -2.0089      2.00000
    122      -1.9928      2.00000
    123      -1.9432      2.00000
    124      -1.9014      2.00000
    125      -1.8522      2.00000
    126      -1.8465      2.00000
    127      -1.8454      2.00000
    128      -1.7887      2.00000
    129      -1.7267      2.00000
    130      -1.7169      2.00000
    131      -1.6798      2.00000
    132      -1.6499      2.00000
    133      -1.6483      2.00000
    134      -1.6385      2.00000
    135      -1.6136      2.00000
    136      -1.5864      2.00000
    137      -1.5862      2.00000
    138      -1.5625      2.00000
    139      -1.5527      2.00000
    140      -1.5444      2.00000
    141      -1.5122      2.00000
    142      -1.5079      2.00000
    143      -1.5071      2.00000
    144      -1.4697      2.00000
    145      -1.4686      2.00000
    146      -1.4477      2.00000
    147      -1.4200      2.00000
    148      -1.4163      2.00000
    149      -1.4056      2.00000
    150      -1.3896      2.00000
    151      -1.3566      2.00000
    152      -1.3445      2.00000
    153      -1.3166      2.00000
    154      -1.3105      2.00000
    155      -1.2967      2.00000
    156      -1.2829      2.00000
    157      -1.2759      2.00000
    158      -1.2357      2.00000
[...]


--------------------------------------------------------------------------------------------------------


 soft charge-density along one line, spin component           1
         0         1         2         3         4         5         6         7         8         9
 total charge-density along one line

 pseudopotential strength for first ion, spin component:           1
 18.063  -4.729  -0.000   0.001   0.001   0.000  -0.002  -0.002
 -4.729   1.247   0.000  -0.000  -0.000  -0.000   0.000   0.000
 -0.000   0.000   2.303   0.000   0.000  -2.763  -0.000  -0.000
  0.001  -0.000   0.000   2.305  -0.002  -0.000  -2.766   0.002
  0.001  -0.000   0.000  -0.002   2.305  -0.000   0.002  -2.766
  0.000  -0.000  -2.763  -0.000  -0.000   3.285   0.000   0.000
 -0.002   0.000  -0.000  -2.766   0.002   0.000   3.288  -0.003
 -0.002   0.000  -0.000   0.002  -2.766   0.000  -0.003   3.288
  0.000  -0.000   0.001   0.000   0.000  -0.001  -0.000  -0.000
  0.000  -0.000   0.001   0.000   0.000  -0.002  -0.000  -0.000
  0.001  -0.000   0.000  -0.000  -0.001  -0.000   0.000   0.001
 -0.002   0.000   0.000   0.000   0.002  -0.000  -0.001  -0.002
  0.001  -0.000   0.000   0.000   0.001  -0.000  -0.000  -0.001
 total augmentation occupancy for first ion, spin component:           1
  1.912  -0.141   0.000   0.000   0.000   0.000   0.001   0.001   0.000  -0.000   0.001  -0.002   0.001
 -0.141   0.130   0.000   0.003   0.004  -0.000  -0.003  -0.001   0.000   0.000  -0.004   0.009  -0.005
  0.000   0.000   2.014  -0.000   0.000   0.001  -0.000   0.000   0.001   0.002  -0.000   0.000   0.000
  0.000   0.003  -0.000   2.019  -0.005  -0.000   0.005  -0.003   0.000   0.000  -0.002   0.000   0.001
  0.000   0.004   0.000  -0.005   2.019   0.000  -0.003   0.005   0.000   0.000  -0.002   0.004   0.002
  0.000  -0.000   0.001  -0.000   0.000   0.011   0.000   0.000  -0.000  -0.001  -0.000  -0.000  -0.000
  0.001  -0.003  -0.000   0.005  -0.003   0.000   0.008   0.002  -0.000  -0.000   0.002   0.000  -0.001
  0.001  -0.001   0.000  -0.003   0.005   0.000   0.002   0.008  -0.000  -0.000   0.001  -0.003  -0.001
  0.000   0.000   0.001   0.000   0.000  -0.000  -0.000  -0.000   0.009   0.004  -0.000   0.000   0.000
 -0.000   0.000   0.002   0.000   0.000  -0.001  -0.000  -0.000   0.004   0.007  -0.000  -0.000   0.000
  0.001  -0.004  -0.000  -0.002  -0.002  -0.000   0.002   0.001  -0.000  -0.000   0.004  -0.001   0.000
 -0.002   0.009   0.000   0.000   0.004  -0.000   0.000  -0.003   0.000  -0.000  -0.001   0.005  -0.000
  0.001  -0.005   0.000   0.001   0.002  -0.000  -0.001  -0.001   0.000   0.000   0.000  -0.000   0.003


------------------------ aborting loop because EDIFF is reached ----------------------------------------





 total charge     

# of ion       s       p       d       tot
------------------------------------------
    1        1.787   4.722   0.021   6.529
    2        1.787   4.721   0.022   6.530
    3        1.786   4.721   0.021   6.528
    4        1.787   4.721   0.022   6.530
    5        1.786   4.721   0.019   6.525
    6        1.786   4.721   0.020   6.527
    7        1.554   0.421   9.834  11.809
    8        1.551   0.433   9.834  11.818
    9        1.553   0.433   9.835  11.821
   10        1.555   0.418   9.834  11.806
   11        1.553   0.433   9.835  11.821
   12        1.555   0.418   9.834  11.806
   13        1.554   0.421   9.834  11.809
   14        1.551   0.433   9.834  11.818
   15        1.615   3.292   0.006   4.913
   16        1.615   3.278   0.006   4.899
   17        1.614   3.290   0.006   4.910
   18        1.615   3.290   0.007   4.912
   19        1.615   3.282   0.006   4.904
   20        1.616   3.300   0.007   4.922
   21        1.615   3.288   0.007   4.910
   22        1.614   3.292   0.006   4.913
   23        1.614   3.289   0.006   4.909
   24        1.614   3.288   0.006   4.909
   25        1.617   3.314   0.009   4.940
   26        1.614   3.291   0.006   4.912
   27        1.615   3.290   0.007   4.912
   28        1.615   3.289   0.006   4.910
   29        1.615   3.278   0.006   4.900
   30        1.614   3.287   0.006   4.907
   31        1.614   3.289   0.006   4.909
   32        1.614   3.288   0.006   4.909
   33        1.617   3.314   0.009   4.940
   34        1.614   3.291   0.006   4.912
   35        1.615   3.278   0.006   4.900
   36        1.614   3.287   0.006   4.907
   37        1.615   3.290   0.007   4.912
   38        1.615   3.289   0.006   4.910
   39        1.799   4.733   0.048   6.580
--------------------------------------------------
tot         63.701 115.436  79.000 258.137

    CHARGE:  cpu time    0.3935: real time    0.3935
    FORLOC:  cpu time    0.0118: real time    0.0118
    FORNL :  cpu time    1.8949: real time    1.8950
    STRESS:  cpu time   49.6015: real time   49.6029
    FORCOR:  cpu time    0.2452: real time    0.2452
    FORHAR:  cpu time    0.0287: real time    0.0287
    MIXING:  cpu time    0.0022: real time    0.0022
    OFIELD:  cpu time    0.0000: real time    0.0000

  FORCE on cell =-STRESS in cart. coord.  units (eV):
  Direction    XX          YY          ZZ          XY          YZ          ZX
  --------------------------------------------------------------------------------------
  Alpha Z   835.99855   835.99855   835.99855
  Ewald   -5868.47442 -5509.24405 -5970.73528    -0.01817    -0.01284  -226.68733
  Hartree  2573.28887  2749.10779  2490.52803    -0.00903    -0.00869  -122.65758
  E(xc)   -1447.66982 -1447.08831 -1447.59213    -0.00003    -0.00001    -0.17105
  Local   -3094.02010 -3627.27895 -2910.03045     0.02750     0.02072   347.34529
  n-local  1795.27400  1796.25151  1794.64212     0.00005    -0.00070    -0.61191
  augment   825.05814   824.32230   824.23955    -0.00005    -0.00019     0.34852
  Kinetic  4386.22920  4391.87897  4390.67012    -0.00115     0.00233    -0.99181
  Fock        0.00000     0.00000     0.00000     0.00000     0.00000     0.00000
  -------------------------------------------------------------------------------------
  Total       5.68443    13.94780     7.72050    -0.00089     0.00061    -3.42587
  in kB       5.69120    13.96441     7.72970    -0.00089     0.00061    -3.42995
  external pressure =        9.13 kB  Pullay stress =        0.00 kB


 VOLUME and BASIS-vectors are now :
 -----------------------------------------------------------------------------
  energy-cutoff  :      300.00
  volume of cell :     1600.27
      direct lattice vectors                 reciprocal lattice vectors
     8.420018000  0.000000000  8.077981000     0.059382296 -0.000000000  0.061896655
     0.000000000 11.763808000  0.000000000     0.000000000  0.085006488 -0.000000000
    -8.420018000  0.000000000  8.077981000    -0.059382296  0.000000000  0.061896655

  length of vectors
    11.668353789 11.763808000 11.668353789     0.085775596  0.085006488  0.085775596


 FORCES acting on ions
    electron-ion (+dipol)            ewald-force                    non-local-force                 convergence-correction
 -----------------------------------------------------------------------------------------------
   0.362E+02 0.328E-02 -.159E+02   -.363E+02 -.333E-02 0.158E+02   0.114E+00 0.718E-04 0.139E+00   0.841E-04 -.283E-04 0.230E-04
   0.171E+02 0.259E-02 -.157E+02   -.168E+02 -.260E-02 0.157E+02   -.305E+00 -.348E-05 -.328E-01   0.287E-03 0.656E-06 -.245E-03
   -.315E+02 0.492E-02 -.117E+02   0.314E+02 -.503E-02 0.116E+02   0.124E+00 0.115E-03 0.107E+00   -.585E-04 -.170E-05 -.332E-03
   0.283E+02 0.142E-04 0.175E+02   -.282E+02 0.379E-04 -.179E+02   -.677E-01 -.457E-04 0.339E+00   0.232E-03 0.183E-05 -.190E-04
   0.172E+02 0.109E-01 -.333E+01   -.171E+02 -.110E-01 0.357E+01   -.136E+00 -.153E-04 -.221E+00   -.204E-03 0.237E-05 0.258E-03
   -.273E+02 0.319E-02 0.331E+01   0.273E+02 -.327E-02 -.329E+01   0.183E-01 0.703E-04 0.106E-01   0.138E-03 -.263E-05 -.276E-04
   0.373E+02 0.580E+02 -.572E+02   -.369E+02 -.576E+02 0.575E+02   -.374E+00 -.401E+00 -.300E+00   -.210E-03 -.740E-03 0.713E-03
   -.201E+02 0.666E+02 0.494E+02   0.205E+02 -.680E+02 -.509E+02   -.564E+00 0.153E+01 0.163E+01   0.232E-03 -.876E-03 -.651E-03
   0.337E+02 0.487E+02 -.132E+02   -.343E+02 -.498E+02 0.128E+02   0.707E+00 0.107E+01 0.322E+00   -.444E-03 -.589E-03 0.716E-04
   -.740E+02 0.834E+02 0.466E+02   0.740E+02 -.836E+02 -.464E+02   0.609E-02 0.303E-01 -.194E+00   0.553E-03 -.974E-03 -.232E-03
   0.336E+02 -.487E+02 -.132E+02   -.342E+02 0.498E+02 0.128E+02   0.704E+00 -.107E+01 0.321E+00   -.440E-03 0.590E-03 0.742E-04
   -.740E+02 -.835E+02 0.466E+02   0.740E+02 0.836E+02 -.464E+02   0.606E-02 -.326E-01 -.191E+00   0.546E-03 0.972E-03 -.236E-03
   0.372E+02 -.580E+02 -.572E+02   -.369E+02 0.577E+02 0.575E+02   -.378E+00 0.394E+00 -.301E+00   -.208E-03 0.741E-03 0.702E-03
   -.200E+02 -.666E+02 0.494E+02   0.204E+02 0.680E+02 -.509E+02   -.563E+00 -.154E+01 0.163E+01   0.227E-03 0.862E-03 -.626E-03
   0.191E+02 -.103E-01 0.380E+02   -.189E+02 0.105E-01 -.384E+02   -.167E+00 -.219E-04 0.441E+00   -.123E-03 -.233E-05 -.124E-03
   -.396E+02 0.189E-01 0.790E+02   0.394E+02 -.192E-01 -.794E+02   0.164E+00 0.184E-03 0.348E+00   0.528E-03 0.484E-06 -.847E-04
   -.299E+01 0.488E-01 0.193E+02   0.305E+01 -.496E-01 -.195E+02   -.584E-01 0.361E-03 0.193E+00   -.199E-04 0.523E-06 0.808E-04
   0.151E+01 0.113E-01 0.489E+02   -.158E+01 -.117E-01 -.492E+02   0.857E-01 0.419E-03 0.275E+00   0.143E-03 -.494E-06 0.889E-04
   0.405E+02 0.221E-01 -.994E+02   -.405E+02 -.226E-01 0.100E+03   0.232E-01 0.602E-03 -.527E+00   -.230E-03 -.166E-05 0.605E-03
   -.145E+02 0.380E-01 -.238E+02   0.144E+02 -.387E-01 0.242E+02   -.803E-01 0.257E-03 -.714E-01   0.616E-05 -.253E-07 -.473E-04
   -.134E+02 -.444E-03 -.316E+02   0.137E+02 0.581E-03 0.318E+02   -.321E+00 -.850E-04 -.200E+00   -.504E-04 0.108E-05 0.135E-04
   -.210E+02 0.102E-01 -.284E+02   0.210E+02 -.105E-01 0.287E+02   -.293E-01 0.296E-03 -.256E+00   -.114E-03 0.342E-06 -.205E-03
   0.701E+01 -.603E+01 0.153E+02   -.693E+01 0.591E+01 -.156E+02   -.711E-01 0.110E+00 0.234E+00   -.177E-03 0.357E-03 0.305E-04
   -.480E+02 -.205E+02 0.323E+02   0.483E+02 0.203E+02 -.325E+02   -.280E+00 0.209E+00 0.107E+00   0.100E-03 0.128E-03 0.374E-04
   0.338E+02 -.186E+01 0.158E+02   -.340E+02 0.145E+01 -.158E+02   0.129E+00 -.538E+00 -.114E-01   -.186E-03 0.105E-03 0.146E-04
   0.856E+01 -.235E+02 0.220E+02   -.865E+01 0.236E+02 -.223E+02   0.785E-01 -.102E+00 0.274E+00   0.142E-03 0.188E-03 -.507E-04
   -.211E+02 0.205E+01 -.232E+02   0.214E+02 -.187E+01 0.236E+02   -.245E+00 -.169E+00 -.403E+00   0.158E-03 -.564E-04 -.295E-04
   -.166E+02 0.329E+02 -.326E+02   0.168E+02 -.326E+02 0.328E+02   -.155E+00 -.230E+00 -.106E+00   -.444E-04 -.640E-03 0.742E-04
   0.458E+02 0.673E+02 -.706E+02   -.462E+02 -.677E+02 0.710E+02   0.279E+00 0.377E+00 -.414E+00   -.275E-04 -.217E-03 0.274E-03
   -.579E+00 0.491E+02 0.113E+02   0.376E+00 -.493E+02 -.111E+02   0.241E+00 0.123E+00 -.199E+00   0.130E-03 -.442E-03 -.339E-03
   0.700E+01 0.602E+01 0.153E+02   -.691E+01 -.590E+01 -.155E+02   -.713E-01 -.110E+00 0.234E+00   -.181E-03 -.353E-03 0.341E-04
   -.480E+02 0.205E+02 0.323E+02   0.482E+02 -.203E+02 -.325E+02   -.280E+00 -.209E+00 0.107E+00   0.101E-03 -.129E-03 0.369E-04
   0.338E+02 0.186E+01 0.158E+02   -.340E+02 -.145E+01 -.159E+02   0.129E+00 0.538E+00 -.114E-01   -.194E-03 -.101E-03 0.100E-04
   0.855E+01 0.235E+02 0.220E+02   -.864E+01 -.236E+02 -.223E+02   0.784E-01 0.102E+00 0.275E+00   0.144E-03 -.187E-03 -.517E-04
   0.458E+02 -.673E+02 -.706E+02   -.462E+02 0.677E+02 0.710E+02   0.278E+00 -.377E+00 -.414E+00   -.264E-04 0.217E-03 0.271E-03
   -.595E+00 -.492E+02 0.113E+02   0.392E+00 0.493E+02 -.111E+02   0.241E+00 -.123E+00 -.199E+00   0.127E-03 0.442E-03 -.336E-03
   -.211E+02 -.206E+01 -.232E+02   0.214E+02 0.187E+01 0.236E+02   -.245E+00 0.169E+00 -.404E+00   0.158E-03 0.574E-04 -.275E-04
   -.166E+02 -.329E+02 -.327E+02   0.168E+02 0.326E+02 0.328E+02   -.155E+00 0.229E+00 -.107E+00   -.501E-04 0.643E-03 0.676E-04
   0.198E+02 0.163E-02 0.300E+02   -.196E+02 -.157E-02 -.300E+02   0.934E-01 -.211E-03 -.374E+00   -.526E-03 -.501E-06 -.217E-03
 -----------------------------------------------------------------------------------------------
   0.773E+00 0.123E-01 -.206E+01   0.355E-13 0.693E-13 -.110E-12   -.105E+01 -.122E-01 0.205E+01   0.522E-03 -.360E-04 -.401E-03


 POSITION                                       TOTAL-FORCE (eV/Angst)
 -----------------------------------------------------------------------------------
      0.46175      2.94088      3.77297         0.013500      0.000049      0.003181
      0.48754      2.94098     12.03146         0.023247     -0.000025      0.003070
     -4.73816      8.82288      7.73926        -0.004532     -0.000018     -0.038144
     -3.79851      2.94100      8.24742         0.018266     -0.000032     -0.008788
      4.57393      2.94100      8.04442         0.044241     -0.000104      0.034849
     -0.40787      8.82288     12.30662         0.026655     -0.000030      0.022144
      8.34177     11.72360      8.08083        -0.049819     -0.024464      0.022453
      0.02229      0.01865      8.09166        -0.150911      0.157852      0.187197
     -4.13122      0.01167     12.06035         0.148088      0.027494     -0.076470
     -4.19225     11.75835      4.03861        -0.006179     -0.078762     -0.031196
     -4.13135      5.87001     12.06033         0.148273     -0.027497     -0.076470
     -4.19225      5.88730      4.03866        -0.006067      0.079089     -0.031172
      8.34164      5.92181      8.08080        -0.049814      0.024469      0.022146
      0.02241      5.86339      8.09175        -0.151138     -0.157716      0.187073
     -4.01244      8.82271     11.34489        -0.054516      0.000054      0.053687
      4.01312      8.82290     11.79356        -0.010342     -0.000078      0.031793
     -0.14000      2.94102     15.62552         0.008019     -0.000292      0.000074
     -0.23709      2.94108      7.66205         0.027582      0.000176     -0.039938
      0.16581      8.82281      0.58861         0.025770      0.000168     -0.002119
      0.05722      8.82308      8.66065        -0.168322     -0.000168      0.308380
     -3.85926      2.94085     12.42539        -0.025161     -0.000047     -0.019254
     -4.32744      2.94098      4.67252        -0.002038      0.000089      0.011205
     -5.96367      5.45476      9.71047         0.019836     -0.008055      0.012642
      2.40842      5.30068      9.79083        -0.053071     -0.014038     -0.037832
      1.86956      5.70631      5.71029        -0.017950     -0.911233     -0.078532
      1.67930      6.20403     13.75485        -0.010851      0.001930      0.017654
     -1.58008      0.31315     10.55647         0.029496      0.014329     -0.032472
     -1.84219      0.58717      2.32681         0.004745      0.032886      0.015247
      5.88867     11.24375      6.43825        -0.048555     -0.000738     -0.039370
     -2.57079     11.49691      6.56867         0.047648      0.011516      0.023600
     -5.96365      0.42711      9.71044         0.019822      0.008021      0.012648
      2.40839      0.58132      9.79093        -0.053164      0.014000     -0.037967
      1.86956      0.17554      5.71037        -0.017843      0.911384     -0.078666
      1.67926     11.44177     13.75492        -0.010758     -0.002004      0.017538
      5.88875      6.40188      6.43821        -0.048740      0.000743     -0.039370
     -2.57077      6.14895      6.56867         0.047624     -0.011595      0.023564
     -1.58005      5.56880     10.55648         0.029598     -0.014292     -0.032625
     -1.84217      5.29469      2.32685         0.004812     -0.032918      0.015194
      1.80674      8.82284      5.87142         0.252548     -0.000141     -0.324953
 -----------------------------------------------------------------------------------
    total drift:                               -0.274304     -0.000020     -0.010440


--------------------------------------------------------------------------------------------------------



  FREE ENERGIE OF THE ION-ELECTRON SYSTEM (eV)
  ---------------------------------------------------
  free  energy   TOTEN  =     -1386.19668331 eV

  energy  without entropy=    -1386.19668331  energy(sigma->0) =    -1386.19668331



--------------------------------------------------------------------------------------------------------


    POTLOK:  cpu time    1.4375: real time    1.4376


--------------------------------------------------------------------------------------------------------


 stress matrix after NEB project (eV)
      5.68443     -0.00089     -3.42587
     -0.00089     13.94780      0.00061
     -3.42579      0.00061      7.72050
  FORCES: max atom, RMS     0.914947    0.240772
  FORCE total and by dimension    1.503620    0.911384
  Stress total and by dimension   17.604907   13.947804
     LOOP+:  cpu time  428.4778: real time  429.0719
    4ORBIT:  cpu time    0.0000: real time    0.0000



 total charge     

# of ion       s       p       d       tot
------------------------------------------
    1        1.787   4.722   0.021   6.529
    2        1.787   4.721   0.022   6.530
    3        1.786   4.721   0.021   6.528
    4        1.787   4.721   0.022   6.530
    5        1.786   4.721   0.019   6.525
    6        1.786   4.721   0.020   6.527
    7        1.554   0.421   9.834  11.809
    8        1.551   0.433   9.834  11.818
    9        1.553   0.433   9.835  11.821
   10        1.555   0.418   9.834  11.806
   11        1.553   0.433   9.835  11.821
   12        1.555   0.418   9.834  11.806
   13        1.554   0.421   9.834  11.809
   14        1.551   0.433   9.834  11.818
   15        1.615   3.292   0.006   4.913
   16        1.615   3.278   0.006   4.899
   17        1.614   3.290   0.006   4.910
   18        1.615   3.290   0.007   4.912
   19        1.615   3.282   0.006   4.904
   20        1.616   3.300   0.007   4.922
   21        1.615   3.288   0.007   4.910
   22        1.614   3.292   0.006   4.913
   23        1.614   3.289   0.006   4.909
   24        1.614   3.288   0.006   4.909
   25        1.617   3.314   0.009   4.940
   26        1.614   3.291   0.006   4.912
   27        1.615   3.290   0.007   4.912
   28        1.615   3.289   0.006   4.910
   29        1.615   3.278   0.006   4.900
   30        1.614   3.287   0.006   4.907
   31        1.614   3.289   0.006   4.909
   32        1.614   3.288   0.006   4.909
   33        1.617   3.314   0.009   4.940
   34        1.614   3.291   0.006   4.912
   35        1.615   3.278   0.006   4.900
   36        1.614   3.287   0.006   4.907
   37        1.615   3.290   0.007   4.912
   38        1.615   3.289   0.006   4.910
   39        1.799   4.733   0.048   6.580
--------------------------------------------------
tot         63.701 115.436  79.000 258.137


 total amount of memory used by VASP MPI-rank0    61015. kBytes
=======================================================================

   base      :      30000. kBytes
   nonlr-proj:       6427. kBytes
   fftplans  :       8423. kBytes
   grid      :       7942. kBytes
   one-center:         77. kBytes
   wavefun   :       8146. kBytes

  
  
 General timing and accounting informations for this job:
 ========================================================
  
                  Total CPU time used (sec):      440.891
                            User time (sec):      439.572
                          System time (sec):        1.320
                         Elapsed time (sec):      441.867
  
                   Maximum memory used (kb):       78596.
                   Average memory used (kb):           0.
  
                          Minor page faults:        20945
                          Major page faults:            2
                 Voluntary context switches:         1528
