<?xml version="1.0" encoding="ISO-8859-1"?>
<modeling>
 <generator>
  <i name="program" type="string">vasp </i>
  <i name="version" type="string">5.4.4.18Apr17-6-g9f103f2a35  </i>
  <i name="subversion" type="string">(build Jun 22 2020 09:27:21) complex            parallel </i>
  <i name="platform" type="string">tx2_gcc-7.3_libsci-18.07_cray-fftw-3.3.8 </i>
  <i name="date" type="string">2021 10 12 </i>
  <i name="time" type="string">05:52:04 </i>
 </generator>
 <incar>
  <i type="string" name="SYSTEM"> CsPbBr3 cubic bulk</i>
  <i type="string" name="PREC">accurate</i>
  <i type="string" name="ALGO"> NORMAL   ! Electronic minimisation algo</i>
  <i type="logical" name="ADDGRID"> T  </i>
  <i type="int" name="ISPIN">     1</i>
  <i type="int" name="NELM">   200</i>
  <i type="int" name="IBRION">     2</i>
  <i name="EDIFF">      0.00000100</i>
  <i name="EDIFFG">     -0.01000000</i>
  <i type="int" name="NSW">     0</i>
  <i type="int" name="ISIF">     2</i>
  <i type="int" name="ISYM">     0</i>
  <i name="ENCUT">    300.00000000</i>
  <i name="POTIM">      0.50000000</i>
  <i name="NUPDOWN">      0.00000000</i>
  <i name="NELECT">    344.00000000</i>
  <i type="string" name="LREAL"> AUTO</i>
  <i type="int" name="ISMEAR">     0</i>
  <i name="SIGMA">      0.01000000</i>
  <i type="logical" name="LWAVE"> F  </i>
  <i type="logical" name="LCHARG"> F  </i>
  <i type="logical" name="LVHAR"> T  </i>
  <i type="int" name="LORBIT">    10</i>
  <i type="logical" name="LASPH"> T  </i>
  <v type="int" name="KPOINT_BSE">    -1     0     0     0</v>
  <i type="int" name="NELM">   200</i>
  <i type="string" name="METAGGA"> SCAN       ! PBE exchange-correlation</i>
  <i type="logical" name="LASPH"> T  </i>
 </incar>
 <structure name="primitive_cell" >
  <crystal>
   <varray name="basis" >
    <v>       8.42001800       0.00000000       8.07798100 </v>
    <v>       0.00000000      11.76380800       0.00000000 </v>
    <v>      -8.42001800       0.00000000       8.07798100 </v>
   </varray>
   <i name="volume">   1600.27186790 </i>
   <varray name="rec_basis" >
    <v>       0.05938230      -0.00000000       0.06189665 </v>
    <v>       0.00000000       0.08500649      -0.00000000 </v>
    <v>      -0.05938230       0.00000000       0.06189665 </v>
   </varray>
  </crystal>
  <varray name="positions" >
   <v>       0.26095400       0.24999400       0.20611500 </v>
   <v>       0.03462800       0.04991300       0.25341500 </v>
   <v>       0.03463200       0.45008300       0.25341700 </v>
   <v>       0.46447100       0.01492200       0.24243400 </v>
   <v>       0.46446700       0.48507300       0.24242900 </v>
   <v>       0.24690900       0.03630700      -0.04482100 </v>
   <v>       0.24690900       0.46369000      -0.04481800 </v>
   <v>       0.46017600       0.25001100       0.48833400 </v>
   <v>      -0.46008200       0.24999100      -0.00173800 </v>
   <v>      -0.04114600       0.25000600      -0.02451900 </v>
   <v>      -0.49883500       0.49898900      -0.00817700 </v>
   <v>      -0.49882600       0.00099200      -0.00818300 </v>
   <v>      -0.00448000      -0.49660800       0.00482900 </v>
   <v>      -0.00447000      -0.00341800       0.00482300 </v>
   <v>       0.03224000       0.25000200      -0.45381300 </v>
   <v>       0.25391900      -0.02268800      -0.44076200 </v>
   <v>       0.25392000      -0.47729900      -0.44076300 </v>
   <v>      -0.49783000       0.00158500       0.49952300 </v>
   <v>      -0.49781700       0.49842600       0.49952200 </v>
   <v>       0.28492300       0.25000400      -0.26394800 </v>
   <v>       0.00103100      -0.00046400       0.49892200 </v>
   <v>       0.00103400      -0.49954100       0.49892500 </v>
   <v>      -0.23046700       0.25000400       0.22631200 </v>
   <v>       0.47071000      -0.25000100       0.25613300 </v>
   <v>       0.04627900      -0.25000400       0.02658700 </v>
   <v>      -0.25096300       0.45059200       0.46300200 </v>
   <v>      -0.25095800       0.04941600       0.46301000 </v>
   <v>      -0.25181100      -0.04420800       0.04882300 </v>
   <v>      -0.25180900      -0.45579900       0.04881600 </v>
   <v>      -0.44041900       0.02662000      -0.25276100 </v>
   <v>      -0.44041600       0.47338400      -0.25276200 </v>
   <v>      -0.04889800      -0.02737500      -0.24833500 </v>
   <v>      -0.04890000      -0.47261700      -0.24834100 </v>
   <v>       0.46394300      -0.25001200      -0.05952100 </v>
   <v>      -0.03171000      -0.24999600       0.49167400 </v>
   <v>      -0.46053700      -0.24998100      -0.46733300 </v>
   <v>       0.19767100      -0.24999800      -0.23960300 </v>
   <v>      -0.22634200       0.25000200      -0.28424400 </v>
   <v>      -0.26248200      -0.24999800      -0.21404100 </v>
  </varray>
 </structure>
 <varray name="primitive_index" >
  <v type="int" >        1 </v>
  <v type="int" >       28 </v>
  <v type="int" >       38 </v>
  <v type="int" >       33 </v>
  <v type="int" >       25 </v>
  <v type="int" >       31 </v>
  <v type="int" >       23 </v>
  <v type="int" >       18 </v>
  <v type="int" >       21 </v>
  <v type="int" >       17 </v>
  <v type="int" >       11 </v>
  <v type="int" >        9 </v>
  <v type="int" >       13 </v>
  <v type="int" >        7 </v>
  <v type="int" >       22 </v>
  <v type="int" >       30 </v>
  <v type="int" >       36 </v>
  <v type="int" >        8 </v>
  <v type="int" >       14 </v>
  <v type="int" >        4 </v>
  <v type="int" >       10 </v>
  <v type="int" >       12 </v>
  <v type="int" >        5 </v>
  <v type="int" >       39 </v>
  <v type="int" >       19 </v>
  <v type="int" >       24 </v>
  <v type="int" >       32 </v>
  <v type="int" >       29 </v>
  <v type="int" >       35 </v>
  <v type="int" >       27 </v>
  <v type="int" >       37 </v>
  <v type="int" >       34 </v>
  <v type="int" >       26 </v>
  <v type="int" >       15 </v>
  <v type="int" >       16 </v>
  <v type="int" >       20 </v>
  <v type="int" >        3 </v>
  <v type="int" >        2 </v>
  <v type="int" >        6 </v>
 </varray>
 <kpoints>
  <generation param="Gamma">
   <v type="int" name="divisions">       2        2        2 </v>
   <v name="usershift">      0.00000000       0.00000000       0.00000000 </v>
   <v name="genvec1">      0.50000000       0.00000000       0.00000000 </v>
   <v name="genvec2">      0.00000000       0.50000000       0.00000000 </v>
   <v name="genvec3">      0.00000000       0.00000000       0.50000000 </v>
   <v name="shift">      0.00000000       0.00000000       0.00000000 </v>
  </generation>
  <varray name="kpointlist" >
   <v>       0.00000000       0.00000000       0.00000000 </v>
   <v>       0.50000000       0.00000000       0.00000000 </v>
   <v>       0.00000000       0.50000000       0.00000000 </v>
   <v>       0.50000000       0.50000000       0.00000000 </v>
   <v>       0.00000000       0.00000000       0.50000000 </v>
   <v>       0.50000000       0.00000000       0.50000000 </v>
   <v>       0.00000000       0.50000000       0.50000000 </v>
   <v>       0.50000000       0.50000000       0.50000000 </v>
  </varray>
  <varray name="weights" >
   <v>       0.12500000 </v>
   <v>       0.12500000 </v>
   <v>       0.12500000 </v>
   <v>       0.12500000 </v>
   <v>       0.12500000 </v>
   <v>       0.12500000 </v>
   <v>       0.12500000 </v>
   <v>       0.12500000 </v>
  </varray>
 </kpoints>
 <parameters>
  <separator name="general" >
   <i type="string" name="SYSTEM">CsPbBr3 cubic bulk</i>
   <i type="logical" name="LCOMPAT"> F  </i>
  </separator>
  <separator name="electronic" >
   <i type="string" name="PREC">accura</i>
   <i name="ENMAX">    300.00000000</i>
   <i name="ENAUG">    503.85200000</i>
   <i name="EDIFF">      0.00000100</i>
   <i type="int" name="IALGO">    38</i>
   <i type="int" name="IWAVPR">    10</i>
   <i type="int" name="NBANDS">   208</i>
   <i name="NELECT">    344.00000000</i>
   <i type="int" name="TURBO">     0</i>
   <i type="int" name="IRESTART">     0</i>
   <i type="int" name="NREBOOT">     0</i>
   <i type="int" name="NMIN">     0</i>
   <i name="EREF">      0.00000000</i>
   <separator name="electronic smearing" >
    <i type="int" name="ISMEAR">     0</i>
    <i name="SIGMA">      0.01000000</i>
    <i name="KSPACING">      0.50000000</i>
    <i type="logical" name="KGAMMA"> T  </i>
   </separator>
   <separator name="electronic projectors" >
    <i type="logical" name="LREAL"> T  </i>
    <v name="ROPT">     -0.00025000     -0.00025000     -0.00025000     -0.00025000</v>
    <i type="int" name="LMAXPAW">  -100</i>
    <i type="int" name="LMAXMIX">     2</i>
    <i type="logical" name="NLSPLINE"> F  </i>
   </separator>
   <separator name="electronic startup" >
    <i type="int" name="ISTART">     0</i>
    <i type="int" name="ICHARG">     2</i>
    <i type="int" name="INIWAV">     1</i>
   </separator>
   <separator name="electronic spin" >
    <i type="int" name="ISPIN">     1</i>
    <i type="logical" name="LNONCOLLINEAR"> F  </i>
    <v name="MAGMOM">      0.00000000      0.00000000      0.00000000      0.00000000      0.00000000      0.00000000      0.00000000      0.00000000      0.00000000      0.00000000      0.00000000      0.00000000      0.00000000      0.00000000      0.00000000      0.00000000      0.00000000      0.00000000      0.00000000      0.00000000
      0.00000000      0.00000000      0.00000000      0.00000000      0.00000000      0.00000000      0.00000000      0.00000000      0.00000000      0.00000000      0.00000000      0.00000000      0.00000000      0.00000000      0.00000000      0.00000000      0.00000000      0.00000000      0.00000000</v>
    <i name="NUPDOWN">      0.00000000</i>
    <i type="logical" name="LSORBIT"> F  </i>
    <v name="SAXIS">      0.00000000      0.00000000      1.00000000</v>
    <i type="logical" name="LSPIRAL"> F  </i>
    <v name="QSPIRAL">      0.00000000      0.00000000      0.00000000</v>
    <i type="logical" name="LZEROZ"> F  </i>
   </separator>
   <separator name="electronic exchange-correlation" >
    <i type="logical" name="LASPH"> T  </i>
    <i type="logical" name="LMETAGGA"> F  </i>
   </separator>
   <separator name="electronic convergence" >
    <i type="int" name="NELM">   200</i>
    <i type="int" name="NELMDL">    -5</i>
    <i type="int" name="NELMIN">     2</i>
    <i name="ENINI">    300.00000000</i>
    <separator name="electronic convergence detail" >
     <i type="logical" name="LDIAG"> T  </i>
     <i type="logical" name="LSUBROT"> F  </i>
     <i name="WEIMIN">      0.00000000</i>
     <i name="EBREAK">      0.00000000</i>
     <i name="DEPER">      0.30000000</i>
     <i type="int" name="NRMM">     4</i>
     <i name="TIME">      0.40000000</i>
    </separator>
   </separator>
   <separator name="electronic mixer" >
    <i name="AMIX">      0.40000000</i>
    <i name="BMIX">      1.00000000</i>
    <i name="AMIN">      0.10000000</i>
    <i name="AMIX_MAG">      1.60000000</i>
    <i name="BMIX_MAG">      1.00000000</i>
    <separator name="electronic mixer details" >
     <i type="int" name="IMIX">     4</i>
     <i type="logical" name="MIXFIRST"> F  </i>
     <i type="int" name="MAXMIX">   -45</i>
     <i name="WC">    100.00000000</i>
     <i type="int" name="INIMIX">     1</i>
     <i type="int" name="MIXPRE">     1</i>
     <i type="int" name="MREMOVE">     5</i>
    </separator>
   </separator>
   <separator name="electronic dipolcorrection" >
    <i type="logical" name="LDIPOL"> F  </i>
    <i type="logical" name="LMONO"> F  </i>
    <i type="int" name="IDIPOL">     0</i>
    <i name="EPSILON">      1.00000000</i>
    <v name="DIPOL">   -100.00000000   -100.00000000   -100.00000000</v>
    <i name="EFIELD">      0.00000000</i>
   </separator>
  </separator>
  <separator name="grids" >
   <i type="int" name="NGX">    70</i>
   <i type="int" name="NGY">    70</i>
   <i type="int" name="NGZ">    70</i>
   <i type="int" name="NGXF">   140</i>
   <i type="int" name="NGYF">   140</i>
   <i type="int" name="NGZF">   140</i>
   <i type="logical" name="ADDGRID"> T  </i>
  </separator>
  <separator name="ionic" >
   <i type="int" name="NSW">     0</i>
   <i type="int" name="IBRION">    -1</i>
   <i type="int" name="MDALGO">     0</i>
   <i type="int" name="ISIF">     2</i>
   <i name="PSTRESS">      0.00000000</i>
   <i name="EDIFFG">     -0.01000000</i>
   <i type="int" name="NFREE">     1</i>
   <i name="POTIM">      0.50000000</i>
   <i name="SMASS">     -3.00000000</i>
   <i name="SCALEE">      1.00000000</i>
  </separator>
  <separator name="ionic md" >
   <i name="TEBEG">      0.00010000</i>
   <i name="TEEND">      0.00010000</i>
   <i type="int" name="NBLOCK">     1</i>
   <i type="int" name="KBLOCK">     1</i>
   <i type="int" name="NPACO">   256</i>
   <i name="APACO">     16.00000000</i>
  </separator>
  <separator name="symmetry" >
   <i type="int" name="ISYM">     0</i>
   <i name="SYMPREC">      0.00001000</i>
  </separator>
  <separator name="dos" >
   <i type="int" name="LORBIT">    10</i>
   <v name="RWIGS">     -1.00000000     -1.00000000     -1.00000000     -1.00000000</v>
   <i type="int" name="NEDOS">   301</i>
   <i name="EMIN">     10.00000000</i>
   <i name="EMAX">    -10.00000000</i>
   <i name="EFERMI">      0.00000000</i>
  </separator>
  <separator name="writing" >
   <i type="int" name="NWRITE">     2</i>
   <i type="logical" name="LWAVE"> F  </i>
   <i type="logical" name="LDOWNSAMPLE"> F  </i>
   <i type="logical" name="LCHARG"> F  </i>
   <i type="logical" name="LPARD"> F  </i>
   <i type="logical" name="LVTOT"> F  </i>
   <i type="logical" name="LVHAR"> T  </i>
   <i type="logical" name="LELF"> F  </i>
   <i type="logical" name="LOPTICS"> F  </i>
   <v name="STM">      0.00000000      0.00000000      0.00000000      0.00000000      0.00000000      0.00000000      0.00000000</v>
  </separator>
  <separator name="performance" >
   <i type="int" name="NPAR">     8</i>
   <i type="int" name="NSIM">     4</i>
   <i type="int" name="NBLK">    -1</i>
   <i type="logical" name="LPLANE"> T  </i>
   <i type="logical" name="LSCALAPACK"> T  </i>
   <i type="logical" name="LSCAAWARE"> F  </i>
   <i type="logical" name="LSCALU"> F  </i>
   <i type="logical" name="LASYNC"> F  </i>
   <i type="logical" name="LORBITALREAL"> F  </i>
  </separator>
  <separator name="miscellaneous" >
   <i type="int" name="IDIOT">     3</i>
   <i type="int" name="ISPECIAL">     0</i>
   <i type="logical" name="LMUSIC"> F  </i>
   <v name="POMASS">    132.90000000    207.20000000     79.90400000    132.90000000</v>
   <v name="DARWINR">      0.00000000      0.00000000      0.00000000      0.00000000</v>
   <v name="DARWINV">      1.00000000      1.00000000      1.00000000      1.00000000</v>
   <i type="logical" name="LCORR"> T  </i>
  </separator>
  <i type="logical" name="GGA_COMPAT"> T  </i>
  <i type="logical" name="LBERRY"> F  </i>
  <i type="int" name="ICORELEVEL">     0</i>
  <i type="logical" name="LDAU"> F  </i>
  <i type="int" name="I_CONSTRAINED_M">     0</i>
  <separator name="electronic exchange-correlation" >
   <i type="string" name="GGA">--</i>
   <i type="int" name="VOSKOWN">     0</i>
   <i type="logical" name="LHFCALC"> F  </i>
   <i type="string" name="PRECFOCK"></i>
   <i type="logical" name="LSYMGRAD"> F  </i>
   <i type="logical" name="LHFONE"> F  </i>
   <i type="logical" name="LRHFCALC"> F  </i>
   <i type="logical" name="LTHOMAS"> F  </i>
   <i type="logical" name="LMODELHF"> F  </i>
   <i name="ENCUT4O">     -1.00000000</i>
   <i type="int" name="EXXOEP">     0</i>
   <i type="int" name="FOURORBIT">     0</i>
   <i name="AEXX">      0.00000000</i>
   <i name="HFALPHA">      0.00000000</i>
   <i name="MCALPHA">      0.00000000</i>
   <i name="ALDAX">      1.00000000</i>
   <i name="AGGAX">      1.00000000</i>
   <i name="ALDAC">      1.00000000</i>
   <i name="AGGAC">      1.00000000</i>
   <i type="int" name="NKREDX">     1</i>
   <i type="int" name="NKREDY">     1</i>
   <i type="int" name="NKREDZ">     1</i>
   <i type="logical" name="SHIFTRED"> F  </i>
   <i type="logical" name="ODDONLY"> F  </i>
   <i type="logical" name="EVENONLY"> F  </i>
   <i type="int" name="LMAXFOCK">     0</i>
   <i type="int" name="NMAXFOCKAE">     0</i>
   <i type="logical" name="LFOCKAEDFT"> F  </i>
   <i name="HFSCREEN">      0.00000000</i>
   <i name="HFSCREENC">      0.00000000</i>
   <i type="int" name="NBANDSGWLOW">     0</i>
  </separator>
  <separator name="vdW DFT" >
   <i type="logical" name="LUSE_VDW"> F  </i>
   <i name="Zab_VDW">     -0.84910000</i>
   <i name="PARAM1">      0.12340000</i>
   <i name="PARAM2">      1.00000000</i>
   <i name="PARAM3">      0.00000000</i>
  </separator>
  <separator name="model GW" >
   <i type="int" name="MODEL_GW">     0</i>
   <i name="MODEL_EPS0">     24.61956720</i>
   <i name="MODEL_ALPHA">      1.00000000</i>
  </separator>
  <separator name="linear response parameters" >
   <i type="logical" name="LEPSILON"> F  </i>
   <i type="logical" name="LRPA"> F  </i>
   <i type="logical" name="LNABLA"> F  </i>
   <i type="logical" name="LVEL"> F  </i>
   <i type="int" name="KINTER">     0</i>
   <i name="CSHIFT">      0.10000000</i>
   <i name="OMEGAMAX">     -1.00000000</i>
   <i name="DEG_THRESHOLD">      0.00200000</i>
   <i name="RTIME">     -0.10000000</i>
   <i name="WPLASMAI">      0.00000000</i>
   <v name="DFIELD">      0.00000000      0.00000000      0.00000000</v>
   <v name="WPLASMA">      0.00000000      0.00000000      0.00000000      0.00000000      0.00000000      0.00000000      0.00000000      0.00000000      0.00000000</v>
  </separator>
  <separator name="orbital magnetization" >
   <i type="logical" name="NUCIND"> F  </i>
   <v name="MAGPOS">      0.00000000      0.00000000      0.00000000</v>
   <i type="logical" name="LNICSALL"> T  </i>
   <i type="logical" name="ORBITALMAG"> F  </i>
   <i type="logical" name="LMAGBLOCH"> F  </i>
   <i type="logical" name="LCHIMAG"> F  </i>
   <i type="logical" name="LGAUGE"> T  </i>
   <i type="int" name="MAGATOM">     0</i>
   <v name="MAGDIPOL">      0.00000000      0.00000000      0.00000000</v>
   <v name="AVECCONST">      0.00000000      0.00000000      0.00000000</v>
  </separator>
  <separator name="response functions" >
   <i type="logical" name="LADDER"> F  </i>
   <i type="logical" name="LRPAFORCE"> F  </i>
   <i type="logical" name="LFXC"> F  </i>
   <i type="logical" name="LHARTREE"> T  </i>
   <i type="int" name="IBSE">     0</i>
   <v type="int" name="KPOINT">    -1     0     0     0</v>
   <i type="logical" name="LTCTE"> F  </i>
   <i type="logical" name="LTETE"> F  </i>
   <i type="logical" name="LTRIPLET"> F  </i>
   <i type="logical" name="LFXCEPS"> F  </i>
   <i type="logical" name="LFXHEG"> F  </i>
   <i type="int" name="NATURALO">     2</i>
   <i type="logical" name="L2ORDER"> F  </i>
   <i type="logical" name="LMP2LT"> F  </i>
   <i type="logical" name="LUSEW"> F  </i>
   <i name="ENCUTGW">     -2.00000000</i>
   <i name="ENCUTGWSOFT">     -2.00000000</i>
   <i name="ENCUTLF">     -1.00000000</i>
   <i type="int" name="LMAXMP2">    -1</i>
   <i name="SCISSOR">      0.00000000</i>
   <i type="int" name="NOMEGA">     0</i>
   <i type="int" name="NOMEGAR">     0</i>
   <i type="int" name="NBANDSGW">    -1</i>
   <i type="int" name="NBANDSO">    -1</i>
   <i type="int" name="NBANDSV">    -1</i>
   <i type="int" name="NELM">   200</i>
   <i type="int" name="NELMHF">     1</i>
   <i type="int" name="DIM">     3</i>
   <i type="int" name="ANTIRES">     0</i>
   <i name="OMEGAMAX">    -30.00000000</i>
   <i name="OMEGAMIN">    -30.00000000</i>
   <i name="OMEGATL">   -200.00000000</i>
   <i type="int" name="OMEGAGRID">   140</i>
   <i name="CSHIFT">     -0.10000000</i>
   <i type="logical" name="SELFENERGY"> F  </i>
   <i type="logical" name="LSPECTRAL"> F  </i>
   <i type="logical" name="LSPECTRALGW"> F  </i>
   <i type="logical" name="LSINGLES"> F  </i>
   <i type="logical" name="LFERMIGW"> F  </i>
   <i type="logical" name="ODDONLYGW"> F  </i>
   <i type="logical" name="EVENONLYGW"> F  </i>
   <i type="int" name="NKREDLFX">     1</i>
   <i type="int" name="NKREDLFY">     1</i>
   <i type="int" name="NKREDLFZ">     1</i>
   <i type="int" name="MAXMEM">  2800</i>
   <i type="int" name="TELESCOPE">     0</i>
   <i type="int" name="TAUPAR">     1</i>
   <i type="int" name="OMEGAPAR">    -1</i>
   <i name="LAMBDA">      1.00000000</i>
  </separator>
  <separator name="External order field" >
   <i name="OFIELD_KAPPA">      0.00000000</i>
   <v name="OFIELD_K">      0.00000000      0.00000000      0.00000000</v>
   <i name="OFIELD_Q6_NEAR">      0.00000000</i>
   <i name="OFIELD_Q6_FAR">      0.00000000</i>
   <i name="OFIELD_A">      0.00000000</i>
  </separator>
 </parameters>
 <atominfo>
  <atoms>      39 </atoms>
  <types>       4 </types>
  <array name="atoms" >
   <dimension dim="1">ion</dimension>
   <field type="string">element</field>
   <field type="int">atomtype</field>
   <set>
    <rc><c>Cs</c><c>   1</c></rc>
    <rc><c>Cs</c><c>   1</c></rc>
    <rc><c>Cs</c><c>   1</c></rc>
    <rc><c>Cs</c><c>   1</c></rc>
    <rc><c>Cs</c><c>   1</c></rc>
    <rc><c>Cs</c><c>   1</c></rc>
    <rc><c>Pb</c><c>   2</c></rc>
    <rc><c>Pb</c><c>   2</c></rc>
    <rc><c>Pb</c><c>   2</c></rc>
    <rc><c>Pb</c><c>   2</c></rc>
    <rc><c>Pb</c><c>   2</c></rc>
    <rc><c>Pb</c><c>   2</c></rc>
    <rc><c>Pb</c><c>   2</c></rc>
    <rc><c>Pb</c><c>   2</c></rc>
    <rc><c>Br</c><c>   3</c></rc>
    <rc><c>Br</c><c>   3</c></rc>
    <rc><c>Br</c><c>   3</c></rc>
    <rc><c>Br</c><c>   3</c></rc>
    <rc><c>Br</c><c>   3</c></rc>
    <rc><c>Br</c><c>   3</c></rc>
    <rc><c>Br</c><c>   3</c></rc>
    <rc><c>Br</c><c>   3</c></rc>
    <rc><c>Br</c><c>   3</c></rc>
    <rc><c>Br</c><c>   3</c></rc>
    <rc><c>Br</c><c>   3</c></rc>
    <rc><c>Br</c><c>   3</c></rc>
    <rc><c>Br</c><c>   3</c></rc>
    <rc><c>Br</c><c>   3</c></rc>
    <rc><c>Br</c><c>   3</c></rc>
    <rc><c>Br</c><c>   3</c></rc>
    <rc><c>Br</c><c>   3</c></rc>
    <rc><c>Br</c><c>   3</c></rc>
    <rc><c>Br</c><c>   3</c></rc>
    <rc><c>Br</c><c>   3</c></rc>
    <rc><c>Br</c><c>   3</c></rc>
    <rc><c>Br</c><c>   3</c></rc>
    <rc><c>Br</c><c>   3</c></rc>
    <rc><c>Br</c><c>   3</c></rc>
    <rc><c>Cs</c><c>   4</c></rc>
   </set>
  </array>
  <array name="atomtypes" >
   <dimension dim="1">type</dimension>
   <field type="int">atomspertype</field>
   <field type="string">element</field>
   <field>mass</field>
   <field>valence</field>
   <field type="string">pseudopotential</field>
   <set>
    <rc><c>   6</c><c>Cs</c><c>    132.90000000</c><c>      9.00000000</c><c>  PAW_PBE Cs_sv 08Apr2002               </c></rc>
    <rc><c>   8</c><c>Pb</c><c>    207.20000000</c><c>     14.00000000</c><c>  PAW_PBE Pb_d 06Sep2000                </c></rc>
    <rc><c>  24</c><c>Br</c><c>     79.90400000</c><c>      7.00000000</c><c>  PAW_PBE Br 06Sep2000                  </c></rc>
    <rc><c>   1</c><c>Cs</c><c>    132.90000000</c><c>      9.00000000</c><c>  PAW_PBE Cs_sv 08Apr2002               </c></rc>
   </set>
  </array>
 </atominfo>
 <structure name="initialpos" >
  <crystal>
   <varray name="basis" >
    <v>       8.42001800       0.00000000       8.07798100 </v>
    <v>       0.00000000      11.76380800       0.00000000 </v>
    <v>      -8.42001800       0.00000000       8.07798100 </v>
   </varray>
   <i name="volume">   1600.27186790 </i>
   <varray name="rec_basis" >
    <v>       0.05938230      -0.00000000       0.06189665 </v>
    <v>       0.00000000       0.08500649      -0.00000000 </v>
    <v>      -0.05938230       0.00000000       0.06189665 </v>
   </varray>
  </crystal>
  <varray name="positions" >
   <v>       0.26095400       0.24999400       0.20611500 </v>
   <v>       0.77365800       0.25000200       0.71575600 </v>
   <v>       0.19767100       0.75000200       0.76039700 </v>
   <v>       0.28492300       0.25000400       0.73605200 </v>
   <v>       0.76953300       0.25000400       0.22631200 </v>
   <v>       0.73751800       0.75000200       0.78595900 </v>
   <v>       0.99553000       0.99658200       0.00482300 </v>
   <v>       0.50217000       0.00158500       0.49952300 </v>
   <v>       0.50117400       0.00099200       0.99181700 </v>
   <v>       0.00103100       0.99953600       0.49892200 </v>
   <v>       0.50116500       0.49898900       0.99182300 </v>
   <v>       0.00103400       0.50045900       0.49892500 </v>
   <v>       0.99552000       0.50339200       0.00482900 </v>
   <v>       0.50218300       0.49842600       0.49952200 </v>
   <v>       0.46394300       0.74998800       0.94047900 </v>
   <v>       0.96829000       0.75000400       0.49167400 </v>
   <v>       0.95885400       0.25000600       0.97548100 </v>
   <v>       0.46017600       0.25001100       0.48833400 </v>
   <v>       0.04627900       0.74999600       0.02658700 </v>
   <v>       0.53946300       0.75001900       0.53266700 </v>
   <v>       0.53991800       0.24999100       0.99826200 </v>
   <v>       0.03224000       0.25000200       0.54618700 </v>
   <v>       0.24690900       0.46369000       0.95518200 </v>
   <v>       0.74903700       0.45059200       0.46300200 </v>
   <v>       0.46446700       0.48507300       0.24242900 </v>
   <v>       0.95110000       0.52738300       0.75165900 </v>
   <v>       0.55958100       0.02662000       0.74723900 </v>
   <v>       0.03462800       0.04991300       0.25341500 </v>
   <v>       0.74818900       0.95579200       0.04882300 </v>
   <v>       0.25391900       0.97731200       0.55923800 </v>
   <v>       0.24690900       0.03630700       0.95517900 </v>
   <v>       0.74904200       0.04941600       0.46301000 </v>
   <v>       0.46447100       0.01492200       0.24243400 </v>
   <v>       0.95110200       0.97262500       0.75166500 </v>
   <v>       0.74819100       0.54420100       0.04881600 </v>
   <v>       0.25392000       0.52270100       0.55923700 </v>
   <v>       0.55958400       0.47338400       0.74723800 </v>
   <v>       0.03463200       0.45008300       0.25341700 </v>
   <v>       0.47071000       0.74999900       0.25613300 </v>
  </varray>
 </structure>
 <calculation>
  <scstep>
   <time name="dav">   16.56   16.56</time>
   <time name="total">   18.03   18.06</time>
   <energy>
    <i name="alphaZ">    835.99855037 </i>
    <i name="ewald"> -17348.37583825 </i>
    <i name="hartreedc">  -7776.75106756 </i>
    <i name="XCdc">    905.78173818 </i>
    <i name="pawpsdc">  21217.07306836 </i>
    <i name="pawaedc"> -22257.58625956 </i>
    <i name="eentropy">     -0.00111601 </i>
    <i name="bandstr">   -240.02401635 </i>
    <i name="atom">  26024.88362379 </i>
    <i name="e_fr_energy">   1360.99868296 </i>
    <i name="e_wo_entrp">   1360.99979897 </i>
    <i name="e_0_energy">   1360.99924097 </i>
   </energy>
  </scstep>
  <scstep>
   <time name="dav">   18.34   18.39</time>
   <time name="total">   18.34   18.39</time>
   <energy>
    <i name="e_fr_energy">  -1089.69853741 </i>
    <i name="e_wo_entrp">  -1089.69853741 </i>
    <i name="e_0_energy">  -1089.69853741 </i>
   </energy>
  </scstep>
  <scstep>
   <time name="dav">   19.26   19.28</time>
   <time name="total">   19.26   19.28</time>
   <energy>
    <i name="e_fr_energy">  -1452.29161726 </i>
    <i name="e_wo_entrp">  -1452.29161726 </i>
    <i name="e_0_energy">  -1452.29161726 </i>
   </energy>
  </scstep>
  <scstep>
   <time name="dav">   17.80   17.81</time>
   <time name="total">   17.80   17.81</time>
   <energy>
    <i name="e_fr_energy">  -1464.66589609 </i>
    <i name="e_wo_entrp">  -1464.66589609 </i>
    <i name="e_0_energy">  -1464.66589609 </i>
   </energy>
  </scstep>
  <scstep>
   <time name="dav">   19.32   19.35</time>
   <time name="total">   22.01   22.03</time>
   <energy>
    <i name="e_fr_energy">  -1465.22798000 </i>
    <i name="e_wo_entrp">  -1465.22798000 </i>
    <i name="e_0_energy">  -1465.22798000 </i>
   </energy>
  </scstep>
  <scstep>
   <time name="dav">   18.97   18.97</time>
   <time name="total">   23.13   23.16</time>
   <energy>
    <i name="e_fr_energy">  -1386.34097293 </i>
    <i name="e_wo_entrp">  -1386.34097293 </i>
    <i name="e_0_energy">  -1386.34097293 </i>
   </energy>
  </scstep>
  <scstep>
   <time name="dav">   18.37   18.37</time>
   <time name="total">   22.53   22.53</time>
   <energy>
    <i name="e_fr_energy">  -1385.92274238 </i>
    <i name="e_wo_entrp">  -1385.92274238 </i>
    <i name="e_0_energy">  -1385.92274238 </i>
   </energy>
  </scstep>
  <scstep>
   <time name="dav">   18.03   18.03</time>
   <time name="total">   22.18   22.22</time>
   <energy>
    <i name="e_fr_energy">  -1386.10320100 </i>
    <i name="e_wo_entrp">  -1386.10320100 </i>
    <i name="e_0_energy">  -1386.10320100 </i>
   </energy>
  </scstep>
  <scstep>
   <time name="dav">   16.89   16.89</time>
   <time name="total">   21.06   21.08</time>
   <energy>
    <i name="e_fr_energy">  -1386.18787074 </i>
    <i name="e_wo_entrp">  -1386.18787074 </i>
    <i name="e_0_energy">  -1386.18787074 </i>
   </energy>
  </scstep>
  <scstep>
   <time name="dav">   20.35   20.36</time>
   <time name="total">   24.52   24.53</time>
   <energy>
    <i name="e_fr_energy">  -1386.19053788 </i>
    <i name="e_wo_entrp">  -1386.19053788 </i>
    <i name="e_0_energy">  -1386.19053788 </i>
   </energy>
  </scstep>
  <scstep>
   <time name="dav">   17.21   17.21</time>
   <time name="total">   21.38   21.40</time>
   <energy>
    <i name="e_fr_energy">  -1386.19396501 </i>
    <i name="e_wo_entrp">  -1386.19396501 </i>
    <i name="e_0_energy">  -1386.19396501 </i>
   </energy>
  </scstep>
  <scstep>
   <time name="dav">   17.02   17.02</time>
   <time name="total">   21.17   21.23</time>
   <energy>
    <i name="e_fr_energy">  -1386.19680793 </i>
    <i name="e_wo_entrp">  -1386.19680793 </i>
    <i name="e_0_energy">  -1386.19680793 </i>
   </energy>
  </scstep>
  <scstep>
   <time name="dav">   19.33   19.33</time>
   <time name="total">   23.49   23.54</time>
   <energy>
    <i name="e_fr_energy">  -1386.19664248 </i>
    <i name="e_wo_entrp">  -1386.19664248 </i>
    <i name="e_0_energy">  -1386.19664248 </i>
   </energy>
  </scstep>
  <scstep>
   <time name="dav">   17.19   17.19</time>
   <time name="total">   21.34   21.36</time>
   <energy>
    <i name="e_fr_energy">  -1386.19660132 </i>
    <i name="e_wo_entrp">  -1386.19660132 </i>
    <i name="e_0_energy">  -1386.19660132 </i>
   </energy>
  </scstep>
  <scstep>
   <time name="dav">   17.02   17.02</time>
   <time name="total">   21.19   21.24</time>
   <energy>
    <i name="e_fr_energy">  -1386.19661971 </i>
    <i name="e_wo_entrp">  -1386.19661971 </i>
    <i name="e_0_energy">  -1386.19661971 </i>
   </energy>
  </scstep>
  <scstep>
   <time name="dav">   16.68   16.68</time>
   <time name="total">   20.83   20.89</time>
   <energy>
    <i name="e_fr_energy">  -1386.19668864 </i>
    <i name="e_wo_entrp">  -1386.19668864 </i>
    <i name="e_0_energy">  -1386.19668864 </i>
   </energy>
  </scstep>
  <scstep>
   <time name="dav">   16.68   16.68</time>
   <time name="total">   20.85   20.89</time>
   <energy>
    <i name="e_fr_energy">  -1386.19668367 </i>
    <i name="e_wo_entrp">  -1386.19668367 </i>
    <i name="e_0_energy">  -1386.19668367 </i>
   </energy>
  </scstep>
  <scstep>
   <time name="dav">   12.95   12.95</time>
   <time name="total">   14.46   14.47</time>
   <energy>
    <i name="alphaZ">    835.99855037 </i>
    <i name="ewald"> -17348.37583825 </i>
    <i name="hartreedc">  -7812.91873367 </i>
    <i name="XCdc">    947.59827033 </i>
    <i name="pawpsdc">  22809.97821296 </i>
    <i name="pawaedc"> -23849.45101459 </i>
    <i name="eentropy">     -0.00000000 </i>
    <i name="bandstr">  -2993.90975425 </i>
    <i name="atom">  26024.88362379 </i>
    <i name="e_fr_energy">  -1386.19668331 </i>
    <i name="e_wo_entrp">  -1386.19668331 </i>
    <i name="e_0_energy">  -1386.19668331 </i>
   </energy>
  </scstep>
  <structure>
   <crystal>
    <varray name="basis" >
     <v>       8.42001800       0.00000000       8.07798100 </v>
     <v>       0.00000000      11.76380800       0.00000000 </v>
     <v>      -8.42001800       0.00000000       8.07798100 </v>
    </varray>
    <i name="volume">   1600.27186790 </i>
    <varray name="rec_basis" >
     <v>       0.05938230      -0.00000000       0.06189665 </v>
     <v>       0.00000000       0.08500649      -0.00000000 </v>
     <v>      -0.05938230       0.00000000       0.06189665 </v>
    </varray>
   </crystal>
   <varray name="positions" >
    <v>       0.26095400       0.24999400       0.20611500 </v>
    <v>       0.77365800       0.25000200       0.71575600 </v>
    <v>       0.19767100       0.75000200       0.76039700 </v>
    <v>       0.28492300       0.25000400       0.73605200 </v>
    <v>       0.76953300       0.25000400       0.22631200 </v>
    <v>       0.73751800       0.75000200       0.78595900 </v>
    <v>       0.99553000       0.99658200       0.00482300 </v>
    <v>       0.50217000       0.00158500       0.49952300 </v>
    <v>       0.50117400       0.00099200       0.99181700 </v>
    <v>       0.00103100       0.99953600       0.49892200 </v>
    <v>       0.50116500       0.49898900       0.99182300 </v>
    <v>       0.00103400       0.50045900       0.49892500 </v>
    <v>       0.99552000       0.50339200       0.00482900 </v>
    <v>       0.50218300       0.49842600       0.49952200 </v>
    <v>       0.46394300       0.74998800       0.94047900 </v>
    <v>       0.96829000       0.75000400       0.49167400 </v>
    <v>       0.95885400       0.25000600       0.97548100 </v>
    <v>       0.46017600       0.25001100       0.48833400 </v>
    <v>       0.04627900       0.74999600       0.02658700 </v>
    <v>       0.53946300       0.75001900       0.53266700 </v>
    <v>       0.53991800       0.24999100       0.99826200 </v>
    <v>       0.03224000       0.25000200       0.54618700 </v>
    <v>       0.24690900       0.46369000       0.95518200 </v>
    <v>       0.74903700       0.45059200       0.46300200 </v>
    <v>       0.46446700       0.48507300       0.24242900 </v>
    <v>       0.95110000       0.52738300       0.75165900 </v>
    <v>       0.55958100       0.02662000       0.74723900 </v>
    <v>       0.03462800       0.04991300       0.25341500 </v>
    <v>       0.74818900       0.95579200       0.04882300 </v>
    <v>       0.25391900       0.97731200       0.55923800 </v>
    <v>       0.24690900       0.03630700       0.95517900 </v>
    <v>       0.74904200       0.04941600       0.46301000 </v>
    <v>       0.46447100       0.01492200       0.24243400 </v>
    <v>       0.95110200       0.97262500       0.75166500 </v>
    <v>       0.74819100       0.54420100       0.04881600 </v>
    <v>       0.25392000       0.52270100       0.55923700 </v>
    <v>       0.55958400       0.47338400       0.74723800 </v>
    <v>       0.03463200       0.45008300       0.25341700 </v>
    <v>       0.47071000       0.74999900       0.25613300 </v>
   </varray>
  </structure>
  <varray name="forces" >
   <v>       0.01350026       0.00004877       0.00318055 </v>
   <v>       0.02324682      -0.00002526       0.00306975 </v>
   <v>      -0.00453212      -0.00001820      -0.03814412 </v>
   <v>       0.01826639      -0.00003205      -0.00878832 </v>
   <v>       0.04424090      -0.00010362       0.03484879 </v>
   <v>       0.02665467      -0.00003020       0.02214380 </v>
   <v>      -0.04981933      -0.02446443       0.02245314 </v>
   <v>      -0.15091127       0.15785216       0.18719748 </v>
   <v>       0.14808836       0.02749358      -0.07647016 </v>
   <v>      -0.00617925      -0.07876153      -0.03119649 </v>
   <v>       0.14827297      -0.02749651      -0.07647011 </v>
   <v>      -0.00606682       0.07908879      -0.03117208 </v>
   <v>      -0.04981389       0.02446874       0.02214588 </v>
   <v>      -0.15113769      -0.15771555       0.18707283 </v>
   <v>      -0.05451573       0.00005378       0.05368667 </v>
   <v>      -0.01034241      -0.00007813       0.03179345 </v>
   <v>       0.00801891      -0.00029212       0.00007420 </v>
   <v>       0.02758234       0.00017556      -0.03993771 </v>
   <v>       0.02577020       0.00016808      -0.00211929 </v>
   <v>      -0.16832226      -0.00016752       0.30837964 </v>
   <v>      -0.02516073      -0.00004743      -0.01925373 </v>
   <v>      -0.00203758       0.00008919       0.01120463 </v>
   <v>       0.01983556      -0.00805484       0.01264214 </v>
   <v>      -0.05307070      -0.01403784      -0.03783199 </v>
   <v>      -0.01794993      -0.91123342      -0.07853189 </v>
   <v>      -0.01085134       0.00192979       0.01765437 </v>
   <v>       0.02949582       0.01432900      -0.03247174 </v>
   <v>       0.00474501       0.03288553       0.01524748 </v>
   <v>      -0.04855491      -0.00073779      -0.03937005 </v>
   <v>       0.04764837       0.01151584       0.02360042 </v>
   <v>       0.01982162       0.00802054       0.01264808 </v>
   <v>      -0.05316386       0.01399952      -0.03796738 </v>
   <v>      -0.01784289       0.91138445      -0.07866598 </v>
   <v>      -0.01075817      -0.00200421       0.01753821 </v>
   <v>      -0.04874004       0.00074309      -0.03937044 </v>
   <v>       0.04762437      -0.01159487       0.02356445 </v>
   <v>       0.02959821      -0.01429177      -0.03262549 </v>
   <v>       0.00481167      -0.03291768       0.01519443 </v>
   <v>       0.25254848      -0.00014144      -0.32495342 </v>
  </varray>
  <varray name="stress" >
   <v>       5.69119880      -0.00088978      -3.42994684 </v>
   <v>      -0.00088973      13.96441171       0.00061028 </v>
   <v>      -3.42986490       0.00060995       7.72969703 </v>
  </varray>
  <energy>
   <i name="e_fr_energy">  -1386.19668331 </i>
   <i name="e_wo_entrp">  -1386.19668331 </i>
   <i name="e_0_energy">     -0.00000000 </i>
  </energy>
  <time name="totalsc">  428.48  429.07</time>
  <eigenvalues>
   <array>
    <dimension dim="1">band</dimension>
    <dimension dim="2">kpoint</dimension>
    <dimension dim="3">spin</dimension>
    <field>eigene</field>
    <field>occ</field>
    <set>
     <set comment="spin 1">
      <set comment="kpoint 1">
       <r>  -21.2703    1.0000 </r>
       <r>  -21.0130    1.0000 </r>
       <r>  -20.9727    1.0000 </r>
       <r>  -20.9679    1.0000 </r>
       <r>  -20.9481    1.0000 </r>
       <r>  -20.9282    1.0000 </r>
       <r>  -20.8460    1.0000 </r>
       <r>  -16.8254    1.0000 </r>
       <r>  -16.8015    1.0000 </r>
       <r>  -16.7924    1.0000 </r>
       <r>  -16.7661    1.0000 </r>
       <r>  -16.7427    1.0000 </r>
       <r>  -16.7302    1.0000 </r>
       <r>  -16.7300    1.0000 </r>
       <r>  -16.7193    1.0000 </r>
       <r>  -16.6725    1.0000 </r>
       <r>  -16.6703    1.0000 </r>
       <r>  -16.6526    1.0000 </r>
       <r>  -16.6513    1.0000 </r>
       <r>  -16.6508    1.0000 </r>
       <r>  -16.6501    1.0000 </r>
       <r>  -16.6409    1.0000 </r>
       <r>  -16.6404    1.0000 </r>
       <r>  -16.6379    1.0000 </r>
       <r>  -16.6374    1.0000 </r>
       <r>  -16.6184    1.0000 </r>
       <r>  -16.6177    1.0000 </r>
       <r>  -16.5875    1.0000 </r>
       <r>  -16.5706    1.0000 </r>
       <r>  -16.5703    1.0000 </r>
       <r>  -16.5331    1.0000 </r>
       <r>  -16.5234    1.0000 </r>
       <r>  -16.4976    1.0000 </r>
       <r>  -16.4955    1.0000 </r>
       <r>  -16.4678    1.0000 </r>
       <r>  -16.4571    1.0000 </r>
       <r>  -16.4558    1.0000 </r>
       <r>  -16.4540    1.0000 </r>
       <r>  -16.4538    1.0000 </r>
       <r>  -16.4448    1.0000 </r>
       <r>  -16.4438    1.0000 </r>
       <r>  -16.4048    1.0000 </r>
       <r>  -16.4047    1.0000 </r>
       <r>  -16.3931    1.0000 </r>
       <r>  -16.3908    1.0000 </r>
       <r>  -16.3879    1.0000 </r>
       <r>  -16.3870    1.0000 </r>
       <r>  -14.6558    1.0000 </r>
       <r>  -14.5811    1.0000 </r>
       <r>  -14.4711    1.0000 </r>
       <r>  -14.4127    1.0000 </r>
       <r>  -14.4042    1.0000 </r>
       <r>  -14.3887    1.0000 </r>
       <r>  -14.3553    1.0000 </r>
       <r>  -14.3082    1.0000 </r>
       <r>  -14.1769    1.0000 </r>
       <r>  -14.1588    1.0000 </r>
       <r>  -14.1288    1.0000 </r>
       <r>  -14.1081    1.0000 </r>
       <r>  -14.1058    1.0000 </r>
       <r>  -14.0930    1.0000 </r>
       <r>  -14.0912    1.0000 </r>
       <r>  -14.0817    1.0000 </r>
       <r>  -14.0805    1.0000 </r>
       <r>  -14.0484    1.0000 </r>
       <r>  -14.0482    1.0000 </r>
       <r>  -13.9312    1.0000 </r>
       <r>  -13.8805    1.0000 </r>
       <r>  -13.8702    1.0000 </r>
       <r>  -13.8210    1.0000 </r>
       <r>  -13.6948    1.0000 </r>
       <r>   -8.4482    1.0000 </r>
       <r>   -8.0062    1.0000 </r>
       <r>   -7.9433    1.0000 </r>
       <r>   -7.8915    1.0000 </r>
       <r>   -7.8057    1.0000 </r>
       <r>   -7.7166    1.0000 </r>
       <r>   -7.7049    1.0000 </r>
       <r>   -7.4438    1.0000 </r>
       <r>   -7.4330    1.0000 </r>
       <r>   -7.4116    1.0000 </r>
       <r>   -7.3996    1.0000 </r>
       <r>   -7.3935    1.0000 </r>
       <r>   -7.3839    1.0000 </r>
       <r>   -7.3739    1.0000 </r>
       <r>   -7.3734    1.0000 </r>
       <r>   -7.3658    1.0000 </r>
       <r>   -7.3614    1.0000 </r>
       <r>   -7.3564    1.0000 </r>
       <r>   -7.3446    1.0000 </r>
       <r>   -7.3429    1.0000 </r>
       <r>   -7.3359    1.0000 </r>
       <r>   -7.3315    1.0000 </r>
       <r>   -7.3107    1.0000 </r>
       <r>   -7.3067    1.0000 </r>
       <r>   -7.2738    1.0000 </r>
       <r>   -7.2526    1.0000 </r>
       <r>   -7.2439    1.0000 </r>
       <r>   -7.2408    1.0000 </r>
       <r>   -6.7274    1.0000 </r>
       <r>   -3.6722    1.0000 </r>
       <r>   -3.6517    1.0000 </r>
       <r>   -3.5787    1.0000 </r>
       <r>   -3.4739    1.0000 </r>
       <r>   -3.4177    1.0000 </r>
       <r>   -3.3292    1.0000 </r>
       <r>   -3.3238    1.0000 </r>
       <r>   -3.2829    1.0000 </r>
       <r>   -3.2746    1.0000 </r>
       <r>   -3.2695    1.0000 </r>
       <r>   -3.1400    1.0000 </r>
       <r>   -3.0516    1.0000 </r>
       <r>   -2.5231    1.0000 </r>
       <r>   -2.3649    1.0000 </r>
       <r>   -2.3086    1.0000 </r>
       <r>   -2.2758    1.0000 </r>
       <r>   -2.1784    1.0000 </r>
       <r>   -2.1297    1.0000 </r>
       <r>   -2.1247    1.0000 </r>
       <r>   -2.0497    1.0000 </r>
       <r>   -2.0089    1.0000 </r>
       <r>   -1.9928    1.0000 </r>
       <r>   -1.9432    1.0000 </r>
       <r>   -1.9014    1.0000 </r>
       <r>   -1.8522    1.0000 </r>
       <r>   -1.8465    1.0000 </r>
       <r>   -1.8454    1.0000 </r>
       <r>   -1.7887    1.0000 </r>
       <r>   -1.7267    1.0000 </r>
       <r>   -1.7169    1.0000 </r>
       <r>   -1.6798    1.0000 </r>
       <r>   -1.6499    1.0000 </r>
       <r>   -1.6483    1.0000 </r>
       <r>   -1.6385    1.0000 </r>
       <r>   -1.6136    1.0000 </r>
       <r>   -1.5864    1.0000 </r>
       <r>   -1.5862    1.0000 </r>
       <r>   -1.5625    1.0000 </r>
       <r>   -1.5527    1.0000 </r>
       <r>   -1.5444    1.0000 </r>
       <r>   -1.5122    1.0000 </r>
       <r>   -1.5079    1.0000 </r>
       <r>   -1.5071    1.0000 </r>
       <r>   -1.4697    1.0000 </r>
       <r>   -1.4686    1.0000 </r>
       <r>   -1.4477    1.0000 </r>
       <r>   -1.4200    1.0000 </r>
       <r>   -1.4163    1.0000 </r>
       <r>   -1.4056    1.0000 </r>
       <r>   -1.3896    1.0000 </r>
       <r>   -1.3566    1.0000 </r>
       <r>   -1.3445    1.0000 </r>
       <r>   -1.3166    1.0000 </r>
       <r>   -1.3105    1.0000 </r>
       <r>   -1.2967    1.0000 </r>
       <r>   -1.2829    1.0000 </r>
       <r>   -1.2759    1.0000 </r>
       <r>   -1.2357    1.0000 </r>
       <r>   -1.1840    1.0000 </r>
       <r>   -1.1580    1.0000 </r>
       <r>   -1.1517    1.0000 </r>
       <r>   -1.1155    1.0000 </r>
       <r>   -1.0555    1.0000 </r>
       <r>   -1.0095    1.0000 </r>
       <r>   -0.9420    1.0000 </r>
       <r>   -0.8301    1.0000 </r>
       <r>   -0.7892    1.0000 </r>
       <r>   -0.7786    1.0000 </r>
       <r>   -0.3729    1.0000 </r>
       <r>   -0.3256    1.0000 </r>
       <r>   -0.2730    1.0000 </r>
       <r>    0.2674    1.0000 </r>
       <r>    2.5296    0.0000 </r>
       <r>    2.5801    0.0000 </r>
       <r>    2.6863    0.0000 </r>
       <r>    2.8639    0.0000 </r>
       <r>    2.9088    0.0000 </r>
       <r>    2.9924    0.0000 </r>
       <r>    3.0041    0.0000 </r>
       <r>    3.0334    0.0000 </r>
       <r>    3.0778    0.0000 </r>
       <r>    3.3188    0.0000 </r>
       <r>    3.3960    0.0000 </r>
       <r>    3.4397    0.0000 </r>
       <r>    4.6848    0.0000 </r>
       <r>    4.7592    0.0000 </r>
       <r>    5.2850    0.0000 </r>
       <r>    5.4767    0.0000 </r>
       <r>    5.5624    0.0000 </r>
       <r>    5.6066    0.0000 </r>
       <r>    5.6785    0.0000 </r>
       <r>    5.6867    0.0000 </r>
       <r>    5.7532    0.0000 </r>
       <r>    5.8741    0.0000 </r>
       <r>    5.9224    0.0000 </r>
       <r>    6.0130    0.0000 </r>
       <r>    6.0513    0.0000 </r>
       <r>    6.0648    0.0000 </r>
       <r>    6.1534    0.0000 </r>
       <r>    6.1712    0.0000 </r>
       <r>    6.2435    0.0000 </r>
       <r>    6.2584    0.0000 </r>
       <r>    6.2931    0.0000 </r>
       <r>    6.3040    0.0000 </r>
       <r>    6.3828    0.0000 </r>
       <r>    6.4204    0.0000 </r>
       <r>    6.5137    0.0000 </r>
       <r>    6.5670    0.0000 </r>
      </set>
      <set comment="kpoint 2">
       <r>  -21.2703    1.0000 </r>
       <r>  -21.0129    1.0000 </r>
       <r>  -20.9727    1.0000 </r>
       <r>  -20.9679    1.0000 </r>
       <r>  -20.9481    1.0000 </r>
       <r>  -20.9282    1.0000 </r>
       <r>  -20.8460    1.0000 </r>
       <r>  -16.8254    1.0000 </r>
       <r>  -16.8009    1.0000 </r>
       <r>  -16.7916    1.0000 </r>
       <r>  -16.7635    1.0000 </r>
       <r>  -16.7396    1.0000 </r>
       <r>  -16.7295    1.0000 </r>
       <r>  -16.7275    1.0000 </r>
       <r>  -16.7170    1.0000 </r>
       <r>  -16.6725    1.0000 </r>
       <r>  -16.6704    1.0000 </r>
       <r>  -16.6526    1.0000 </r>
       <r>  -16.6513    1.0000 </r>
       <r>  -16.6508    1.0000 </r>
       <r>  -16.6501    1.0000 </r>
       <r>  -16.6409    1.0000 </r>
       <r>  -16.6404    1.0000 </r>
       <r>  -16.6380    1.0000 </r>
       <r>  -16.6374    1.0000 </r>
       <r>  -16.6184    1.0000 </r>
       <r>  -16.6177    1.0000 </r>
       <r>  -16.5880    1.0000 </r>
       <r>  -16.5736    1.0000 </r>
       <r>  -16.5730    1.0000 </r>
       <r>  -16.5351    1.0000 </r>
       <r>  -16.5248    1.0000 </r>
       <r>  -16.4994    1.0000 </r>
       <r>  -16.4981    1.0000 </r>
       <r>  -16.4683    1.0000 </r>
       <r>  -16.4571    1.0000 </r>
       <r>  -16.4557    1.0000 </r>
       <r>  -16.4541    1.0000 </r>
       <r>  -16.4539    1.0000 </r>
       <r>  -16.4448    1.0000 </r>
       <r>  -16.4439    1.0000 </r>
       <r>  -16.4049    1.0000 </r>
       <r>  -16.4047    1.0000 </r>
       <r>  -16.3931    1.0000 </r>
       <r>  -16.3909    1.0000 </r>
       <r>  -16.3880    1.0000 </r>
       <r>  -16.3869    1.0000 </r>
       <r>  -14.6524    1.0000 </r>
       <r>  -14.5808    1.0000 </r>
       <r>  -14.4701    1.0000 </r>
       <r>  -14.4106    1.0000 </r>
       <r>  -14.4038    1.0000 </r>
       <r>  -14.3835    1.0000 </r>
       <r>  -14.3614    1.0000 </r>
       <r>  -14.3488    1.0000 </r>
       <r>  -14.2260    1.0000 </r>
       <r>  -14.1855    1.0000 </r>
       <r>  -14.1072    1.0000 </r>
       <r>  -14.1056    1.0000 </r>
       <r>  -14.0963    1.0000 </r>
       <r>  -14.0935    1.0000 </r>
       <r>  -14.0610    1.0000 </r>
       <r>  -14.0571    1.0000 </r>
       <r>  -14.0403    1.0000 </r>
       <r>  -14.0097    1.0000 </r>
       <r>  -13.9777    1.0000 </r>
       <r>  -13.9460    1.0000 </r>
       <r>  -13.9346    1.0000 </r>
       <r>  -13.9029    1.0000 </r>
       <r>  -13.8383    1.0000 </r>
       <r>  -13.6990    1.0000 </r>
       <r>   -8.3369    1.0000 </r>
       <r>   -8.0461    1.0000 </r>
       <r>   -7.9418    1.0000 </r>
       <r>   -7.8633    1.0000 </r>
       <r>   -7.7429    1.0000 </r>
       <r>   -7.7163    1.0000 </r>
       <r>   -7.6307    1.0000 </r>
       <r>   -7.5509    1.0000 </r>
       <r>   -7.5486    1.0000 </r>
       <r>   -7.4357    1.0000 </r>
       <r>   -7.4126    1.0000 </r>
       <r>   -7.3907    1.0000 </r>
       <r>   -7.3900    1.0000 </r>
       <r>   -7.3771    1.0000 </r>
       <r>   -7.3728    1.0000 </r>
       <r>   -7.3704    1.0000 </r>
       <r>   -7.3683    1.0000 </r>
       <r>   -7.3533    1.0000 </r>
       <r>   -7.3449    1.0000 </r>
       <r>   -7.3432    1.0000 </r>
       <r>   -7.3384    1.0000 </r>
       <r>   -7.3288    1.0000 </r>
       <r>   -7.3256    1.0000 </r>
       <r>   -7.3045    1.0000 </r>
       <r>   -7.2655    1.0000 </r>
       <r>   -7.2555    1.0000 </r>
       <r>   -7.2482    1.0000 </r>
       <r>   -7.1794    1.0000 </r>
       <r>   -6.9542    1.0000 </r>
       <r>   -3.6629    1.0000 </r>
       <r>   -3.6461    1.0000 </r>
       <r>   -3.5743    1.0000 </r>
       <r>   -3.4670    1.0000 </r>
       <r>   -3.3166    1.0000 </r>
       <r>   -3.2879    1.0000 </r>
       <r>   -3.2743    1.0000 </r>
       <r>   -3.0729    1.0000 </r>
       <r>   -2.7770    1.0000 </r>
       <r>   -2.6887    1.0000 </r>
       <r>   -2.6757    1.0000 </r>
       <r>   -2.6146    1.0000 </r>
       <r>   -2.5797    1.0000 </r>
       <r>   -2.5449    1.0000 </r>
       <r>   -2.4803    1.0000 </r>
       <r>   -2.4649    1.0000 </r>
       <r>   -2.4319    1.0000 </r>
       <r>   -2.3181    1.0000 </r>
       <r>   -2.2333    1.0000 </r>
       <r>   -2.1996    1.0000 </r>
       <r>   -2.1471    1.0000 </r>
       <r>   -2.0743    1.0000 </r>
       <r>   -2.0523    1.0000 </r>
       <r>   -2.0185    1.0000 </r>
       <r>   -1.9760    1.0000 </r>
       <r>   -1.9196    1.0000 </r>
       <r>   -1.9166    1.0000 </r>
       <r>   -1.8334    1.0000 </r>
       <r>   -1.7876    1.0000 </r>
       <r>   -1.7851    1.0000 </r>
       <r>   -1.7235    1.0000 </r>
       <r>   -1.7184    1.0000 </r>
       <r>   -1.6999    1.0000 </r>
       <r>   -1.6740    1.0000 </r>
       <r>   -1.6560    1.0000 </r>
       <r>   -1.6329    1.0000 </r>
       <r>   -1.5972    1.0000 </r>
       <r>   -1.5954    1.0000 </r>
       <r>   -1.5298    1.0000 </r>
       <r>   -1.5179    1.0000 </r>
       <r>   -1.5090    1.0000 </r>
       <r>   -1.4759    1.0000 </r>
       <r>   -1.4686    1.0000 </r>
       <r>   -1.4319    1.0000 </r>
       <r>   -1.4195    1.0000 </r>
       <r>   -1.4181    1.0000 </r>
       <r>   -1.3839    1.0000 </r>
       <r>   -1.3820    1.0000 </r>
       <r>   -1.3758    1.0000 </r>
       <r>   -1.3615    1.0000 </r>
       <r>   -1.3430    1.0000 </r>
       <r>   -1.3372    1.0000 </r>
       <r>   -1.3006    1.0000 </r>
       <r>   -1.2956    1.0000 </r>
       <r>   -1.2856    1.0000 </r>
       <r>   -1.2826    1.0000 </r>
       <r>   -1.2590    1.0000 </r>
       <r>   -1.2488    1.0000 </r>
       <r>   -1.2311    1.0000 </r>
       <r>   -1.1916    1.0000 </r>
       <r>   -1.1653    1.0000 </r>
       <r>   -1.1486    1.0000 </r>
       <r>   -1.0924    1.0000 </r>
       <r>   -1.0540    1.0000 </r>
       <r>   -1.0266    1.0000 </r>
       <r>   -0.8722    1.0000 </r>
       <r>   -0.7790    1.0000 </r>
       <r>   -0.7727    1.0000 </r>
       <r>   -0.6142    1.0000 </r>
       <r>   -0.5313    1.0000 </r>
       <r>   -0.3442    1.0000 </r>
       <r>   -0.0360    1.0000 </r>
       <r>    2.6424    0.0000 </r>
       <r>    2.6534    0.0000 </r>
       <r>    2.9108    0.0000 </r>
       <r>    2.9398    0.0000 </r>
       <r>    2.9659    0.0000 </r>
       <r>    2.9915    0.0000 </r>
       <r>    3.2038    0.0000 </r>
       <r>    3.3344    0.0000 </r>
       <r>    3.9747    0.0000 </r>
       <r>    4.0950    0.0000 </r>
       <r>    4.2411    0.0000 </r>
       <r>    4.3075    0.0000 </r>
       <r>    4.4117    0.0000 </r>
       <r>    4.5036    0.0000 </r>
       <r>    4.6061    0.0000 </r>
       <r>    4.7009    0.0000 </r>
       <r>    4.7943    0.0000 </r>
       <r>    5.3080    0.0000 </r>
       <r>    5.5142    0.0000 </r>
       <r>    5.5421    0.0000 </r>
       <r>    5.6072    0.0000 </r>
       <r>    5.6816    0.0000 </r>
       <r>    5.8582    0.0000 </r>
       <r>    5.8851    0.0000 </r>
       <r>    5.8909    0.0000 </r>
       <r>    5.9701    0.0000 </r>
       <r>    6.0814    0.0000 </r>
       <r>    6.1463    0.0000 </r>
       <r>    6.1627    0.0000 </r>
       <r>    6.2603    0.0000 </r>
       <r>    6.2845    0.0000 </r>
       <r>    6.2984    0.0000 </r>
       <r>    6.3897    0.0000 </r>
       <r>    6.4483    0.0000 </r>
       <r>    6.5035    0.0000 </r>
       <r>    6.5149    0.0000 </r>
      </set>
      <set comment="kpoint 3">
       <r>  -21.2703    1.0000 </r>
       <r>  -21.0129    1.0000 </r>
       <r>  -20.9727    1.0000 </r>
       <r>  -20.9678    1.0000 </r>
       <r>  -20.9480    1.0000 </r>
       <r>  -20.9282    1.0000 </r>
       <r>  -20.8460    1.0000 </r>
       <r>  -16.8120    1.0000 </r>
       <r>  -16.8078    1.0000 </r>
       <r>  -16.7707    1.0000 </r>
       <r>  -16.7616    1.0000 </r>
       <r>  -16.7515    1.0000 </r>
       <r>  -16.7473    1.0000 </r>
       <r>  -16.7293    1.0000 </r>
       <r>  -16.7288    1.0000 </r>
       <r>  -16.6716    1.0000 </r>
       <r>  -16.6709    1.0000 </r>
       <r>  -16.6521    1.0000 </r>
       <r>  -16.6518    1.0000 </r>
       <r>  -16.6505    1.0000 </r>
       <r>  -16.6504    1.0000 </r>
       <r>  -16.6407    1.0000 </r>
       <r>  -16.6406    1.0000 </r>
       <r>  -16.6377    1.0000 </r>
       <r>  -16.6376    1.0000 </r>
       <r>  -16.6181    1.0000 </r>
       <r>  -16.6180    1.0000 </r>
       <r>  -16.5726    1.0000 </r>
       <r>  -16.5717    1.0000 </r>
       <r>  -16.5612    1.0000 </r>
       <r>  -16.5548    1.0000 </r>
       <r>  -16.5018    1.0000 </r>
       <r>  -16.4999    1.0000 </r>
       <r>  -16.4935    1.0000 </r>
       <r>  -16.4915    1.0000 </r>
       <r>  -16.4566    1.0000 </r>
       <r>  -16.4564    1.0000 </r>
       <r>  -16.4540    1.0000 </r>
       <r>  -16.4539    1.0000 </r>
       <r>  -16.4444    1.0000 </r>
       <r>  -16.4442    1.0000 </r>
       <r>  -16.4048    1.0000 </r>
       <r>  -16.4047    1.0000 </r>
       <r>  -16.3924    1.0000 </r>
       <r>  -16.3912    1.0000 </r>
       <r>  -16.3875    1.0000 </r>
       <r>  -16.3873    1.0000 </r>
       <r>  -14.6632    1.0000 </r>
       <r>  -14.5734    1.0000 </r>
       <r>  -14.4727    1.0000 </r>
       <r>  -14.4700    1.0000 </r>
       <r>  -14.4070    1.0000 </r>
       <r>  -14.3839    1.0000 </r>
       <r>  -14.2805    1.0000 </r>
       <r>  -14.2582    1.0000 </r>
       <r>  -14.2083    1.0000 </r>
       <r>  -14.1598    1.0000 </r>
       <r>  -14.1569    1.0000 </r>
       <r>  -14.1529    1.0000 </r>
       <r>  -14.1066    1.0000 </r>
       <r>  -14.0980    1.0000 </r>
       <r>  -14.0953    1.0000 </r>
       <r>  -14.0857    1.0000 </r>
       <r>  -14.0826    1.0000 </r>
       <r>  -14.0693    1.0000 </r>
       <r>  -13.9480    1.0000 </r>
       <r>  -13.9008    1.0000 </r>
       <r>  -13.8747    1.0000 </r>
       <r>  -13.8601    1.0000 </r>
       <r>  -13.8554    1.0000 </r>
       <r>  -13.7283    1.0000 </r>
       <r>   -8.2618    1.0000 </r>
       <r>   -8.1970    1.0000 </r>
       <r>   -7.8563    1.0000 </r>
       <r>   -7.7674    1.0000 </r>
       <r>   -7.7246    1.0000 </r>
       <r>   -7.6719    1.0000 </r>
       <r>   -7.6629    1.0000 </r>
       <r>   -7.6370    1.0000 </r>
       <r>   -7.6175    1.0000 </r>
       <r>   -7.4356    1.0000 </r>
       <r>   -7.4168    1.0000 </r>
       <r>   -7.3951    1.0000 </r>
       <r>   -7.3855    1.0000 </r>
       <r>   -7.3820    1.0000 </r>
       <r>   -7.3750    1.0000 </r>
       <r>   -7.3730    1.0000 </r>
       <r>   -7.3609    1.0000 </r>
       <r>   -7.3570    1.0000 </r>
       <r>   -7.3470    1.0000 </r>
       <r>   -7.3451    1.0000 </r>
       <r>   -7.3388    1.0000 </r>
       <r>   -7.3325    1.0000 </r>
       <r>   -7.3190    1.0000 </r>
       <r>   -7.3107    1.0000 </r>
       <r>   -7.2590    1.0000 </r>
       <r>   -7.2540    1.0000 </r>
       <r>   -7.2484    1.0000 </r>
       <r>   -7.0852    1.0000 </r>
       <r>   -7.0565    1.0000 </r>
       <r>   -3.6918    1.0000 </r>
       <r>   -3.5807    1.0000 </r>
       <r>   -3.3762    1.0000 </r>
       <r>   -3.3743    1.0000 </r>
       <r>   -3.3121    1.0000 </r>
       <r>   -3.2514    1.0000 </r>
       <r>   -3.2373    1.0000 </r>
       <r>   -3.2113    1.0000 </r>
       <r>   -2.9270    1.0000 </r>
       <r>   -2.7502    1.0000 </r>
       <r>   -2.7220    1.0000 </r>
       <r>   -2.7180    1.0000 </r>
       <r>   -2.5148    1.0000 </r>
       <r>   -2.4890    1.0000 </r>
       <r>   -2.3615    1.0000 </r>
       <r>   -2.3591    1.0000 </r>
       <r>   -2.3279    1.0000 </r>
       <r>   -2.2900    1.0000 </r>
       <r>   -2.2563    1.0000 </r>
       <r>   -2.2277    1.0000 </r>
       <r>   -2.2208    1.0000 </r>
       <r>   -2.0719    1.0000 </r>
       <r>   -2.0548    1.0000 </r>
       <r>   -1.9923    1.0000 </r>
       <r>   -1.9715    1.0000 </r>
       <r>   -1.9657    1.0000 </r>
       <r>   -1.9060    1.0000 </r>
       <r>   -1.9051    1.0000 </r>
       <r>   -1.8627    1.0000 </r>
       <r>   -1.8147    1.0000 </r>
       <r>   -1.7718    1.0000 </r>
       <r>   -1.6997    1.0000 </r>
       <r>   -1.6928    1.0000 </r>
       <r>   -1.6642    1.0000 </r>
       <r>   -1.6057    1.0000 </r>
       <r>   -1.5958    1.0000 </r>
       <r>   -1.5759    1.0000 </r>
       <r>   -1.5701    1.0000 </r>
       <r>   -1.5596    1.0000 </r>
       <r>   -1.5511    1.0000 </r>
       <r>   -1.5384    1.0000 </r>
       <r>   -1.5043    1.0000 </r>
       <r>   -1.4970    1.0000 </r>
       <r>   -1.4677    1.0000 </r>
       <r>   -1.4493    1.0000 </r>
       <r>   -1.4380    1.0000 </r>
       <r>   -1.4271    1.0000 </r>
       <r>   -1.4220    1.0000 </r>
       <r>   -1.3924    1.0000 </r>
       <r>   -1.3814    1.0000 </r>
       <r>   -1.3779    1.0000 </r>
       <r>   -1.3538    1.0000 </r>
       <r>   -1.3331    1.0000 </r>
       <r>   -1.3090    1.0000 </r>
       <r>   -1.2708    1.0000 </r>
       <r>   -1.2611    1.0000 </r>
       <r>   -1.2086    1.0000 </r>
       <r>   -1.1884    1.0000 </r>
       <r>   -1.1878    1.0000 </r>
       <r>   -1.1588    1.0000 </r>
       <r>   -1.1570    1.0000 </r>
       <r>   -1.1243    1.0000 </r>
       <r>   -1.0668    1.0000 </r>
       <r>   -1.0123    1.0000 </r>
       <r>   -0.9508    1.0000 </r>
       <r>   -0.9504    1.0000 </r>
       <r>   -0.7575    1.0000 </r>
       <r>   -0.7297    1.0000 </r>
       <r>   -0.7210    1.0000 </r>
       <r>   -0.6987    1.0000 </r>
       <r>   -0.2456    1.0000 </r>
       <r>   -0.1153    1.0000 </r>
       <r>    2.6618    0.0000 </r>
       <r>    2.7216    0.0000 </r>
       <r>    2.8578    0.0000 </r>
       <r>    2.8787    0.0000 </r>
       <r>    3.1546    0.0000 </r>
       <r>    3.1846    0.0000 </r>
       <r>    3.1892    0.0000 </r>
       <r>    3.1988    0.0000 </r>
       <r>    3.7203    0.0000 </r>
       <r>    4.2168    0.0000 </r>
       <r>    4.2960    0.0000 </r>
       <r>    4.3555    0.0000 </r>
       <r>    4.4654    0.0000 </r>
       <r>    4.4878    0.0000 </r>
       <r>    4.6482    0.0000 </r>
       <r>    4.7882    0.0000 </r>
       <r>    5.2776    0.0000 </r>
       <r>    5.2964    0.0000 </r>
       <r>    5.3947    0.0000 </r>
       <r>    5.4787    0.0000 </r>
       <r>    5.4915    0.0000 </r>
       <r>    5.5543    0.0000 </r>
       <r>    5.7941    0.0000 </r>
       <r>    5.8825    0.0000 </r>
       <r>    5.9124    0.0000 </r>
       <r>    6.0132    0.0000 </r>
       <r>    6.0678    0.0000 </r>
       <r>    6.1297    0.0000 </r>
       <r>    6.1748    0.0000 </r>
       <r>    6.2517    0.0000 </r>
       <r>    6.3318    0.0000 </r>
       <r>    6.3396    0.0000 </r>
       <r>    6.4696    0.0000 </r>
       <r>    6.5066    0.0000 </r>
       <r>    6.5719    0.0000 </r>
       <r>    6.6113    0.0000 </r>
      </set>
      <set comment="kpoint 4">
       <r>  -21.2703    1.0000 </r>
       <r>  -21.0130    1.0000 </r>
       <r>  -20.9727    1.0000 </r>
       <r>  -20.9679    1.0000 </r>
       <r>  -20.9480    1.0000 </r>
       <r>  -20.9283    1.0000 </r>
       <r>  -20.8460    1.0000 </r>
       <r>  -16.8119    1.0000 </r>
       <r>  -16.8076    1.0000 </r>
       <r>  -16.7691    1.0000 </r>
       <r>  -16.7598    1.0000 </r>
       <r>  -16.7498    1.0000 </r>
       <r>  -16.7458    1.0000 </r>
       <r>  -16.7268    1.0000 </r>
       <r>  -16.7263    1.0000 </r>
       <r>  -16.6716    1.0000 </r>
       <r>  -16.6709    1.0000 </r>
       <r>  -16.6521    1.0000 </r>
       <r>  -16.6518    1.0000 </r>
       <r>  -16.6505    1.0000 </r>
       <r>  -16.6504    1.0000 </r>
       <r>  -16.6407    1.0000 </r>
       <r>  -16.6407    1.0000 </r>
       <r>  -16.6378    1.0000 </r>
       <r>  -16.6377    1.0000 </r>
       <r>  -16.6182    1.0000 </r>
       <r>  -16.6180    1.0000 </r>
       <r>  -16.5740    1.0000 </r>
       <r>  -16.5737    1.0000 </r>
       <r>  -16.5639    1.0000 </r>
       <r>  -16.5569    1.0000 </r>
       <r>  -16.5048    1.0000 </r>
       <r>  -16.5029    1.0000 </r>
       <r>  -16.4938    1.0000 </r>
       <r>  -16.4916    1.0000 </r>
       <r>  -16.4567    1.0000 </r>
       <r>  -16.4564    1.0000 </r>
       <r>  -16.4540    1.0000 </r>
       <r>  -16.4539    1.0000 </r>
       <r>  -16.4445    1.0000 </r>
       <r>  -16.4442    1.0000 </r>
       <r>  -16.4048    1.0000 </r>
       <r>  -16.4047    1.0000 </r>
       <r>  -16.3924    1.0000 </r>
       <r>  -16.3912    1.0000 </r>
       <r>  -16.3876    1.0000 </r>
       <r>  -16.3874    1.0000 </r>
       <r>  -14.6624    1.0000 </r>
       <r>  -14.5701    1.0000 </r>
       <r>  -14.4706    1.0000 </r>
       <r>  -14.4698    1.0000 </r>
       <r>  -14.4076    1.0000 </r>
       <r>  -14.3830    1.0000 </r>
       <r>  -14.3205    1.0000 </r>
       <r>  -14.2961    1.0000 </r>
       <r>  -14.2248    1.0000 </r>
       <r>  -14.1749    1.0000 </r>
       <r>  -14.1558    1.0000 </r>
       <r>  -14.1292    1.0000 </r>
       <r>  -14.1010    1.0000 </r>
       <r>  -14.0942    1.0000 </r>
       <r>  -14.0633    1.0000 </r>
       <r>  -14.0633    1.0000 </r>
       <r>  -14.0048    1.0000 </r>
       <r>  -13.9971    1.0000 </r>
       <r>  -13.9779    1.0000 </r>
       <r>  -13.9355    1.0000 </r>
       <r>  -13.9158    1.0000 </r>
       <r>  -13.8789    1.0000 </r>
       <r>  -13.8614    1.0000 </r>
       <r>  -13.7300    1.0000 </r>
       <r>   -8.1736    1.0000 </r>
       <r>   -8.0766    1.0000 </r>
       <r>   -7.8495    1.0000 </r>
       <r>   -7.8187    1.0000 </r>
       <r>   -7.7921    1.0000 </r>
       <r>   -7.7190    1.0000 </r>
       <r>   -7.7173    1.0000 </r>
       <r>   -7.5567    1.0000 </r>
       <r>   -7.4935    1.0000 </r>
       <r>   -7.4321    1.0000 </r>
       <r>   -7.4151    1.0000 </r>
       <r>   -7.4094    1.0000 </r>
       <r>   -7.3893    1.0000 </r>
       <r>   -7.3844    1.0000 </r>
       <r>   -7.3767    1.0000 </r>
       <r>   -7.3759    1.0000 </r>
       <r>   -7.3681    1.0000 </r>
       <r>   -7.3540    1.0000 </r>
       <r>   -7.3538    1.0000 </r>
       <r>   -7.3448    1.0000 </r>
       <r>   -7.3431    1.0000 </r>
       <r>   -7.3363    1.0000 </r>
       <r>   -7.3263    1.0000 </r>
       <r>   -7.3110    1.0000 </r>
       <r>   -7.2779    1.0000 </r>
       <r>   -7.2543    1.0000 </r>
       <r>   -7.2541    1.0000 </r>
       <r>   -7.2508    1.0000 </r>
       <r>   -7.2203    1.0000 </r>
       <r>   -3.6870    1.0000 </r>
       <r>   -3.5734    1.0000 </r>
       <r>   -3.3015    1.0000 </r>
       <r>   -3.2494    1.0000 </r>
       <r>   -3.0002    1.0000 </r>
       <r>   -2.8936    1.0000 </r>
       <r>   -2.8191    1.0000 </r>
       <r>   -2.7934    1.0000 </r>
       <r>   -2.7670    1.0000 </r>
       <r>   -2.7329    1.0000 </r>
       <r>   -2.6467    1.0000 </r>
       <r>   -2.5951    1.0000 </r>
       <r>   -2.5534    1.0000 </r>
       <r>   -2.5249    1.0000 </r>
       <r>   -2.4869    1.0000 </r>
       <r>   -2.4394    1.0000 </r>
       <r>   -2.4380    1.0000 </r>
       <r>   -2.3964    1.0000 </r>
       <r>   -2.3354    1.0000 </r>
       <r>   -2.3317    1.0000 </r>
       <r>   -2.2780    1.0000 </r>
       <r>   -2.2310    1.0000 </r>
       <r>   -2.2046    1.0000 </r>
       <r>   -2.1288    1.0000 </r>
       <r>   -2.0289    1.0000 </r>
       <r>   -1.9506    1.0000 </r>
       <r>   -1.9356    1.0000 </r>
       <r>   -1.9065    1.0000 </r>
       <r>   -1.8558    1.0000 </r>
       <r>   -1.8536    1.0000 </r>
       <r>   -1.7977    1.0000 </r>
       <r>   -1.7854    1.0000 </r>
       <r>   -1.7566    1.0000 </r>
       <r>   -1.7439    1.0000 </r>
       <r>   -1.7357    1.0000 </r>
       <r>   -1.7014    1.0000 </r>
       <r>   -1.6537    1.0000 </r>
       <r>   -1.6264    1.0000 </r>
       <r>   -1.6167    1.0000 </r>
       <r>   -1.5959    1.0000 </r>
       <r>   -1.5643    1.0000 </r>
       <r>   -1.5312    1.0000 </r>
       <r>   -1.5291    1.0000 </r>
       <r>   -1.5112    1.0000 </r>
       <r>   -1.4035    1.0000 </r>
       <r>   -1.4015    1.0000 </r>
       <r>   -1.3935    1.0000 </r>
       <r>   -1.3814    1.0000 </r>
       <r>   -1.3653    1.0000 </r>
       <r>   -1.3637    1.0000 </r>
       <r>   -1.3411    1.0000 </r>
       <r>   -1.3230    1.0000 </r>
       <r>   -1.2996    1.0000 </r>
       <r>   -1.2672    1.0000 </r>
       <r>   -1.2469    1.0000 </r>
       <r>   -1.2393    1.0000 </r>
       <r>   -1.2139    1.0000 </r>
       <r>   -1.1956    1.0000 </r>
       <r>   -1.1784    1.0000 </r>
       <r>   -1.1724    1.0000 </r>
       <r>   -1.1531    1.0000 </r>
       <r>   -1.1226    1.0000 </r>
       <r>   -1.0703    1.0000 </r>
       <r>   -1.0442    1.0000 </r>
       <r>   -1.0367    1.0000 </r>
       <r>   -0.9890    1.0000 </r>
       <r>   -0.9257    1.0000 </r>
       <r>   -0.8766    1.0000 </r>
       <r>   -0.7567    1.0000 </r>
       <r>   -0.6687    1.0000 </r>
       <r>   -0.5453    1.0000 </r>
       <r>   -0.4566    1.0000 </r>
       <r>    2.7558    0.0000 </r>
       <r>    2.8209    0.0000 </r>
       <r>    3.0988    0.0000 </r>
       <r>    3.1182    0.0000 </r>
       <r>    3.6614    0.0000 </r>
       <r>    4.0626    0.0000 </r>
       <r>    4.1222    0.0000 </r>
       <r>    4.1310    0.0000 </r>
       <r>    4.2003    0.0000 </r>
       <r>    4.2767    0.0000 </r>
       <r>    4.3378    0.0000 </r>
       <r>    4.3646    0.0000 </r>
       <r>    4.3932    0.0000 </r>
       <r>    4.4032    0.0000 </r>
       <r>    4.5103    0.0000 </r>
       <r>    4.5118    0.0000 </r>
       <r>    4.5876    0.0000 </r>
       <r>    4.6011    0.0000 </r>
       <r>    4.7231    0.0000 </r>
       <r>    4.7673    0.0000 </r>
       <r>    5.3673    0.0000 </r>
       <r>    5.5274    0.0000 </r>
       <r>    5.6509    0.0000 </r>
       <r>    5.7941    0.0000 </r>
       <r>    5.8579    0.0000 </r>
       <r>    5.8906    0.0000 </r>
       <r>    6.0263    0.0000 </r>
       <r>    6.0542    0.0000 </r>
       <r>    6.1359    0.0000 </r>
       <r>    6.1524    0.0000 </r>
       <r>    6.2043    0.0000 </r>
       <r>    6.3040    0.0000 </r>
       <r>    6.3425    0.0000 </r>
       <r>    6.4070    0.0000 </r>
       <r>    6.5020    0.0000 </r>
       <r>    6.5077    0.0000 </r>
      </set>
      <set comment="kpoint 5">
       <r>  -21.2703    1.0000 </r>
       <r>  -21.0129    1.0000 </r>
       <r>  -20.9727    1.0000 </r>
       <r>  -20.9678    1.0000 </r>
       <r>  -20.9481    1.0000 </r>
       <r>  -20.9282    1.0000 </r>
       <r>  -20.8460    1.0000 </r>
       <r>  -16.8114    1.0000 </r>
       <r>  -16.7959    1.0000 </r>
       <r>  -16.7754    1.0000 </r>
       <r>  -16.7650    1.0000 </r>
       <r>  -16.7579    1.0000 </r>
       <r>  -16.7426    1.0000 </r>
       <r>  -16.7423    1.0000 </r>
       <r>  -16.7193    1.0000 </r>
       <r>  -16.6723    1.0000 </r>
       <r>  -16.6701    1.0000 </r>
       <r>  -16.6526    1.0000 </r>
       <r>  -16.6511    1.0000 </r>
       <r>  -16.6507    1.0000 </r>
       <r>  -16.6501    1.0000 </r>
       <r>  -16.6409    1.0000 </r>
       <r>  -16.6404    1.0000 </r>
       <r>  -16.6380    1.0000 </r>
       <r>  -16.6375    1.0000 </r>
       <r>  -16.6184    1.0000 </r>
       <r>  -16.6177    1.0000 </r>
       <r>  -16.5845    1.0000 </r>
       <r>  -16.5611    1.0000 </r>
       <r>  -16.5605    1.0000 </r>
       <r>  -16.5284    1.0000 </r>
       <r>  -16.5264    1.0000 </r>
       <r>  -16.5079    1.0000 </r>
       <r>  -16.5075    1.0000 </r>
       <r>  -16.4710    1.0000 </r>
       <r>  -16.4571    1.0000 </r>
       <r>  -16.4560    1.0000 </r>
       <r>  -16.4541    1.0000 </r>
       <r>  -16.4540    1.0000 </r>
       <r>  -16.4447    1.0000 </r>
       <r>  -16.4436    1.0000 </r>
       <r>  -16.4048    1.0000 </r>
       <r>  -16.4047    1.0000 </r>
       <r>  -16.3931    1.0000 </r>
       <r>  -16.3907    1.0000 </r>
       <r>  -16.3879    1.0000 </r>
       <r>  -16.3871    1.0000 </r>
       <r>  -14.6256    1.0000 </r>
       <r>  -14.5795    1.0000 </r>
       <r>  -14.5723    1.0000 </r>
       <r>  -14.4064    1.0000 </r>
       <r>  -14.3862    1.0000 </r>
       <r>  -14.3819    1.0000 </r>
       <r>  -14.2897    1.0000 </r>
       <r>  -14.2672    1.0000 </r>
       <r>  -14.2093    1.0000 </r>
       <r>  -14.1816    1.0000 </r>
       <r>  -14.1571    1.0000 </r>
       <r>  -14.1394    1.0000 </r>
       <r>  -14.1326    1.0000 </r>
       <r>  -14.1262    1.0000 </r>
       <r>  -14.0867    1.0000 </r>
       <r>  -14.0824    1.0000 </r>
       <r>  -14.0540    1.0000 </r>
       <r>  -13.9630    1.0000 </r>
       <r>  -13.9495    1.0000 </r>
       <r>  -13.9288    1.0000 </r>
       <r>  -13.9257    1.0000 </r>
       <r>  -13.8997    1.0000 </r>
       <r>  -13.8400    1.0000 </r>
       <r>  -13.7059    1.0000 </r>
       <r>   -8.2180    1.0000 </r>
       <r>   -8.1989    1.0000 </r>
       <r>   -7.8903    1.0000 </r>
       <r>   -7.8326    1.0000 </r>
       <r>   -7.7245    1.0000 </r>
       <r>   -7.6787    1.0000 </r>
       <r>   -7.6758    1.0000 </r>
       <r>   -7.6263    1.0000 </r>
       <r>   -7.5774    1.0000 </r>
       <r>   -7.4369    1.0000 </r>
       <r>   -7.4035    1.0000 </r>
       <r>   -7.3991    1.0000 </r>
       <r>   -7.3874    1.0000 </r>
       <r>   -7.3780    1.0000 </r>
       <r>   -7.3748    1.0000 </r>
       <r>   -7.3670    1.0000 </r>
       <r>   -7.3651    1.0000 </r>
       <r>   -7.3572    1.0000 </r>
       <r>   -7.3507    1.0000 </r>
       <r>   -7.3456    1.0000 </r>
       <r>   -7.3393    1.0000 </r>
       <r>   -7.3392    1.0000 </r>
       <r>   -7.3258    1.0000 </r>
       <r>   -7.3049    1.0000 </r>
       <r>   -7.2586    1.0000 </r>
       <r>   -7.2492    1.0000 </r>
       <r>   -7.2474    1.0000 </r>
       <r>   -7.0961    1.0000 </r>
       <r>   -7.0286    1.0000 </r>
       <r>   -3.6226    1.0000 </r>
       <r>   -3.5168    1.0000 </r>
       <r>   -3.3934    1.0000 </r>
       <r>   -3.3445    1.0000 </r>
       <r>   -3.2848    1.0000 </r>
       <r>   -3.2570    1.0000 </r>
       <r>   -3.2210    1.0000 </r>
       <r>   -3.1590    1.0000 </r>
       <r>   -2.8821    1.0000 </r>
       <r>   -2.8409    1.0000 </r>
       <r>   -2.8298    1.0000 </r>
       <r>   -2.6914    1.0000 </r>
       <r>   -2.5887    1.0000 </r>
       <r>   -2.5471    1.0000 </r>
       <r>   -2.4674    1.0000 </r>
       <r>   -2.4547    1.0000 </r>
       <r>   -2.4244    1.0000 </r>
       <r>   -2.3199    1.0000 </r>
       <r>   -2.2614    1.0000 </r>
       <r>   -2.2436    1.0000 </r>
       <r>   -2.1966    1.0000 </r>
       <r>   -2.0811    1.0000 </r>
       <r>   -2.0409    1.0000 </r>
       <r>   -1.9740    1.0000 </r>
       <r>   -1.9602    1.0000 </r>
       <r>   -1.9344    1.0000 </r>
       <r>   -1.8822    1.0000 </r>
       <r>   -1.8691    1.0000 </r>
       <r>   -1.8222    1.0000 </r>
       <r>   -1.7789    1.0000 </r>
       <r>   -1.7225    1.0000 </r>
       <r>   -1.6683    1.0000 </r>
       <r>   -1.6583    1.0000 </r>
       <r>   -1.6449    1.0000 </r>
       <r>   -1.6409    1.0000 </r>
       <r>   -1.6039    1.0000 </r>
       <r>   -1.6000    1.0000 </r>
       <r>   -1.5792    1.0000 </r>
       <r>   -1.5709    1.0000 </r>
       <r>   -1.5449    1.0000 </r>
       <r>   -1.5286    1.0000 </r>
       <r>   -1.4795    1.0000 </r>
       <r>   -1.4704    1.0000 </r>
       <r>   -1.4670    1.0000 </r>
       <r>   -1.4633    1.0000 </r>
       <r>   -1.4370    1.0000 </r>
       <r>   -1.4182    1.0000 </r>
       <r>   -1.4103    1.0000 </r>
       <r>   -1.3848    1.0000 </r>
       <r>   -1.3694    1.0000 </r>
       <r>   -1.3688    1.0000 </r>
       <r>   -1.3528    1.0000 </r>
       <r>   -1.3353    1.0000 </r>
       <r>   -1.2979    1.0000 </r>
       <r>   -1.2739    1.0000 </r>
       <r>   -1.2690    1.0000 </r>
       <r>   -1.2519    1.0000 </r>
       <r>   -1.2323    1.0000 </r>
       <r>   -1.2072    1.0000 </r>
       <r>   -1.1984    1.0000 </r>
       <r>   -1.1611    1.0000 </r>
       <r>   -1.1298    1.0000 </r>
       <r>   -1.0905    1.0000 </r>
       <r>   -1.0115    1.0000 </r>
       <r>   -0.9313    1.0000 </r>
       <r>   -0.9014    1.0000 </r>
       <r>   -0.7434    1.0000 </r>
       <r>   -0.7367    1.0000 </r>
       <r>   -0.6979    1.0000 </r>
       <r>   -0.6222    1.0000 </r>
       <r>   -0.1920    1.0000 </r>
       <r>   -0.0685    1.0000 </r>
       <r>    2.6848    0.0000 </r>
       <r>    2.7467    0.0000 </r>
       <r>    2.7565    0.0000 </r>
       <r>    2.8563    0.0000 </r>
       <r>    3.1055    0.0000 </r>
       <r>    3.1258    0.0000 </r>
       <r>    3.1931    0.0000 </r>
       <r>    3.2554    0.0000 </r>
       <r>    3.8237    0.0000 </r>
       <r>    4.0987    0.0000 </r>
       <r>    4.2780    0.0000 </r>
       <r>    4.3313    0.0000 </r>
       <r>    4.4135    0.0000 </r>
       <r>    4.4371    0.0000 </r>
       <r>    4.6668    0.0000 </r>
       <r>    4.7721    0.0000 </r>
       <r>    5.2839    0.0000 </r>
       <r>    5.2923    0.0000 </r>
       <r>    5.4190    0.0000 </r>
       <r>    5.4612    0.0000 </r>
       <r>    5.4930    0.0000 </r>
       <r>    5.6927    0.0000 </r>
       <r>    5.7006    0.0000 </r>
       <r>    5.8886    0.0000 </r>
       <r>    5.9511    0.0000 </r>
       <r>    5.9859    0.0000 </r>
       <r>    6.0953    0.0000 </r>
       <r>    6.1046    0.0000 </r>
       <r>    6.1219    0.0000 </r>
       <r>    6.2151    0.0000 </r>
       <r>    6.3185    0.0000 </r>
       <r>    6.3802    0.0000 </r>
       <r>    6.3832    0.0000 </r>
       <r>    6.4178    0.0000 </r>
       <r>    6.5096    0.0000 </r>
       <r>    6.5331    0.0000 </r>
      </set>
      <set comment="kpoint 6">
       <r>  -21.2702    1.0000 </r>
       <r>  -21.0129    1.0000 </r>
       <r>  -20.9726    1.0000 </r>
       <r>  -20.9678    1.0000 </r>
       <r>  -20.9480    1.0000 </r>
       <r>  -20.9282    1.0000 </r>
       <r>  -20.8460    1.0000 </r>
       <r>  -16.8112    1.0000 </r>
       <r>  -16.7958    1.0000 </r>
       <r>  -16.7746    1.0000 </r>
       <r>  -16.7619    1.0000 </r>
       <r>  -16.7573    1.0000 </r>
       <r>  -16.7401    1.0000 </r>
       <r>  -16.7395    1.0000 </r>
       <r>  -16.7170    1.0000 </r>
       <r>  -16.6722    1.0000 </r>
       <r>  -16.6701    1.0000 </r>
       <r>  -16.6526    1.0000 </r>
       <r>  -16.6511    1.0000 </r>
       <r>  -16.6507    1.0000 </r>
       <r>  -16.6500    1.0000 </r>
       <r>  -16.6408    1.0000 </r>
       <r>  -16.6404    1.0000 </r>
       <r>  -16.6380    1.0000 </r>
       <r>  -16.6375    1.0000 </r>
       <r>  -16.6184    1.0000 </r>
       <r>  -16.6177    1.0000 </r>
       <r>  -16.5857    1.0000 </r>
       <r>  -16.5639    1.0000 </r>
       <r>  -16.5635    1.0000 </r>
       <r>  -16.5293    1.0000 </r>
       <r>  -16.5270    1.0000 </r>
       <r>  -16.5102    1.0000 </r>
       <r>  -16.5100    1.0000 </r>
       <r>  -16.4719    1.0000 </r>
       <r>  -16.4571    1.0000 </r>
       <r>  -16.4559    1.0000 </r>
       <r>  -16.4541    1.0000 </r>
       <r>  -16.4539    1.0000 </r>
       <r>  -16.4447    1.0000 </r>
       <r>  -16.4436    1.0000 </r>
       <r>  -16.4047    1.0000 </r>
       <r>  -16.4046    1.0000 </r>
       <r>  -16.3930    1.0000 </r>
       <r>  -16.3907    1.0000 </r>
       <r>  -16.3879    1.0000 </r>
       <r>  -16.3870    1.0000 </r>
       <r>  -14.6240    1.0000 </r>
       <r>  -14.5800    1.0000 </r>
       <r>  -14.5698    1.0000 </r>
       <r>  -14.4062    1.0000 </r>
       <r>  -14.3835    1.0000 </r>
       <r>  -14.3800    1.0000 </r>
       <r>  -14.3271    1.0000 </r>
       <r>  -14.2771    1.0000 </r>
       <r>  -14.2519    1.0000 </r>
       <r>  -14.2121    1.0000 </r>
       <r>  -14.1611    1.0000 </r>
       <r>  -14.1486    1.0000 </r>
       <r>  -14.0809    1.0000 </r>
       <r>  -14.0642    1.0000 </r>
       <r>  -14.0500    1.0000 </r>
       <r>  -14.0232    1.0000 </r>
       <r>  -13.9853    1.0000 </r>
       <r>  -13.9774    1.0000 </r>
       <r>  -13.9723    1.0000 </r>
       <r>  -13.9573    1.0000 </r>
       <r>  -13.9485    1.0000 </r>
       <r>  -13.9445    1.0000 </r>
       <r>  -13.8491    1.0000 </r>
       <r>  -13.7128    1.0000 </r>
       <r>   -8.0969    1.0000 </r>
       <r>   -8.0927    1.0000 </r>
       <r>   -7.8667    1.0000 </r>
       <r>   -7.8456    1.0000 </r>
       <r>   -7.8087    1.0000 </r>
       <r>   -7.7872    1.0000 </r>
       <r>   -7.7181    1.0000 </r>
       <r>   -7.5596    1.0000 </r>
       <r>   -7.4678    1.0000 </r>
       <r>   -7.4361    1.0000 </r>
       <r>   -7.4179    1.0000 </r>
       <r>   -7.3970    1.0000 </r>
       <r>   -7.3922    1.0000 </r>
       <r>   -7.3835    1.0000 </r>
       <r>   -7.3753    1.0000 </r>
       <r>   -7.3697    1.0000 </r>
       <r>   -7.3652    1.0000 </r>
       <r>   -7.3613    1.0000 </r>
       <r>   -7.3516    1.0000 </r>
       <r>   -7.3438    1.0000 </r>
       <r>   -7.3411    1.0000 </r>
       <r>   -7.3347    1.0000 </r>
       <r>   -7.3254    1.0000 </r>
       <r>   -7.3090    1.0000 </r>
       <r>   -7.2879    1.0000 </r>
       <r>   -7.2555    1.0000 </r>
       <r>   -7.2492    1.0000 </r>
       <r>   -7.2427    1.0000 </r>
       <r>   -7.1944    1.0000 </r>
       <r>   -3.6190    1.0000 </r>
       <r>   -3.5088    1.0000 </r>
       <r>   -3.2675    1.0000 </r>
       <r>   -3.1791    1.0000 </r>
       <r>   -2.9746    1.0000 </r>
       <r>   -2.9451    1.0000 </r>
       <r>   -2.9123    1.0000 </r>
       <r>   -2.8431    1.0000 </r>
       <r>   -2.7750    1.0000 </r>
[...]
        <r>  0.0024  0.0039  0.0020 </r>
        <r>  0.0002  0.0002  0.0005 </r>
        <r>  0.0001  0.0017  0.0017 </r>
        <r>  0.0004  0.0014  0.0004 </r>
        <r>  0.0000  0.0025  0.0002 </r>
        <r>  0.0003  0.0016  0.0010 </r>
        <r>  0.0008  0.0012  0.0007 </r>
        <r>  0.0008  0.0015  0.0009 </r>
        <r>  0.0000  0.0001  0.0060 </r>
       </set>
       <set comment="band 199">
        <r>  0.0000  0.0000  0.0001 </r>
        <r>  0.0000  0.0000  0.0050 </r>
        <r>  0.0033  0.0004  0.0268 </r>
        <r>  0.0000  0.0001  0.0028 </r>
        <r>  0.0000  0.0000  0.0009 </r>
        <r>  0.0007  0.0002  0.0040 </r>
        <r>  0.0000  0.0024  0.0000 </r>
        <r>  0.0000  0.0048  0.0008 </r>
        <r>  0.0000  0.0021  0.0008 </r>
        <r>  0.0003  0.0004  0.0001 </r>
        <r>  0.0000  0.0021  0.0008 </r>
        <r>  0.0003  0.0004  0.0001 </r>
        <r>  0.0000  0.0024  0.0000 </r>
        <r>  0.0000  0.0048  0.0008 </r>
        <r>  0.0002  0.0035  0.0077 </r>
        <r>  0.0001  0.0020  0.0003 </r>
        <r>  0.0000  0.0000  0.0001 </r>
        <r>  0.0000  0.0003  0.0003 </r>
        <r>  0.0001  0.0055  0.0008 </r>
        <r>  0.0002  0.0013  0.0062 </r>
        <r>  0.0000  0.0008  0.0004 </r>
        <r>  0.0000  0.0002  0.0002 </r>
        <r>  0.0002  0.0036  0.0006 </r>
        <r>  0.0001  0.0004  0.0002 </r>
        <r>  0.0002  0.0001  0.0005 </r>
        <r>  0.0007  0.0017  0.0010 </r>
        <r>  0.0006  0.0014  0.0011 </r>
        <r>  0.0000  0.0001  0.0001 </r>
        <r>  0.0000  0.0017  0.0005 </r>
        <r>  0.0000  0.0037  0.0012 </r>
        <r>  0.0002  0.0036  0.0006 </r>
        <r>  0.0001  0.0004  0.0002 </r>
        <r>  0.0002  0.0001  0.0005 </r>
        <r>  0.0007  0.0017  0.0010 </r>
        <r>  0.0000  0.0017  0.0005 </r>
        <r>  0.0000  0.0037  0.0012 </r>
        <r>  0.0006  0.0014  0.0011 </r>
        <r>  0.0000  0.0001  0.0001 </r>
        <r>  0.0006  0.0001  0.0837 </r>
       </set>
       <set comment="band 200">
        <r>  0.0003  0.0012  0.0095 </r>
        <r>  0.0037  0.0016  0.0048 </r>
        <r>  0.0000  0.0000  0.0003 </r>
        <r>  0.0032  0.0021  0.0114 </r>
        <r>  0.0161  0.0028  0.0093 </r>
        <r>  0.0000  0.0006  0.0048 </r>
        <r>  0.0000  0.0023  0.0000 </r>
        <r>  0.0002  0.0020  0.0002 </r>
        <r>  0.0001  0.0022  0.0000 </r>
        <r>  0.0000  0.0010  0.0000 </r>
        <r>  0.0001  0.0022  0.0000 </r>
        <r>  0.0000  0.0010  0.0000 </r>
        <r>  0.0000  0.0022  0.0000 </r>
        <r>  0.0002  0.0021  0.0002 </r>
        <r>  0.0000  0.0041  0.0001 </r>
        <r>  0.0000  0.0001  0.0001 </r>
        <r>  0.0009  0.0020  0.0007 </r>
        <r>  0.0000  0.0059  0.0019 </r>
        <r>  0.0000  0.0004  0.0001 </r>
        <r>  0.0000  0.0000  0.0002 </r>
        <r>  0.0106  0.0009  0.0058 </r>
        <r>  0.0001  0.0010  0.0014 </r>
        <r>  0.0001  0.0012  0.0002 </r>
        <r>  0.0002  0.0019  0.0006 </r>
        <r>  0.0012  0.0041  0.0047 </r>
        <r>  0.0000  0.0004  0.0002 </r>
        <r>  0.0020  0.0046  0.0013 </r>
        <r>  0.0002  0.0015  0.0005 </r>
        <r>  0.0004  0.0015  0.0005 </r>
        <r>  0.0001  0.0009  0.0000 </r>
        <r>  0.0001  0.0012  0.0002 </r>
        <r>  0.0002  0.0019  0.0006 </r>
        <r>  0.0012  0.0041  0.0047 </r>
        <r>  0.0000  0.0004  0.0002 </r>
        <r>  0.0004  0.0015  0.0005 </r>
        <r>  0.0001  0.0009  0.0000 </r>
        <r>  0.0020  0.0046  0.0013 </r>
        <r>  0.0002  0.0015  0.0005 </r>
        <r>  0.0000  0.0011  0.0271 </r>
       </set>
       <set comment="band 201">
        <r>  0.0118  0.0009  0.0145 </r>
        <r>  0.0009  0.0025  0.0025 </r>
        <r>  0.0000  0.0000  0.0052 </r>
        <r>  0.0100  0.0007  0.0151 </r>
        <r>  0.0019  0.0007  0.0058 </r>
        <r>  0.0000  0.0004  0.0095 </r>
        <r>  0.0000  0.0024  0.0000 </r>
        <r>  0.0000  0.0035  0.0002 </r>
        <r>  0.0001  0.0053  0.0000 </r>
        <r>  0.0001  0.0126  0.0000 </r>
        <r>  0.0001  0.0053  0.0000 </r>
        <r>  0.0001  0.0127  0.0000 </r>
        <r>  0.0000  0.0024  0.0000 </r>
        <r>  0.0000  0.0035  0.0002 </r>
        <r>  0.0000  0.0007  0.0001 </r>
        <r>  0.0000  0.0047  0.0000 </r>
        <r>  0.0000  0.0002  0.0022 </r>
        <r>  0.0075  0.0008  0.0049 </r>
        <r>  0.0000  0.0000  0.0002 </r>
        <r>  0.0000  0.0061  0.0002 </r>
        <r>  0.0000  0.0038  0.0008 </r>
        <r>  0.0014  0.0034  0.0025 </r>
        <r>  0.0001  0.0017  0.0017 </r>
        <r>  0.0005  0.0044  0.0005 </r>
        <r>  0.0005  0.0036  0.0008 </r>
        <r>  0.0002  0.0013  0.0005 </r>
        <r>  0.0019  0.0037  0.0019 </r>
        <r>  0.0001  0.0019  0.0006 </r>
        <r>  0.0000  0.0000  0.0002 </r>
        <r>  0.0008  0.0007  0.0010 </r>
        <r>  0.0001  0.0017  0.0017 </r>
        <r>  0.0005  0.0044  0.0005 </r>
        <r>  0.0005  0.0036  0.0008 </r>
        <r>  0.0002  0.0013  0.0005 </r>
        <r>  0.0000  0.0000  0.0002 </r>
        <r>  0.0008  0.0007  0.0010 </r>
        <r>  0.0019  0.0037  0.0019 </r>
        <r>  0.0001  0.0020  0.0006 </r>
        <r>  0.0000  0.0008  0.0006 </r>
       </set>
       <set comment="band 202">
        <r>  0.0000  0.0001  0.0027 </r>
        <r>  0.0000  0.0000  0.0092 </r>
        <r>  0.0001  0.0006  0.0029 </r>
        <r>  0.0000  0.0000  0.0022 </r>
        <r>  0.0000  0.0010  0.0038 </r>
        <r>  0.0019  0.0001  0.0113 </r>
        <r>  0.0000  0.0072  0.0002 </r>
        <r>  0.0000  0.0053  0.0001 </r>
        <r>  0.0000  0.0065  0.0000 </r>
        <r>  0.0000  0.0088  0.0003 </r>
        <r>  0.0000  0.0065  0.0000 </r>
        <r>  0.0000  0.0088  0.0003 </r>
        <r>  0.0000  0.0072  0.0002 </r>
        <r>  0.0000  0.0053  0.0001 </r>
        <r>  0.0000  0.0006  0.0010 </r>
        <r>  0.0010  0.0018  0.0018 </r>
        <r>  0.0000  0.0056  0.0001 </r>
        <r>  0.0000  0.0000  0.0002 </r>
        <r>  0.0014  0.0030  0.0009 </r>
        <r>  0.0000  0.0005  0.0024 </r>
        <r>  0.0000  0.0001  0.0000 </r>
        <r>  0.0000  0.0042  0.0003 </r>
        <r>  0.0005  0.0041  0.0003 </r>
        <r>  0.0001  0.0012  0.0016 </r>
        <r>  0.0000  0.0015  0.0008 </r>
        <r>  0.0000  0.0030  0.0009 </r>
        <r>  0.0001  0.0014  0.0006 </r>
        <r>  0.0007  0.0017  0.0006 </r>
        <r>  0.0026  0.0032  0.0030 </r>
        <r>  0.0001  0.0020  0.0007 </r>
        <r>  0.0005  0.0041  0.0003 </r>
        <r>  0.0001  0.0012  0.0016 </r>
        <r>  0.0000  0.0015  0.0008 </r>
        <r>  0.0000  0.0030  0.0009 </r>
        <r>  0.0025  0.0032  0.0030 </r>
        <r>  0.0001  0.0020  0.0007 </r>
        <r>  0.0001  0.0014  0.0006 </r>
        <r>  0.0007  0.0017  0.0006 </r>
        <r>  0.0001  0.0142  0.0042 </r>
       </set>
       <set comment="band 203">
        <r>  0.0000  0.0001  0.0118 </r>
        <r>  0.0000  0.0008  0.0061 </r>
        <r>  0.0129  0.0000  0.0121 </r>
        <r>  0.0000  0.0005  0.0254 </r>
        <r>  0.0000  0.0001  0.0018 </r>
        <r>  0.0040  0.0015  0.0023 </r>
        <r>  0.0000  0.0067  0.0000 </r>
        <r>  0.0000  0.0069  0.0006 </r>
        <r>  0.0000  0.0038  0.0005 </r>
        <r>  0.0001  0.0075  0.0003 </r>
        <r>  0.0000  0.0038  0.0005 </r>
        <r>  0.0001  0.0076  0.0003 </r>
        <r>  0.0000  0.0067  0.0000 </r>
        <r>  0.0000  0.0069  0.0006 </r>
        <r>  0.0003  0.0053  0.0005 </r>
        <r>  0.0007  0.0005  0.0008 </r>
        <r>  0.0000  0.0024  0.0000 </r>
        <r>  0.0000  0.0002  0.0008 </r>
        <r>  0.0007  0.0021  0.0008 </r>
        <r>  0.0001  0.0057  0.0004 </r>
        <r>  0.0000  0.0016  0.0006 </r>
        <r>  0.0000  0.0064  0.0003 </r>
        <r>  0.0014  0.0011  0.0022 </r>
        <r>  0.0001  0.0034  0.0004 </r>
        <r>  0.0001  0.0004  0.0008 </r>
        <r>  0.0033  0.0011  0.0031 </r>
        <r>  0.0000  0.0000  0.0019 </r>
        <r>  0.0000  0.0054  0.0002 </r>
        <r>  0.0000  0.0011  0.0004 </r>
        <r>  0.0014  0.0024  0.0032 </r>
        <r>  0.0014  0.0011  0.0022 </r>
        <r>  0.0001  0.0034  0.0004 </r>
        <r>  0.0001  0.0004  0.0008 </r>
        <r>  0.0033  0.0011  0.0030 </r>
        <r>  0.0000  0.0011  0.0004 </r>
        <r>  0.0014  0.0024  0.0032 </r>
        <r>  0.0000  0.0000  0.0019 </r>
        <r>  0.0000  0.0054  0.0002 </r>
        <r>  0.0001  0.0002  0.0090 </r>
       </set>
       <set comment="band 204">
        <r>  0.0002  0.0006  0.0235 </r>
        <r>  0.0139  0.0010  0.0029 </r>
        <r>  0.0000  0.0003  0.0017 </r>
        <r>  0.0023  0.0027  0.0093 </r>
        <r>  0.0004  0.0028  0.0165 </r>
        <r>  0.0000  0.0002  0.0029 </r>
        <r>  0.0000  0.0114  0.0002 </r>
        <r>  0.0000  0.0001  0.0001 </r>
        <r>  0.0000  0.0023  0.0002 </r>
        <r>  0.0001  0.0020  0.0001 </r>
        <r>  0.0000  0.0023  0.0002 </r>
        <r>  0.0001  0.0020  0.0001 </r>
        <r>  0.0000  0.0114  0.0002 </r>
        <r>  0.0000  0.0001  0.0001 </r>
        <r>  0.0000  0.0003  0.0001 </r>
        <r>  0.0000  0.0008  0.0001 </r>
        <r>  0.0047  0.0040  0.0069 </r>
        <r>  0.0008  0.0027  0.0007 </r>
        <r>  0.0000  0.0086  0.0002 </r>
        <r>  0.0000  0.0001  0.0000 </r>
        <r>  0.0017  0.0021  0.0049 </r>
        <r>  0.0015  0.0027  0.0013 </r>
        <r>  0.0007  0.0027  0.0012 </r>
        <r>  0.0012  0.0008  0.0006 </r>
        <r>  0.0006  0.0015  0.0016 </r>
        <r>  0.0014  0.0008  0.0009 </r>
        <r>  0.0003  0.0026  0.0006 </r>
        <r>  0.0001  0.0036  0.0002 </r>
        <r>  0.0001  0.0015  0.0008 </r>
        <r>  0.0000  0.0008  0.0001 </r>
        <r>  0.0007  0.0027  0.0011 </r>
        <r>  0.0012  0.0008  0.0006 </r>
        <r>  0.0006  0.0015  0.0016 </r>
        <r>  0.0014  0.0008  0.0009 </r>
        <r>  0.0001  0.0015  0.0008 </r>
        <r>  0.0000  0.0008  0.0001 </r>
        <r>  0.0003  0.0026  0.0006 </r>
        <r>  0.0001  0.0036  0.0002 </r>
        <r>  0.0000  0.0002  0.0128 </r>
       </set>
       <set comment="band 205">
        <r>  0.0000  0.0000  0.0026 </r>
        <r>  0.0000  0.0004  0.0010 </r>
        <r>  0.0041  0.0015  0.0037 </r>
        <r>  0.0000  0.0007  0.0128 </r>
        <r>  0.0000  0.0003  0.0117 </r>
        <r>  0.0190  0.0008  0.0122 </r>
        <r>  0.0000  0.0041  0.0001 </r>
        <r>  0.0000  0.0089  0.0001 </r>
        <r>  0.0000  0.0056  0.0001 </r>
        <r>  0.0000  0.0051  0.0001 </r>
        <r>  0.0000  0.0055  0.0001 </r>
        <r>  0.0000  0.0052  0.0001 </r>
        <r>  0.0000  0.0038  0.0001 </r>
        <r>  0.0000  0.0087  0.0001 </r>
        <r>  0.0027  0.0014  0.0025 </r>
        <r>  0.0006  0.0055  0.0019 </r>
        <r>  0.0000  0.0002  0.0000 </r>
        <r>  0.0000  0.0081  0.0001 </r>
        <r>  0.0004  0.0029  0.0008 </r>
        <r>  0.0028  0.0032  0.0044 </r>
        <r>  0.0000  0.0048  0.0006 </r>
        <r>  0.0000  0.0030  0.0001 </r>
        <r>  0.0002  0.0017  0.0003 </r>
        <r>  0.0011  0.0009  0.0007 </r>
        <r>  0.0000  0.0034  0.0004 </r>
        <r>  0.0006  0.0025  0.0018 </r>
        <r>  0.0016  0.0007  0.0023 </r>
        <r>  0.0001  0.0004  0.0002 </r>
        <r>  0.0010  0.0017  0.0018 </r>
        <r>  0.0004  0.0040  0.0008 </r>
        <r>  0.0002  0.0019  0.0003 </r>
        <r>  0.0011  0.0008  0.0007 </r>
        <r>  0.0001  0.0035  0.0004 </r>
        <r>  0.0005  0.0024  0.0017 </r>
        <r>  0.0009  0.0017  0.0017 </r>
        <r>  0.0004  0.0040  0.0008 </r>
        <r>  0.0016  0.0007  0.0023 </r>
        <r>  0.0000  0.0004  0.0002 </r>
        <r>  0.0001  0.0027  0.0036 </r>
       </set>
       <set comment="band 206">
        <r>  0.0020  0.0002  0.0200 </r>
        <r>  0.0005  0.0003  0.0264 </r>
        <r>  0.0000  0.0002  0.0272 </r>
        <r>  0.0010  0.0001  0.0111 </r>
        <r>  0.0002  0.0001  0.0132 </r>
        <r>  0.0000  0.0002  0.0200 </r>
        <r>  0.0001  0.0047  0.0009 </r>
        <r>  0.0000  0.0040  0.0001 </r>
        <r>  0.0001  0.0074  0.0013 </r>
        <r>  0.0000  0.0028  0.0002 </r>
        <r>  0.0001  0.0073  0.0014 </r>
        <r>  0.0000  0.0024  0.0002 </r>
        <r>  0.0000  0.0046  0.0008 </r>
        <r>  0.0000  0.0042  0.0001 </r>
        <r>  0.0000  0.0001  0.0012 </r>
        <r>  0.0000  0.0001  0.0001 </r>
        <r>  0.0001  0.0004  0.0008 </r>
        <r>  0.0009  0.0006  0.0031 </r>
        <r>  0.0000  0.0000  0.0004 </r>
        <r>  0.0000  0.0001  0.0004 </r>
        <r>  0.0001  0.0005  0.0005 </r>
        <r>  0.0001  0.0001  0.0005 </r>
        <r>  0.0003  0.0007  0.0025 </r>
        <r>  0.0003  0.0004  0.0015 </r>
        <r>  0.0004  0.0014  0.0013 </r>
        <r>  0.0008  0.0017  0.0030 </r>
        <r>  0.0008  0.0007  0.0032 </r>
        <r>  0.0000  0.0000  0.0011 </r>
        <r>  0.0001  0.0020  0.0013 </r>
        <r>  0.0006  0.0031  0.0011 </r>
        <r>  0.0004  0.0008  0.0027 </r>
        <r>  0.0003  0.0004  0.0016 </r>
        <r>  0.0003  0.0014  0.0012 </r>
        <r>  0.0010  0.0017  0.0029 </r>
        <r>  0.0001  0.0019  0.0014 </r>
        <r>  0.0005  0.0031  0.0011 </r>
        <r>  0.0009  0.0006  0.0034 </r>
        <r>  0.0000  0.0000  0.0010 </r>
        <r>  0.0000  0.0006  0.0076 </r>
       </set>
       <set comment="band 207">
        <r>  0.0002  0.0009  0.0103 </r>
        <r>  0.0024  0.0007  0.0056 </r>
        <r>  0.0000  0.0001  0.0022 </r>
        <r>  0.0001  0.0001  0.0096 </r>
        <r>  0.0059  0.0002  0.0018 </r>
        <r>  0.0000  0.0000  0.0042 </r>
        <r>  0.0000  0.0020  0.0002 </r>
        <r>  0.0002  0.0099  0.0007 </r>
        <r>  0.0000  0.0031  0.0005 </r>
        <r>  0.0001  0.0027  0.0000 </r>
        <r>  0.0000  0.0029  0.0005 </r>
        <r>  0.0001  0.0023  0.0000 </r>
        <r>  0.0000  0.0027  0.0002 </r>
        <r>  0.0003  0.0106  0.0008 </r>
        <r>  0.0000  0.0001  0.0007 </r>
        <r>  0.0000  0.0030  0.0000 </r>
        <r>  0.0001  0.0006  0.0010 </r>
        <r>  0.0018  0.0003  0.0002 </r>
        <r>  0.0000  0.0011  0.0007 </r>
        <r>  0.0000  0.0004  0.0007 </r>
        <r>  0.0007  0.0001  0.0008 </r>
        <r>  0.0009  0.0000  0.0008 </r>
        <r>  0.0004  0.0017  0.0008 </r>
        <r>  0.0014  0.0023  0.0024 </r>
        <r>  0.0001  0.0100  0.0046 </r>
        <r>  0.0002  0.0015  0.0003 </r>
        <r>  0.0000  0.0004  0.0006 </r>
        <r>  0.0004  0.0006  0.0012 </r>
        <r>  0.0004  0.0016  0.0011 </r>
        <r>  0.0000  0.0035  0.0005 </r>
        <r>  0.0006  0.0015  0.0009 </r>
        <r>  0.0015  0.0020  0.0026 </r>
        <r>  0.0001  0.0098  0.0045 </r>
        <r>  0.0004  0.0014  0.0002 </r>
        <r>  0.0005  0.0021  0.0011 </r>
        <r>  0.0000  0.0038  0.0005 </r>
        <r>  0.0001  0.0004  0.0006 </r>
        <r>  0.0006  0.0007  0.0014 </r>
        <r>  0.0000  0.0005  0.0750 </r>
       </set>
       <set comment="band 208">
        <r>  0.0000  0.0013  0.0097 </r>
        <r>  0.0021  0.0001  0.0072 </r>
        <r>  0.0000  0.0002  0.0070 </r>
        <r>  0.0030  0.0003  0.0636 </r>
        <r>  0.0002  0.0003  0.0257 </r>
        <r>  0.0001  0.0001  0.0063 </r>
        <r>  0.0000  0.0020  0.0004 </r>
        <r>  0.0000  0.0030  0.0003 </r>
        <r>  0.0002  0.0020  0.0007 </r>
        <r>  0.0000  0.0024  0.0005 </r>
        <r>  0.0001  0.0020  0.0008 </r>
        <r>  0.0000  0.0023  0.0005 </r>
        <r>  0.0000  0.0013  0.0004 </r>
        <r>  0.0000  0.0018  0.0003 </r>
        <r>  0.0001  0.0002  0.0011 </r>
        <r>  0.0000  0.0015  0.0005 </r>
        <r>  0.0003  0.0008  0.0003 </r>
        <r>  0.0010  0.0007  0.0024 </r>
        <r>  0.0000  0.0009  0.0005 </r>
        <r>  0.0000  0.0005  0.0001 </r>
        <r>  0.0018  0.0021  0.0051 </r>
        <r>  0.0029  0.0008  0.0045 </r>
        <r>  0.0005  0.0038  0.0043 </r>
        <r>  0.0000  0.0021  0.0013 </r>
        <r>  0.0001  0.0011  0.0009 </r>
        <r>  0.0000  0.0002  0.0009 </r>
        <r>  0.0002  0.0004  0.0016 </r>
        <r>  0.0002  0.0014  0.0008 </r>
        <r>  0.0001  0.0007  0.0003 </r>
        <r>  0.0000  0.0019  0.0010 </r>
        <r>  0.0006  0.0040  0.0041 </r>
        <r>  0.0000  0.0026  0.0013 </r>
        <r>  0.0001  0.0011  0.0007 </r>
        <r>  0.0000  0.0001  0.0010 </r>
        <r>  0.0003  0.0004  0.0004 </r>
        <r>  0.0000  0.0019  0.0011 </r>
        <r>  0.0001  0.0003  0.0011 </r>
        <r>  0.0000  0.0010  0.0006 </r>
        <r>  0.0000  0.0000  0.0077 </r>
       </set>
      </set>
     </set>
    </set>
   </array>
  </projected>
 </calculation>
 <structure name="finalpos" >
  <crystal>
   <varray name="basis" >
    <v>       8.42001800       0.00000000       8.07798100 </v>
    <v>       0.00000000      11.76380800       0.00000000 </v>
    <v>      -8.42001800       0.00000000       8.07798100 </v>
   </varray>
   <i name="volume">   1600.27186790 </i>
   <varray name="rec_basis" >
    <v>       0.05938230      -0.00000000       0.06189665 </v>
    <v>       0.00000000       0.08500649      -0.00000000 </v>
    <v>      -0.05938230       0.00000000       0.06189665 </v>
   </varray>
  </crystal>
  <varray name="positions" >
   <v>       0.26095400       0.24999400       0.20611500 </v>
   <v>       0.77365800       0.25000200       0.71575600 </v>
   <v>       0.19767100       0.75000200       0.76039700 </v>
   <v>       0.28492300       0.25000400       0.73605200 </v>
   <v>       0.76953300       0.25000400       0.22631200 </v>
   <v>       0.73751800       0.75000200       0.78595900 </v>
   <v>       0.99553000       0.99658200       0.00482300 </v>
   <v>       0.50217000       0.00158500       0.49952300 </v>
   <v>       0.50117400       0.00099200       0.99181700 </v>
   <v>       0.00103100       0.99953600       0.49892200 </v>
   <v>       0.50116500       0.49898900       0.99182300 </v>
   <v>       0.00103400       0.50045900       0.49892500 </v>
   <v>       0.99552000       0.50339200       0.00482900 </v>
   <v>       0.50218300       0.49842600       0.49952200 </v>
   <v>       0.46394300       0.74998800       0.94047900 </v>
   <v>       0.96829000       0.75000400       0.49167400 </v>
   <v>       0.95885400       0.25000600       0.97548100 </v>
   <v>       0.46017600       0.25001100       0.48833400 </v>
   <v>       0.04627900       0.74999600       0.02658700 </v>
   <v>       0.53946300       0.75001900       0.53266700 </v>
   <v>       0.53991800       0.24999100       0.99826200 </v>
   <v>       0.03224000       0.25000200       0.54618700 </v>
   <v>       0.24690900       0.46369000       0.95518200 </v>
   <v>       0.74903700       0.45059200       0.46300200 </v>
   <v>       0.46446700       0.48507300       0.24242900 </v>
   <v>       0.95110000       0.52738300       0.75165900 </v>
   <v>       0.55958100       0.02662000       0.74723900 </v>
   <v>       0.03462800       0.04991300       0.25341500 </v>
   <v>       0.74818900       0.95579200       0.04882300 </v>
   <v>       0.25391900       0.97731200       0.55923800 </v>
   <v>       0.24690900       0.03630700       0.95517900 </v>
   <v>       0.74904200       0.04941600       0.46301000 </v>
   <v>       0.46447100       0.01492200       0.24243400 </v>
   <v>       0.95110200       0.97262500       0.75166500 </v>
   <v>       0.74819100       0.54420100       0.04881600 </v>
   <v>       0.25392000       0.52270100       0.55923700 </v>
   <v>       0.55958400       0.47338400       0.74723800 </v>
   <v>       0.03463200       0.45008300       0.25341700 </v>
   <v>       0.47071000       0.74999900       0.25613300 </v>
  </varray>
 </structure>
</modeling>
