CsPbBr3 cubic bulk                      
           1
     8.420018    0.000000    8.077981
     0.000000   11.763808    0.000000
    -8.420018    0.000000    8.077981
   Cs   Pb   Br   Cs
   6   8  24   1
Direct configuration=     1
   0.26095400  0.24999400  0.20611500
   0.77365800  0.25000200  0.71575600
   0.19767100  0.75000200  0.76039700
   0.28492300  0.25000400  0.73605200
   0.76953300  0.25000400  0.22631200
   0.73751800  0.75000200  0.78595900
   0.99553000  0.99658200  0.00482300
   0.50217000  0.00158500  0.49952300
   0.50117400  0.00099200  0.99181700
   0.00103100  0.99953600  0.49892200
   0.50116500  0.49898900  0.99182300
   0.00103400  0.50045900  0.49892500
   0.99552000  0.50339200  0.00482900
   0.50218300  0.49842600  0.49952200
   0.46394300  0.74998800  0.94047900
   0.96829000  0.75000400  0.49167400
   0.95885400  0.25000600  0.97548100
   0.46017600  0.25001100  0.48833400
   0.04627900  0.74999600  0.02658700
   0.53946300  0.75001900  0.53266700
   0.53991800  0.24999100  0.99826200
   0.03224000  0.25000200  0.54618700
   0.24690900  0.46369000  0.95518200
   0.74903700  0.45059200  0.46300200
   0.46446700  0.48507300  0.24242900
   0.95110000  0.52738300  0.75165900
   0.55958100  0.02662000  0.74723900
   0.03462800  0.04991300  0.25341500
   0.74818900  0.95579200  0.04882300
   0.25391900  0.97731200  0.55923800
   0.24690900  0.03630700  0.95517900
   0.74904200  0.04941600  0.46301000
   0.46447100  0.01492200  0.24243400
   0.95110200  0.97262500  0.75166500
   0.74819100  0.54420100  0.04881600
   0.25392000  0.52270100  0.55923700
   0.55958400  0.47338400  0.74723800
   0.03463200  0.45008300  0.25341700
   0.47071000  0.74999900  0.25613300
