  40  40   1   0
  0.4000680E+02  0.1166835E-08  0.1176381E-08  0.1166835E-08  0.5000000E-15
   1.0000000000000000E-004
  CAR 
 CsPbBr3 cubic bulk                      
      8.32464232    -22.68824650  301      0.18375901      1.00000000
    -22.688  0.0000E+00  0.0000E+00
    -22.585  0.0000E+00  0.0000E+00
    -22.481  0.0000E+00  0.0000E+00
    -22.378  0.0000E+00  0.0000E+00
    -22.275  0.0000E+00  0.0000E+00
    -22.171  0.0000E+00  0.0000E+00
    -22.068  0.0000E+00  0.0000E+00
    -21.965  0.0000E+00  0.0000E+00
    -21.861  0.0000E+00  0.0000E+00
    -21.758  0.0000E+00  0.0000E+00
    -21.654  0.0000E+00  0.0000E+00
    -21.551  0.0000E+00  0.0000E+00
    -21.448  0.0000E+00  0.0000E+00
    -21.344  0.0000E+00  0.0000E+00
    -21.241  0.1935E+02  0.2000E+01
    -21.138  0.0000E+00  0.2000E+01
    -21.034  0.0000E+00  0.2000E+01
    -20.931  0.8535E-10  0.2000E+01
    -20.827  0.1935E+02  0.4000E+01
    -20.724  0.1935E+02  0.6000E+01
    -20.621  0.4740E+01  0.6490E+01
    -20.517  0.2804E+02  0.1090E+02
    -20.414  0.1935E+02  0.1600E+02
    -20.311  0.0000E+00  0.1600E+02
    -20.207  0.0000E+00  0.1600E+02
    -20.104  0.0000E+00  0.1600E+02
    -20.000  0.0000E+00  0.1600E+02
    -19.897  0.0000E+00  0.1600E+02
    -19.794  0.0000E+00  0.1600E+02
    -19.690  0.0000E+00  0.1600E+02
    -19.587  0.0000E+00  0.1600E+02
    -19.484  0.0000E+00  0.1600E+02
    -19.380  0.0000E+00  0.1600E+02
    -19.277  0.0000E+00  0.1600E+02
    -19.173  0.0000E+00  0.1600E+02
    -19.070  0.0000E+00  0.1600E+02
    -18.967  0.0000E+00  0.1600E+02
    -18.863  0.0000E+00  0.1600E+02
    -18.760  0.0000E+00  0.1600E+02
    -18.657  0.0000E+00  0.1600E+02
    -18.553  0.0000E+00  0.1600E+02
    -18.450  0.0000E+00  0.1600E+02
    -18.346  0.0000E+00  0.1600E+02
    -18.243  0.0000E+00  0.1600E+02
    -18.140  0.0000E+00  0.1600E+02
    -18.036  0.0000E+00  0.1600E+02
    -17.933  0.0000E+00  0.1600E+02
    -17.830  0.0000E+00  0.1600E+02
    -17.726  0.0000E+00  0.1600E+02
    -17.623  0.0000E+00  0.1600E+02
    -17.519  0.0000E+00  0.1600E+02
    -17.416  0.0000E+00  0.1600E+02
    -17.313  0.0000E+00  0.1600E+02
    -17.209  0.0000E+00  0.1600E+02
    -17.106  0.0000E+00  0.1600E+02
    -17.003  0.0000E+00  0.1600E+02
    -16.899  0.0000E+00  0.1600E+02
    -16.796  0.3500E+01  0.1636E+02
    -16.692  0.6115E+02  0.2332E+02
    -16.589  0.1182E+03  0.3622E+02
    -16.486  0.1224E+03  0.5065E+02
    -16.382  0.1020E+03  0.6654E+02
    -16.279  0.1601E+03  0.8655E+02
    -16.176  0.1935E+02  0.9600E+02
    -16.072  0.0000E+00  0.9600E+02
    -15.969  0.0000E+00  0.9600E+02
    -15.865  0.0000E+00  0.9600E+02
    -15.762  0.0000E+00  0.9600E+02
    -15.659  0.0000E+00  0.9600E+02
    -15.555  0.0000E+00  0.9600E+02
    -15.452  0.0000E+00  0.9600E+02
    -15.349  0.0000E+00  0.9600E+02
    -15.245  0.0000E+00  0.9600E+02
    -15.142  0.0000E+00  0.9600E+02
    -15.038  0.0000E+00  0.9600E+02
    -14.935  0.0000E+00  0.9600E+02
    -14.832  0.0000E+00  0.9600E+02
    -14.728  0.0000E+00  0.9600E+02
    -14.625  0.2140E-01  0.9600E+02
    -14.522  0.1345E+02  0.9814E+02
    -14.418  0.3738E+02  0.1029E+03
    -14.315  0.5098E+01  0.1045E+03
    -14.211  0.3557E+02  0.1097E+03
    -14.108  0.1548E+02  0.1121E+03
    -14.005  0.4106E+02  0.1180E+03
    -13.901  0.1935E+02  0.1200E+03
    -13.798  0.2183E+02  0.1223E+03
    -13.695  0.4860E+02  0.1290E+03
    -13.591  0.3866E+02  0.1340E+03
    -13.488  0.1987E+02  0.1361E+03
    -13.384  0.1049E+00  0.1380E+03
    -13.281  0.0000E+00  0.1400E+03
    -13.178  0.3131E-05  0.1400E+03
    -13.074  0.1935E+02  0.1420E+03
    -12.971  0.1934E+02  0.1440E+03
    -12.867  0.0000E+00  0.1440E+03
    -12.764  0.0000E+00  0.1440E+03
    -12.661  0.0000E+00  0.1440E+03
    -12.557  0.0000E+00  0.1440E+03
    -12.454  0.0000E+00  0.1440E+03
    -12.351  0.0000E+00  0.1440E+03
    -12.247  0.0000E+00  0.1440E+03
    -12.144  0.0000E+00  0.1440E+03
    -12.040  0.0000E+00  0.1440E+03
    -11.937  0.0000E+00  0.1440E+03
    -11.834  0.0000E+00  0.1440E+03
    -11.730  0.0000E+00  0.1440E+03
    -11.627  0.0000E+00  0.1440E+03
    -11.524  0.0000E+00  0.1440E+03
    -11.420  0.0000E+00  0.1440E+03
    -11.317  0.0000E+00  0.1440E+03
    -11.213  0.0000E+00  0.1440E+03
    -11.110  0.0000E+00  0.1440E+03
    -11.007  0.0000E+00  0.1440E+03
    -10.903  0.0000E+00  0.1440E+03
    -10.800  0.0000E+00  0.1440E+03
    -10.697  0.0000E+00  0.1440E+03
    -10.593  0.0000E+00  0.1440E+03
    -10.490  0.0000E+00  0.1440E+03
    -10.386  0.0000E+00  0.1440E+03
    -10.283  0.0000E+00  0.1440E+03
    -10.180  0.0000E+00  0.1440E+03
    -10.076  0.0000E+00  0.1440E+03
     -9.973  0.0000E+00  0.1440E+03
     -9.870  0.0000E+00  0.1440E+03
     -9.766  0.0000E+00  0.1440E+03
     -9.663  0.0000E+00  0.1440E+03
     -9.559  0.0000E+00  0.1440E+03
     -9.456  0.0000E+00  0.1440E+03
     -9.353  0.0000E+00  0.1440E+03
     -9.249  0.0000E+00  0.1440E+03
     -9.146  0.0000E+00  0.1440E+03
     -9.043  0.0000E+00  0.1440E+03
     -8.939  0.0000E+00  0.1440E+03
     -8.836  0.0000E+00  0.1440E+03
     -8.732  0.0000E+00  0.1440E+03
     -8.629  0.0000E+00  0.1440E+03
     -8.526  0.0000E+00  0.1440E+03
     -8.422  0.0000E+00  0.1440E+03
     -8.319  0.0000E+00  0.1440E+03
     -8.216  0.2418E+01  0.1442E+03
     -8.112  0.4840E+01  0.1448E+03
     -8.009  0.5778E+00  0.1451E+03
     -7.905  0.7256E+01  0.1460E+03
     -7.802  0.9809E+01  0.1475E+03
     -7.699  0.2321E+02  0.1501E+03
     -7.595  0.3336E+02  0.1552E+03
     -7.492  0.1746E+02  0.1576E+03
     -7.389  0.1480E+02  0.1595E+03
     -7.285  0.5595E+02  0.1660E+03
     -7.182  0.6028E+02  0.1740E+03
     -7.078  0.2874E+02  0.1782E+03
     -6.975  0.8961E+02  0.1895E+03
     -6.872  0.1171E+03  0.2056E+03
     -6.768  0.1209E+02  0.2078E+03
     -6.665  0.2418E+01  0.2080E+03
     -6.562  0.0000E+00  0.2080E+03
     -6.458  0.0000E+00  0.2080E+03
     -6.355  0.0000E+00  0.2080E+03
     -6.251  0.0000E+00  0.2080E+03
     -6.148  0.0000E+00  0.2080E+03
     -6.045  0.0000E+00  0.2080E+03
     -5.941  0.0000E+00  0.2080E+03
     -5.838  0.0000E+00  0.2080E+03
     -5.735  0.0000E+00  0.2080E+03
     -5.631  0.0000E+00  0.2080E+03
     -5.528  0.0000E+00  0.2080E+03
     -5.424  0.0000E+00  0.2080E+03
     -5.321  0.0000E+00  0.2080E+03
     -5.218  0.0000E+00  0.2080E+03
     -5.114  0.0000E+00  0.2080E+03
     -5.011  0.0000E+00  0.2080E+03
     -4.908  0.0000E+00  0.2080E+03
     -4.804  0.0000E+00  0.2080E+03
     -4.701  0.0000E+00  0.2080E+03
     -4.597  0.0000E+00  0.2080E+03
     -4.494  0.0000E+00  0.2080E+03
     -4.391  0.0000E+00  0.2080E+03
     -4.287  0.0000E+00  0.2080E+03
     -4.184  0.0000E+00  0.2080E+03
     -4.081  0.0000E+00  0.2080E+03
     -3.977  0.0000E+00  0.2080E+03
     -3.874  0.0000E+00  0.2080E+03
     -3.770  0.1670E+01  0.2082E+03
     -3.667  0.0000E+00  0.2090E+03
     -3.564  0.0000E+00  0.2090E+03
     -3.460  0.4157E+00  0.2090E+03
     -3.357  0.5300E+01  0.2100E+03
     -3.254  0.6654E+01  0.2112E+03
     -3.150  0.1167E+02  0.2130E+03
     -3.047  0.1433E+02  0.2147E+03
     -2.943  0.1714E+02  0.2168E+03
     -2.840  0.2253E+02  0.2193E+03
     -2.737  0.1460E+02  0.2218E+03
     -2.633  0.1985E+02  0.2241E+03
     -2.530  0.2681E+02  0.2275E+03
     -2.426  0.2231E+02  0.2306E+03
     -2.323  0.2033E+02  0.2336E+03
     -2.220  0.2941E+02  0.2378E+03
     -2.116  0.2994E+02  0.2421E+03
     -2.013  0.3351E+02  0.2470E+03
     -1.910  0.3538E+02  0.2519E+03
     -1.806  0.5288E+02  0.2585E+03
     -1.703  0.5049E+02  0.2652E+03
     -1.599  0.4647E+02  0.2713E+03
     -1.496  0.4959E+02  0.2779E+03
     -1.393  0.5612E+02  0.2858E+03
     -1.289  0.5124E+02  0.2930E+03
     -1.186  0.5658E+02  0.3006E+03
     -1.083  0.4776E+02  0.3067E+03
     -0.979  0.5119E+02  0.3133E+03
     -0.876  0.4512E+02  0.3192E+03
     -0.772  0.5584E+02  0.3258E+03
     -0.669  0.3444E+02  0.3306E+03
     -0.566  0.4451E+02  0.3359E+03
     -0.462  0.4045E+02  0.3414E+03
     -0.359  0.2660E+02  0.3458E+03
     -0.256  0.1926E+02  0.3482E+03
     -0.152  0.2012E+02  0.3503E+03
     -0.049  0.9645E+01  0.3515E+03
      0.055  0.2418E+01  0.3518E+03
      0.158  0.2418E+01  0.3520E+03
      0.261  0.0000E+00  0.3520E+03
      0.365  0.0000E+00  0.3520E+03
      0.468  0.0000E+00  0.3520E+03
      0.571  0.0000E+00  0.3520E+03
      0.675  0.0000E+00  0.3520E+03
      0.778  0.0000E+00  0.3520E+03
      0.882  0.0000E+00  0.3520E+03
      0.985  0.0000E+00  0.3520E+03
      1.088  0.0000E+00  0.3520E+03
      1.192  0.0000E+00  0.3520E+03
      1.295  0.0000E+00  0.3520E+03
      1.398  0.0000E+00  0.3520E+03
      1.502  0.0000E+00  0.3520E+03
      1.605  0.0000E+00  0.3520E+03
      1.709  0.0000E+00  0.3520E+03
      1.812  0.0000E+00  0.3520E+03
      1.915  0.0000E+00  0.3520E+03
      2.019  0.0000E+00  0.3520E+03
      2.122  0.0000E+00  0.3520E+03
      2.225  0.0000E+00  0.3520E+03
      2.329  0.0000E+00  0.3520E+03
      2.432  0.0000E+00  0.3520E+03
      2.536  0.0000E+00  0.3520E+03
      2.639  0.5930E-10  0.3520E+03
      2.742  0.7646E+01  0.3528E+03
      2.846  0.1040E+02  0.3541E+03
      2.949  0.7618E+01  0.3555E+03
      3.052  0.9797E+01  0.3568E+03
      3.156  0.2189E+02  0.3593E+03
      3.259  0.1883E+02  0.3614E+03
      3.363  0.1471E+02  0.3633E+03
      3.466  0.7290E+01  0.3643E+03
      3.569  0.3901E+01  0.3649E+03
      3.673  0.7256E+01  0.3663E+03
      3.776  0.1187E+02  0.3675E+03
      3.879  0.1133E+02  0.3689E+03
      3.983  0.1678E+02  0.3712E+03
      4.086  0.1149E+02  0.3724E+03
      4.190  0.1930E+02  0.3745E+03
      4.293  0.1747E+02  0.3763E+03
      4.396  0.1379E+02  0.3779E+03
      4.500  0.1474E+02  0.3800E+03
      4.603  0.1555E+02  0.3824E+03
      4.706  0.1964E+02  0.3850E+03
      4.810  0.1100E+02  0.3876E+03
      4.913  0.1669E+02  0.3895E+03
      5.017  0.1230E+02  0.3908E+03
      5.120  0.7255E+01  0.3920E+03
      5.223  0.2421E+01  0.3923E+03
      5.327  0.9604E+01  0.3935E+03
      5.430  0.5122E+01  0.3945E+03
      5.533  0.1210E+02  0.3963E+03
      5.637  0.7545E+01  0.3973E+03
      5.740  0.8658E+01  0.3989E+03
      5.844  0.9666E+01  0.4000E+03
      5.947  0.1640E+02  0.4017E+03
      6.050  0.2477E+02  0.4048E+03
      6.154  0.1935E+02  0.4083E+03
      6.257  0.2215E+02  0.4115E+03
      6.360  0.1463E+02  0.4133E+03
      6.464  0.2033E+02  0.4156E+03
      6.567  0.2413E+02  0.4187E+03
      6.671  0.2454E+02  0.4233E+03
      6.774  0.2491E+02  0.4268E+03
      6.877  0.3041E+02  0.4309E+03
      6.981  0.2418E+01  0.4320E+03
      7.084  0.0000E+00  0.4320E+03
      7.188  0.0000E+00  0.4320E+03
      7.291  0.0000E+00  0.4320E+03
      7.394  0.0000E+00  0.4320E+03
      7.498  0.0000E+00  0.4320E+03
      7.601  0.0000E+00  0.4320E+03
      7.704  0.0000E+00  0.4320E+03
      7.808  0.0000E+00  0.4320E+03
      7.911  0.0000E+00  0.4320E+03
      8.015  0.0000E+00  0.4320E+03
      8.118  0.0000E+00  0.4320E+03
      8.221  0.0000E+00  0.4320E+03
      8.325  0.0000E+00  0.4320E+03
      8.32464232    -22.68824650  301      0.18375901      1.00000000
    -22.688  0.0000E+00  0.0000E+00  0.0000E+00
    -22.585  0.0000E+00  0.0000E+00  0.0000E+00
    -22.481  0.0000E+00  0.0000E+00  0.0000E+00
    -22.378  0.0000E+00  0.0000E+00  0.0000E+00
    -22.275  0.0000E+00  0.0000E+00  0.0000E+00
    -22.171  0.0000E+00  0.0000E+00  0.0000E+00
    -22.068  0.0000E+00  0.0000E+00  0.0000E+00
    -21.965  0.0000E+00  0.0000E+00  0.0000E+00
    -21.861  0.0000E+00  0.0000E+00  0.0000E+00
    -21.758  0.0000E+00  0.0000E+00  0.0000E+00
    -21.654  0.0000E+00  0.0000E+00  0.0000E+00
    -21.551  0.0000E+00  0.0000E+00  0.0000E+00
    -21.448  0.0000E+00  0.0000E+00  0.0000E+00
    -21.344  0.0000E+00  0.0000E+00  0.0000E+00
    -21.241  0.7667E-05  0.2822E-07  0.5447E-08
    -21.138  0.0000E+00  0.0000E+00  0.0000E+00
    -21.034  0.0000E+00  0.0000E+00  0.0000E+00
    -20.931  0.3927E-17  0.1477E-19  0.2500E-20
    -20.827  0.8854E-06  0.3350E-08  0.5684E-09
    -20.724  0.2162E-05  0.4644E-08  0.4574E-09
    -20.621  0.4203E+01  0.1028E-04  0.1739E-05
    -20.517  0.1194E-02  0.1676E-06  0.2939E-07
    -20.414  0.5626E-03  0.1779E-06  0.3553E-07
    -20.311  0.0000E+00  0.0000E+00  0.0000E+00
    -20.207  0.0000E+00  0.0000E+00  0.0000E+00
    -20.104  0.0000E+00  0.0000E+00  0.0000E+00
    -20.000  0.0000E+00  0.0000E+00  0.0000E+00
    -19.897  0.0000E+00  0.0000E+00  0.0000E+00
    -19.794  0.0000E+00  0.0000E+00  0.0000E+00
    -19.690  0.0000E+00  0.0000E+00  0.0000E+00
    -19.587  0.0000E+00  0.0000E+00  0.0000E+00
    -19.484  0.0000E+00  0.0000E+00  0.0000E+00
    -19.380  0.0000E+00  0.0000E+00  0.0000E+00
    -19.277  0.0000E+00  0.0000E+00  0.0000E+00
    -19.173  0.0000E+00  0.0000E+00  0.0000E+00
    -19.070  0.0000E+00  0.0000E+00  0.0000E+00
    -18.967  0.0000E+00  0.0000E+00  0.0000E+00
    -18.863  0.0000E+00  0.0000E+00  0.0000E+00
    -18.760  0.0000E+00  0.0000E+00  0.0000E+00
    -18.657  0.0000E+00  0.0000E+00  0.0000E+00
    -18.553  0.0000E+00  0.0000E+00  0.0000E+00
    -18.450  0.0000E+00  0.0000E+00  0.0000E+00
    -18.346  0.0000E+00  0.0000E+00  0.0000E+00
    -18.243  0.0000E+00  0.0000E+00  0.0000E+00
    -18.140  0.0000E+00  0.0000E+00  0.0000E+00
    -18.036  0.0000E+00  0.0000E+00  0.0000E+00
    -17.933  0.0000E+00  0.0000E+00  0.0000E+00
    -17.830  0.0000E+00  0.0000E+00  0.0000E+00
    -17.726  0.0000E+00  0.0000E+00  0.0000E+00
    -17.623  0.0000E+00  0.0000E+00  0.0000E+00
    -17.519  0.0000E+00  0.0000E+00  0.0000E+00
    -17.416  0.0000E+00  0.0000E+00  0.0000E+00
    -17.313  0.0000E+00  0.0000E+00  0.0000E+00
    -17.209  0.0000E+00  0.0000E+00  0.0000E+00
    -17.106  0.0000E+00  0.0000E+00  0.0000E+00
    -17.003  0.0000E+00  0.0000E+00  0.0000E+00
    -16.899  0.0000E+00  0.0000E+00  0.0000E+00
    -16.796  0.1703E-06  0.1059E-06  0.1402E-06
    -16.692  0.3778E-04  0.1904E-04  0.2813E-05
    -16.589  0.2200E-04  0.8587E-05  0.1129E-05
    -16.486  0.1154E-03  0.7019E-04  0.1178E-04
    -16.382  0.2487E-03  0.1270E-03  0.1720E-04
    -16.279  0.1082E-03  0.6775E-04  0.1036E-04
    -16.176  0.6834E-07  0.5179E-07  0.9025E-08
    -16.072  0.0000E+00  0.0000E+00  0.0000E+00
    -15.969  0.0000E+00  0.0000E+00  0.0000E+00
    -15.865  0.0000E+00  0.0000E+00  0.0000E+00
    -15.762  0.0000E+00  0.0000E+00  0.0000E+00
    -15.659  0.0000E+00  0.0000E+00  0.0000E+00
    -15.555  0.0000E+00  0.0000E+00  0.0000E+00
    -15.452  0.0000E+00  0.0000E+00  0.0000E+00
    -15.349  0.0000E+00  0.0000E+00  0.0000E+00
    -15.245  0.0000E+00  0.0000E+00  0.0000E+00
    -15.142  0.0000E+00  0.0000E+00  0.0000E+00
    -15.038  0.0000E+00  0.0000E+00  0.0000E+00
    -14.935  0.0000E+00  0.0000E+00  0.0000E+00
    -14.832  0.0000E+00  0.0000E+00  0.0000E+00
    -14.728  0.0000E+00  0.0000E+00  0.0000E+00
    -14.625  0.1698E-05  0.3381E-06  0.9797E-08
    -14.522  0.4005E-03  0.4227E-03  0.1448E-04
    -14.418  0.1709E-02  0.2600E-02  0.2134E-03
    -14.315  0.4395E-05  0.1043E-02  0.4896E-04
    -14.211  0.1439E-02  0.2863E-02  0.3201E-03
    -14.108  0.4425E-03  0.5136E-03  0.6349E-04
    -14.005  0.9879E-02  0.1993E-01  0.1694E-02
    -13.901  0.8245E-04  0.1806E-02  0.6822E-04
    -13.798  0.1378E-02  0.2988E-02  0.2383E-03
    -13.695  0.1208E-01  0.2007E-01  0.1240E-02
    -13.591  0.6694E-02  0.2302E-01  0.2732E-02
    -13.488  0.2224E-04  0.3104E-03  0.4782E-04
    -13.384  0.1513E-06  0.3424E-06  0.2850E-07
    -13.281  0.0000E+00  0.0000E+00  0.0000E+00
    -13.178  0.5263E-10  0.1687E-09  0.1261E-10
    -13.074  0.3287E-03  0.1056E-02  0.7813E-04
    -12.971  0.2247E-05  0.7812E-05  0.5298E-06
    -12.867  0.0000E+00  0.0000E+00  0.0000E+00
    -12.764  0.0000E+00  0.0000E+00  0.0000E+00
    -12.661  0.0000E+00  0.0000E+00  0.0000E+00
    -12.557  0.0000E+00  0.0000E+00  0.0000E+00
    -12.454  0.0000E+00  0.0000E+00  0.0000E+00
    -12.351  0.0000E+00  0.0000E+00  0.0000E+00
    -12.247  0.0000E+00  0.0000E+00  0.0000E+00
    -12.144  0.0000E+00  0.0000E+00  0.0000E+00
    -12.040  0.0000E+00  0.0000E+00  0.0000E+00
    -11.937  0.0000E+00  0.0000E+00  0.0000E+00
    -11.834  0.0000E+00  0.0000E+00  0.0000E+00
    -11.730  0.0000E+00  0.0000E+00  0.0000E+00
    -11.627  0.0000E+00  0.0000E+00  0.0000E+00
    -11.524  0.0000E+00  0.0000E+00  0.0000E+00
    -11.420  0.0000E+00  0.0000E+00  0.0000E+00
    -11.317  0.0000E+00  0.0000E+00  0.0000E+00
    -11.213  0.0000E+00  0.0000E+00  0.0000E+00
    -11.110  0.0000E+00  0.0000E+00  0.0000E+00
    -11.007  0.0000E+00  0.0000E+00  0.0000E+00
    -10.903  0.0000E+00  0.0000E+00  0.0000E+00
    -10.800  0.0000E+00  0.0000E+00  0.0000E+00
    -10.697  0.0000E+00  0.0000E+00  0.0000E+00
    -10.593  0.0000E+00  0.0000E+00  0.0000E+00
    -10.490  0.0000E+00  0.0000E+00  0.0000E+00
    -10.386  0.0000E+00  0.0000E+00  0.0000E+00
    -10.283  0.0000E+00  0.0000E+00  0.0000E+00
    -10.180  0.0000E+00  0.0000E+00  0.0000E+00
    -10.076  0.0000E+00  0.0000E+00  0.0000E+00
     -9.973  0.0000E+00  0.0000E+00  0.0000E+00
     -9.870  0.0000E+00  0.0000E+00  0.0000E+00
     -9.766  0.0000E+00  0.0000E+00  0.0000E+00
     -9.663  0.0000E+00  0.0000E+00  0.0000E+00
     -9.559  0.0000E+00  0.0000E+00  0.0000E+00
     -9.456  0.0000E+00  0.0000E+00  0.0000E+00
     -9.353  0.0000E+00  0.0000E+00  0.0000E+00
     -9.249  0.0000E+00  0.0000E+00  0.0000E+00
     -9.146  0.0000E+00  0.0000E+00  0.0000E+00
     -9.043  0.0000E+00  0.0000E+00  0.0000E+00
     -8.939  0.0000E+00  0.0000E+00  0.0000E+00
     -8.836  0.0000E+00  0.0000E+00  0.0000E+00
     -8.732  0.0000E+00  0.0000E+00  0.0000E+00
     -8.629  0.0000E+00  0.0000E+00  0.0000E+00
     -8.526  0.0000E+00  0.0000E+00  0.0000E+00
     -8.422  0.0000E+00  0.0000E+00  0.0000E+00
     -8.319  0.0000E+00  0.0000E+00  0.0000E+00
     -8.216  0.3896E-05  0.4506E-03  0.1029E-04
     -8.112  0.2111E-05  0.2889E-02  0.8213E-05
     -8.009  0.1646E-05  0.3973E-03  0.1325E-05
     -7.905  0.1212E-04  0.3913E-02  0.2130E-04
     -7.802  0.1061E-04  0.1906E-01  0.5344E-04
     -7.699  0.4841E-04  0.4788E-01  0.7140E-04
     -7.595  0.4195E-04  0.8718E-01  0.1177E-03
     -7.492  0.1029E-03  0.1488E+00  0.9273E-04
     -7.389  0.6939E-04  0.2981E+00  0.1441E-03
     -7.285  0.2327E-04  0.4707E+00  0.1423E-03
     -7.182  0.6051E-04  0.1490E+01  0.2029E-03
     -7.078  0.1932E-03  0.1225E+02  0.1935E-03
     -6.975  0.2052E-03  0.1318E+02  0.1597E-03
     -6.872  0.1322E-03  0.1680E+01  0.1658E-03
     -6.768  0.1909E-04  0.1680E+00  0.2264E-04
     -6.665  0.2803E-04  0.1577E-01  0.1115E-04
     -6.562  0.0000E+00  0.0000E+00  0.0000E+00
     -6.458  0.0000E+00  0.0000E+00  0.0000E+00
     -6.355  0.0000E+00  0.0000E+00  0.0000E+00
     -6.251  0.0000E+00  0.0000E+00  0.0000E+00
     -6.148  0.0000E+00  0.0000E+00  0.0000E+00
     -6.045  0.0000E+00  0.0000E+00  0.0000E+00
     -5.941  0.0000E+00  0.0000E+00  0.0000E+00
     -5.838  0.0000E+00  0.0000E+00  0.0000E+00
     -5.735  0.0000E+00  0.0000E+00  0.0000E+00
     -5.631  0.0000E+00  0.0000E+00  0.0000E+00
     -5.528  0.0000E+00  0.0000E+00  0.0000E+00
     -5.424  0.0000E+00  0.0000E+00  0.0000E+00
     -5.321  0.0000E+00  0.0000E+00  0.0000E+00
     -5.218  0.0000E+00  0.0000E+00  0.0000E+00
     -5.114  0.0000E+00  0.0000E+00  0.0000E+00
     -5.011  0.0000E+00  0.0000E+00  0.0000E+00
     -4.908  0.0000E+00  0.0000E+00  0.0000E+00
     -4.804  0.0000E+00  0.0000E+00  0.0000E+00
     -4.701  0.0000E+00  0.0000E+00  0.0000E+00
     -4.597  0.0000E+00  0.0000E+00  0.0000E+00
     -4.494  0.0000E+00  0.0000E+00  0.0000E+00
     -4.391  0.0000E+00  0.0000E+00  0.0000E+00
     -4.287  0.0000E+00  0.0000E+00  0.0000E+00
     -4.184  0.0000E+00  0.0000E+00  0.0000E+00
     -4.081  0.0000E+00  0.0000E+00  0.0000E+00
     -3.977  0.0000E+00  0.0000E+00  0.0000E+00
     -3.874  0.0000E+00  0.0000E+00  0.0000E+00
     -3.770  0.8777E-07  0.4737E-03  0.4699E-04
     -3.667  0.0000E+00  0.0000E+00  0.0000E+00
     -3.564  0.0000E+00  0.0000E+00  0.0000E+00
     -3.460  0.8281E-07  0.1700E-03  0.2021E-04
     -3.357  0.4678E-05  0.2632E-02  0.2465E-03
     -3.254  0.7475E-05  0.3068E-02  0.3959E-03
     -3.150  0.5378E-04  0.6890E-02  0.5916E-03
     -3.047  0.2470E-03  0.7687E-02  0.1418E-02
     -2.943  0.4715E-03  0.1926E-01  0.1987E-02
     -2.840  0.6022E-03  0.2360E-01  0.1971E-02
     -2.737  0.1801E-03  0.1254E-01  0.8633E-03
     -2.633  0.1245E-02  0.1792E-01  0.2316E-02
     -2.530  0.1451E-02  0.2667E-01  0.3973E-02
     -2.426  0.2753E-02  0.2714E-01  0.2537E-02
     -2.323  0.3718E-02  0.1853E-01  0.2526E-02
     -2.220  0.5879E-02  0.2884E-01  0.4195E-02
     -2.116  0.1257E-01  0.2290E-01  0.4104E-02
     -2.013  0.6618E-02  0.4659E-01  0.6138E-02
     -1.910  0.3639E-02  0.6275E-01  0.6017E-02
     -1.806  0.9100E-02  0.9898E-01  0.1438E-01
     -1.703  0.6187E-02  0.7029E-01  0.1127E-01
     -1.599  0.9155E-02  0.8147E-01  0.1497E-01
     -1.496  0.6730E-02  0.9104E-01  0.1396E-01
     -1.393  0.2830E-02  0.7804E-01  0.1461E-01
     -1.289  0.3371E-02  0.5827E-01  0.1509E-01
     -1.186  0.2989E-02  0.6958E-01  0.1550E-01
     -1.083  0.5086E-02  0.6136E-01  0.1465E-01
     -0.979  0.7366E-02  0.1696E+00  0.2780E-01
     -0.876  0.8360E-02  0.1876E+00  0.2929E-01
     -0.772  0.3010E-02  0.9692E-01  0.1629E-01
     -0.669  0.1025E-02  0.1928E-01  0.4367E-02
     -0.566  0.3485E-02  0.6080E-01  0.1182E-01
     -0.462  0.1643E-02  0.3599E-01  0.8672E-02
     -0.359  0.1730E-02  0.2594E-01  0.5869E-02
     -0.256  0.6913E-03  0.9465E-02  0.3864E-02
     -0.152  0.2357E-03  0.1118E-01  0.1943E-02
     -0.049  0.2266E-03  0.4063E-02  0.1276E-02
      0.055  0.7768E-05  0.2790E-02  0.4954E-03
      0.158  0.6877E-04  0.1122E-03  0.2711E-03
      0.261  0.0000E+00  0.0000E+00  0.0000E+00
      0.365  0.0000E+00  0.0000E+00  0.0000E+00
      0.468  0.0000E+00  0.0000E+00  0.0000E+00
      0.571  0.0000E+00  0.0000E+00  0.0000E+00
      0.675  0.0000E+00  0.0000E+00  0.0000E+00
      0.778  0.0000E+00  0.0000E+00  0.0000E+00
      0.882  0.0000E+00  0.0000E+00  0.0000E+00
      0.985  0.0000E+00  0.0000E+00  0.0000E+00
      1.088  0.0000E+00  0.0000E+00  0.0000E+00
      1.192  0.0000E+00  0.0000E+00  0.0000E+00
      1.295  0.0000E+00  0.0000E+00  0.0000E+00
      1.398  0.0000E+00  0.0000E+00  0.0000E+00
      1.502  0.0000E+00  0.0000E+00  0.0000E+00
      1.605  0.0000E+00  0.0000E+00  0.0000E+00
      1.709  0.0000E+00  0.0000E+00  0.0000E+00
      1.812  0.0000E+00  0.0000E+00  0.0000E+00
      1.915  0.0000E+00  0.0000E+00  0.0000E+00
      2.019  0.0000E+00  0.0000E+00  0.0000E+00
      2.122  0.0000E+00  0.0000E+00  0.0000E+00
      2.225  0.0000E+00  0.0000E+00  0.0000E+00
      2.329  0.0000E+00  0.0000E+00  0.0000E+00
      2.432  0.0000E+00  0.0000E+00  0.0000E+00
      2.536  0.0000E+00  0.0000E+00  0.0000E+00
      2.639  0.4286E-15  0.1163E-13  0.2748E-13
      2.742  0.4216E-04  0.8308E-03  0.1889E-02
      2.846  0.1534E-03  0.1194E-02  0.3503E-02
      2.949  0.1620E-03  0.4661E-03  0.1035E-02
      3.052  0.7839E-03  0.2542E-02  0.3003E-02
      3.156  0.3883E-02  0.8254E-02  0.7455E-02
      3.259  0.2803E-02  0.6693E-02  0.9123E-02
      3.363  0.3368E-03  0.1935E-02  0.3546E-02
      3.466  0.5718E-03  0.1547E-02  0.1938E-02
      3.569  0.1410E-03  0.1366E-02  0.1296E-02
      3.673  0.3311E-03  0.1705E-02  0.1712E-02
      3.776  0.6819E-03  0.3209E-02  0.5529E-02
      3.879  0.2091E-02  0.3098E-02  0.8112E-02
      3.983  0.1505E-02  0.3327E-02  0.7272E-02
      4.086  0.6365E-03  0.5510E-02  0.6394E-02
      4.190  0.1891E-02  0.5341E-02  0.6690E-02
      4.293  0.1815E-02  0.4046E-02  0.1511E-01
      4.396  0.1795E-02  0.3945E-02  0.8362E-02
      4.500  0.5088E-02  0.6372E-02  0.1797E-01
      4.603  0.2349E-02  0.4338E-02  0.1066E-01
      4.706  0.3412E-02  0.3370E-02  0.1544E-01
      4.810  0.1244E-02  0.4142E-02  0.8140E-02
      4.913  0.9063E-02  0.5081E-02  0.1482E-01
      5.017  0.9303E-03  0.8675E-03  0.8662E-02
      5.120  0.5902E-03  0.2484E-02  0.1371E-01
      5.223  0.3878E-04  0.1823E-03  0.5582E-02
      5.327  0.9945E-03  0.2754E-02  0.2380E-01
      5.430  0.1140E-02  0.1628E-02  0.3796E-02
      5.533  0.9097E-02  0.2913E-02  0.2123E-01
      5.637  0.7668E-02  0.7468E-02  0.1781E-01
      5.740  0.1081E-01  0.8635E-02  0.1562E-01
      5.844  0.3467E-02  0.1248E-01  0.6151E-01
      5.947  0.1594E-01  0.1593E-01  0.1189E+00
      6.050  0.1384E-01  0.2427E-01  0.9784E-01
      6.154  0.7843E-02  0.1069E-01  0.8725E-01
      6.257  0.3997E-01  0.1101E-01  0.1936E+00
      6.360  0.1752E-01  0.8421E-02  0.1277E+00
      6.464  0.1643E-01  0.2322E-01  0.2389E+00
      6.567  0.1453E-01  0.2420E-01  0.2738E+00
      6.671  0.2430E-01  0.1662E-01  0.3148E+00
      6.774  0.2788E-01  0.2099E-01  0.4374E+00
      6.877  0.3224E-01  0.2398E-01  0.4884E+00
      6.981  0.2074E-02  0.6587E-02  0.5772E-01
      7.084  0.0000E+00  0.0000E+00  0.0000E+00
      7.188  0.0000E+00  0.0000E+00  0.0000E+00
      7.291  0.0000E+00  0.0000E+00  0.0000E+00
      7.394  0.0000E+00  0.0000E+00  0.0000E+00
      7.498  0.0000E+00  0.0000E+00  0.0000E+00
      7.601  0.0000E+00  0.0000E+00  0.0000E+00
      7.704  0.0000E+00  0.0000E+00  0.0000E+00
      7.808  0.0000E+00  0.0000E+00  0.0000E+00
      7.911  0.0000E+00  0.0000E+00  0.0000E+00
      8.015  0.0000E+00  0.0000E+00  0.0000E+00
      8.118  0.0000E+00  0.0000E+00  0.0000E+00
      8.221  0.0000E+00  0.0000E+00  0.0000E+00
      8.325  0.0000E+00  0.0000E+00  0.0000E+00
      8.32464232    -22.68824650  301      0.18375901      1.00000000
    -22.688  0.0000E+00  0.0000E+00  0.0000E+00
    -22.585  0.0000E+00  0.0000E+00  0.0000E+00
    -22.481  0.0000E+00  0.0000E+00  0.0000E+00
    -22.378  0.0000E+00  0.0000E+00  0.0000E+00
    -22.275  0.0000E+00  0.0000E+00  0.0000E+00
    -22.171  0.0000E+00  0.0000E+00  0.0000E+00
    -22.068  0.0000E+00  0.0000E+00  0.0000E+00
    -21.965  0.0000E+00  0.0000E+00  0.0000E+00
    -21.861  0.0000E+00  0.0000E+00  0.0000E+00
    -21.758  0.0000E+00  0.0000E+00  0.0000E+00
    -21.654  0.0000E+00  0.0000E+00  0.0000E+00
    -21.551  0.0000E+00  0.0000E+00  0.0000E+00
    -21.448  0.0000E+00  0.0000E+00  0.0000E+00
    -21.344  0.0000E+00  0.0000E+00  0.0000E+00
    -21.241  0.8699E-04  0.2223E-06  0.3310E-07
    -21.138  0.0000E+00  0.0000E+00  0.0000E+00
    -21.034  0.0000E+00  0.0000E+00  0.0000E+00
    -20.931  0.7573E-10  0.6566E-15  0.4490E-16
    -20.827  0.1717E+02  0.1488E-03  0.1018E-04
    -20.724  0.1941E-03  0.3384E-07  0.8050E-08
    -20.621  0.2954E-06  0.8698E-09  0.1623E-09
    -20.517  0.2977E-04  0.5463E-07  0.1101E-07
    -20.414  0.2276E-04  0.6146E-07  0.1054E-07
    -20.311  0.0000E+00  0.0000E+00  0.0000E+00
    -20.207  0.0000E+00  0.0000E+00  0.0000E+00
    -20.104  0.0000E+00  0.0000E+00  0.0000E+00
    -20.000  0.0000E+00  0.0000E+00  0.0000E+00
    -19.897  0.0000E+00  0.0000E+00  0.0000E+00
    -19.794  0.0000E+00  0.0000E+00  0.0000E+00
    -19.690  0.0000E+00  0.0000E+00  0.0000E+00
    -19.587  0.0000E+00  0.0000E+00  0.0000E+00
    -19.484  0.0000E+00  0.0000E+00  0.0000E+00
    -19.380  0.0000E+00  0.0000E+00  0.0000E+00
    -19.277  0.0000E+00  0.0000E+00  0.0000E+00
    -19.173  0.0000E+00  0.0000E+00  0.0000E+00
    -19.070  0.0000E+00  0.0000E+00  0.0000E+00
    -18.967  0.0000E+00  0.0000E+00  0.0000E+00
    -18.863  0.0000E+00  0.0000E+00  0.0000E+00
    -18.760  0.0000E+00  0.0000E+00  0.0000E+00
    -18.657  0.0000E+00  0.0000E+00  0.0000E+00
    -18.553  0.0000E+00  0.0000E+00  0.0000E+00
    -18.450  0.0000E+00  0.0000E+00  0.0000E+00
    -18.346  0.0000E+00  0.0000E+00  0.0000E+00
    -18.243  0.0000E+00  0.0000E+00  0.0000E+00
    -18.140  0.0000E+00  0.0000E+00  0.0000E+00
    -18.036  0.0000E+00  0.0000E+00  0.0000E+00
    -17.933  0.0000E+00  0.0000E+00  0.0000E+00
    -17.830  0.0000E+00  0.0000E+00  0.0000E+00
    -17.726  0.0000E+00  0.0000E+00  0.0000E+00
    -17.623  0.0000E+00  0.0000E+00  0.0000E+00
    -17.519  0.0000E+00  0.0000E+00  0.0000E+00
    -17.416  0.0000E+00  0.0000E+00  0.0000E+00
    -17.313  0.0000E+00  0.0000E+00  0.0000E+00
    -17.209  0.0000E+00  0.0000E+00  0.0000E+00
    -17.106  0.0000E+00  0.0000E+00  0.0000E+00
    -17.003  0.0000E+00  0.0000E+00  0.0000E+00
    -16.899  0.0000E+00  0.0000E+00  0.0000E+00
    -16.796  0.5304E-06  0.1135E-04  0.3257E-05
    -16.692  0.2002E-03  0.1596E-03  0.3176E-04
    -16.589  0.3082E-03  0.1538E-03  0.2089E-04
    -16.486  0.1010E-04  0.6657E-05  0.9798E-06
    -16.382  0.5529E-04  0.3224E-04  0.4021E-05
    -16.279  0.2113E-04  0.1193E-04  0.1246E-05
    -16.176  0.1116E-06  0.1226E-06  0.2523E-07
    -16.072  0.0000E+00  0.0000E+00  0.0000E+00
    -15.969  0.0000E+00  0.0000E+00  0.0000E+00
    -15.865  0.0000E+00  0.0000E+00  0.0000E+00
    -15.762  0.0000E+00  0.0000E+00  0.0000E+00
    -15.659  0.0000E+00  0.0000E+00  0.0000E+00
    -15.555  0.0000E+00  0.0000E+00  0.0000E+00
    -15.452  0.0000E+00  0.0000E+00  0.0000E+00
    -15.349  0.0000E+00  0.0000E+00  0.0000E+00
    -15.245  0.0000E+00  0.0000E+00  0.0000E+00
    -15.142  0.0000E+00  0.0000E+00  0.0000E+00
    -15.038  0.0000E+00  0.0000E+00  0.0000E+00
    -14.935  0.0000E+00  0.0000E+00  0.0000E+00
    -14.832  0.0000E+00  0.0000E+00  0.0000E+00
    -14.728  0.0000E+00  0.0000E+00  0.0000E+00
    -14.625  0.4032E-05  0.1999E-05  0.5817E-07
    -14.522  0.1303E-02  0.1446E-02  0.6066E-04
    -14.418  0.4723E-02  0.6201E-02  0.3594E-03
    -14.315  0.9612E-03  0.1081E-02  0.2669E-04
    -14.211  0.4286E-02  0.6702E-02  0.4022E-03
    -14.108  0.7576E-03  0.3316E-02  0.3657E-03
    -14.005  0.1204E-02  0.5971E-02  0.6580E-03
    -13.901  0.4386E-03  0.4932E-03  0.1088E-03
    -13.798  0.5372E-03  0.9902E-03  0.1159E-03
    -13.695  0.3473E-03  0.1024E-02  0.1316E-03
    -13.591  0.7109E-03  0.1688E-02  0.1185E-03
    -13.488  0.1683E-04  0.8850E-04  0.8978E-05