       N       E                     dE             d eps       ncg     rms          rms(c)
DAV:   1     0.137652366511E+04    0.13765E+04   -0.11260E+05  3560   0.969E+02
DAV:   2    -0.112019815548E+04   -0.24967E+04   -0.23904E+04  4168   0.297E+02
DAV:   3    -0.149465153671E+04   -0.37445E+03   -0.37182E+03  4656   0.137E+02
DAV:   4    -0.150710915921E+04   -0.12458E+02   -0.12413E+02  4056   0.326E+01
DAV:   5    -0.150768158677E+04   -0.57243E+00   -0.57211E+00  4552   0.556E+00    0.106E+01
DAV:   6    -0.142655078733E+04    0.81131E+02   -0.23929E+01  4472   0.342E+01    0.741E+00
DAV:   7    -0.142604103113E+04    0.50976E+00   -0.11127E+01  4040   0.643E+00    0.395E+00
DAV:   8    -0.142622141564E+04   -0.18038E+00   -0.62121E-01  3928   0.238E+00    0.242E+00
DAV:   9    -0.142628318596E+04   -0.61770E-01   -0.24849E-01  3880   0.149E+00    0.522E-01
DAV:  10    -0.142628696967E+04   -0.37837E-02   -0.31089E-02  4848   0.500E-01    0.358E-01
DAV:  11    -0.142628876022E+04   -0.17906E-02   -0.33080E-03  4016   0.165E-01    0.166E-01
DAV:  12    -0.142629097633E+04   -0.22161E-02   -0.48030E-03  3872   0.185E-01    0.981E-02
DAV:  13    -0.142629062666E+04    0.34967E-03   -0.12088E-03  4720   0.910E-02    0.662E-02
DAV:  14    -0.142629050185E+04    0.12481E-03   -0.26567E-04  4064   0.319E-02    0.336E-02
DAV:  15    -0.142629046936E+04    0.32487E-04   -0.36388E-05  4224   0.147E-02    0.194E-02
DAV:  16    -0.142629048167E+04   -0.12314E-04   -0.24464E-05  4032   0.111E-02    0.769E-03
DAV:  17    -0.142629047660E+04    0.50770E-05   -0.89237E-06  3776   0.678E-03    0.440E-03
DAV:  18    -0.142629047226E+04    0.43376E-05   -0.16169E-06  2392   0.296E-03    0.237E-03
DAV:  19    -0.142629046879E+04    0.34719E-05   -0.39609E-07  2176   0.210E-03    0.157E-03
DAV:  20    -0.142629046862E+04    0.16148E-06   -0.24539E-07  2176   0.150E-03
   1 F= -.14262905E+04 E0= -.14262905E+04  d E =-.470589E-18
