CsPbBr3 cubic bulk                      
           1
     8.420018    0.000000    8.077981
     0.000000   11.763808    0.000000
    -8.420018    0.000000    8.077981
   Cs   Pb   Br
   8   8  24
Direct configuration=     1
   0.27212500  0.25000000  0.20823600
   0.69934918  0.22765709  0.72130744
   0.72370914  0.82133212  0.15290583
   0.30701481  0.78179266  0.66130607
   0.23155214  0.27548582  0.71466571
   0.75929674  0.36737071  0.18042733
   0.72964486  0.76963255  0.67024809
   0.26128288  0.72169697  0.13034759
   0.00136607  0.01973038  0.93462589
   0.51077688  0.02069813  0.39047316
   0.49161224  0.01157824  0.91257415
   0.98370309  0.03493036  0.42111225
   0.47853141  0.51408326  0.89417619
   0.01621672  0.51317218  0.41187163
   0.99617527  0.50592504  0.91613821
   0.49943528  0.53125627  0.39892214
   0.50070393  0.77002660  0.91880601
   0.07736863  0.76530118  0.37473152
   0.98915065  0.28134544  0.86155347
   0.53676658  0.27668914  0.40317277
   0.00178726  0.77972867  0.97878019
   0.47613595  0.77812485  0.36284952
   0.47175124  0.27463326  0.92369295
   0.88495317  0.26048054  0.44662088
   0.24072959  0.59595926  0.87757718
   0.77320645  0.58822870  0.37332444
   0.43649145  0.51170265  0.15672519
   0.93777766  0.54433289  0.66246792
   0.48938415  0.02286185  0.64309908
   0.92228345  0.07360539  0.16178845
   0.73526128  0.99778115  0.89001574
   0.23759387  0.05824290  0.38905010
   0.24775391  0.04066736  0.97382341
   0.74109942  0.94500525  0.42499509
   0.59596197  0.10336926  0.15086537
   0.03510401  0.91536586  0.67191566
   0.74196700  0.55476426  0.95899683
   0.27542886  0.49518381  0.51676537
   0.58071356  0.52649690  0.65022135
   0.05340494  0.42671824  0.15104030
