 vasp.5.4.4.18Apr17-6-g9f103f2a35 (build Jun 22 2020 09:27:21) complex           
 executed on tx2_gcc-7.3_libsci-1 date 2021.10.11  23:33:09
 running on   64 total cores
 distrk:  each k-point on   64 cores,    1 groups
 distr:  one band on NCORES_PER_BAND=   8 cores,    8 groups


--------------------------------------------------------------------------------------------------------


 INCAR:
 POTCAR:    PAW_PBE Cs_sv 08Apr2002               
 POTCAR:    PAW_PBE Pb_d 06Sep2000                
 POTCAR:    PAW_PBE Br 06Sep2000                  
 POTCAR:    PAW_PBE Cs_sv 08Apr2002               
   SHA256 =  c1463496f0f6037ed62c6012a8013a89ee9ad6ffb38599dcd6c079e7ed31779b Cs
   COPYR  = (c) Copyright 08Apr2002 Georg Kresse                                
   COPYR  = This file is part of the software VASP. Any use, copying, and all ot
   COPYR  = If you do not have a valid VASP license, you may not use, copy or di
   VRHFIN =Cs: 5s5p6s                                                           
   LEXCH  = PE                                                                  
   EATOM  =   555.6835 eV,   40.8416 Ry                                         
                                                                                
   TITEL  = PAW_PBE Cs_sv 08Apr2002                                             
   LULTRA =        F    use ultrasoft PP ?                                      
   IUNSCR =        1    unscreen: 0-lin 1-nonlin 2-no                           
   RPACOR =    2.200    partial core radius                                     
   POMASS =  132.900; ZVAL   =    9.000    mass and valenz                      
   RCORE  =    2.500    outmost cutoff radius                                   
   RWIGS  =    2.500; RWIGS  =    1.323    wigner-seitz radius (au A)           
   ENMAX  =  220.318; ENMIN  =  165.238 eV                                      
   RCLOC  =    2.207    cutoff for local pot                                    
   LCOR   =        T    correct aug charges                                     
   LPAW   =        T    paw PP                                                  
   EAUG   =  407.933                                                            
   DEXC   =    0.000                                                            
   RMAX   =    2.554    core radius for proj-oper                               
   RAUG   =    1.300    factor for augmentation sphere                          
   RDEP   =    2.590    radius for radial grids                                 
   RDEPT  =    2.117    core radius for aug-charge                              
                                                                                
   Atomic configuration                                                         
   13 entries                                                                   
     n  l   j            E        occ.                                          
     1  0  0.50    -35790.1377   2.0000                                         
     2  0  0.50     -5613.6201   2.0000                                         
     2  1  1.50     -5035.0101   6.0000                                         
     3  0  0.50     -1167.0767   2.0000                                         
     3  1  1.50      -980.9754   6.0000                                         
     3  2  2.50      -708.0703  10.0000                                         
     4  0  0.50      -220.2386   2.0000                                         
     4  1  1.50      -160.7596   6.0000                                         
     4  2  2.50       -74.2354  10.0000                                         
     5  0  0.50       -26.7287   2.0000                                         
     6  0  0.50        -2.0862   1.0000                                         
     5  1  1.50       -13.5159   6.0000                                         
     5  2  2.50        -0.4136   0.0000                                         
   Description                                                                  
     l       E           TYP  RCUT    TYP  RCUT                                 
     0    -26.7287425     23  1.900                                             
     0     -2.0862306     23  1.900                                             
     1    -13.5158719     23  2.500                                             
     1     -2.7211652     23  2.500                                             
     2     -0.4136171     23  2.500                                             
  local pseudopotential read in
  partial core-charges read in
  partial kinetic energy density read in
  atomic valenz-charges read in
  non local Contribution for L=           0  read in
    real space projection operators read in
  non local Contribution for L=           0  read in
    real space projection operators read in
  non local Contribution for L=           1  read in
    real space projection operators read in
  non local Contribution for L=           1  read in
    real space projection operators read in
  non local Contribution for L=           2  read in
    real space projection operators read in
    PAW grid and wavefunctions read in

   number of l-projection  operators is LMAX  =           5
   number of lm-projection operators is LMMAX =          13

 POTCAR:    PAW_PBE Pb_d 06Sep2000                
   SHA256 =  fb885b08f0fba73a15f6a6b0e39bd200c13ec96ef97cf3ecd8e63bade5137abd Pb
   COPYR  = (c) Copyright 06Sep2000 Georg Kresse                                
   COPYR  = This file is part of the software VASP. Any use, copying, and all ot
   COPYR  = If you do not have a valid VASP license, you may not use, copy or di
   VRHFIN =Pb:                                                                  
   LEXCH  = PE                                                                  
   EATOM  =  1661.6185 eV,  122.1255 Ry                                         
                                                                                
   TITEL  = PAW_PBE Pb_d 06Sep2000                                              
   LULTRA =        F    use ultrasoft PP ?                                      
   IUNSCR =        1    unscreen: 0-lin 1-nonlin 2-no                           
   RPACOR =    2.200    partial core radius                                     
   POMASS =  207.200; ZVAL   =   14.000    mass and valenz                      
   RCORE  =    2.500    outmost cutoff radius                                   
   RWIGS  =    3.260; RWIGS  =    1.725    wigner-seitz radius (au A)           
   ENMAX  =  237.835; ENMIN  =  178.376 eV                                      
   ICORE  =        3    local potential                                         
   LCOR   =        T    correct aug charges                                     
   LPAW   =        T    paw PP                                                  
   EAUG   =  391.914                                                            
   DEXC   =    0.000                                                            
   RMAX   =    2.565    core radius for proj-oper                               
   RAUG   =    1.300    factor for augmentation sphere                          
   RDEP   =    2.643    radius for radial grids                                 
   RDEPT  =    2.092    core radius for aug-charge                              
                                                                                
   Atomic configuration                                                         
   16 entries                                                                   
     n  l   j            E        occ.                                          
     1  0  0.50    -88091.8466   2.0000                                         
     2  0  0.50    -15753.4197   2.0000                                         
     2  1  1.50    -13508.1797   6.0000                                         
     3  0  0.50     -3781.7194   2.0000                                         
     3  1  1.50     -3138.2529   6.0000                                         
     3  2  2.50     -2483.2977  10.0000                                         
     4  0  0.50      -856.2895   2.0000                                         
     4  1  1.50      -645.4942   6.0000                                         
     4  2  2.50      -401.8768  10.0000                                         
     4  3  3.50      -132.9059  14.0000                                         
     5  0  0.50      -144.0950   2.0000                                         
     5  1  1.50       -85.7879   6.0000                                         
     5  2  2.50       -21.1769  10.0000                                         
     6  0  0.50       -12.0372   2.0000                                         
     6  1  1.50        -3.4971   2.0000                                         
     5  3  2.50        -2.7212   0.0000                                         
   Description                                                                  
     l       E           TYP  RCUT    TYP  RCUT                                 
     2    -21.1768523     23  2.500                                             
     2      1.3605826     23  2.500                                             
     0    -12.0371562     23  2.500                                             
     0     13.6058260     23  2.500                                             
     1     -3.4971339     23  2.500                                             
     1     13.6058260     23  2.500                                             
     3     -1.3605826      7  2.500                                             
  local pseudopotential read in
  partial core-charges read in
  partial kinetic energy density read in
  atomic valenz-charges read in
  non local Contribution for L=           2  read in
    real space projection operators read in
  non local Contribution for L=           2  read in
    real space projection operators read in
  non local Contribution for L=           0  read in
    real space projection operators read in
  non local Contribution for L=           0  read in
    real space projection operators read in
  non local Contribution for L=           1  read in
    real space projection operators read in
  non local Contribution for L=           1  read in
    real space projection operators read in
    PAW grid and wavefunctions read in

   number of l-projection  operators is LMAX  =           6
   number of lm-projection operators is LMMAX =          18

 POTCAR:    PAW_PBE Br 06Sep2000                  
   SHA256 =  96a73d2954943bbee26f4990d676cc6c3bf44b8dd2c75cd4b3b825d8403f0103 Br
   COPYR  = (c) Copyright 06Sep2000 Georg Kresse                                
   COPYR  = This file is part of the software VASP. Any use, copying, and all ot
   COPYR  = If you do not have a valid VASP license, you may not use, copy or di
   VRHFIN =Br: s2p5                                                             
   LEXCH  = PE                                                                  
   EATOM  =   368.4488 eV,   27.0802 Ry                                         
                                                                                
   TITEL  = PAW_PBE Br 06Sep2000                                                
   LULTRA =        F    use ultrasoft PP ?                                      
   IUNSCR =        1    unscreen: 0-lin 1-nonlin 2-no                           
   RPACOR =    1.900    partial core radius                                     
   POMASS =   79.904; ZVAL   =    7.000    mass and valenz                      
   RCORE  =    2.100    outmost cutoff radius                                   
   RWIGS  =    2.200; RWIGS  =    1.164    wigner-seitz radius (au A)           
   ENMAX  =  216.285; ENMIN  =  162.214 eV                                      
   ICORE  =        3    local potential                                         
   LCOR   =        T    correct aug charges                                     
   LPAW   =        T    paw PP                                                  
   EAUG   =  503.852                                                            
   DEXC   =    0.000                                                            
   RMAX   =    2.139    core radius for proj-oper                               
   RAUG   =    1.300    factor for augmentation sphere                          
   RDEP   =    2.186    radius for radial grids                                 
   RDEPT  =    1.890    core radius for aug-charge                              
                                                                                
   Atomic configuration                                                         
   10 entries                                                                   
     n  l   j            E        occ.                                          
     1  0  0.50    -13316.2796   2.0000                                         
     2  0  0.50     -1732.8239   2.0000                                         
     2  1  1.50     -1528.2193   6.0000                                         
     3  0  0.50      -238.0460   2.0000                                         
     3  1  1.50      -173.4609   6.0000                                         
     3  2  2.50       -66.7132  10.0000                                         
     4  0  0.50       -20.1334   2.0000                                         
     4  1  0.50        -7.8591   5.0000                                         
     4  2  2.50        -8.1635   0.0000                                         
     4  3  2.50        -8.1635   0.0000                                         
   Description                                                                  
     l       E           TYP  RCUT    TYP  RCUT                                 
     0    -20.1333652     23  2.100                                             
     0    -21.4939478     23  2.100                                             
     1     -7.8591052     23  2.100                                             
     1     -3.1608434     23  2.100                                             
     2     -8.1634956     23  2.100                                             
     3     -1.3605826      7  2.100                                             
  local pseudopotential read in
  partial core-charges read in
  partial kinetic energy density read in
  atomic valenz-charges read in
  non local Contribution for L=           0  read in
    real space projection operators read in
  non local Contribution for L=           0  read in
    real space projection operators read in
  non local Contribution for L=           1  read in
    real space projection operators read in
  non local Contribution for L=           1  read in
    real space projection operators read in
  non local Contribution for L=           2  read in
    real space projection operators read in
    PAW grid and wavefunctions read in

   number of l-projection  operators is LMAX  =           5
   number of lm-projection operators is LMMAX =          13

 Optimization of the real space projectors (new method)

 maximal supplied QI-value         = 15.12
 optimisation between [QCUT,QGAM] = [  8.77, 17.69] = [ 21.53, 87.61] Ry 
 Optimized for a Real-space Cutoff    1.85 Angstroem

   l    n(q)    QCUT    max X(q) W(low)/X(q) W(high)/X(q)  e(spline) 
   0     10     8.768    25.322    0.81E-04    0.51E-04    0.48E-06
   0     10     8.768    99.187    0.78E-04    0.50E-04    0.47E-06
   1      9     8.768    11.761    0.21E-03    0.20E-03    0.37E-06
   1      9     8.768     8.275    0.24E-03    0.22E-03    0.41E-06
   2      9     8.768     3.829    0.23E-04    0.15E-03    0.18E-06
 Optimization of the real space projectors (new method)

 maximal supplied QI-value         = 15.12
 optimisation between [QCUT,QGAM] = [  8.77, 17.69] = [ 21.53, 87.61] Ry 
 Optimized for a Real-space Cutoff    1.59 Angstroem

   l    n(q)    QCUT    max X(q) W(low)/X(q) W(high)/X(q)  e(spline) 
   2      7     8.768     3.846    0.48E-04    0.11E-03    0.11E-06
   2      7     8.768     8.593    0.20E-03    0.22E-04    0.24E-06
   0      8     8.768    20.082    0.68E-04    0.88E-04    0.41E-07
   0      8     8.768     8.597    0.89E-04    0.13E-03    0.59E-07
   1      8     8.768    33.223    0.15E-03    0.53E-04    0.87E-07
   1      8     8.768    15.899    0.14E-03    0.44E-04    0.78E-07
 Optimization of the real space projectors (new method)

 maximal supplied QI-value         = 17.95
 optimisation between [QCUT,QGAM] = [  8.80, 17.59] = [ 21.67, 86.68] Ry 
 Optimized for a Real-space Cutoff    1.59 Angstroem

   l    n(q)    QCUT    max X(q) W(low)/X(q) W(high)/X(q)  e(spline) 
   0      8     8.797   175.082    0.82E-04    0.14E-03    0.89E-07
   0      8     8.797   174.004    0.79E-04    0.14E-03    0.86E-07
   1      8     8.797    54.315    0.16E-03    0.14E-04    0.30E-06
   1      8     8.797    42.441    0.16E-03    0.14E-04    0.30E-06
   2      7     8.797     3.596    0.92E-04    0.15E-03    0.85E-07
  PAW_PBE Cs_sv 08Apr2002               :
 energy of atom  1       EATOM= -555.6835
 kinetic energy error for atom=    0.0069 (will be added to EATOM!!)
  PAW_PBE Pb_d 06Sep2000                :
 energy of atom  2       EATOM=-1661.6185
 kinetic energy error for atom=    0.0498 (will be added to EATOM!!)
  PAW_PBE Br 06Sep2000                  :
 energy of atom  3       EATOM= -368.4488
 kinetic energy error for atom=    0.0072 (will be added to EATOM!!)


 POSCAR: Cs8 Pb8 Br23                            
  positions in direct lattice
  No initial velocities read in

 METAGGA = SCAN     LMAXTAU =  6    LMIXTAU =  F

 exchange correlation table for  LEXCH =        8
   RHO(1)=    0.500       N(1)  =     2000
   RHO(2)=  100.500       N(2)  =     4000

 VTST: version 3.2, (02/03/18)

 CHAIN: initializing optimizer
 
 OPT: Using VASP Conjugate-Gradient optimizer
 CHAIN: Read ICHAIN            0

 POSCAR: Cs8 Pb8 Br23                            
  positions in direct lattice
  No initial velocities read in



--------------------------------------------------------------------------------------------------------


 ion  position               nearest neighbor table
   1  0.273  0.246  0.201-
   2  0.767  0.242  0.711-
   3  0.712  0.751  0.266-
   4  0.217  0.758  0.774-
   5  0.292  0.249  0.732-
   6  0.788  0.247  0.228-
   7  0.733  0.754  0.803-  39 2.33
   8  0.222  0.753  0.284-
   9  1.000  0.002  1.000-  19 2.99  21 2.99  31 3.00  34 3.00  29 3.00  28 3.00
  10  0.499  0.005  0.498-  20 2.92  33 2.96  30 2.97  32 2.99  27 2.99
  11  0.500  0.000  0.001-  17 2.97  22 2.98  29 2.99  27 3.00  31 3.00  33 3.03
  12  0.000  0.001  0.500-  34 3.00  28 3.00  32 3.00  18 3.01  23 3.01  30 3.02
  13  0.500  0.500  0.000-  17 2.97  22 2.97  24 3.01  35 3.01  37 3.02  26 3.04
  14  0.002  0.498  0.492-  38 2.94  23 2.97  18 2.97  25 3.00  36 3.01
  15  0.000  0.499  0.005-  38 2.93  19 2.95  21 2.96  35 2.98  24 3.00
  16  0.499  0.494  0.499-  20 2.92  26 2.98  25 3.00  37 3.00  36 3.02
  17  0.474  0.750  0.966-  13 2.97  11 2.97
  18  0.969  0.748  0.466-  14 2.97  12 3.01
  19  0.962  0.252  0.968-  15 2.95   9 2.99
  20  0.460  0.250  0.468-  16 2.92  10 2.92
  21  0.029  0.749  0.023-  15 2.96   9 2.99
  22  0.530  0.251  0.033-  13 2.97  11 2.98
  23  0.028  0.252  0.545-  14 2.97  12 3.01
  24  0.246  0.470  0.947-  15 3.00  13 3.01
  25  0.748  0.467  0.453-  16 3.00  14 3.00
  26  0.450  0.539  0.250-  16 2.98  13 3.04
  27  0.547  0.027  0.752-  10 2.99  11 3.00
  28  0.049  0.037  0.253-  12 3.00   9 3.00
  29  0.752  0.969  0.051-  11 2.99   9 3.00
  30  0.255  0.964  0.546-  10 2.97  12 3.02
  31  0.248  0.034  0.951-   9 3.00  11 3.00
  32  0.747  0.030  0.450-  10 2.99  12 3.00
  33  0.452  0.960  0.251-  10 2.96  11 3.03
  34  0.950  0.966  0.747-  12 3.00   9 3.00
  35  0.753  0.532  0.051-  15 2.98  13 3.01
  36  0.252  0.539  0.551-  14 3.01  16 3.02
  37  0.555  0.470  0.752-  16 3.00  13 3.02
  38  0.053  0.462  0.250-  15 2.93  14 2.94
  39  0.741  0.640  0.640-   7 2.33


IMPORTANT INFORMATION: All symmetrisations will be switched off!
NOSYMM: (Re-)initialisation of all symmetry stuff for point group C_1.



 KPOINTS: 1x1x1                                   

Automatic generation of k-mesh.
Space group operators:
 irot       det(A)        alpha          n_x          n_y          n_z        tau_x        tau_y        tau_z
    1     1.000000     0.000001     1.000000     0.000000     0.000000     0.000000     0.000000     0.000000
 
 Subroutine IBZKPT returns following result:
 ===========================================
 
 Found      8 irreducible k-points:
 
 Following reciprocal coordinates:
            Coordinates               Weight
  0.000000  0.000000  0.000000      1.000000
  0.500000  0.000000  0.000000      1.000000
  0.000000  0.500000  0.000000      1.000000
  0.500000  0.500000  0.000000      1.000000
  0.000000  0.000000  0.500000      1.000000
  0.500000  0.000000  0.500000      1.000000
  0.000000  0.500000  0.500000      1.000000
  0.500000  0.500000  0.500000      1.000000
 
 Following cartesian coordinates:
            Coordinates               Weight
 -0.000000  0.000000  0.000000      1.000000
  0.029563  0.000000  0.031093      1.000000
 -0.000000  0.042626  0.000000      1.000000
  0.029563  0.042626  0.031093      1.000000
 -0.029563  0.000000  0.031093      1.000000
  0.000000  0.000000  0.062187      1.000000
 -0.029563  0.042626  0.031093      1.000000
  0.000000  0.042626  0.062187      1.000000
 


--------------------------------------------------------------------------------------------------------




 Dimension of arrays:
   k-points           NKPTS =      8   k-points in BZ     NKDIM =      8   number of bands    NBANDS=    208
   number of dos      NEDOS =    301   number of ions     NIONS =     39
   non local maximal  LDIM  =      6   non local SUM 2l+1 LMDIM =     18
   total plane-waves  NPLWV = 343000
   max r-space proj   IRMAX =   5734   max aug-charges    IRDMAX=  91523
   dimension x,y,z NGX =    70 NGY =   70 NGZ =   70
   dimension x,y,z NGXF=   140 NGYF=  140 NGZF=  140
   support grid    NGXF=   280 NGYF=  280 NGZF=  280
   ions per type =               8   8  23
   NGX,Y,Z   is equivalent  to a cutoff of   9.97,  9.92,  9.97 a.u.
   NGXF,Y,Z  is equivalent  to a cutoff of  19.95, 19.84, 19.95 a.u.

 SYSTEM =  CsPbBr3 cubic bulk                      
 POSCAR =  Cs8 Pb8 Br23                            

 Startparameter for this run:
   NWRITE =      2    write-flag & timer
   PREC   = accura    normal or accurate (medium, high low for compatibility)
   ISTART =      0    job   : 0-new  1-cont  2-samecut
   ICHARG =      2    charge: 1-file 2-atom 10-const
   ISPIN  =      1    spin polarized calculation?
   LNONCOLLINEAR =      F non collinear calculations
   LSORBIT =      F    spin-orbit coupling
   INIWAV =      1    electr: 0-lowe 1-rand  2-diag
   LASPH  =      T    aspherical Exc in radial PAW
   METAGGA=      F    non-selfconsistent MetaGGA calc.

 Electronic Relaxation 1
   ENCUT  =  300.0 eV  22.05 Ry    4.70 a.u.  16.48 16.57 16.48*2*pi/ulx,y,z
   ENINI  =  300.0     initial cutoff
   ENAUG  =  503.9 eV  augmentation charge cutoff
   NELM   =    200;   NELMIN=  2; NELMDL= -5     # of ELM steps 
   EDIFF  = 0.1E-05   stopping-criterion for ELM
   LREAL  =      T    real-space projection
   NLSPLINE    = F    spline interpolate recip. space projectors
   LCOMPAT=      F    compatible to vasp.4.4
   GGA_COMPAT  = T    GGA compatible to vasp.4.4-vasp.4.6
   LMAXPAW     = -100 max onsite density
   LMAXMIX     =    2 max onsite mixed and CHGCAR
   VOSKOWN=      0    Vosko Wilk Nusair interpolation
   ROPT   =   -0.00025  -0.00025  -0.00025
 Ionic relaxation
   EDIFFG = -.1E-01   stopping-criterion for IOM
   NSW    =      0    number of steps for IOM
   NBLOCK =      1;   KBLOCK =      1    inner block; outer block 
   IBRION =     -1    ionic relax: 0-MD 1-quasi-New 2-CG
   NFREE  =      1    steps in history (QN), initial steepest desc. (CG)
   ISIF   =      2    stress and relaxation
   IWAVPR =     10    prediction:  0-non 1-charg 2-wave 3-comb
   ISYM   =      0    0-nonsym 1-usesym 2-fastsym
   LCORR  =      T    Harris-Foulkes like correction to forces

   POTIM  = 0.5000    time-step for ionic-motion
   TEIN   =    0.0    initial temperature
   TEBEG  =    0.0;   TEEND  =   0.0 temperature during run
   SMASS  =  -3.00    Nose mass-parameter (am)
   estimated Nose-frequenzy (Omega)   =  0.10E-29 period in steps =****** mass=  -0.311E-26a.u.
   SCALEE = 1.0000    scale energy and forces
   NPACO  =    256;   APACO  = 16.0  distance and # of slots for P.C.
   PSTRESS=    0.0 pullay stress

  Mass of Ions in am
   POMASS = 132.90207.20 79.90
  Ionic Valenz
   ZVAL   =   9.00 14.00  7.00
  Atomic Wigner-Seitz radii
   RWIGS  =  -1.00 -1.00 -1.00
  virtual crystal weights 
   VCA    =   1.00  1.00  1.00
   NELECT =     344.0000    total number of electrons
   NUPDOWN=       0.0000    fix difference up-down

 DOS related values:
   EMIN   =  10.00;   EMAX   =-10.00  energy-range for DOS
   EFERMI =   0.00
   ISMEAR =     0;   SIGMA  =   0.01  broadening in eV -4-tet -1-fermi 0-gaus

 Electronic relaxation 2 (details)
   IALGO  =     38    algorithm
   LDIAG  =      T    sub-space diagonalisation (order eigenvalues)
   LSUBROT=      F    optimize rotation matrix (better conditioning)
   TURBO    =      0    0=normal 1=particle mesh
   IRESTART =      0    0=no restart 2=restart with 2 vectors
   NREBOOT  =      0    no. of reboots
   NMIN     =      0    reboot dimension
   EREF     =   0.00    reference energy to select bands
   IMIX   =      4    mixing-type and parameters
     AMIX     =   0.40;   BMIX     =  1.00
     AMIX_MAG =   1.60;   BMIX_MAG =  1.00
     AMIN     =   0.10
     WC   =   100.;   INIMIX=   1;  MIXPRE=   1;  MAXMIX= -45

 Intra band minimization:
   WEIMIN = 0.0000     energy-eigenvalue tresh-hold
   EBREAK =  0.12E-08  absolut break condition
   DEPER  =   0.30     relativ break condition  

   TIME   =   0.40     timestep for ELM

  volume/ion in A,a.u.               =      40.90       276.00
  Fermi-wavevector in a.u.,A,eV,Ry     =   0.981747  1.855232 13.113654  0.963826
  Thomas-Fermi vector in A             =   2.112777

 Write flags
   LWAVE        =      F    write WAVECAR
   LDOWNSAMPLE  =      F    k-point downsampling of WAVECAR
   LCHARG       =      F    write CHGCAR
   LVTOT        =      F    write LOCPOT, total local potential
   LVHAR        =      T    write LOCPOT, Hartree potential only
   LELF         =      F    write electronic localiz. function (ELF)
   LORBIT       =     10    0 simple, 1 ext, 2 COOP (PROOUT), +10 PAW based schemes


 Dipole corrections
   LMONO  =      F    monopole corrections only (constant potential shift)
   LDIPOL =      F    correct potential (dipole corrections)
   IDIPOL =      0    1-x, 2-y, 3-z, 4-all directions 
   EPSILON=  1.0000000 bulk dielectric constant

 Exchange correlation treatment:
   GGA     =    --    GGA type
   LEXCH   =     8    internal setting for exchange type
   VOSKOWN=      0    Vosko Wilk Nusair interpolation
   LHFCALC =     F    Hartree Fock is set to
   LHFONE  =     F    Hartree Fock one center treatment
   AEXX    =    0.0000 exact exchange contribution

 Linear response parameters
   LEPSILON=     F    determine dielectric tensor
   LRPA    =     F    only Hartree local field effects (RPA)
   LNABLA  =     F    use nabla operator in PAW spheres
   LVEL    =     F    velocity operator in full k-point grid
   LINTERFAST=   F  fast interpolation
   KINTER  =     0    interpolate to denser k-point grid
   CSHIFT  =0.1000    complex shift for real part using Kramers Kronig
   OMEGAMAX=  -1.0    maximum frequency
   DEG_THRESHOLD= 0.2000000E-02 threshold for treating states as degnerate
   RTIME   =   -0.100 relaxation time in fs
  (WPLASMAI=    0.000 imaginary part of plasma frequency in eV, 0.658/RTIME)
   DFIELD  = 0.0000000 0.0000000 0.0000000 field for delta impulse in time

 Orbital magnetization related:
   ORBITALMAG=     F  switch on orbital magnetization
   LCHIMAG   =     F  perturbation theory with respect to B field
   DQ        =  0.001000  dq finite difference perturbation B field
   LLRAUG    =     F  two centre corrections for induced B field



--------------------------------------------------------------------------------------------------------


 Static calculation
 charge density and potential will be updated during run
 non-spin polarized calculation
 Variant of blocked Davidson
 Davidson routine will perform the subspace rotation
 perform sub-space diagonalisation
    after iterative eigenvector-optimisation
 modified Broyden-mixing scheme, WC =      100.0
 initial mixing is a Kerker type mixing with AMIX =  0.4000 and BMIX =      1.0000
 Hartree-type preconditioning will be used
 using additional bands           36
 real space projection scheme for non local part
 use partial core corrections
 calculate Harris-corrections to forces   (improved forces if not selfconsistent)
 use gradient corrections 
 use of overlap-Matrix (Vanderbilt PP)
 Gauss-broadening in eV      SIGMA  =   0.01


--------------------------------------------------------------------------------------------------------


  energy-cutoff  :      300.00
  volume of cell :     1595.09
      direct lattice vectors                 reciprocal lattice vectors
     8.456489000  0.000000000  8.040301000     0.059126193 -0.000000000  0.062186727
     0.000000000 11.729847000  0.000000000     0.000000000  0.085252604 -0.000000000
    -8.456489000  0.000000000  8.040301000    -0.059126193  0.000000000  0.062186727

  length of vectors
    11.668703715 11.729847000 11.668703715     0.085808482  0.085252604  0.085808482



 k-points in units of 2pi/SCALE and weight: 1x1x1                                   
  -0.00000000  0.00000000  0.00000000       0.125
   0.02956310  0.00000000  0.03109336       0.125
  -0.00000000  0.04262630  0.00000000       0.125
   0.02956310  0.04262630  0.03109336       0.125
  -0.02956310  0.00000000  0.03109336       0.125
   0.00000000  0.00000000  0.06218673       0.125
  -0.02956310  0.04262630  0.03109336       0.125
   0.00000000  0.04262630  0.06218673       0.125

 k-points in reciprocal lattice and weights: 1x1x1                                   
   0.00000000  0.00000000  0.00000000       0.125
   0.50000000  0.00000000  0.00000000       0.125
   0.00000000  0.50000000  0.00000000       0.125
   0.50000000  0.50000000  0.00000000       0.125
   0.00000000  0.00000000  0.50000000       0.125
   0.50000000  0.00000000  0.50000000       0.125
   0.00000000  0.50000000  0.50000000       0.125
   0.50000000  0.50000000  0.50000000       0.125

 position of ions in fractional coordinates (direct lattice) 
   0.27262500  0.24626800  0.20091800
   0.76692700  0.24159000  0.71083800
   0.71177400  0.75066100  0.26605800
   0.21737100  0.75781500  0.77425800
   0.29190500  0.24947800  0.73200900
   0.78786000  0.24692400  0.22812100
   0.73250300  0.75377400  0.80316300
   0.22186500  0.75347500  0.28436300
   0.99992200  0.00170700  0.99978000
   0.49912300  0.00539000  0.49843100
   0.50032000  0.00011300  0.00104100
   0.00045100  0.00071800  0.50025500
   0.49964600  0.50038300  0.00024900
   0.00210500  0.49832700  0.49209800
   0.00024800  0.49851100  0.00494500
   0.49899600  0.49438700  0.49927100
   0.47376000  0.75016500  0.96591400
   0.96869400  0.74845100  0.46649600
   0.96242200  0.25198700  0.96778800
   0.46049400  0.24995400  0.46812100
   0.02923400  0.74904200  0.02325200
   0.53016200  0.25050500  0.03290500
   0.02773300  0.25195400  0.54454300
   0.24620300  0.46958500  0.94735300
   0.74793400  0.46715100  0.45302900
   0.45022400  0.53941100  0.25036000
   0.54702700  0.02669900  0.75208100
   0.04863900  0.03743100  0.25252900
   0.75240800  0.96864600  0.05059200
   0.25454800  0.96416200  0.54608900
   0.24761500  0.03351700  0.95053800
   0.74712400  0.03011700  0.44968000
   0.45206600  0.95970300  0.25065000
   0.95005700  0.96596200  0.74748900
   0.75340400  0.53209500  0.05122700
   0.25245200  0.53872300  0.55125400
   0.55484700  0.47001400  0.75190200
   0.05326800  0.46216200  0.25046900
   0.74058300  0.64035900  0.64000400

 position of ions in cartesian coordinates  (Angst):
   0.60638946  2.88868596  3.80742826
   0.47431601  2.83381374 11.88167541
   3.76919245  8.80513868  7.86206361
  -4.70930879  8.88905400  7.97299564
  -3.72173463  2.92633877  8.23257676
   4.73342670  2.89638074  8.16879305
  -0.59753551  8.84165369 12.34721688
  -0.52851365  8.83814647  4.07022549
   0.00120082  0.02002285 16.07820599
   0.00585189  0.06322388  8.02063442
   4.22214737  0.00132547  4.03109335
  -4.22658703  0.00842203  4.02582695
   4.22314524  5.86941603  4.01930627
  -4.14362041  5.84529947  3.97354088
  -0.03972013  5.84745776  0.04175328
  -0.00232553  5.79908387  8.02636716
  -4.16189489  8.79932067 11.57541230
   4.24683186  8.77921572 11.53935959
  -0.04537752  2.95576896 15.51946939
  -0.06449764  2.93192218  7.46634411
   0.05058672  8.78614806  0.42200324
   4.20504835  2.93838532  4.52722816
  -4.37039808  2.95538187  4.60127130
  -5.92926726  5.50816020  9.59654950
   2.49386089  5.47960976  9.65610401
   1.69014772  6.32720850  5.63290624
  -1.73403690  0.31317519 10.44521935
  -1.72419354  0.43905990  2.42148137
   5.93489928 11.36206938  6.45636170
  -2.46541326 11.30947274  6.43736247
  -5.94426062  0.39314928  9.63351076
   2.51533191  0.35326780  9.62266440
   1.70327219 11.25716936  5.65004816
   1.71301406 11.33058647 13.64878080
   5.93795208  6.24139294  6.46947543
  -2.52681583  6.31913837  6.46203816
  -1.66639344  5.51319231 10.50665529
  -1.66762809  5.42108955  2.44213690
   0.85054521  7.51131310 11.10033504



--------------------------------------------------------------------------------------------------------


 k-point  1 :   0.0000 0.0000 0.0000  plane waves:   18809
 k-point  2 :   0.5000 0.0000 0.0000  plane waves:   18808
 k-point  3 :   0.0000 0.5000 0.0000  plane waves:   18794
 k-point  4 :   0.5000 0.5000 0.0000  plane waves:   18804
 k-point  5 :   0.0000 0.0000 0.5000  plane waves:   18808
 k-point  6 :   0.5000 0.0000 0.5000  plane waves:   18790
 k-point  7 :   0.0000 0.5000 0.5000  plane waves:   18804
 k-point  8 :   0.5000 0.5000 0.5000  plane waves:   18800

 maximum and minimum number of plane-waves per node :      2389     2304

 maximum number of plane-waves:     18809
 maximum index in each direction: 
   IXMAX=   16   IYMAX=   16   IZMAX=   16
   IXMIN=  -16   IYMIN=  -17   IZMIN=  -16


 real space projection operators:
  total allocation   :      16723.30 KBytes
  max/ min on nodes  :       2180.78       1839.27


 parallel 3D FFT for wavefunctions:
    minimum data exchange during FFTs selected (reduces bandwidth)
 parallel 3D FFT for charge:
    minimum data exchange during FFTs selected (reduces bandwidth)


 total amount of memory used by VASP MPI-rank0    60642. kBytes
=======================================================================

   base      :      30000. kBytes
   nonlr-proj:       6477. kBytes
   fftplans  :       8423. kBytes
   grid      :       7465. kBytes
   one-center:         77. kBytes
   wavefun   :       8200. kBytes

     INWAV:  cpu time    0.0000: real time    0.0000
 Broyden mixing: mesh for mixing (old mesh)
   NGX = 33   NGY = 33   NGZ = 33
  (NGX  =140   NGY  =140   NGZ  =140)
  gives a total of  35937 points

 initial charge density was supplied:
 charge density of overlapping atoms calculated
 number of electron     345.0000000 magnetization 
 keeping initial charge density in first step


--------------------------------------------------------------------------------------------------------


 Maximum index for non-local projection operator          729
 Maximum index for augmentation-charges         3003 (set IRDMAX)


--------------------------------------------------------------------------------------------------------


 First call to EWALD:  gamma=   0.152
 Maximum number of real-space cells 3x 3x 3
 Maximum number of reciprocal cells 3x 3x 3

    FEWALD:  cpu time    0.0037: real time    0.0037


--------------------------------------- Iteration      1(   1)  ---------------------------------------


    POTLOK:  cpu time    0.2620: real time    0.2787
    SETDIJ:  cpu time    1.1955: real time    1.1956
     EDDAV:  cpu time   16.6629: real time   16.6688
       DOS:  cpu time    0.0008: real time    0.0008
    --------------------------------------------
      LOOP:  cpu time   18.1212: real time   18.1439

 eigenvalue-minimisations  :  3472
 total energy-change (2. order) : 0.1341547E+04  (-0.1105690E+05)
 number of electron     345.0000000 magnetization 
 augmentation part      345.0000000 magnetization 

 Free energy of the ion-electron system (eV)
  ---------------------------------------------------
  alpha Z        PSCENC =       872.70583573
  Ewald energy   TEWEN  =    -17935.29516553
  -Hartree energ DENC   =     -7414.01460788
  -exchange      EXHF   =         0.00000000
  -V(xc)+E(xc)   XCENC  =       908.65154348
  PAW double counting   =     21345.28103884   -22405.85761495
  entropy T*S    EENTRO =        -0.00179871
  eigenvalues    EBANDS =      -242.04119030
  atomic energy  EATOM  =     26212.11861568
  Solvation  Ediel_sol  =         0.00000000
  ---------------------------------------------------
  free energy    TOTEN  =      1341.54665635 eV

  energy without entropy =     1341.54845506  energy(sigma->0) =     1341.54755571


--------------------------------------------------------------------------------------------------------




--------------------------------------- Iteration      1(   2)  ---------------------------------------


     EDDAV:  cpu time   18.4386: real time   18.5030
       DOS:  cpu time    0.0004: real time    0.0004
    --------------------------------------------
      LOOP:  cpu time   18.4390: real time   18.5034

 eigenvalue-minimisations  :  4072
 total energy-change (2. order) :-0.2447336E+04  (-0.2363083E+04)
 number of electron     345.0000000 magnetization 
 augmentation part      345.0000000 magnetization 

 Free energy of the ion-electron system (eV)
  ---------------------------------------------------
  alpha Z        PSCENC =       872.70583573
  Ewald energy   TEWEN  =    -17935.29516553
  -Hartree energ DENC   =     -7414.01460788
  -exchange      EXHF   =         0.00000000
  -V(xc)+E(xc)   XCENC  =       908.65154348
  PAW double counting   =     21345.28103884   -22405.85761495
  entropy T*S    EENTRO =        -0.00000000
  eigenvalues    EBANDS =     -2689.37880324
  atomic energy  EATOM  =     26212.11861568
  Solvation  Ediel_sol  =         0.00000000
  ---------------------------------------------------
  free energy    TOTEN  =     -1105.78915787 eV

  energy without entropy =    -1105.78915787  energy(sigma->0) =    -1105.78915787


--------------------------------------------------------------------------------------------------------




--------------------------------------- Iteration      1(   3)  ---------------------------------------


     EDDAV:  cpu time   19.6086: real time   19.6252
       DOS:  cpu time    0.0004: real time    0.0004
    --------------------------------------------
      LOOP:  cpu time   19.6090: real time   19.6256

 eigenvalue-minimisations  :  4464
 total energy-change (2. order) :-0.3646586E+03  (-0.3624987E+03)
 number of electron     345.0000000 magnetization 
 augmentation part      345.0000000 magnetization 

 Free energy of the ion-electron system (eV)
  ---------------------------------------------------
  alpha Z        PSCENC =       872.70583573
  Ewald energy   TEWEN  =    -17935.29516553
  -Hartree energ DENC   =     -7414.01460788
  -exchange      EXHF   =         0.00000000
  -V(xc)+E(xc)   XCENC  =       908.65154348
  PAW double counting   =     21345.28103884   -22405.85761495
  entropy T*S    EENTRO =        -0.00000000
  eigenvalues    EBANDS =     -3054.03737742
  atomic energy  EATOM  =     26212.11861568
  Solvation  Ediel_sol  =         0.00000000
  ---------------------------------------------------
  free energy    TOTEN  =     -1470.44773206 eV

  energy without entropy =    -1470.44773206  energy(sigma->0) =    -1470.44773206


--------------------------------------------------------------------------------------------------------




--------------------------------------- Iteration      1(   4)  ---------------------------------------


     EDDAV:  cpu time   18.2210: real time   18.2506
       DOS:  cpu time    0.0004: real time    0.0004
    --------------------------------------------
      LOOP:  cpu time   18.2214: real time   18.2510

 eigenvalue-minimisations  :  3992
 total energy-change (2. order) :-0.1224762E+02  (-0.1221455E+02)
 number of electron     345.0000000 magnetization 
 augmentation part      345.0000000 magnetization 

 Free energy of the ion-electron system (eV)
  ---------------------------------------------------
  alpha Z        PSCENC =       872.70583573
  Ewald energy   TEWEN  =    -17935.29516553
  -Hartree energ DENC   =     -7414.01460788
  -exchange      EXHF   =         0.00000000
  -V(xc)+E(xc)   XCENC  =       908.65154348
  PAW double counting   =     21345.28103884   -22405.85761495
  entropy T*S    EENTRO =        -0.00000000
  eigenvalues    EBANDS =     -3066.28499705
  atomic energy  EATOM  =     26212.11861568
  Solvation  Ediel_sol  =         0.00000000
  ---------------------------------------------------
  free energy    TOTEN  =     -1482.69535169 eV

  energy without entropy =    -1482.69535169  energy(sigma->0) =    -1482.69535169


--------------------------------------------------------------------------------------------------------




--------------------------------------- Iteration      1(   5)  ---------------------------------------


     EDDAV:  cpu time   19.0597: real time   19.1000
       DOS:  cpu time    0.0005: real time    0.0005
    CHARGE:  cpu time    2.7132: real time    2.7134
    MIXING:  cpu time    0.0015: real time    0.0015
    --------------------------------------------
      LOOP:  cpu time   21.7750: real time   21.8155

 eigenvalue-minimisations  :  4288
 total energy-change (2. order) :-0.5277921E+00  (-0.5275436E+00)
 number of electron     343.9999999 magnetization 
 augmentation part       -5.1274341 magnetization 

 Broyden mixing:
  rms(total) = 0.13409E+01    rms(broyden)= 0.13404E+01
  rms(prec ) = 0.17034E+01
  weight for this iteration     100.00

 Free energy of the ion-electron system (eV)
  ---------------------------------------------------
  alpha Z        PSCENC =       872.70583573
  Ewald energy   TEWEN  =    -17935.29516553
  -Hartree energ DENC   =     -7414.01460788
  -exchange      EXHF   =         0.00000000
  -V(xc)+E(xc)   XCENC  =       908.65154348
  PAW double counting   =     21345.28103884   -22405.85761495
  entropy T*S    EENTRO =        -0.00000000
  eigenvalues    EBANDS =     -3066.81278918
  atomic energy  EATOM  =     26212.11861568
  Solvation  Ediel_sol  =         0.00000000
  ---------------------------------------------------
  free energy    TOTEN  =     -1483.22314382 eV

  energy without entropy =    -1483.22314382  energy(sigma->0) =    -1483.22314382


--------------------------------------------------------------------------------------------------------




--------------------------------------- Iteration      1(   6)  ---------------------------------------


    POTLOK:  cpu time    0.3146: real time    0.3297
    SETDIJ:  cpu time    1.1998: real time    1.1999
     EDDAV:  cpu time   19.2340: real time   19.2348
       DOS:  cpu time    0.0005: real time    0.0005
    CHARGE:  cpu time    2.6937: real time    2.6939
    MIXING:  cpu time    0.0016: real time    0.0016
    --------------------------------------------
      LOOP:  cpu time   23.4443: real time   23.4604

 eigenvalue-minimisations  :  4344
 total energy-change (2. order) : 0.7882491E+02  (-0.2424188E+01)
 number of electron     343.9999999 magnetization 
 augmentation part       -3.6630077 magnetization 

 Broyden mixing:
  rms(total) = 0.90754E+00    rms(broyden)= 0.90747E+00
  rms(prec ) = 0.10895E+01
  weight for this iteration     100.00

 eigenvalues of (default mixing * dielectric matrix)
  average eigenvalue GAMMA=   1.5466
  1.5466

 Free energy of the ion-electron system (eV)
  ---------------------------------------------------
  alpha Z        PSCENC =       872.70583573
  Ewald energy   TEWEN  =    -17935.29516553
  -Hartree energ DENC   =     -7397.18136044
  -exchange      EXHF   =         0.00000000
  -V(xc)+E(xc)   XCENC  =       936.40442502
  PAW double counting   =     21692.69324814   -22751.16519990
  entropy T*S    EENTRO =        -0.00000000
  eigenvalues    EBANDS =     -3034.67862935
  atomic energy  EATOM  =     26212.11861568
  Solvation  Ediel_sol  =         0.00000000
  ---------------------------------------------------
  free energy    TOTEN  =     -1404.39823065 eV

  energy without entropy =    -1404.39823065  energy(sigma->0) =    -1404.39823065


--------------------------------------------------------------------------------------------------------




--------------------------------------- Iteration      1(   7)  ---------------------------------------


    POTLOK:  cpu time    0.2565: real time    0.3212
    SETDIJ:  cpu time    1.1974: real time    1.1974
     EDDAV:  cpu time   18.4594: real time   18.4603
       DOS:  cpu time    0.0004: real time    0.0004
    CHARGE:  cpu time    2.7016: real time    2.7018
    MIXING:  cpu time    0.0019: real time    0.0020
    --------------------------------------------
      LOOP:  cpu time   22.6173: real time   22.6831

 eigenvalue-minimisations  :  4080
 total energy-change (2. order) : 0.7969620E+00  (-0.1085319E+01)
 number of electron     343.9999999 magnetization 
 augmentation part       -3.0426065 magnetization 

 Broyden mixing:
  rms(total) = 0.37128E+00    rms(broyden)= 0.37125E+00
  rms(prec ) = 0.41842E+00
  weight for this iteration     100.00

 eigenvalues of (default mixing * dielectric matrix)
  average eigenvalue GAMMA=   1.3770
  1.2271  1.5268

 Free energy of the ion-electron system (eV)
  ---------------------------------------------------
  alpha Z        PSCENC =       872.70583573
  Ewald energy   TEWEN  =    -17935.29516553
  -Hartree energ DENC   =     -7446.54414505
  -exchange      EXHF   =         0.00000000
  -V(xc)+E(xc)   XCENC  =       942.54620373
  PAW double counting   =     22471.42201611   -23527.24412266
  entropy T*S    EENTRO =        -0.00000000
  eigenvalues    EBANDS =     -2993.31050662
  atomic energy  EATOM  =     26212.11861568
  Solvation  Ediel_sol  =         0.00000000
  ---------------------------------------------------
  free energy    TOTEN  =     -1403.60126862 eV

  energy without entropy =    -1403.60126862  energy(sigma->0) =    -1403.60126862


--------------------------------------------------------------------------------------------------------




--------------------------------------- Iteration      1(   8)  ---------------------------------------


    POTLOK:  cpu time    0.2867: real time    0.3144
    SETDIJ:  cpu time    1.1995: real time    1.1995
     EDDAV:  cpu time   17.4794: real time   17.4805
       DOS:  cpu time    0.0004: real time    0.0004
    CHARGE:  cpu time    2.6964: real time    2.6966
    MIXING:  cpu time    0.0016: real time    0.0016
    --------------------------------------------
      LOOP:  cpu time   21.6640: real time   21.6930

 eigenvalue-minimisations  :  3744
 total energy-change (2. order) :-0.1782044E+00  (-0.9658315E-01)
 number of electron     343.9999999 magnetization 
 augmentation part       -3.1985091 magnetization 

 Broyden mixing:
  rms(total) = 0.23019E+00    rms(broyden)= 0.23018E+00
  rms(prec ) = 0.26449E+00
  weight for this iteration     100.00

 eigenvalues of (default mixing * dielectric matrix)
  average eigenvalue GAMMA=   1.5225
  1.0319  1.7679  1.7679

 Free energy of the ion-electron system (eV)
  ---------------------------------------------------
  alpha Z        PSCENC =       872.70583573
  Ewald energy   TEWEN  =    -17935.29516553
  -Hartree energ DENC   =     -7447.62480765
  -exchange      EXHF   =         0.00000000
  -V(xc)+E(xc)   XCENC  =       942.65752476
  PAW double counting   =     22688.92960534   -23745.23846949
  entropy T*S    EENTRO =        -0.00000000
  eigenvalues    EBANDS =     -2992.03261187
  atomic energy  EATOM  =     26212.11861568
  Solvation  Ediel_sol  =         0.00000000
  ---------------------------------------------------
  free energy    TOTEN  =     -1403.77947303 eV

  energy without entropy =    -1403.77947303  energy(sigma->0) =    -1403.77947303


--------------------------------------------------------------------------------------------------------




--------------------------------------- Iteration      1(   9)  ---------------------------------------


    POTLOK:  cpu time    0.2935: real time    0.3165
    SETDIJ:  cpu time    1.1974: real time    1.1975
     EDDAV:  cpu time   18.0644: real time   18.0657
       DOS:  cpu time    0.0004: real time    0.0004
    CHARGE:  cpu time    2.7048: real time    2.7049
    MIXING:  cpu time    0.0017: real time    0.0017
    --------------------------------------------
      LOOP:  cpu time   22.2622: real time   22.2866

 eigenvalue-minimisations  :  3944
 total energy-change (2. order) :-0.2748432E-01  (-0.1673401E-01)
 number of electron     343.9999999 magnetization 
 augmentation part       -3.2437228 magnetization 

 Broyden mixing:
  rms(total) = 0.54210E-01    rms(broyden)= 0.54207E-01
  rms(prec ) = 0.73507E-01
  weight for this iteration     100.00

 eigenvalues of (default mixing * dielectric matrix)
  average eigenvalue GAMMA=   1.5026
  2.5850  1.2844  1.2844  0.8564

 Free energy of the ion-electron system (eV)
  ---------------------------------------------------
  alpha Z        PSCENC =       872.70583573
  Ewald energy   TEWEN  =    -17935.29516553
  -Hartree energ DENC   =     -7451.00642466
  -exchange      EXHF   =         0.00000000
  -V(xc)+E(xc)   XCENC  =       943.87063763
  PAW double counting   =     22927.41990675   -23984.62761124
  entropy T*S    EENTRO =        -0.00000000
  eigenvalues    EBANDS =     -2988.99275173
  atomic energy  EATOM  =     26212.11861568
  Solvation  Ediel_sol  =         0.00000000
  ---------------------------------------------------
  free energy    TOTEN  =     -1403.80695735 eV

  energy without entropy =    -1403.80695735  energy(sigma->0) =    -1403.80695735


--------------------------------------------------------------------------------------------------------




--------------------------------------- Iteration      1(  10)  ---------------------------------------


    POTLOK:  cpu time    0.3100: real time    0.3137
    SETDIJ:  cpu time    1.1980: real time    1.1980
     EDDAV:  cpu time   19.0881: real time   19.0890
       DOS:  cpu time    0.0005: real time    0.0005
    CHARGE:  cpu time    2.7000: real time    2.7001
    MIXING:  cpu time    0.0016: real time    0.0016
    --------------------------------------------
      LOOP:  cpu time   23.2982: real time   23.3029

 eigenvalue-minimisations  :  4296
 total energy-change (2. order) :-0.8743964E-02  (-0.4111401E-02)
 number of electron     343.9999999 magnetization 
 augmentation part       -3.2356645 magnetization 

 Broyden mixing:
  rms(total) = 0.36994E-01    rms(broyden)= 0.36993E-01
  rms(prec ) = 0.45692E-01
  weight for this iteration     100.00

 eigenvalues of (default mixing * dielectric matrix)
  average eigenvalue GAMMA=   1.4840
  2.4015  1.4944  1.4944  1.0149  1.0149

 Free energy of the ion-electron system (eV)
  ---------------------------------------------------
  alpha Z        PSCENC =       872.70583573
  Ewald energy   TEWEN  =    -17935.29516553
  -Hartree energ DENC   =     -7451.72065431
  -exchange      EXHF   =         0.00000000
  -V(xc)+E(xc)   XCENC  =       944.22401816
  PAW double counting   =     22982.16181409   -24039.66422229
  entropy T*S    EENTRO =        -0.00000000
  eigenvalues    EBANDS =     -2988.34594286
  atomic energy  EATOM  =     26212.11861568
  Solvation  Ediel_sol  =         0.00000000
  ---------------------------------------------------
  free energy    TOTEN  =     -1403.81570132 eV

  energy without entropy =    -1403.81570132  energy(sigma->0) =    -1403.81570132


--------------------------------------------------------------------------------------------------------




--------------------------------------- Iteration      1(  11)  ---------------------------------------


    POTLOK:  cpu time    0.2486: real time    0.3162
    SETDIJ:  cpu time    1.2039: real time    1.2040
     EDDAV:  cpu time   17.4990: real time   17.4998
       DOS:  cpu time    0.0005: real time    0.0005
    CHARGE:  cpu time    2.7098: real time    2.7101
    MIXING:  cpu time    0.0019: real time    0.0019
    --------------------------------------------
      LOOP:  cpu time   21.6638: real time   21.7325

 eigenvalue-minimisations  :  3752
 total energy-change (2. order) :-0.3263830E-02  (-0.8364647E-03)
 number of electron     343.9999999 magnetization 
 augmentation part       -3.2388693 magnetization 

 Broyden mixing:
  rms(total) = 0.14776E-01    rms(broyden)= 0.14775E-01
  rms(prec ) = 0.23553E-01
  weight for this iteration     100.00

 eigenvalues of (default mixing * dielectric matrix)
  average eigenvalue GAMMA=   1.5610
  2.5326  2.5326  1.2324  1.2324  0.9180  0.9180

 Free energy of the ion-electron system (eV)
  ---------------------------------------------------
  alpha Z        PSCENC =       872.70583573
  Ewald energy   TEWEN  =    -17935.29516553
  -Hartree energ DENC   =     -7450.45221345
  -exchange      EXHF   =         0.00000000
  -V(xc)+E(xc)   XCENC  =       944.11987087
  PAW double counting   =     22958.20400024   -24015.97975004
  entropy T*S    EENTRO =        -0.00000000
  eigenvalues    EBANDS =     -2989.24015865
  atomic energy  EATOM  =     26212.11861568
  Solvation  Ediel_sol  =         0.00000000
  ---------------------------------------------------
  free energy    TOTEN  =     -1403.81896515 eV

  energy without entropy =    -1403.81896515  energy(sigma->0) =    -1403.81896515


--------------------------------------------------------------------------------------------------------




--------------------------------------- Iteration      1(  12)  ---------------------------------------


    POTLOK:  cpu time    0.2740: real time    0.3205
    SETDIJ:  cpu time    1.2035: real time    1.2035
     EDDAV:  cpu time   17.2337: real time   17.2344
       DOS:  cpu time    0.0005: real time    0.0005
    CHARGE:  cpu time    2.7114: real time    2.7115
    MIXING:  cpu time    0.0020: real time    0.0020
    --------------------------------------------
      LOOP:  cpu time   21.4250: real time   21.4722

 eigenvalue-minimisations  :  3664
 total energy-change (2. order) :-0.2130379E-02  (-0.3453524E-03)
 number of electron     343.9999999 magnetization 
 augmentation part       -3.2391893 magnetization 

 Broyden mixing:
  rms(total) = 0.69318E-02    rms(broyden)= 0.69309E-02
  rms(prec ) = 0.11887E-01
  weight for this iteration     100.00

 eigenvalues of (default mixing * dielectric matrix)
  average eigenvalue GAMMA=   1.5205
  2.6675  2.6675  1.3050  1.3050  0.9349  0.8819  0.8819

 Free energy of the ion-electron system (eV)
  ---------------------------------------------------
  alpha Z        PSCENC =       872.70583573
  Ewald energy   TEWEN  =    -17935.29516553
  -Hartree energ DENC   =     -7450.18390665
  -exchange      EXHF   =         0.00000000
  -V(xc)+E(xc)   XCENC  =       944.14584067
  PAW double counting   =     22949.47934097   -24007.45668215
  entropy T*S    EENTRO =        -0.00000000
  eigenvalues    EBANDS =     -2989.33497425
  atomic energy  EATOM  =     26212.11861568
  Solvation  Ediel_sol  =         0.00000000
  ---------------------------------------------------
  free energy    TOTEN  =     -1403.82109553 eV

  energy without entropy =    -1403.82109553  energy(sigma->0) =    -1403.82109553


--------------------------------------------------------------------------------------------------------




--------------------------------------- Iteration      1(  13)  ---------------------------------------


    POTLOK:  cpu time    0.2514: real time    0.3219
    SETDIJ:  cpu time    1.2015: real time    1.2015
     EDDAV:  cpu time   19.3245: real time   19.3253
       DOS:  cpu time    0.0004: real time    0.0004
    CHARGE:  cpu time    2.7138: real time    2.7139
    MIXING:  cpu time    0.0019: real time    0.0019
    --------------------------------------------
      LOOP:  cpu time   23.4934: real time   23.5649

 eigenvalue-minimisations  :  4384
 total energy-change (2. order) :-0.1541126E-03  (-0.7663596E-04)
 number of electron     343.9999999 magnetization 
 augmentation part       -3.2409800 magnetization 

 Broyden mixing:
  rms(total) = 0.48831E-02    rms(broyden)= 0.48824E-02
  rms(prec ) = 0.73744E-02
  weight for this iteration     100.00

 eigenvalues of (default mixing * dielectric matrix)
  average eigenvalue GAMMA=   1.5056
  2.7119  2.7119  1.3261  1.3261  1.0914  1.0914  0.8931  0.8931

 Free energy of the ion-electron system (eV)
  ---------------------------------------------------
  alpha Z        PSCENC =       872.70583573
  Ewald energy   TEWEN  =    -17935.29516553
  -Hartree energ DENC   =     -7450.49870915
  -exchange      EXHF   =         0.00000000
  -V(xc)+E(xc)   XCENC  =       944.16624332
  PAW double counting   =     22948.10111037   -24006.09591940
  entropy T*S    EENTRO =        -0.00000000
  eigenvalues    EBANDS =     -2989.02326066
  atomic energy  EATOM  =     26212.11861568
  Solvation  Ediel_sol  =         0.00000000
  ---------------------------------------------------
  free energy    TOTEN  =     -1403.82124964 eV

  energy without entropy =    -1403.82124964  energy(sigma->0) =    -1403.82124964


--------------------------------------------------------------------------------------------------------




--------------------------------------- Iteration      1(  14)  ---------------------------------------


    POTLOK:  cpu time    0.2865: real time    0.3120
    SETDIJ:  cpu time    1.2028: real time    1.2028
     EDDAV:  cpu time   17.1713: real time   17.1720
       DOS:  cpu time    0.0004: real time    0.0004
    CHARGE:  cpu time    2.7108: real time    2.7109
    MIXING:  cpu time    0.0018: real time    0.0018
    --------------------------------------------
      LOOP:  cpu time   21.3736: real time   21.3999

 eigenvalue-minimisations  :  3648
 total energy-change (2. order) :-0.7557720E-04  (-0.4493554E-04)
 number of electron     343.9999999 magnetization 
 augmentation part       -3.2395989 magnetization 

 Broyden mixing:
  rms(total) = 0.17514E-02    rms(broyden)= 0.17500E-02
  rms(prec ) = 0.28953E-02
  weight for this iteration     100.00

 eigenvalues of (default mixing * dielectric matrix)
  average eigenvalue GAMMA=   1.5646
  3.2972  2.4956  1.5304  1.5304  1.1912  1.1912  0.9067  0.9691  0.9691

 Free energy of the ion-electron system (eV)
  ---------------------------------------------------
  alpha Z        PSCENC =       872.70583573
  Ewald energy   TEWEN  =    -17935.29516553
  -Hartree energ DENC   =     -7450.98383226
  -exchange      EXHF   =         0.00000000
  -V(xc)+E(xc)   XCENC  =       944.19782939
  PAW double counting   =     22946.75097838   -24004.72828300
  entropy T*S    EENTRO =        -0.00000000
  eigenvalues    EBANDS =     -2988.58730360
  atomic energy  EATOM  =     26212.11861568
  Solvation  Ediel_sol  =         0.00000000
  ---------------------------------------------------
  free energy    TOTEN  =     -1403.82132522 eV

  energy without entropy =    -1403.82132522  energy(sigma->0) =    -1403.82132522


--------------------------------------------------------------------------------------------------------




--------------------------------------- Iteration      1(  15)  ---------------------------------------


    POTLOK:  cpu time    0.2666: real time    0.3188
    SETDIJ:  cpu time    1.2025: real time    1.2026
     EDDAV:  cpu time   19.3429: real time   19.3438
       DOS:  cpu time    0.0005: real time    0.0005
    CHARGE:  cpu time    2.7042: real time    2.7045
    MIXING:  cpu time    0.0022: real time    0.0022
    --------------------------------------------
      LOOP:  cpu time   23.5190: real time   23.5723

 eigenvalue-minimisations  :  4392
 total energy-change (2. order) :-0.5522523E-04  (-0.1185054E-04)
 number of electron     343.9999999 magnetization 
 augmentation part       -3.2400184 magnetization 

 Broyden mixing:
  rms(total) = 0.14942E-02    rms(broyden)= 0.14928E-02
  rms(prec ) = 0.19005E-02
  weight for this iteration     100.00

 eigenvalues of (default mixing * dielectric matrix)
  average eigenvalue GAMMA=   1.5713
  3.6031  2.2698  2.2698  1.2306  1.2306  1.2341  1.2341  0.9449  0.8481  0.8481

 Free energy of the ion-electron system (eV)
  ---------------------------------------------------
  alpha Z        PSCENC =       872.70583573
  Ewald energy   TEWEN  =    -17935.29516553
  -Hartree energ DENC   =     -7451.09326939
  -exchange      EXHF   =         0.00000000
  -V(xc)+E(xc)   XCENC  =       944.19995629
  PAW double counting   =     22946.10765499   -24004.08279904
  entropy T*S    EENTRO =        -0.00000000
  eigenvalues    EBANDS =     -2988.48220917
  atomic energy  EATOM  =     26212.11861568
  Solvation  Ediel_sol  =         0.00000000
  ---------------------------------------------------
  free energy    TOTEN  =     -1403.82138044 eV

  energy without entropy =    -1403.82138044  energy(sigma->0) =    -1403.82138044


--------------------------------------------------------------------------------------------------------




--------------------------------------- Iteration      1(  16)  ---------------------------------------


    POTLOK:  cpu time    0.2621: real time    0.3208
    SETDIJ:  cpu time    1.1971: real time    1.1972
     EDDAV:  cpu time   17.0693: real time   17.0701
       DOS:  cpu time    0.0005: real time    0.0005
    CHARGE:  cpu time    2.7076: real time    2.7077
    MIXING:  cpu time    0.0020: real time    0.0020
    --------------------------------------------
      LOOP:  cpu time   21.2386: real time   21.2982

 eigenvalue-minimisations  :  3592
 total energy-change (2. order) : 0.1661411E-04  (-0.2277306E-05)
 number of electron     343.9999999 magnetization 
 augmentation part       -3.2397750 magnetization 

 Broyden mixing:
  rms(total) = 0.85367E-03    rms(broyden)= 0.85139E-03
  rms(prec ) = 0.12117E-02
  weight for this iteration     100.00

 eigenvalues of (default mixing * dielectric matrix)
  average eigenvalue GAMMA=   1.6422
  3.8588  2.4990  2.4990  1.4674  1.4674  1.2645  1.2645  0.9826  0.9826  0.8481
  0.9306

 Free energy of the ion-electron system (eV)
  ---------------------------------------------------
  alpha Z        PSCENC =       872.70583573
  Ewald energy   TEWEN  =    -17935.29516553
  -Hartree energ DENC   =     -7451.18163990
  -exchange      EXHF   =         0.00000000
  -V(xc)+E(xc)   XCENC  =       944.20373679
  PAW double counting   =     22946.56214018   -24004.53072239
  entropy T*S    EENTRO =        -0.00000000
  eigenvalues    EBANDS =     -2988.40416439
  atomic energy  EATOM  =     26212.11861568
  Solvation  Ediel_sol  =         0.00000000
  ---------------------------------------------------
  free energy    TOTEN  =     -1403.82136383 eV

  energy without entropy =    -1403.82136383  energy(sigma->0) =    -1403.82136383


--------------------------------------------------------------------------------------------------------




--------------------------------------- Iteration      1(  17)  ---------------------------------------


    POTLOK:  cpu time    0.2757: real time    0.3160
    SETDIJ:  cpu time    1.1972: real time    1.1972
     EDDAV:  cpu time   17.0515: real time   17.0521
       DOS:  cpu time    0.0004: real time    0.0004
    CHARGE:  cpu time    2.7057: real time    2.7058
    MIXING:  cpu time    0.0020: real time    0.0020
    --------------------------------------------
      LOOP:  cpu time   21.2324: real time   21.2735

 eigenvalue-minimisations  :  3584
 total energy-change (2. order) :-0.5692922E-05  (-0.1325991E-05)
 number of electron     343.9999999 magnetization 
 augmentation part       -3.2398219 magnetization 

 Broyden mixing:
  rms(total) = 0.27017E-03    rms(broyden)= 0.26295E-03
  rms(prec ) = 0.37810E-03
  weight for this iteration     100.00

 eigenvalues of (default mixing * dielectric matrix)
  average eigenvalue GAMMA=   1.6446
  4.1696  2.6392  2.6392  1.4714  1.4714  1.3033  1.3033  1.0205  1.0205  0.8746
  0.8746  0.9480

 Free energy of the ion-electron system (eV)
  ---------------------------------------------------
  alpha Z        PSCENC =       872.70583573
  Ewald energy   TEWEN  =    -17935.29516553
  -Hartree energ DENC   =     -7451.18173843
  -exchange      EXHF   =         0.00000000
  -V(xc)+E(xc)   XCENC  =       944.19909417
  PAW double counting   =     22946.66681863   -24004.63240068
  entropy T*S    EENTRO =        -0.00000000
  eigenvalues    EBANDS =     -2988.40242909
  atomic energy  EATOM  =     26212.11861568
  Solvation  Ediel_sol  =         0.00000000
  ---------------------------------------------------
  free energy    TOTEN  =     -1403.82136952 eV

  energy without entropy =    -1403.82136952  energy(sigma->0) =    -1403.82136952


--------------------------------------------------------------------------------------------------------




--------------------------------------- Iteration      1(  18)  ---------------------------------------


    POTLOK:  cpu time    0.2821: real time    0.3156
    SETDIJ:  cpu time    1.1957: real time    1.1957
     EDDAV:  cpu time   15.0385: real time   15.0393
       DOS:  cpu time    0.0004: real time    0.0004
    CHARGE:  cpu time    2.7070: real time    2.7072
    MIXING:  cpu time    0.0024: real time    0.0024
    --------------------------------------------
      LOOP:  cpu time   19.2261: real time   19.2605

 eigenvalue-minimisations  :  2872
 total energy-change (2. order) :-0.3888588E-05  (-0.2413907E-06)
 number of electron     343.9999999 magnetization 
 augmentation part       -3.2397516 magnetization 

 Broyden mixing:
  rms(total) = 0.23146E-03    rms(broyden)= 0.22301E-03
  rms(prec ) = 0.26593E-03
  weight for this iteration     100.00

 eigenvalues of (default mixing * dielectric matrix)
  average eigenvalue GAMMA=   1.6218
  4.2950  2.5920  2.5920  1.5274  1.5274  1.4073  1.4073  1.2566  0.9847  0.9847
  0.9528  0.7780  0.7780

 Free energy of the ion-electron system (eV)
  ---------------------------------------------------
  alpha Z        PSCENC =       872.70583573
  Ewald energy   TEWEN  =    -17935.29516553
  -Hartree energ DENC   =     -7451.18876629
  -exchange      EXHF   =         0.00000000
  -V(xc)+E(xc)   XCENC  =       944.19859373
  PAW double counting   =     22946.66416140   -24004.62820353
  entropy T*S    EENTRO =        -0.00000000
  eigenvalues    EBANDS =     -2988.39644460
  atomic energy  EATOM  =     26212.11861568
  Solvation  Ediel_sol  =         0.00000000
  ---------------------------------------------------
  free energy    TOTEN  =     -1403.82137341 eV

  energy without entropy =    -1403.82137341  energy(sigma->0) =    -1403.82137341


--------------------------------------------------------------------------------------------------------




--------------------------------------- Iteration      1(  19)  ---------------------------------------


    POTLOK:  cpu time    0.3013: real time    0.3177
    SETDIJ:  cpu time    1.1970: real time    1.1970
     EDDAV:  cpu time   13.1817: real time   13.1824
       DOS:  cpu time    0.0005: real time    0.0005
    CHARGE:  cpu time    2.7064: real time    2.7066
    MIXING:  cpu time    0.0027: real time    0.0027
    --------------------------------------------
      LOOP:  cpu time   17.3896: real time   17.4068

 eigenvalue-minimisations  :  2224
 total energy-change (2. order) :-0.2969321E-05  (-0.4824443E-07)
 number of electron     343.9999999 magnetization 
 augmentation part       -3.2397700 magnetization 

 Broyden mixing:
  rms(total) = 0.11693E-03    rms(broyden)= 0.99205E-04
  rms(prec ) = 0.13010E-03
  weight for this iteration     100.00
  WARNING: grid for Broyden might be to small

 eigenvalues of (default mixing * dielectric matrix)
  average eigenvalue GAMMA=   1.6617
  4.4406  3.0485  2.4562  1.8057  1.8057  1.2809  1.2809  1.2959  1.2959  0.9621
  0.9621  0.9407  0.8445  0.8445

 Free energy of the ion-electron system (eV)
  ---------------------------------------------------
  alpha Z        PSCENC =       872.70583573
  Ewald energy   TEWEN  =    -17935.29516553
  -Hartree energ DENC   =     -7451.18467605
  -exchange      EXHF   =         0.00000000
  -V(xc)+E(xc)   XCENC  =       944.19804585
  PAW double counting   =     22946.71815088   -24004.68252709
  entropy T*S    EENTRO =        -0.00000000
  eigenvalues    EBANDS =     -2988.39965585
  atomic energy  EATOM  =     26212.11861568
  Solvation  Ediel_sol  =         0.00000000
  ---------------------------------------------------
  free energy    TOTEN  =     -1403.82137638 eV

  energy without entropy =    -1403.82137638  energy(sigma->0) =    -1403.82137638


--------------------------------------------------------------------------------------------------------




--------------------------------------- Iteration      1(  20)  ---------------------------------------


    POTLOK:  cpu time    0.2680: real time    0.3125
    SETDIJ:  cpu time    1.1958: real time    1.1959
     EDDAV:  cpu time   12.6697: real time   12.6703
       DOS:  cpu time    0.0005: real time    0.0005
    CHARGE:  cpu time    2.7046: real time    2.7048
    MIXING:  cpu time    0.0021: real time    0.0021
    --------------------------------------------
      LOOP:  cpu time   16.8408: real time   16.8861

 eigenvalue-minimisations  :  2048
 total energy-change (2. order) : 0.1119784E-05  (-0.2385594E-07)
 number of electron     343.9999999 magnetization 
 augmentation part       -3.2397726 magnetization 

 Broyden mixing:
  rms(total) = 0.85643E-04    rms(broyden)= 0.59204E-04
  rms(prec ) = 0.77355E-04
  weight for this iteration     100.00
  WARNING: grid for Broyden might be to small

 eigenvalues of (default mixing * dielectric matrix)
  average eigenvalue GAMMA=   1.6533
  4.5288  3.0509  2.2516  2.2516  1.5340  1.5340  1.4340  1.4340  1.1328  1.1328
  0.9910  0.9910  0.8961  0.8184  0.8184

 Free energy of the ion-electron system (eV)
  ---------------------------------------------------
  alpha Z        PSCENC =       872.70583573
  Ewald energy   TEWEN  =    -17935.29516553
  -Hartree energ DENC   =     -7451.18764258
  -exchange      EXHF   =         0.00000000
  -V(xc)+E(xc)   XCENC  =       944.19798481
  PAW double counting   =     22946.76938769   -24004.73317833
  entropy T*S    EENTRO =        -0.00000000
  eigenvalues    EBANDS =     -2988.39721274
  atomic energy  EATOM  =     26212.11861568
  Solvation  Ediel_sol  =         0.00000000
  ---------------------------------------------------
  free energy    TOTEN  =     -1403.82137526 eV

  energy without entropy =    -1403.82137526  energy(sigma->0) =    -1403.82137526


--------------------------------------------------------------------------------------------------------




--------------------------------------- Iteration      1(  21)  ---------------------------------------


    POTLOK:  cpu time    0.2958: real time    0.3192
    SETDIJ:  cpu time    1.1986: real time    1.1986
     EDDAV:  cpu time   12.5697: real time   12.5702
       DOS:  cpu time    0.0004: real time    0.0004
    --------------------------------------------
      LOOP:  cpu time   14.0645: real time   14.0884

 eigenvalue-minimisations  :  2008
 total energy-change (2. order) :-0.9402443E-06  (-0.1018928E-07)
 number of electron     343.9999999 magnetization 
 augmentation part       -3.2397726 magnetization 

 Free energy of the ion-electron system (eV)
  ---------------------------------------------------
  alpha Z        PSCENC =       872.70583573
  Ewald energy   TEWEN  =    -17935.29516553
  -Hartree energ DENC   =     -7451.18488531
  -exchange      EXHF   =         0.00000000
  -V(xc)+E(xc)   XCENC  =       944.19782155
  PAW double counting   =     22946.77208035   -24004.73645738
  entropy T*S    EENTRO =        -0.00000000
  eigenvalues    EBANDS =     -2988.39922129
  atomic energy  EATOM  =     26212.11861568
  Solvation  Ediel_sol  =         0.00000000
  ---------------------------------------------------
  free energy    TOTEN  =     -1403.82137620 eV

  energy without entropy =    -1403.82137620  energy(sigma->0) =    -1403.82137620


--------------------------------------------------------------------------------------------------------




 average (electrostatic) potential at core
  the test charge radii are     1.1312  1.1541  1.0178
  (the norm of the test charge is              1.0000)
       1 -55.3405       2 -55.2772       3 -55.2623       4 -55.3739       5 -55.2958
       6 -55.1021       7 -53.8223       8 -55.3197       9-101.6114      10-102.0853
      11-101.5895      12-101.6814      13-101.6294      14-102.0787      15-102.1301
      16-101.9702      17 -68.8789      18 -68.9170      19 -69.1610      20 -69.6619
      21 -69.1176      22 -68.9643      23 -69.1458      24 -69.1522      25 -68.6641
      26 -69.0649      27 -69.0311      28 -68.9582      29 -68.7556      30 -69.1540
      31 -68.9762      32 -69.0527      33 -69.1329      34 -68.8539      35 -69.0056
      36 -69.2267      37 -68.7634      38 -69.7089      39 -67.8263



 E-fermi :   2.0012     XC(G=0):  -7.9467     alpha+bet : -6.9586


 k-point     1 :       0.0000    0.0000    0.0000
  band No.  band energies     occupation 
      1     -20.9036      2.00000
      2     -20.8714      2.00000
      3     -20.8495      2.00000
      4     -20.8243      2.00000
      5     -20.8046      2.00000
      6     -20.7852      2.00000
      7     -20.6327      2.00000
      8     -20.0656      2.00000
      9     -16.9189      2.00000
     10     -16.8682      2.00000
     11     -16.8514      2.00000
     12     -16.8443      2.00000
     13     -16.8070      2.00000
     14     -16.8050      2.00000
     15     -16.8000      2.00000
     16     -16.7927      2.00000
     17     -16.7609      2.00000
     18     -16.7526      2.00000
     19     -16.7497      2.00000
     20     -16.7447      2.00000
     21     -16.7321      2.00000
     22     -16.7285      2.00000
     23     -16.6877      2.00000
     24     -16.6821      2.00000
     25     -16.6727      2.00000
     26     -16.6406      2.00000
     27     -16.6272      2.00000
     28     -16.5735      2.00000
     29     -16.4546      2.00000
     30     -16.4489      2.00000
     31     -16.4230      2.00000
     32     -16.4042      2.00000
     33     -16.3920      2.00000
     34     -16.3765      2.00000
     35     -16.3558      2.00000
     36     -16.3459      2.00000
     37     -16.3345      2.00000
     38     -16.3300      2.00000
     39     -16.3266      2.00000
     40     -16.2949      2.00000
     41     -16.2843      2.00000
     42     -16.2787      2.00000
     43     -16.2741      2.00000
     44     -16.2718      2.00000
     45     -16.2567      2.00000
     46     -16.2555      2.00000
     47     -16.2516      2.00000
     48     -16.2348      2.00000
     49     -14.7022      2.00000
     50     -14.6544      2.00000
     51     -14.2912      2.00000
     52     -14.2464      2.00000
     53     -14.2250      2.00000
     54     -14.1778      2.00000
     55     -14.1459      2.00000
     56     -14.1352      2.00000
     57     -14.1242      2.00000
     58     -14.0897      2.00000
     59     -14.0799      2.00000
     60     -14.0475      2.00000
     61     -14.0105      2.00000
     62     -13.9855      2.00000
     63     -13.9611      2.00000
     64     -13.9410      2.00000
     65     -13.9090      2.00000
     66     -13.8558      2.00000
     67     -13.8056      2.00000
     68     -13.7400      2.00000
     69     -13.6709      2.00000
     70     -13.6267      2.00000
     71     -13.3551      2.00000
     72      -8.2919      2.00000
     73      -7.9420      2.00000
     74      -7.8424      2.00000
     75      -7.7348      2.00000
     76      -7.4186      2.00000
     77      -7.3423      2.00000
     78      -7.3112      2.00000
     79      -7.2995      2.00000
     80      -7.2920      2.00000
     81      -7.2815      2.00000
     82      -7.2785      2.00000
     83      -7.2664      2.00000
     84      -7.2515      2.00000
     85      -7.2485      2.00000
     86      -7.2381      2.00000
     87      -7.2363      2.00000
     88      -7.2272      2.00000
     89      -7.2199      2.00000
     90      -7.2049      2.00000
     91      -7.2039      2.00000
     92      -7.1921      2.00000
     93      -7.1774      2.00000
     94      -7.1569      2.00000
     95      -7.1428      2.00000
     96      -7.1235      2.00000
     97      -7.0703      2.00000
     98      -7.0340      2.00000
     99      -7.0025      2.00000
    100      -6.6574      2.00000
    101      -6.5957      2.00000
    102      -6.3714      2.00000
    103      -6.3143      2.00000
    104      -3.4120      2.00000
    105      -3.3436      2.00000
    106      -3.3019      2.00000
    107      -3.2892      2.00000
    108      -3.2727      2.00000
    109      -3.2159      2.00000
    110      -3.1804      2.00000
    111      -3.1214      2.00000
    112      -3.1041      2.00000
    113      -3.0347      2.00000
    114      -2.9667      2.00000
    115      -2.9617      2.00000
    116      -2.3100      2.00000
    117      -2.2843      2.00000
    118      -2.2280      2.00000
    119      -2.1954      2.00000
    120      -2.0254      2.00000
    121      -1.9901      2.00000
    122      -1.9466      2.00000
    123      -1.9213      2.00000
    124      -1.8775      2.00000
    125      -1.8123      2.00000
    126      -1.8017      2.00000
    127      -1.7380      2.00000
    128      -1.7255      2.00000
    129      -1.6672      2.00000
    130      -1.6532      2.00000
    131      -1.6419      2.00000
    132      -1.6099      2.00000
    133      -1.5956      2.00000
    134      -1.5634      2.00000
    135      -1.5362      2.00000
    136      -1.5280      2.00000
    137      -1.5075      2.00000
    138      -1.5008      2.00000
    139      -1.4767      2.00000
    140      -1.4658      2.00000
    141      -1.4563      2.00000
    142      -1.4401      2.00000
    143      -1.4360      2.00000
    144      -1.4129      2.00000
    145      -1.3935      2.00000
    146      -1.3604      2.00000
    147      -1.3565      2.00000
    148      -1.3391      2.00000
    149      -1.3158      2.00000
    150      -1.2971      2.00000
    151      -1.2853      2.00000
    152      -1.2475      2.00000
    153      -1.2374      2.00000
[...]


--------------------------------------------------------------------------------------------------------


 soft charge-density along one line, spin component           1
         0         1         2         3         4         5         6         7         8         9
 total charge-density along one line

 pseudopotential strength for first ion, spin component:           1
 17.998  -4.712   0.002   0.001  -0.002  -0.002  -0.001   0.002
 -4.712   1.242  -0.000  -0.000   0.000   0.001   0.000  -0.001
  0.002  -0.000   2.275  -0.000  -0.000  -2.724   0.001   0.000
  0.001  -0.000  -0.000   2.276  -0.001   0.001  -2.725   0.001
 -0.002   0.000  -0.000  -0.001   2.275   0.000   0.001  -2.723
 -0.002   0.001  -2.724   0.001   0.000   3.229  -0.001  -0.001
 -0.001   0.000   0.001  -2.725   0.001  -0.001   3.231  -0.001
  0.002  -0.001   0.000   0.001  -2.723  -0.001  -0.001   3.229
 -0.000   0.000  -0.000   0.000   0.001   0.000  -0.000  -0.001
 -0.001   0.000   0.001   0.001   0.000  -0.001  -0.001  -0.000
  0.001  -0.000  -0.001  -0.001   0.001   0.001   0.001  -0.001
 -0.001   0.000   0.000  -0.001   0.001  -0.000   0.001  -0.002
 -0.000   0.000  -0.001   0.000  -0.002   0.001  -0.000   0.003
 total augmentation occupancy for first ion, spin component:           1
  1.912  -0.138   0.000   0.000  -0.000   0.001   0.000  -0.001  -0.000  -0.001   0.001  -0.001  -0.000
 -0.138   0.117   0.005   0.001  -0.005  -0.002  -0.001   0.003   0.000   0.001  -0.003   0.004   0.002
  0.000   0.005   2.017  -0.001  -0.001   0.004  -0.001  -0.001   0.000   0.003  -0.001   0.000  -0.002
  0.000   0.001  -0.001   2.020  -0.003  -0.001   0.006  -0.002  -0.000   0.002  -0.003  -0.002  -0.000
 -0.000  -0.005  -0.001  -0.003   2.016  -0.001  -0.002   0.003   0.002   0.000   0.001   0.002  -0.004
  0.001  -0.002   0.004  -0.001  -0.001   0.008   0.000   0.000  -0.001  -0.002   0.000   0.000   0.000
  0.000  -0.001  -0.001   0.006  -0.002   0.000   0.007   0.001   0.000  -0.000   0.002  -0.000   0.001
 -0.001   0.003  -0.001  -0.002   0.003   0.000   0.001   0.009  -0.001  -0.000  -0.001  -0.001   0.003
 -0.000   0.000   0.000  -0.000   0.002  -0.001   0.000  -0.001   0.006   0.001  -0.000   0.000   0.000
 -0.001   0.001   0.003   0.002   0.000  -0.002  -0.000  -0.000   0.001   0.005   0.000  -0.000   0.000
  0.001  -0.003  -0.001  -0.003   0.001   0.000   0.002  -0.001  -0.000   0.000   0.005  -0.002  -0.001
 -0.001   0.004   0.000  -0.002   0.002   0.000  -0.000  -0.001   0.000  -0.000  -0.002   0.004   0.001
 -0.000   0.002  -0.002  -0.000  -0.004   0.000   0.001   0.003   0.000   0.000  -0.001   0.001   0.005


------------------------ aborting loop because EDIFF is reached ----------------------------------------





 total charge     

# of ion       s       p       d       tot
------------------------------------------
    1        1.786   4.717   0.018   6.521
    2        1.785   4.716   0.018   6.519
    3        1.785   4.716   0.017   6.517
    4        1.786   4.717   0.018   6.520
    5        1.785   4.716   0.018   6.520
    6        1.786   4.716   0.019   6.521
    7        1.832   4.695   0.233   6.760
    8        1.786   4.717   0.018   6.520
    9        1.553   0.414   9.833  11.800
   10        1.535   0.429   9.830  11.794
   11        1.553   0.415   9.834  11.802
   12        1.553   0.410   9.833  11.795
   13        1.553   0.412   9.833  11.797
   14        1.538   0.415   9.829  11.782
   15        1.535   0.428   9.830  11.793
   16        1.538   0.417   9.829  11.784
   17        1.615   3.283   0.007   4.905
   18        1.616   3.275   0.007   4.898
   19        1.615   3.281   0.007   4.902
   20        1.615   3.268   0.007   4.890
   21        1.615   3.281   0.006   4.902
   22        1.615   3.284   0.007   4.905
   23        1.615   3.280   0.006   4.901
   24        1.614   3.278   0.006   4.898
   25        1.621   3.276   0.013   4.909
   26        1.614   3.277   0.006   4.897
   27        1.614   3.277   0.006   4.898
   28        1.614   3.281   0.006   4.901
   29        1.615   3.279   0.006   4.900
   30        1.614   3.279   0.006   4.900
   31        1.614   3.284   0.006   4.904
   32        1.614   3.278   0.006   4.898
   33        1.614   3.279   0.006   4.899
   34        1.614   3.277   0.006   4.897
   35        1.614   3.278   0.006   4.898
   36        1.614   3.277   0.006   4.897
   37        1.618   3.272   0.008   4.898
   38        1.615   3.266   0.007   4.888
   39        1.649   3.412   0.042   5.103
--------------------------------------------------
tot         63.868 116.569  79.198 259.635

    CHARGE:  cpu time    0.3937: real time    0.3938
    FORLOC:  cpu time    0.0111: real time    0.0111
    FORNL :  cpu time    1.9206: real time    1.9207
    STRESS:  cpu time   49.8575: real time   49.8598
    FORCOR:  cpu time    0.2417: real time    0.2417
    FORHAR:  cpu time    0.0273: real time    0.0273
    MIXING:  cpu time    0.0021: real time    0.0021
    OFIELD:  cpu time    0.0000: real time    0.0000

  FORCE on cell =-STRESS in cart. coord.  units (eV):
  Direction    XX          YY          ZZ          XY          YZ          ZX
  --------------------------------------------------------------------------------------
  Alpha Z   872.70584   872.70584   872.70584
  Ewald   -5783.12790 -6033.16159 -6119.08461   -67.68425   209.10950   235.87090
  Hartree  2640.52482  2412.01330  2398.64677   -13.24096   129.91494   204.24661
  E(xc)   -1449.95738 -1450.13030 -1450.34441    -0.28543     0.42018    -0.15908
  Local   -3247.86941 -2766.53803 -2668.90951    75.64355  -336.22107  -445.51811
  n-local  1748.69045  1748.32526  1747.41831    -0.19636     0.35215     1.52096
  augment   818.58845   817.22354   817.92082    -0.14406     0.18684     0.71027
  Kinetic  4406.20280  4404.58281  4401.85510    -4.55144     7.54009    -6.94122
  Fock        0.00000     0.00000     0.00000     0.00000     0.00000     0.00000
  -------------------------------------------------------------------------------------
  Total       5.75768     5.02081     0.20831   -10.45895    11.30262   -10.26969
  in kB       5.78326     5.04313     0.20923   -10.50543    11.35285   -10.31533
  external pressure =        3.68 kB  Pullay stress =        0.00 kB


 VOLUME and BASIS-vectors are now :
 -----------------------------------------------------------------------------
  energy-cutoff  :      300.00
  volume of cell :     1595.09
      direct lattice vectors                 reciprocal lattice vectors
     8.456489000  0.000000000  8.040301000     0.059126193 -0.000000000  0.062186727
     0.000000000 11.729847000  0.000000000     0.000000000  0.085252604 -0.000000000
    -8.456489000  0.000000000  8.040301000    -0.059126193  0.000000000  0.062186727

  length of vectors
    11.668703715 11.729847000 11.668703715     0.085808482  0.085252604  0.085808482


 FORCES acting on ions
    electron-ion (+dipol)            ewald-force                    non-local-force                 convergence-correction
 -----------------------------------------------------------------------------------------------
   0.322E+02 -.841E+01 -.181E+02   -.320E+02 0.823E+01 0.180E+02   -.167E+00 0.152E+00 0.396E-01   -.249E-04 0.129E-03 0.156E-04
   0.114E+02 -.260E+02 -.264E+02   -.115E+02 0.258E+02 0.263E+02   -.110E-02 0.254E+00 0.981E-02   0.369E-04 0.885E-04 -.122E-03
   0.160E+02 0.688E+00 -.157E+02   -.156E+02 -.679E+00 0.157E+02   -.396E+00 -.285E-01 0.300E-01   0.184E-04 -.155E-03 0.103E-03
   -.305E+02 0.357E+02 0.147E+02   0.304E+02 -.354E+02 -.143E+02   0.219E-01 -.306E+00 -.327E+00   0.903E-04 -.106E-03 -.744E-04
   0.294E+02 -.154E+02 0.262E+02   -.294E+02 0.154E+02 -.261E+02   0.513E-01 0.421E-01 -.436E-01   0.117E-03 0.103E-03 -.169E-04
   0.297E+02 -.727E+01 0.554E+01   -.297E+02 0.725E+01 -.568E+01   0.483E-01 0.279E-01 0.126E+00   -.679E-04 0.154E-03 0.101E-03
   0.121E+02 -.374E+02 -.238E+02   -.174E+02 0.423E+02 0.282E+02   -.268E+01 0.236E+01 0.252E+01   0.140E-03 -.165E-03 -.155E-03
   -.260E+02 0.790E+01 -.207E+02   0.259E+02 -.774E+01 0.204E+02   0.863E-01 -.135E+00 0.152E+00   -.111E-03 -.146E-03 0.727E-05
   -.110E+02 0.179E+01 -.399E+01   0.110E+02 -.190E+01 0.419E+01   -.285E-01 0.291E-01 -.336E+00   0.614E-04 -.188E-03 -.206E-03
   0.454E+01 0.115E+03 -.139E+02   -.446E+01 -.119E+03 0.152E+02   -.634E-01 0.454E+01 -.115E+01   -.149E-03 0.403E-05 0.251E-03
   0.858E+01 0.173E+01 0.529E+01   -.904E+01 -.160E+01 -.519E+01   0.618E+00 -.211E+00 -.433E-01   0.215E-03 -.212E-03 -.110E-03
   -.579E+01 0.110E+01 -.129E+02   0.602E+01 -.103E+01 0.130E+02   -.317E+00 -.206E+00 -.108E+00   -.205E-03 -.137E-03 0.742E-04
   0.119E+02 -.881E+00 0.108E+02   -.122E+02 0.796E+00 -.106E+02   0.569E+00 0.109E+00 -.243E+00   0.206E-03 0.217E-03 -.861E-04
   0.549E+02 -.785E+00 -.880E+02   -.583E+02 0.137E+01 0.902E+02   0.323E+01 -.399E+00 -.264E+01   -.208E-03 0.159E-03 0.874E-04
   -.843E+02 -.149E+02 0.857E+02   0.871E+02 0.156E+02 -.894E+02   -.306E+01 -.669E+00 0.381E+01   -.329E-04 0.193E-03 -.112E-03
   0.244E+02 -.963E+02 0.339E+02   -.245E+02 0.100E+03 -.332E+02   0.306E+00 -.396E+01 -.181E+00   -.156E-03 0.246E-03 0.235E-03
   0.131E+02 0.423E+01 0.440E+02   -.131E+02 -.424E+01 -.442E+02   -.145E+00 -.386E-02 0.147E+00   0.160E-03 -.974E-04 -.669E-04
   0.418E+01 0.280E+01 0.136E+02   -.464E+01 -.275E+01 -.139E+02   0.735E+00 0.104E-01 0.333E+00   -.160E-03 -.769E-04 0.667E-04
   -.261E+02 -.192E+02 0.489E+02   0.261E+02 0.191E+02 -.492E+02   -.935E-02 0.131E+00 0.307E+00   0.581E-05 0.352E-04 -.666E-04
   -.267E+01 -.108E+01 0.412E+02   0.270E+01 0.111E+01 -.417E+02   -.232E-01 -.137E+00 0.545E+00   -.751E-04 0.982E-04 0.167E-03
   -.738E+01 0.151E+02 -.214E+02   0.729E+01 -.151E+02 0.216E+02   0.113E+00 -.135E+00 -.871E-01   0.309E-04 -.480E-04 -.124E-03
   -.110E+02 -.425E+01 -.321E+02   0.112E+02 0.424E+01 0.324E+02   -.185E+00 0.787E-03 -.261E+00   0.117E-03 0.970E-04 -.445E-04
   0.690E+01 -.161E+02 -.501E+02   -.692E+01 0.160E+02 0.504E+02   0.326E-01 0.779E-01 -.226E+00   -.528E-04 0.598E-04 -.147E-04
   -.222E+02 0.501E+01 0.547E+02   0.224E+02 -.514E+01 -.549E+02   -.255E+00 0.132E+00 0.121E+00   0.120E-03 0.124E-03 -.383E-04
   -.321E+02 0.327E+02 0.307E+02   0.324E+02 -.328E+02 -.308E+02   0.889E+00 -.128E+01 -.720E+00   -.633E-04 0.107E-03 0.958E-04
   0.313E+02 -.362E+02 0.171E+02   -.315E+02 0.364E+02 -.173E+02   0.547E-01 -.182E+00 0.240E+00   0.294E-04 0.235E-04 0.719E-04
   -.276E+02 0.210E+01 -.445E+01   0.279E+02 -.206E+01 0.471E+01   -.193E+00 -.119E-01 -.371E+00   0.468E-04 -.812E-04 -.710E-06
   -.175E+02 -.174E+02 -.313E+02   0.177E+02 0.176E+02 0.315E+02   -.146E+00 -.158E+00 -.161E+00   -.126E-03 -.641E-04 -.243E-04
   0.217E+02 0.147E+02 -.278E+02   -.218E+02 -.150E+02 0.280E+02   0.153E-01 0.456E+00 -.388E-01   0.760E-04 -.123E-03 -.702E-04
   0.945E+01 0.390E+02 -.314E+02   -.966E+01 -.392E+02 0.316E+02   0.249E+00 0.138E+00 -.141E+00   -.114E-03 -.679E-04 0.459E-04
   -.224E+02 -.139E+02 0.288E+02   0.226E+02 0.141E+02 -.291E+02   -.198E+00 -.128E+00 0.209E+00   0.101E-03 -.888E-04 -.104E-03
   -.845E+01 -.197E+01 0.285E+02   0.869E+01 0.207E+01 -.287E+02   -.284E+00 -.823E-01 0.199E+00   -.443E-04 -.435E-04 0.145E-03
   0.302E+02 0.391E+02 0.117E+02   -.303E+02 -.393E+02 -.120E+02   0.393E-01 0.228E+00 0.320E+00   0.385E-04 -.708E-04 0.484E-04
   0.980E+01 0.209E+02 0.217E+02   -.101E+02 -.212E+02 -.220E+02   0.340E+00 0.305E+00 0.329E+00   0.155E-04 -.140E-03 -.873E-04
   0.839E+01 -.110E+02 -.242E+02   -.860E+01 0.112E+02 0.244E+02   0.270E+00 -.284E+00 -.702E-01   0.927E-05 0.728E-04 -.677E-04
   0.314E+02 -.378E+02 -.353E+02   -.316E+02 0.380E+02 0.355E+02   0.167E+00 -.162E+00 -.229E+00   -.566E-04 0.495E-04 0.752E-04
   -.454E+01 0.193E+02 -.116E+02   0.495E+01 -.191E+02 0.121E+02   -.102E+01 -.615E+00 -.638E+00   0.655E-04 0.151E-03 -.323E-04
   -.223E+02 0.181E+02 -.352E+02   0.227E+02 -.185E+02 0.357E+02   -.366E+00 0.440E+00 -.500E+00   -.128E-03 0.103E-03 -.159E-05
   -.425E+02 -.727E+01 0.817E+01   0.452E+02 0.502E+01 -.107E+02   0.447E+01 -.334E+01 -.349E+01   -.307E-04 0.848E-05 0.294E-04
 -----------------------------------------------------------------------------------------------
   -.282E+01 0.299E+01 0.257E+01   0.142E-13 0.977E-13 -.320E-13   0.278E+01 -.300E+01 -.257E+01   -.105E-03 0.214E-03 -.758E-05


 POSITION                                       TOTAL-FORCE (eV/Angst)
 -----------------------------------------------------------------------------------
      0.60639      2.88869      3.80743         0.032705     -0.031870     -0.010539
      0.47432      2.83381     11.88168        -0.041039     -0.003596     -0.066547
      3.76919      8.80514      7.86206         0.001252     -0.024958      0.059446
     -4.70931      8.88905      7.97300        -0.052252      0.064366      0.034927
     -3.72173      2.92634      8.23258         0.026112     -0.021202      0.063259
      4.73343      2.89638      8.16879        -0.020302      0.009536     -0.018246
     -0.59754      8.84165     12.34722        -7.468448      6.814747      6.501243
     -0.52851      8.83815      4.07023        -0.016325      0.023975     -0.072856
      0.00120      0.02002     16.07821        -0.071628     -0.068910     -0.141510
      0.00585      0.06322      8.02063         0.021175      0.161937      0.105401
      4.22215      0.00133      4.03109         0.163773     -0.083190      0.066742
     -4.22659      0.00842      4.02583        -0.093241     -0.134177     -0.031036
      4.22315      5.86942      4.01931         0.229576      0.025689     -0.053233
     -4.14362      5.84530      3.97354        -0.205940      0.182510     -0.379291
     -0.03972      5.84746      0.04175        -0.247056      0.039337      0.085721
     -0.00233      5.79908      8.02637         0.201585      0.100119      0.574383
     -4.16189      8.79932     11.57541        -0.112134     -0.012510     -0.055032
      4.24683      8.77922     11.53936         0.315284      0.045306      0.066461
     -0.04538      2.95577     15.51947         0.028900      0.115660      0.002164
     -0.06450      2.93192      7.46634         0.001065     -0.114949      0.047916
      0.05059      8.78615      0.42200         0.041237     -0.111295      0.034324
      4.20505      2.93839      4.52723        -0.031174     -0.002996     -0.000236
     -4.37040      2.95538      4.60127         0.005556      0.075120      0.039197
     -5.92927      5.50816      9.59655        -0.080970      0.004191     -0.103465
      2.49386      5.47961      9.65610         1.163883     -1.443821     -0.890502
      1.69015      6.32721      5.63291        -0.071459      0.017974      0.021924
     -1.73404      0.31318     10.44522         0.055049      0.030174     -0.121033
     -1.72419      0.43906      2.42148         0.017385      0.009688      0.029917
      5.93490     11.36207      6.45636        -0.091657      0.175646      0.115989
     -2.46541     11.30947      6.43736         0.049944     -0.022158      0.043857
     -5.94426      0.39315      9.63351         0.000270      0.017707     -0.006031
      2.51533      0.35327      9.62266        -0.061479      0.012135     -0.046123
      1.70327     11.25717      5.65005        -0.087381     -0.002051      0.062053
      1.71301     11.33059     13.64878         0.075904      0.032153      0.025008
      5.93795      6.24139      6.46948         0.069607     -0.064577      0.090764
     -2.52682      6.31914      6.46204        -0.018467      0.016752     -0.002549
     -1.66639      5.51319     10.50666        -0.656376     -0.464321     -0.165327
     -1.66763      5.42109      2.44214        -0.005869      0.062939     -0.061574
      0.85055      7.51131     11.10034         6.932935     -5.431082     -5.845567
 -----------------------------------------------------------------------------------
    total drift:                               -0.038766     -0.004924      0.001875


--------------------------------------------------------------------------------------------------------



  FREE ENERGIE OF THE ION-ELECTRON SYSTEM (eV)
  ---------------------------------------------------
  free  energy   TOTEN  =     -1403.82137620 eV

  energy  without entropy=    -1403.82137620  energy(sigma->0) =    -1403.82137620



--------------------------------------------------------------------------------------------------------


    POTLOK:  cpu time    1.4337: real time    1.4338


--------------------------------------------------------------------------------------------------------


 stress matrix after NEB project (eV)
      5.75768    -10.45903    -10.26969
    -10.45895      5.02081     11.30258
    -10.26957     11.30262      0.20831
  FORCES: max atom, RMS    12.020177    2.593594
  FORCE total and by dimension   16.196992    7.468448
  Stress total and by dimension   27.269247   11.302622
     LOOP+:  cpu time  486.1519: real time  486.9708
    4ORBIT:  cpu time    0.0000: real time    0.0000



 total charge     

# of ion       s       p       d       tot
------------------------------------------
    1        1.786   4.717   0.018   6.521
    2        1.785   4.716   0.018   6.519
    3        1.785   4.716   0.017   6.517
    4        1.786   4.717   0.018   6.520
    5        1.785   4.716   0.018   6.520
    6        1.786   4.716   0.019   6.521
    7        1.832   4.695   0.233   6.760
    8        1.786   4.717   0.018   6.520
    9        1.553   0.414   9.833  11.800
   10        1.535   0.429   9.830  11.794
   11        1.553   0.415   9.834  11.802
   12        1.553   0.410   9.833  11.795
   13        1.553   0.412   9.833  11.797
   14        1.538   0.415   9.829  11.782
   15        1.535   0.428   9.830  11.793
   16        1.538   0.417   9.829  11.784
   17        1.615   3.283   0.007   4.905
   18        1.616   3.275   0.007   4.898
   19        1.615   3.281   0.007   4.902
   20        1.615   3.268   0.007   4.890
   21        1.615   3.281   0.006   4.902
   22        1.615   3.284   0.007   4.905
   23        1.615   3.280   0.006   4.901
   24        1.614   3.278   0.006   4.898
   25        1.621   3.276   0.013   4.909
   26        1.614   3.277   0.006   4.897
   27        1.614   3.277   0.006   4.898
   28        1.614   3.281   0.006   4.901
   29        1.615   3.279   0.006   4.900
   30        1.614   3.279   0.006   4.900
   31        1.614   3.284   0.006   4.904
   32        1.614   3.278   0.006   4.898
   33        1.614   3.279   0.006   4.899
   34        1.614   3.277   0.006   4.897
   35        1.614   3.278   0.006   4.898
   36        1.614   3.277   0.006   4.897
   37        1.618   3.272   0.008   4.898
   38        1.615   3.266   0.007   4.888
   39        1.649   3.412   0.042   5.103
--------------------------------------------------
tot         63.868 116.569  79.198 259.635


 total amount of memory used by VASP MPI-rank0    60642. kBytes
=======================================================================

   base      :      30000. kBytes
   nonlr-proj:       6477. kBytes
   fftplans  :       8423. kBytes
   grid      :       7465. kBytes
   one-center:         77. kBytes
   wavefun   :       8200. kBytes

  
  
 General timing and accounting informations for this job:
 ========================================================
  
                  Total CPU time used (sec):      498.414
                            User time (sec):      496.786
                          System time (sec):        1.628
                         Elapsed time (sec):      499.754
  
                   Maximum memory used (kb):       77940.
                   Average memory used (kb):           0.
  
                          Minor page faults:        20896
                          Major page faults:            1
                 Voluntary context switches:         1983
