<?xml version="1.0" encoding="ISO-8859-1"?>
<modeling>
 <generator>
  <i name="program" type="string">vasp </i>
  <i name="version" type="string">5.4.4.18Apr17-6-g9f103f2a35  </i>
  <i name="subversion" type="string">(build Jun 22 2020 09:27:21) complex            parallel </i>
  <i name="platform" type="string">tx2_gcc-7.3_libsci-18.07_cray-fftw-3.3.8 </i>
  <i name="date" type="string">2021 10 11 </i>
  <i name="time" type="string">23:33:09 </i>
 </generator>
 <incar>
  <i type="string" name="SYSTEM"> CsPbBr3 cubic bulk</i>
  <i type="string" name="PREC">accurate</i>
  <i type="string" name="ALGO"> NORMAL   ! Electronic minimisation algo</i>
  <i type="logical" name="ADDGRID"> T  </i>
  <i type="int" name="ISPIN">     1</i>
  <i type="int" name="NELM">   200</i>
  <i type="int" name="IBRION">     2</i>
  <i name="EDIFF">      0.00000100</i>
  <i name="EDIFFG">     -0.01000000</i>
  <i type="int" name="NSW">     0</i>
  <i type="int" name="ISIF">     2</i>
  <i type="int" name="ISYM">     0</i>
  <i name="ENCUT">    300.00000000</i>
  <i name="POTIM">      0.50000000</i>
  <i name="NUPDOWN">      0.00000000</i>
  <i name="NELECT">    344.00000000</i>
  <i type="string" name="LREAL"> AUTO</i>
  <i type="int" name="ISMEAR">     0</i>
  <i name="SIGMA">      0.01000000</i>
  <i type="logical" name="LWAVE"> F  </i>
  <i type="logical" name="LCHARG"> F  </i>
  <i type="logical" name="LVHAR"> T  </i>
  <i type="int" name="LORBIT">    10</i>
  <i type="logical" name="LASPH"> T  </i>
  <v type="int" name="KPOINT_BSE">    -1     0     0     0</v>
  <i type="int" name="NELM">   200</i>
  <i type="string" name="METAGGA"> SCAN       ! PBE exchange-correlation</i>
  <i type="logical" name="LASPH"> T  </i>
 </incar>
 <structure name="primitive_cell" >
  <crystal>
   <varray name="basis" >
    <v>       8.45648900       0.00000000       8.04030100 </v>
    <v>       0.00000000      11.72984700       0.00000000 </v>
    <v>      -8.45648900       0.00000000       8.04030100 </v>
   </varray>
   <i name="volume">   1595.08833419 </i>
   <varray name="rec_basis" >
    <v>       0.05912619      -0.00000000       0.06218673 </v>
    <v>       0.00000000       0.08525260      -0.00000000 </v>
    <v>      -0.05912619       0.00000000       0.06218673 </v>
   </varray>
  </crystal>
  <varray name="positions" >
   <v>       0.27262500       0.24626800       0.20091800 </v>
   <v>       0.04863900       0.03743100       0.25252900 </v>
   <v>       0.05326800       0.46216200       0.25046900 </v>
   <v>      -0.46983800       0.25050500       0.03290500 </v>
   <v>       0.46049400       0.24995400       0.46812100 </v>
   <v>       0.24761500       0.03351700      -0.04946200 </v>
   <v>       0.24620300       0.46958500      -0.05264700 </v>
   <v>       0.45206600      -0.04029700       0.25065000 </v>
   <v>       0.45022400      -0.46058900       0.25036000 </v>
   <v>      -0.03757800       0.25198700      -0.03221200 </v>
   <v>      -0.49968000       0.00011300       0.00104100 </v>
   <v>       0.49964600      -0.49961700       0.00024900 </v>
   <v>      -0.00007800       0.00170700      -0.00022000 </v>
   <v>       0.00024800       0.49851100       0.00494500 </v>
   <v>       0.02773300       0.25195400      -0.45545700 </v>
   <v>       0.49912300       0.00539000       0.49843100 </v>
   <v>       0.49899600       0.49438700       0.49927100 </v>
   <v>       0.25454800      -0.03583800      -0.45391100 </v>
   <v>       0.25245200      -0.46127700      -0.44874600 </v>
   <v>       0.29190500       0.24947800      -0.26799100 </v>
   <v>       0.00210500       0.49832700       0.49209800 </v>
   <v>       0.00045100       0.00071800      -0.49974500 </v>
   <v>      -0.21214000       0.24692400       0.22812100 </v>
   <v>       0.22186500      -0.24652500       0.28436300 </v>
   <v>      -0.25287600       0.03011700       0.44968000 </v>
   <v>      -0.25206600       0.46715100       0.45302900 </v>
   <v>       0.02923400      -0.25095800       0.02325200 </v>
   <v>      -0.45297300       0.02669900      -0.24791900 </v>
   <v>      -0.24759200      -0.03135400       0.05059200 </v>
   <v>      -0.24659600      -0.46790500       0.05122700 </v>
   <v>      -0.44515300       0.47001400      -0.24809800 </v>
   <v>       0.47376000      -0.24983500      -0.03408600 </v>
   <v>      -0.04994300      -0.03403800      -0.25251100 </v>
   <v>      -0.03130600      -0.25154900       0.46649600 </v>
   <v>       0.21737100      -0.24218500      -0.22574200 </v>
   <v>      -0.28822600      -0.24933900       0.26605800 </v>
   <v>      -0.23307300       0.24159000      -0.28916200 </v>
   <v>      -0.25941700      -0.35964100      -0.35999600 </v>
   <v>      -0.26749700      -0.24622600      -0.19683700 </v>
  </varray>
 </structure>
 <varray name="primitive_index" >
  <v type="int" >        1 </v>
  <v type="int" >       28 </v>
  <v type="int" >       38 </v>
  <v type="int" >       22 </v>
  <v type="int" >       20 </v>
  <v type="int" >       31 </v>
  <v type="int" >       24 </v>
  <v type="int" >       33 </v>
  <v type="int" >       26 </v>
  <v type="int" >       19 </v>
  <v type="int" >       11 </v>
  <v type="int" >       13 </v>
  <v type="int" >        9 </v>
  <v type="int" >       15 </v>
  <v type="int" >       23 </v>
  <v type="int" >       10 </v>
  <v type="int" >       16 </v>
  <v type="int" >       30 </v>
  <v type="int" >       36 </v>
  <v type="int" >        5 </v>
  <v type="int" >       14 </v>
  <v type="int" >       12 </v>
  <v type="int" >        6 </v>
  <v type="int" >        8 </v>
  <v type="int" >       32 </v>
  <v type="int" >       25 </v>
  <v type="int" >       21 </v>
  <v type="int" >       27 </v>
  <v type="int" >       29 </v>
  <v type="int" >       35 </v>
  <v type="int" >       37 </v>
  <v type="int" >       17 </v>
  <v type="int" >       34 </v>
  <v type="int" >       18 </v>
  <v type="int" >        4 </v>
  <v type="int" >        3 </v>
  <v type="int" >        2 </v>
  <v type="int" >       39 </v>
  <v type="int" >        7 </v>
 </varray>
 <kpoints>
  <generation param="Gamma">
   <v type="int" name="divisions">       2        2        2 </v>
   <v name="usershift">      0.00000000       0.00000000       0.00000000 </v>
   <v name="genvec1">      0.50000000       0.00000000       0.00000000 </v>
   <v name="genvec2">      0.00000000       0.50000000       0.00000000 </v>
   <v name="genvec3">      0.00000000       0.00000000       0.50000000 </v>
   <v name="shift">      0.00000000       0.00000000       0.00000000 </v>
  </generation>
  <varray name="kpointlist" >
   <v>       0.00000000       0.00000000       0.00000000 </v>
   <v>       0.50000000       0.00000000       0.00000000 </v>
   <v>       0.00000000       0.50000000       0.00000000 </v>
   <v>       0.50000000       0.50000000       0.00000000 </v>
   <v>       0.00000000       0.00000000       0.50000000 </v>
   <v>       0.50000000       0.00000000       0.50000000 </v>
   <v>       0.00000000       0.50000000       0.50000000 </v>
   <v>       0.50000000       0.50000000       0.50000000 </v>
  </varray>
  <varray name="weights" >
   <v>       0.12500000 </v>
   <v>       0.12500000 </v>
   <v>       0.12500000 </v>
   <v>       0.12500000 </v>
   <v>       0.12500000 </v>
   <v>       0.12500000 </v>
   <v>       0.12500000 </v>
   <v>       0.12500000 </v>
  </varray>
 </kpoints>
 <parameters>
  <separator name="general" >
   <i type="string" name="SYSTEM">CsPbBr3 cubic bulk</i>
   <i type="logical" name="LCOMPAT"> F  </i>
  </separator>
  <separator name="electronic" >
   <i type="string" name="PREC">accura</i>
   <i name="ENMAX">    300.00000000</i>
   <i name="ENAUG">    503.85200000</i>
   <i name="EDIFF">      0.00000100</i>
   <i type="int" name="IALGO">    38</i>
   <i type="int" name="IWAVPR">    10</i>
   <i type="int" name="NBANDS">   208</i>
   <i name="NELECT">    344.00000000</i>
   <i type="int" name="TURBO">     0</i>
   <i type="int" name="IRESTART">     0</i>
   <i type="int" name="NREBOOT">     0</i>
   <i type="int" name="NMIN">     0</i>
   <i name="EREF">      0.00000000</i>
   <separator name="electronic smearing" >
    <i type="int" name="ISMEAR">     0</i>
    <i name="SIGMA">      0.01000000</i>
    <i name="KSPACING">      0.50000000</i>
    <i type="logical" name="KGAMMA"> T  </i>
   </separator>
   <separator name="electronic projectors" >
    <i type="logical" name="LREAL"> T  </i>
    <v name="ROPT">     -0.00025000     -0.00025000     -0.00025000</v>
    <i type="int" name="LMAXPAW">  -100</i>
    <i type="int" name="LMAXMIX">     2</i>
    <i type="logical" name="NLSPLINE"> F  </i>
   </separator>
   <separator name="electronic startup" >
    <i type="int" name="ISTART">     0</i>
    <i type="int" name="ICHARG">     2</i>
    <i type="int" name="INIWAV">     1</i>
   </separator>
   <separator name="electronic spin" >
    <i type="int" name="ISPIN">     1</i>
    <i type="logical" name="LNONCOLLINEAR"> F  </i>
    <v name="MAGMOM">      0.00000000      0.00000000      0.00000000      0.00000000      0.00000000      0.00000000      0.00000000      0.00000000      0.00000000      0.00000000      0.00000000      0.00000000      0.00000000      0.00000000      0.00000000      0.00000000      0.00000000      0.00000000      0.00000000      0.00000000
      0.00000000      0.00000000      0.00000000      0.00000000      0.00000000      0.00000000      0.00000000      0.00000000      0.00000000      0.00000000      0.00000000      0.00000000      0.00000000      0.00000000      0.00000000      0.00000000      0.00000000      0.00000000      0.00000000</v>
    <i name="NUPDOWN">      0.00000000</i>
    <i type="logical" name="LSORBIT"> F  </i>
    <v name="SAXIS">      0.00000000      0.00000000      1.00000000</v>
    <i type="logical" name="LSPIRAL"> F  </i>
    <v name="QSPIRAL">      0.00000000      0.00000000      0.00000000</v>
    <i type="logical" name="LZEROZ"> F  </i>
   </separator>
   <separator name="electronic exchange-correlation" >
    <i type="logical" name="LASPH"> T  </i>
    <i type="logical" name="LMETAGGA"> F  </i>
   </separator>
   <separator name="electronic convergence" >
    <i type="int" name="NELM">   200</i>
    <i type="int" name="NELMDL">    -5</i>
    <i type="int" name="NELMIN">     2</i>
    <i name="ENINI">    300.00000000</i>
    <separator name="electronic convergence detail" >
     <i type="logical" name="LDIAG"> T  </i>
     <i type="logical" name="LSUBROT"> F  </i>
     <i name="WEIMIN">      0.00000000</i>
     <i name="EBREAK">      0.00000000</i>
     <i name="DEPER">      0.30000000</i>
     <i type="int" name="NRMM">     4</i>
     <i name="TIME">      0.40000000</i>
    </separator>
   </separator>
   <separator name="electronic mixer" >
    <i name="AMIX">      0.40000000</i>
    <i name="BMIX">      1.00000000</i>
    <i name="AMIN">      0.10000000</i>
    <i name="AMIX_MAG">      1.60000000</i>
    <i name="BMIX_MAG">      1.00000000</i>
    <separator name="electronic mixer details" >
     <i type="int" name="IMIX">     4</i>
     <i type="logical" name="MIXFIRST"> F  </i>
     <i type="int" name="MAXMIX">   -45</i>
     <i name="WC">    100.00000000</i>
     <i type="int" name="INIMIX">     1</i>
     <i type="int" name="MIXPRE">     1</i>
     <i type="int" name="MREMOVE">     5</i>
    </separator>
   </separator>
   <separator name="electronic dipolcorrection" >
    <i type="logical" name="LDIPOL"> F  </i>
    <i type="logical" name="LMONO"> F  </i>
    <i type="int" name="IDIPOL">     0</i>
    <i name="EPSILON">      1.00000000</i>
    <v name="DIPOL">   -100.00000000   -100.00000000   -100.00000000</v>
    <i name="EFIELD">      0.00000000</i>
   </separator>
  </separator>
  <separator name="grids" >
   <i type="int" name="NGX">    70</i>
   <i type="int" name="NGY">    70</i>
   <i type="int" name="NGZ">    70</i>
   <i type="int" name="NGXF">   140</i>
   <i type="int" name="NGYF">   140</i>
   <i type="int" name="NGZF">   140</i>
   <i type="logical" name="ADDGRID"> T  </i>
  </separator>
  <separator name="ionic" >
   <i type="int" name="NSW">     0</i>
   <i type="int" name="IBRION">    -1</i>
   <i type="int" name="MDALGO">     0</i>
   <i type="int" name="ISIF">     2</i>
   <i name="PSTRESS">      0.00000000</i>
   <i name="EDIFFG">     -0.01000000</i>
   <i type="int" name="NFREE">     1</i>
   <i name="POTIM">      0.50000000</i>
   <i name="SMASS">     -3.00000000</i>
   <i name="SCALEE">      1.00000000</i>
  </separator>
  <separator name="ionic md" >
   <i name="TEBEG">      0.00010000</i>
   <i name="TEEND">      0.00010000</i>
   <i type="int" name="NBLOCK">     1</i>
   <i type="int" name="KBLOCK">     1</i>
   <i type="int" name="NPACO">   256</i>
   <i name="APACO">     16.00000000</i>
  </separator>
  <separator name="symmetry" >
   <i type="int" name="ISYM">     0</i>
   <i name="SYMPREC">      0.00001000</i>
  </separator>
  <separator name="dos" >
   <i type="int" name="LORBIT">    10</i>
   <v name="RWIGS">     -1.00000000     -1.00000000     -1.00000000</v>
   <i type="int" name="NEDOS">   301</i>
   <i name="EMIN">     10.00000000</i>
   <i name="EMAX">    -10.00000000</i>
   <i name="EFERMI">      0.00000000</i>
  </separator>
  <separator name="writing" >
   <i type="int" name="NWRITE">     2</i>
   <i type="logical" name="LWAVE"> F  </i>
   <i type="logical" name="LDOWNSAMPLE"> F  </i>
   <i type="logical" name="LCHARG"> F  </i>
   <i type="logical" name="LPARD"> F  </i>
   <i type="logical" name="LVTOT"> F  </i>
   <i type="logical" name="LVHAR"> T  </i>
   <i type="logical" name="LELF"> F  </i>
   <i type="logical" name="LOPTICS"> F  </i>
   <v name="STM">      0.00000000      0.00000000      0.00000000      0.00000000      0.00000000      0.00000000      0.00000000</v>
  </separator>
  <separator name="performance" >
   <i type="int" name="NPAR">     8</i>
   <i type="int" name="NSIM">     4</i>
   <i type="int" name="NBLK">    -1</i>
   <i type="logical" name="LPLANE"> T  </i>
   <i type="logical" name="LSCALAPACK"> T  </i>
   <i type="logical" name="LSCAAWARE"> F  </i>
   <i type="logical" name="LSCALU"> F  </i>
   <i type="logical" name="LASYNC"> F  </i>
   <i type="logical" name="LORBITALREAL"> F  </i>
  </separator>
  <separator name="miscellaneous" >
   <i type="int" name="IDIOT">     3</i>
   <i type="int" name="ISPECIAL">     0</i>
   <i type="logical" name="LMUSIC"> F  </i>
   <v name="POMASS">    132.90000000    207.20000000     79.90400000</v>
   <v name="DARWINR">      0.00000000      0.00000000      0.00000000</v>
   <v name="DARWINV">      1.00000000      1.00000000      1.00000000</v>
   <i type="logical" name="LCORR"> T  </i>
  </separator>
  <i type="logical" name="GGA_COMPAT"> T  </i>
  <i type="logical" name="LBERRY"> F  </i>
  <i type="int" name="ICORELEVEL">     0</i>
  <i type="logical" name="LDAU"> F  </i>
  <i type="int" name="I_CONSTRAINED_M">     0</i>
  <separator name="electronic exchange-correlation" >
   <i type="string" name="GGA">--</i>
   <i type="int" name="VOSKOWN">     0</i>
   <i type="logical" name="LHFCALC"> F  </i>
   <i type="string" name="PRECFOCK"></i>
   <i type="logical" name="LSYMGRAD"> F  </i>
   <i type="logical" name="LHFONE"> F  </i>
   <i type="logical" name="LRHFCALC"> F  </i>
   <i type="logical" name="LTHOMAS"> F  </i>
   <i type="logical" name="LMODELHF"> F  </i>
   <i name="ENCUT4O">     -1.00000000</i>
   <i type="int" name="EXXOEP">     0</i>
   <i type="int" name="FOURORBIT">     0</i>
   <i name="AEXX">      0.00000000</i>
   <i name="HFALPHA">      0.00000000</i>
   <i name="MCALPHA">      0.00000000</i>
   <i name="ALDAX">      1.00000000</i>
   <i name="AGGAX">      1.00000000</i>
   <i name="ALDAC">      1.00000000</i>
   <i name="AGGAC">      1.00000000</i>
   <i type="int" name="NKREDX">     1</i>
   <i type="int" name="NKREDY">     1</i>
   <i type="int" name="NKREDZ">     1</i>
   <i type="logical" name="SHIFTRED"> F  </i>
   <i type="logical" name="ODDONLY"> F  </i>
   <i type="logical" name="EVENONLY"> F  </i>
   <i type="int" name="LMAXFOCK">     0</i>
   <i type="int" name="NMAXFOCKAE">     0</i>
   <i type="logical" name="LFOCKAEDFT"> F  </i>
   <i name="HFSCREEN">      0.00000000</i>
   <i name="HFSCREENC">      0.00000000</i>
   <i type="int" name="NBANDSGWLOW">     0</i>
  </separator>
  <separator name="vdW DFT" >
   <i type="logical" name="LUSE_VDW"> F  </i>
   <i name="Zab_VDW">     -0.84910000</i>
   <i name="PARAM1">      0.12340000</i>
   <i name="PARAM2">      1.00000000</i>
   <i name="PARAM3">      0.00000000</i>
  </separator>
  <separator name="model GW" >
   <i type="int" name="MODEL_GW">     0</i>
   <i name="MODEL_EPS0">     24.53982053</i>
   <i name="MODEL_ALPHA">      1.00000000</i>
  </separator>
  <separator name="linear response parameters" >
   <i type="logical" name="LEPSILON"> F  </i>
   <i type="logical" name="LRPA"> F  </i>
   <i type="logical" name="LNABLA"> F  </i>
   <i type="logical" name="LVEL"> F  </i>
   <i type="int" name="KINTER">     0</i>
   <i name="CSHIFT">      0.10000000</i>
   <i name="OMEGAMAX">     -1.00000000</i>
   <i name="DEG_THRESHOLD">      0.00200000</i>
   <i name="RTIME">     -0.10000000</i>
   <i name="WPLASMAI">      0.00000000</i>
   <v name="DFIELD">      0.00000000      0.00000000      0.00000000</v>
   <v name="WPLASMA">      0.00000000      0.00000000      0.00000000      0.00000000      0.00000000      0.00000000      0.00000000      0.00000000      0.00000000</v>
  </separator>
  <separator name="orbital magnetization" >
   <i type="logical" name="NUCIND"> F  </i>
   <v name="MAGPOS">      0.00000000      0.00000000      0.00000000</v>
   <i type="logical" name="LNICSALL"> T  </i>
   <i type="logical" name="ORBITALMAG"> F  </i>
   <i type="logical" name="LMAGBLOCH"> F  </i>
   <i type="logical" name="LCHIMAG"> F  </i>
   <i type="logical" name="LGAUGE"> T  </i>
   <i type="int" name="MAGATOM">     0</i>
   <v name="MAGDIPOL">      0.00000000      0.00000000      0.00000000</v>
   <v name="AVECCONST">      0.00000000      0.00000000      0.00000000</v>
  </separator>
  <separator name="response functions" >
   <i type="logical" name="LADDER"> F  </i>
   <i type="logical" name="LRPAFORCE"> F  </i>
   <i type="logical" name="LFXC"> F  </i>
   <i type="logical" name="LHARTREE"> T  </i>
   <i type="int" name="IBSE">     0</i>
   <v type="int" name="KPOINT">    -1     0     0     0</v>
   <i type="logical" name="LTCTE"> F  </i>
   <i type="logical" name="LTETE"> F  </i>
   <i type="logical" name="LTRIPLET"> F  </i>
   <i type="logical" name="LFXCEPS"> F  </i>
   <i type="logical" name="LFXHEG"> F  </i>
   <i type="int" name="NATURALO">     2</i>
   <i type="logical" name="L2ORDER"> F  </i>
   <i type="logical" name="LMP2LT"> F  </i>
   <i type="logical" name="LUSEW"> F  </i>
   <i name="ENCUTGW">     -2.00000000</i>
   <i name="ENCUTGWSOFT">     -2.00000000</i>
   <i name="ENCUTLF">     -1.00000000</i>
   <i type="int" name="LMAXMP2">    -1</i>
   <i name="SCISSOR">      0.00000000</i>
   <i type="int" name="NOMEGA">     0</i>
   <i type="int" name="NOMEGAR">     0</i>
   <i type="int" name="NBANDSGW">    -1</i>
   <i type="int" name="NBANDSO">    -1</i>
   <i type="int" name="NBANDSV">    -1</i>
   <i type="int" name="NELM">   200</i>
   <i type="int" name="NELMHF">     1</i>
   <i type="int" name="DIM">     3</i>
   <i type="int" name="ANTIRES">     0</i>
   <i name="OMEGAMAX">    -30.00000000</i>
   <i name="OMEGAMIN">    -30.00000000</i>
   <i name="OMEGATL">   -200.00000000</i>
   <i type="int" name="OMEGAGRID">   140</i>
   <i name="CSHIFT">     -0.10000000</i>
   <i type="logical" name="SELFENERGY"> F  </i>
   <i type="logical" name="LSPECTRAL"> F  </i>
   <i type="logical" name="LSPECTRALGW"> F  </i>
   <i type="logical" name="LSINGLES"> F  </i>
   <i type="logical" name="LFERMIGW"> F  </i>
   <i type="logical" name="ODDONLYGW"> F  </i>
   <i type="logical" name="EVENONLYGW"> F  </i>
   <i type="int" name="NKREDLFX">     1</i>
   <i type="int" name="NKREDLFY">     1</i>
   <i type="int" name="NKREDLFZ">     1</i>
   <i type="int" name="MAXMEM">  2800</i>
   <i type="int" name="TELESCOPE">     0</i>
   <i type="int" name="TAUPAR">     1</i>
   <i type="int" name="OMEGAPAR">    -1</i>
   <i name="LAMBDA">      1.00000000</i>
  </separator>
  <separator name="External order field" >
   <i name="OFIELD_KAPPA">      0.00000000</i>
   <v name="OFIELD_K">      0.00000000      0.00000000      0.00000000</v>
   <i name="OFIELD_Q6_NEAR">      0.00000000</i>
   <i name="OFIELD_Q6_FAR">      0.00000000</i>
   <i name="OFIELD_A">      0.00000000</i>
  </separator>
 </parameters>
 <atominfo>
  <atoms>      39 </atoms>
  <types>       3 </types>
  <array name="atoms" >
   <dimension dim="1">ion</dimension>
   <field type="string">element</field>
   <field type="int">atomtype</field>
   <set>
    <rc><c>Cs</c><c>   1</c></rc>
    <rc><c>Cs</c><c>   1</c></rc>
    <rc><c>Cs</c><c>   1</c></rc>
    <rc><c>Cs</c><c>   1</c></rc>
    <rc><c>Cs</c><c>   1</c></rc>
    <rc><c>Cs</c><c>   1</c></rc>
    <rc><c>Cs</c><c>   1</c></rc>
    <rc><c>Cs</c><c>   1</c></rc>
    <rc><c>Pb</c><c>   2</c></rc>
    <rc><c>Pb</c><c>   2</c></rc>
    <rc><c>Pb</c><c>   2</c></rc>
    <rc><c>Pb</c><c>   2</c></rc>
    <rc><c>Pb</c><c>   2</c></rc>
    <rc><c>Pb</c><c>   2</c></rc>
    <rc><c>Pb</c><c>   2</c></rc>
    <rc><c>Pb</c><c>   2</c></rc>
    <rc><c>Br</c><c>   3</c></rc>
    <rc><c>Br</c><c>   3</c></rc>
    <rc><c>Br</c><c>   3</c></rc>
    <rc><c>Br</c><c>   3</c></rc>
    <rc><c>Br</c><c>   3</c></rc>
    <rc><c>Br</c><c>   3</c></rc>
    <rc><c>Br</c><c>   3</c></rc>
    <rc><c>Br</c><c>   3</c></rc>
    <rc><c>Br</c><c>   3</c></rc>
    <rc><c>Br</c><c>   3</c></rc>
    <rc><c>Br</c><c>   3</c></rc>
    <rc><c>Br</c><c>   3</c></rc>
    <rc><c>Br</c><c>   3</c></rc>
    <rc><c>Br</c><c>   3</c></rc>
    <rc><c>Br</c><c>   3</c></rc>
    <rc><c>Br</c><c>   3</c></rc>
    <rc><c>Br</c><c>   3</c></rc>
    <rc><c>Br</c><c>   3</c></rc>
    <rc><c>Br</c><c>   3</c></rc>
    <rc><c>Br</c><c>   3</c></rc>
    <rc><c>Br</c><c>   3</c></rc>
    <rc><c>Br</c><c>   3</c></rc>
    <rc><c>Br</c><c>   3</c></rc>
   </set>
  </array>
  <array name="atomtypes" >
   <dimension dim="1">type</dimension>
   <field type="int">atomspertype</field>
   <field type="string">element</field>
   <field>mass</field>
   <field>valence</field>
   <field type="string">pseudopotential</field>
   <set>
    <rc><c>   8</c><c>Cs</c><c>    132.90000000</c><c>      9.00000000</c><c>  PAW_PBE Cs_sv 08Apr2002               </c></rc>
    <rc><c>   8</c><c>Pb</c><c>    207.20000000</c><c>     14.00000000</c><c>  PAW_PBE Pb_d 06Sep2000                </c></rc>
    <rc><c>  23</c><c>Br</c><c>     79.90400000</c><c>      7.00000000</c><c>  PAW_PBE Br 06Sep2000                  </c></rc>
   </set>
  </array>
 </atominfo>
 <structure name="initialpos" >
  <crystal>
   <varray name="basis" >
    <v>       8.45648900       0.00000000       8.04030100 </v>
    <v>       0.00000000      11.72984700       0.00000000 </v>
    <v>      -8.45648900       0.00000000       8.04030100 </v>
   </varray>
   <i name="volume">   1595.08833419 </i>
   <varray name="rec_basis" >
    <v>       0.05912619      -0.00000000       0.06218673 </v>
    <v>       0.00000000       0.08525260      -0.00000000 </v>
    <v>      -0.05912619       0.00000000       0.06218673 </v>
   </varray>
  </crystal>
  <varray name="positions" >
   <v>       0.27262500       0.24626800       0.20091800 </v>
   <v>       0.76692700       0.24159000       0.71083800 </v>
   <v>       0.71177400       0.75066100       0.26605800 </v>
   <v>       0.21737100       0.75781500       0.77425800 </v>
   <v>       0.29190500       0.24947800       0.73200900 </v>
   <v>       0.78786000       0.24692400       0.22812100 </v>
   <v>       0.73250300       0.75377400       0.80316300 </v>
   <v>       0.22186500       0.75347500       0.28436300 </v>
   <v>       0.99992200       0.00170700       0.99978000 </v>
   <v>       0.49912300       0.00539000       0.49843100 </v>
   <v>       0.50032000       0.00011300       0.00104100 </v>
   <v>       0.00045100       0.00071800       0.50025500 </v>
   <v>       0.49964600       0.50038300       0.00024900 </v>
   <v>       0.00210500       0.49832700       0.49209800 </v>
   <v>       0.00024800       0.49851100       0.00494500 </v>
   <v>       0.49899600       0.49438700       0.49927100 </v>
   <v>       0.47376000       0.75016500       0.96591400 </v>
   <v>       0.96869400       0.74845100       0.46649600 </v>
   <v>       0.96242200       0.25198700       0.96778800 </v>
   <v>       0.46049400       0.24995400       0.46812100 </v>
   <v>       0.02923400       0.74904200       0.02325200 </v>
   <v>       0.53016200       0.25050500       0.03290500 </v>
   <v>       0.02773300       0.25195400       0.54454300 </v>
   <v>       0.24620300       0.46958500       0.94735300 </v>
   <v>       0.74793400       0.46715100       0.45302900 </v>
   <v>       0.45022400       0.53941100       0.25036000 </v>
   <v>       0.54702700       0.02669900       0.75208100 </v>
   <v>       0.04863900       0.03743100       0.25252900 </v>
   <v>       0.75240800       0.96864600       0.05059200 </v>
   <v>       0.25454800       0.96416200       0.54608900 </v>
   <v>       0.24761500       0.03351700       0.95053800 </v>
   <v>       0.74712400       0.03011700       0.44968000 </v>
   <v>       0.45206600       0.95970300       0.25065000 </v>
   <v>       0.95005700       0.96596200       0.74748900 </v>
   <v>       0.75340400       0.53209500       0.05122700 </v>
   <v>       0.25245200       0.53872300       0.55125400 </v>
   <v>       0.55484700       0.47001400       0.75190200 </v>
   <v>       0.05326800       0.46216200       0.25046900 </v>
   <v>       0.74058300       0.64035900       0.64000400 </v>
  </varray>
 </structure>
 <calculation>
  <scstep>
   <time name="dav">   16.66   16.67</time>
   <time name="total">   18.12   18.14</time>
   <energy>
    <i name="alphaZ">    872.70583573 </i>
    <i name="ewald"> -17935.29516553 </i>
    <i name="hartreedc">  -7414.01460788 </i>
    <i name="XCdc">    908.65154348 </i>
    <i name="pawpsdc">  21345.28103884 </i>
    <i name="pawaedc"> -22405.85761495 </i>
    <i name="eentropy">     -0.00179871 </i>
    <i name="bandstr">   -242.04119030 </i>
    <i name="atom">  26212.11861568 </i>
    <i name="e_fr_energy">   1341.54665635 </i>
    <i name="e_wo_entrp">   1341.54845506 </i>
    <i name="e_0_energy">   1341.54755571 </i>
   </energy>
  </scstep>
  <scstep>
   <time name="dav">   18.44   18.50</time>
   <time name="total">   18.44   18.50</time>
   <energy>
    <i name="e_fr_energy">  -1105.78915787 </i>
    <i name="e_wo_entrp">  -1105.78915787 </i>
    <i name="e_0_energy">  -1105.78915787 </i>
   </energy>
  </scstep>
  <scstep>
   <time name="dav">   19.61   19.63</time>
   <time name="total">   19.61   19.63</time>
   <energy>
    <i name="e_fr_energy">  -1470.44773206 </i>
    <i name="e_wo_entrp">  -1470.44773206 </i>
    <i name="e_0_energy">  -1470.44773206 </i>
   </energy>
  </scstep>
  <scstep>
   <time name="dav">   18.22   18.25</time>
   <time name="total">   18.22   18.25</time>
   <energy>
    <i name="e_fr_energy">  -1482.69535169 </i>
    <i name="e_wo_entrp">  -1482.69535169 </i>
    <i name="e_0_energy">  -1482.69535169 </i>
   </energy>
  </scstep>
  <scstep>
   <time name="dav">   19.06   19.10</time>
   <time name="total">   21.77   21.82</time>
   <energy>
    <i name="e_fr_energy">  -1483.22314382 </i>
    <i name="e_wo_entrp">  -1483.22314382 </i>
    <i name="e_0_energy">  -1483.22314382 </i>
   </energy>
  </scstep>
  <scstep>
   <time name="dav">   19.23   19.23</time>
   <time name="total">   23.44   23.46</time>
   <energy>
    <i name="e_fr_energy">  -1404.39823065 </i>
    <i name="e_wo_entrp">  -1404.39823065 </i>
    <i name="e_0_energy">  -1404.39823065 </i>
   </energy>
  </scstep>
  <scstep>
   <time name="dav">   18.46   18.46</time>
   <time name="total">   22.62   22.68</time>
   <energy>
    <i name="e_fr_energy">  -1403.60126862 </i>
    <i name="e_wo_entrp">  -1403.60126862 </i>
    <i name="e_0_energy">  -1403.60126862 </i>
   </energy>
  </scstep>
  <scstep>
   <time name="dav">   17.48   17.48</time>
   <time name="total">   21.66   21.69</time>
   <energy>
    <i name="e_fr_energy">  -1403.77947303 </i>
    <i name="e_wo_entrp">  -1403.77947303 </i>
    <i name="e_0_energy">  -1403.77947303 </i>
   </energy>
  </scstep>
  <scstep>
   <time name="dav">   18.06   18.07</time>
   <time name="total">   22.26   22.29</time>
   <energy>
    <i name="e_fr_energy">  -1403.80695735 </i>
    <i name="e_wo_entrp">  -1403.80695735 </i>
    <i name="e_0_energy">  -1403.80695735 </i>
   </energy>
  </scstep>
  <scstep>
   <time name="dav">   19.09   19.09</time>
   <time name="total">   23.30   23.30</time>
   <energy>
    <i name="e_fr_energy">  -1403.81570132 </i>
    <i name="e_wo_entrp">  -1403.81570132 </i>
    <i name="e_0_energy">  -1403.81570132 </i>
   </energy>
  </scstep>
  <scstep>
   <time name="dav">   17.50   17.50</time>
   <time name="total">   21.66   21.73</time>
   <energy>
    <i name="e_fr_energy">  -1403.81896515 </i>
    <i name="e_wo_entrp">  -1403.81896515 </i>
    <i name="e_0_energy">  -1403.81896515 </i>
   </energy>
  </scstep>
  <scstep>
   <time name="dav">   17.23   17.23</time>
   <time name="total">   21.43   21.47</time>
   <energy>
    <i name="e_fr_energy">  -1403.82109553 </i>
    <i name="e_wo_entrp">  -1403.82109553 </i>
    <i name="e_0_energy">  -1403.82109553 </i>
   </energy>
  </scstep>
  <scstep>
   <time name="dav">   19.32   19.33</time>
   <time name="total">   23.49   23.56</time>
   <energy>
    <i name="e_fr_energy">  -1403.82124964 </i>
    <i name="e_wo_entrp">  -1403.82124964 </i>
    <i name="e_0_energy">  -1403.82124964 </i>
   </energy>
  </scstep>
  <scstep>
   <time name="dav">   17.17   17.17</time>
   <time name="total">   21.37   21.40</time>
   <energy>
    <i name="e_fr_energy">  -1403.82132522 </i>
    <i name="e_wo_entrp">  -1403.82132522 </i>
    <i name="e_0_energy">  -1403.82132522 </i>
   </energy>
  </scstep>
  <scstep>
   <time name="dav">   19.34   19.34</time>
   <time name="total">   23.52   23.57</time>
   <energy>
    <i name="e_fr_energy">  -1403.82138044 </i>
    <i name="e_wo_entrp">  -1403.82138044 </i>
    <i name="e_0_energy">  -1403.82138044 </i>
   </energy>
  </scstep>
  <scstep>
   <time name="dav">   17.07   17.07</time>
   <time name="total">   21.24   21.30</time>
   <energy>
    <i name="e_fr_energy">  -1403.82136383 </i>
    <i name="e_wo_entrp">  -1403.82136383 </i>
    <i name="e_0_energy">  -1403.82136383 </i>
   </energy>
  </scstep>
  <scstep>
   <time name="dav">   17.05   17.05</time>
   <time name="total">   21.23   21.27</time>
   <energy>
    <i name="e_fr_energy">  -1403.82136952 </i>
    <i name="e_wo_entrp">  -1403.82136952 </i>
    <i name="e_0_energy">  -1403.82136952 </i>
   </energy>
  </scstep>
  <scstep>
   <time name="dav">   15.04   15.04</time>
   <time name="total">   19.23   19.26</time>
   <energy>
    <i name="e_fr_energy">  -1403.82137341 </i>
    <i name="e_wo_entrp">  -1403.82137341 </i>
    <i name="e_0_energy">  -1403.82137341 </i>
   </energy>
  </scstep>
  <scstep>
   <time name="dav">   13.18   13.18</time>
   <time name="total">   17.39   17.41</time>
   <energy>
    <i name="e_fr_energy">  -1403.82137638 </i>
    <i name="e_wo_entrp">  -1403.82137638 </i>
    <i name="e_0_energy">  -1403.82137638 </i>
   </energy>
  </scstep>
  <scstep>
   <time name="dav">   12.67   12.67</time>
   <time name="total">   16.84   16.89</time>
   <energy>
    <i name="e_fr_energy">  -1403.82137526 </i>
    <i name="e_wo_entrp">  -1403.82137526 </i>
    <i name="e_0_energy">  -1403.82137526 </i>
   </energy>
  </scstep>
  <scstep>
   <time name="dav">   12.57   12.57</time>
   <time name="total">   14.06   14.09</time>
   <energy>
    <i name="alphaZ">    872.70583573 </i>
    <i name="ewald"> -17935.29516553 </i>
    <i name="hartreedc">  -7451.18488531 </i>
    <i name="XCdc">    944.19782155 </i>
    <i name="pawpsdc">  22946.77208035 </i>
    <i name="pawaedc"> -24004.73645738 </i>
    <i name="eentropy">     -0.00000000 </i>
    <i name="bandstr">  -2988.39922129 </i>
    <i name="atom">  26212.11861568 </i>
    <i name="e_fr_energy">  -1403.82137620 </i>
    <i name="e_wo_entrp">  -1403.82137620 </i>
    <i name="e_0_energy">  -1403.82137620 </i>
   </energy>
  </scstep>
  <structure>
   <crystal>
    <varray name="basis" >
     <v>       8.45648900       0.00000000       8.04030100 </v>
     <v>       0.00000000      11.72984700       0.00000000 </v>
     <v>      -8.45648900       0.00000000       8.04030100 </v>
    </varray>
    <i name="volume">   1595.08833419 </i>
    <varray name="rec_basis" >
     <v>       0.05912619      -0.00000000       0.06218673 </v>
     <v>       0.00000000       0.08525260      -0.00000000 </v>
     <v>      -0.05912619       0.00000000       0.06218673 </v>
    </varray>
   </crystal>
   <varray name="positions" >
    <v>       0.27262500       0.24626800       0.20091800 </v>
    <v>       0.76692700       0.24159000       0.71083800 </v>
    <v>       0.71177400       0.75066100       0.26605800 </v>
    <v>       0.21737100       0.75781500       0.77425800 </v>
    <v>       0.29190500       0.24947800       0.73200900 </v>
    <v>       0.78786000       0.24692400       0.22812100 </v>
    <v>       0.73250300       0.75377400       0.80316300 </v>
    <v>       0.22186500       0.75347500       0.28436300 </v>
    <v>       0.99992200       0.00170700       0.99978000 </v>
    <v>       0.49912300       0.00539000       0.49843100 </v>
    <v>       0.50032000       0.00011300       0.00104100 </v>
    <v>       0.00045100       0.00071800       0.50025500 </v>
    <v>       0.49964600       0.50038300       0.00024900 </v>
    <v>       0.00210500       0.49832700       0.49209800 </v>
    <v>       0.00024800       0.49851100       0.00494500 </v>
    <v>       0.49899600       0.49438700       0.49927100 </v>
    <v>       0.47376000       0.75016500       0.96591400 </v>
    <v>       0.96869400       0.74845100       0.46649600 </v>
    <v>       0.96242200       0.25198700       0.96778800 </v>
    <v>       0.46049400       0.24995400       0.46812100 </v>
    <v>       0.02923400       0.74904200       0.02325200 </v>
    <v>       0.53016200       0.25050500       0.03290500 </v>
    <v>       0.02773300       0.25195400       0.54454300 </v>
    <v>       0.24620300       0.46958500       0.94735300 </v>
    <v>       0.74793400       0.46715100       0.45302900 </v>
    <v>       0.45022400       0.53941100       0.25036000 </v>
    <v>       0.54702700       0.02669900       0.75208100 </v>
    <v>       0.04863900       0.03743100       0.25252900 </v>
    <v>       0.75240800       0.96864600       0.05059200 </v>
    <v>       0.25454800       0.96416200       0.54608900 </v>
    <v>       0.24761500       0.03351700       0.95053800 </v>
    <v>       0.74712400       0.03011700       0.44968000 </v>
    <v>       0.45206600       0.95970300       0.25065000 </v>
    <v>       0.95005700       0.96596200       0.74748900 </v>
    <v>       0.75340400       0.53209500       0.05122700 </v>
    <v>       0.25245200       0.53872300       0.55125400 </v>
    <v>       0.55484700       0.47001400       0.75190200 </v>
    <v>       0.05326800       0.46216200       0.25046900 </v>
    <v>       0.74058300       0.64035900       0.64000400 </v>
   </varray>
  </structure>
  <varray name="forces" >
   <v>       0.03270538      -0.03186985      -0.01053883 </v>
   <v>      -0.04103922      -0.00359649      -0.06654683 </v>
   <v>       0.00125188      -0.02495810       0.05944559 </v>
   <v>      -0.05225169       0.06436596       0.03492718 </v>
   <v>       0.02611164      -0.02120183       0.06325932 </v>
   <v>      -0.02030189       0.00953634      -0.01824578 </v>
   <v>      -7.46844839       6.81474663       6.50124332 </v>
   <v>      -0.01632489       0.02397519      -0.07285628 </v>
   <v>      -0.07162837      -0.06891035      -0.14150989 </v>
   <v>       0.02117462       0.16193657       0.10540070 </v>
   <v>       0.16377269      -0.08318964       0.06674224 </v>
   <v>      -0.09324100      -0.13417716      -0.03103624 </v>
   <v>       0.22957577       0.02568875      -0.05323311 </v>
   <v>      -0.20593954       0.18251013      -0.37929065 </v>
   <v>      -0.24705602       0.03933727       0.08572141 </v>
   <v>       0.20158525       0.10011919       0.57438307 </v>
   <v>      -0.11213351      -0.01251010      -0.05503189 </v>
   <v>       0.31528352       0.04530633       0.06646073 </v>
   <v>       0.02890022       0.11565990       0.00216381 </v>
   <v>       0.00106490      -0.11494860       0.04791623 </v>
   <v>       0.04123687      -0.11129496       0.03432373 </v>
   <v>      -0.03117400      -0.00299560      -0.00023598 </v>
   <v>       0.00555621       0.07512034       0.03919704 </v>
   <v>      -0.08096953       0.00419150      -0.10346459 </v>
   <v>       1.16388289      -1.44382094      -0.89050221 </v>
   <v>      -0.07145922       0.01797394       0.02192381 </v>
   <v>       0.05504892       0.03017428      -0.12103334 </v>
   <v>       0.01738500       0.00968775       0.02991678 </v>
   <v>      -0.09165704       0.17564639       0.11598891 </v>
   <v>       0.04994356      -0.02215825       0.04385650 </v>
   <v>       0.00027007       0.01770726      -0.00603090 </v>
   <v>      -0.06147867       0.01213494      -0.04612329 </v>
   <v>      -0.08738097      -0.00205140       0.06205341 </v>
   <v>       0.07590359       0.03215324       0.02500836 </v>
   <v>       0.06960721      -0.06457685       0.09076424 </v>
   <v>      -0.01846658       0.01675247      -0.00254881 </v>
   <v>      -0.65637618      -0.46432110      -0.16532665 </v>
   <v>      -0.00586871       0.06293856      -0.06157385 </v>
   <v>       6.93293524      -5.43108174      -5.84556727 </v>
  </varray>
  <varray name="stress" >
   <v>       5.78326461     -10.50551697     -10.31532627 </v>
   <v>     -10.50543350       5.04312634      11.35280913 </v>
   <v>     -10.31521055      11.35285341       0.20923222 </v>
  </varray>
  <energy>
   <i name="e_fr_energy">  -1403.82137620 </i>
   <i name="e_wo_entrp">  -1403.82137620 </i>
   <i name="e_0_energy">     -0.00000000 </i>
  </energy>
  <time name="totalsc">  486.15  486.97</time>
  <eigenvalues>
   <array>
    <dimension dim="1">band</dimension>
    <dimension dim="2">kpoint</dimension>
    <dimension dim="3">spin</dimension>
    <field>eigene</field>
    <field>occ</field>
    <set>
     <set comment="spin 1">
      <set comment="kpoint 1">
       <r>  -20.9036    1.0000 </r>
       <r>  -20.8714    1.0000 </r>
       <r>  -20.8495    1.0000 </r>
       <r>  -20.8243    1.0000 </r>
       <r>  -20.8046    1.0000 </r>
       <r>  -20.7852    1.0000 </r>
       <r>  -20.6327    1.0000 </r>
       <r>  -20.0656    1.0000 </r>
       <r>  -16.9189    1.0000 </r>
       <r>  -16.8682    1.0000 </r>
       <r>  -16.8514    1.0000 </r>
       <r>  -16.8443    1.0000 </r>
       <r>  -16.8070    1.0000 </r>
       <r>  -16.8050    1.0000 </r>
       <r>  -16.8000    1.0000 </r>
       <r>  -16.7927    1.0000 </r>
       <r>  -16.7609    1.0000 </r>
       <r>  -16.7526    1.0000 </r>
       <r>  -16.7497    1.0000 </r>
       <r>  -16.7447    1.0000 </r>
       <r>  -16.7321    1.0000 </r>
       <r>  -16.7285    1.0000 </r>
       <r>  -16.6877    1.0000 </r>
       <r>  -16.6821    1.0000 </r>
       <r>  -16.6727    1.0000 </r>
       <r>  -16.6406    1.0000 </r>
       <r>  -16.6272    1.0000 </r>
       <r>  -16.5735    1.0000 </r>
       <r>  -16.4546    1.0000 </r>
       <r>  -16.4489    1.0000 </r>
       <r>  -16.4230    1.0000 </r>
       <r>  -16.4042    1.0000 </r>
       <r>  -16.3920    1.0000 </r>
       <r>  -16.3765    1.0000 </r>
       <r>  -16.3558    1.0000 </r>
       <r>  -16.3459    1.0000 </r>
       <r>  -16.3345    1.0000 </r>
       <r>  -16.3300    1.0000 </r>
       <r>  -16.3266    1.0000 </r>
       <r>  -16.2949    1.0000 </r>
       <r>  -16.2843    1.0000 </r>
       <r>  -16.2787    1.0000 </r>
       <r>  -16.2741    1.0000 </r>
       <r>  -16.2718    1.0000 </r>
       <r>  -16.2567    1.0000 </r>
       <r>  -16.2555    1.0000 </r>
       <r>  -16.2516    1.0000 </r>
       <r>  -16.2348    1.0000 </r>
       <r>  -14.7022    1.0000 </r>
       <r>  -14.6544    1.0000 </r>
       <r>  -14.2912    1.0000 </r>
       <r>  -14.2464    1.0000 </r>
       <r>  -14.2250    1.0000 </r>
       <r>  -14.1778    1.0000 </r>
       <r>  -14.1459    1.0000 </r>
       <r>  -14.1352    1.0000 </r>
       <r>  -14.1242    1.0000 </r>
       <r>  -14.0897    1.0000 </r>
       <r>  -14.0799    1.0000 </r>
       <r>  -14.0475    1.0000 </r>
       <r>  -14.0105    1.0000 </r>
       <r>  -13.9855    1.0000 </r>
       <r>  -13.9611    1.0000 </r>
       <r>  -13.9410    1.0000 </r>
       <r>  -13.9090    1.0000 </r>
       <r>  -13.8558    1.0000 </r>
       <r>  -13.8056    1.0000 </r>
       <r>  -13.7400    1.0000 </r>
       <r>  -13.6709    1.0000 </r>
       <r>  -13.6267    1.0000 </r>
       <r>  -13.3551    1.0000 </r>
       <r>   -8.2919    1.0000 </r>
       <r>   -7.9420    1.0000 </r>
       <r>   -7.8424    1.0000 </r>
       <r>   -7.7348    1.0000 </r>
       <r>   -7.4186    1.0000 </r>
       <r>   -7.3423    1.0000 </r>
       <r>   -7.3112    1.0000 </r>
       <r>   -7.2995    1.0000 </r>
       <r>   -7.2920    1.0000 </r>
       <r>   -7.2815    1.0000 </r>
       <r>   -7.2785    1.0000 </r>
       <r>   -7.2664    1.0000 </r>
       <r>   -7.2515    1.0000 </r>
       <r>   -7.2485    1.0000 </r>
       <r>   -7.2381    1.0000 </r>
       <r>   -7.2363    1.0000 </r>
       <r>   -7.2272    1.0000 </r>
       <r>   -7.2199    1.0000 </r>
       <r>   -7.2049    1.0000 </r>
       <r>   -7.2039    1.0000 </r>
       <r>   -7.1921    1.0000 </r>
       <r>   -7.1774    1.0000 </r>
       <r>   -7.1569    1.0000 </r>
       <r>   -7.1428    1.0000 </r>
       <r>   -7.1235    1.0000 </r>
       <r>   -7.0703    1.0000 </r>
       <r>   -7.0340    1.0000 </r>
       <r>   -7.0025    1.0000 </r>
       <r>   -6.6574    1.0000 </r>
       <r>   -6.5957    1.0000 </r>
       <r>   -6.3714    1.0000 </r>
       <r>   -6.3143    1.0000 </r>
       <r>   -3.4120    1.0000 </r>
       <r>   -3.3436    1.0000 </r>
       <r>   -3.3019    1.0000 </r>
       <r>   -3.2892    1.0000 </r>
       <r>   -3.2727    1.0000 </r>
       <r>   -3.2159    1.0000 </r>
       <r>   -3.1804    1.0000 </r>
       <r>   -3.1214    1.0000 </r>
       <r>   -3.1041    1.0000 </r>
       <r>   -3.0347    1.0000 </r>
       <r>   -2.9667    1.0000 </r>
       <r>   -2.9617    1.0000 </r>
       <r>   -2.3100    1.0000 </r>
       <r>   -2.2843    1.0000 </r>
       <r>   -2.2280    1.0000 </r>
       <r>   -2.1954    1.0000 </r>
       <r>   -2.0254    1.0000 </r>
       <r>   -1.9901    1.0000 </r>
       <r>   -1.9466    1.0000 </r>
       <r>   -1.9213    1.0000 </r>
       <r>   -1.8775    1.0000 </r>
       <r>   -1.8123    1.0000 </r>
       <r>   -1.8017    1.0000 </r>
       <r>   -1.7380    1.0000 </r>
       <r>   -1.7255    1.0000 </r>
       <r>   -1.6672    1.0000 </r>
       <r>   -1.6532    1.0000 </r>
       <r>   -1.6419    1.0000 </r>
       <r>   -1.6099    1.0000 </r>
       <r>   -1.5956    1.0000 </r>
       <r>   -1.5634    1.0000 </r>
       <r>   -1.5362    1.0000 </r>
       <r>   -1.5280    1.0000 </r>
       <r>   -1.5075    1.0000 </r>
       <r>   -1.5008    1.0000 </r>
       <r>   -1.4767    1.0000 </r>
       <r>   -1.4658    1.0000 </r>
       <r>   -1.4563    1.0000 </r>
       <r>   -1.4401    1.0000 </r>
       <r>   -1.4360    1.0000 </r>
       <r>   -1.4129    1.0000 </r>
       <r>   -1.3935    1.0000 </r>
       <r>   -1.3604    1.0000 </r>
       <r>   -1.3565    1.0000 </r>
       <r>   -1.3391    1.0000 </r>
       <r>   -1.3158    1.0000 </r>
       <r>   -1.2971    1.0000 </r>
       <r>   -1.2853    1.0000 </r>
       <r>   -1.2475    1.0000 </r>
       <r>   -1.2374    1.0000 </r>
       <r>   -1.1979    1.0000 </r>
       <r>   -1.1741    1.0000 </r>
       <r>   -1.1383    1.0000 </r>
       <r>   -1.1117    1.0000 </r>
       <r>   -1.0800    1.0000 </r>
       <r>   -1.0291    1.0000 </r>
       <r>   -1.0099    1.0000 </r>
       <r>   -1.0054    1.0000 </r>
       <r>   -0.8999    1.0000 </r>
       <r>   -0.8659    1.0000 </r>
       <r>   -0.8119    1.0000 </r>
       <r>   -0.7657    1.0000 </r>
       <r>   -0.6727    1.0000 </r>
       <r>   -0.4353    1.0000 </r>
       <r>   -0.3094    1.0000 </r>
       <r>   -0.1660    1.0000 </r>
       <r>    0.1595    1.0000 </r>
       <r>    0.3337    1.0000 </r>
       <r>    1.9387    1.0000 </r>
       <r>    2.1435    0.0000 </r>
       <r>    2.3241    0.0000 </r>
       <r>    2.6911    0.0000 </r>
       <r>    2.8427    0.0000 </r>
       <r>    2.9033    0.0000 </r>
       <r>    3.0174    0.0000 </r>
       <r>    3.0525    0.0000 </r>
       <r>    3.0798    0.0000 </r>
       <r>    3.2260    0.0000 </r>
       <r>    3.3632    0.0000 </r>
       <r>    3.4338    0.0000 </r>
       <r>    3.4824    0.0000 </r>
       <r>    4.0513    0.0000 </r>
       <r>    4.2396    0.0000 </r>
       <r>    4.8063    0.0000 </r>
       <r>    5.4378    0.0000 </r>
       <r>    5.5583    0.0000 </r>
       <r>    5.7019    0.0000 </r>
       <r>    5.7765    0.0000 </r>
       <r>    5.8159    0.0000 </r>
       <r>    5.8312    0.0000 </r>
       <r>    5.8971    0.0000 </r>
       <r>    5.9797    0.0000 </r>
       <r>    6.0353    0.0000 </r>
       <r>    6.0526    0.0000 </r>
       <r>    6.1327    0.0000 </r>
       <r>    6.1797    0.0000 </r>
       <r>    6.2163    0.0000 </r>
       <r>    6.2425    0.0000 </r>
       <r>    6.2604    0.0000 </r>
       <r>    6.3359    0.0000 </r>
       <r>    6.3870    0.0000 </r>
       <r>    6.4815    0.0000 </r>
       <r>    6.5125    0.0000 </r>
       <r>    6.5613    0.0000 </r>
       <r>    6.6621    0.0000 </r>
      </set>
      <set comment="kpoint 2">
       <r>  -20.9036    1.0000 </r>
       <r>  -20.8714    1.0000 </r>
       <r>  -20.8495    1.0000 </r>
       <r>  -20.8242    1.0000 </r>
       <r>  -20.8047    1.0000 </r>
       <r>  -20.7852    1.0000 </r>
       <r>  -20.6327    1.0000 </r>
       <r>  -20.0656    1.0000 </r>
       <r>  -16.9187    1.0000 </r>
       <r>  -16.8677    1.0000 </r>
       <r>  -16.8504    1.0000 </r>
       <r>  -16.8434    1.0000 </r>
       <r>  -16.8056    1.0000 </r>
       <r>  -16.8050    1.0000 </r>
       <r>  -16.8000    1.0000 </r>
       <r>  -16.7880    1.0000 </r>
       <r>  -16.7609    1.0000 </r>
       <r>  -16.7526    1.0000 </r>
       <r>  -16.7491    1.0000 </r>
       <r>  -16.7447    1.0000 </r>
       <r>  -16.7349    1.0000 </r>
       <r>  -16.7285    1.0000 </r>
       <r>  -16.6878    1.0000 </r>
       <r>  -16.6857    1.0000 </r>
       <r>  -16.6727    1.0000 </r>
       <r>  -16.6406    1.0000 </r>
       <r>  -16.6273    1.0000 </r>
       <r>  -16.5735    1.0000 </r>
       <r>  -16.4568    1.0000 </r>
       <r>  -16.4490    1.0000 </r>
       <r>  -16.4234    1.0000 </r>
       <r>  -16.3959    1.0000 </r>
       <r>  -16.3935    1.0000 </r>
       <r>  -16.3654    1.0000 </r>
       <r>  -16.3618    1.0000 </r>
       <r>  -16.3459    1.0000 </r>
       <r>  -16.3444    1.0000 </r>
       <r>  -16.3345    1.0000 </r>
       <r>  -16.3266    1.0000 </r>
       <r>  -16.2950    1.0000 </r>
       <r>  -16.2843    1.0000 </r>
       <r>  -16.2787    1.0000 </r>
       <r>  -16.2741    1.0000 </r>
       <r>  -16.2718    1.0000 </r>
       <r>  -16.2567    1.0000 </r>
       <r>  -16.2556    1.0000 </r>
       <r>  -16.2517    1.0000 </r>
       <r>  -16.2348    1.0000 </r>
       <r>  -14.6986    1.0000 </r>
       <r>  -14.6593    1.0000 </r>
       <r>  -14.2720    1.0000 </r>
       <r>  -14.2560    1.0000 </r>
       <r>  -14.2311    1.0000 </r>
       <r>  -14.2159    1.0000 </r>
       <r>  -14.1738    1.0000 </r>
       <r>  -14.1363    1.0000 </r>
       <r>  -14.1061    1.0000 </r>
       <r>  -14.0814    1.0000 </r>
       <r>  -14.0709    1.0000 </r>
       <r>  -14.0317    1.0000 </r>
       <r>  -14.0093    1.0000 </r>
       <r>  -13.9683    1.0000 </r>
       <r>  -13.9594    1.0000 </r>
       <r>  -13.9360    1.0000 </r>
       <r>  -13.8857    1.0000 </r>
       <r>  -13.8474    1.0000 </r>
       <r>  -13.8081    1.0000 </r>
       <r>  -13.7347    1.0000 </r>
       <r>  -13.6915    1.0000 </r>
       <r>  -13.6483    1.0000 </r>
       <r>  -13.3549    1.0000 </r>
       <r>   -8.1049    1.0000 </r>
       <r>   -8.0546    1.0000 </r>
       <r>   -7.7388    1.0000 </r>
       <r>   -7.6530    1.0000 </r>
       <r>   -7.5212    1.0000 </r>
       <r>   -7.5129    1.0000 </r>
       <r>   -7.3414    1.0000 </r>
       <r>   -7.3053    1.0000 </r>
       <r>   -7.2939    1.0000 </r>
       <r>   -7.2817    1.0000 </r>
       <r>   -7.2770    1.0000 </r>
       <r>   -7.2673    1.0000 </r>
       <r>   -7.2542    1.0000 </r>
       <r>   -7.2458    1.0000 </r>
       <r>   -7.2405    1.0000 </r>
       <r>   -7.2366    1.0000 </r>
       <r>   -7.2268    1.0000 </r>
       <r>   -7.2195    1.0000 </r>
       <r>   -7.2180    1.0000 </r>
       <r>   -7.2068    1.0000 </r>
       <r>   -7.1907    1.0000 </r>
       <r>   -7.1750    1.0000 </r>
       <r>   -7.1558    1.0000 </r>
       <r>   -7.1430    1.0000 </r>
       <r>   -7.0753    1.0000 </r>
       <r>   -7.0374    1.0000 </r>
       <r>   -7.0033    1.0000 </r>
       <r>   -6.9801    1.0000 </r>
       <r>   -6.9388    1.0000 </r>
       <r>   -6.6108    1.0000 </r>
       <r>   -6.3706    1.0000 </r>
       <r>   -6.3148    1.0000 </r>
       <r>   -3.3985    1.0000 </r>
       <r>   -3.2876    1.0000 </r>
       <r>   -3.2703    1.0000 </r>
       <r>   -3.2159    1.0000 </r>
       <r>   -3.1507    1.0000 </r>
       <r>   -3.1006    1.0000 </r>
       <r>   -3.0572    1.0000 </r>
       <r>   -3.0229    1.0000 </r>
       <r>   -2.6425    1.0000 </r>
       <r>   -2.6287    1.0000 </r>
       <r>   -2.5572    1.0000 </r>
       <r>   -2.5304    1.0000 </r>
       <r>   -2.4170    1.0000 </r>
       <r>   -2.3584    1.0000 </r>
       <r>   -2.3302    1.0000 </r>
       <r>   -2.2623    1.0000 </r>
       <r>   -2.2355    1.0000 </r>
       <r>   -2.2032    1.0000 </r>
       <r>   -2.1074    1.0000 </r>
       <r>   -2.0482    1.0000 </r>
       <r>   -1.9856    1.0000 </r>
       <r>   -1.9358    1.0000 </r>
       <r>   -1.8900    1.0000 </r>
       <r>   -1.8473    1.0000 </r>
       <r>   -1.8222    1.0000 </r>
       <r>   -1.8099    1.0000 </r>
       <r>   -1.7599    1.0000 </r>
       <r>   -1.7346    1.0000 </r>
       <r>   -1.6984    1.0000 </r>
       <r>   -1.6453    1.0000 </r>
       <r>   -1.5955    1.0000 </r>
       <r>   -1.5626    1.0000 </r>
       <r>   -1.5525    1.0000 </r>
       <r>   -1.5416    1.0000 </r>
       <r>   -1.5088    1.0000 </r>
       <r>   -1.4774    1.0000 </r>
       <r>   -1.4692    1.0000 </r>
       <r>   -1.4500    1.0000 </r>
       <r>   -1.4065    1.0000 </r>
       <r>   -1.3905    1.0000 </r>
       <r>   -1.3834    1.0000 </r>
       <r>   -1.3755    1.0000 </r>
       <r>   -1.3556    1.0000 </r>
       <r>   -1.3466    1.0000 </r>
       <r>   -1.3273    1.0000 </r>
       <r>   -1.3049    1.0000 </r>
       <r>   -1.2924    1.0000 </r>
       <r>   -1.2682    1.0000 </r>
       <r>   -1.2494    1.0000 </r>
       <r>   -1.2321    1.0000 </r>
       <r>   -1.2156    1.0000 </r>
       <r>   -1.1893    1.0000 </r>
       <r>   -1.1456    1.0000 </r>
       <r>   -1.1319    1.0000 </r>
       <r>   -1.1093    1.0000 </r>
       <r>   -1.0870    1.0000 </r>
       <r>   -1.0340    1.0000 </r>
       <r>   -1.0146    1.0000 </r>
       <r>   -0.9258    1.0000 </r>
       <r>   -0.9072    1.0000 </r>
       <r>   -0.8901    1.0000 </r>
       <r>   -0.8505    1.0000 </r>
       <r>   -0.6866    1.0000 </r>
       <r>   -0.6152    1.0000 </r>
       <r>   -0.5518    1.0000 </r>
       <r>   -0.1384    1.0000 </r>
       <r>   -0.1104    1.0000 </r>
       <r>    0.1815    1.0000 </r>
       <r>    1.9396    1.0000 </r>
       <r>    2.2366    0.0000 </r>
       <r>    2.3352    0.0000 </r>
       <r>    2.8520    0.0000 </r>
       <r>    2.9187    0.0000 </r>
       <r>    3.1314    0.0000 </r>
       <r>    3.2216    0.0000 </r>
       <r>    3.2568    0.0000 </r>
       <r>    3.2868    0.0000 </r>
       <r>    3.9446    0.0000 </r>
       <r>    4.1403    0.0000 </r>
       <r>    4.2093    0.0000 </r>
       <r>    4.2262    0.0000 </r>
       <r>    4.3243    0.0000 </r>
       <r>    4.4159    0.0000 </r>
       <r>    4.5222    0.0000 </r>
       <r>    4.5676    0.0000 </r>
       <r>    4.7834    0.0000 </r>
       <r>    4.8138    0.0000 </r>
       <r>    5.4048    0.0000 </r>
       <r>    5.4704    0.0000 </r>
       <r>    5.5682    0.0000 </r>
       <r>    5.7620    0.0000 </r>
       <r>    5.8735    0.0000 </r>
       <r>    5.9085    0.0000 </r>
       <r>    6.0069    0.0000 </r>
       <r>    6.0376    0.0000 </r>
       <r>    6.1474    0.0000 </r>
       <r>    6.1695    0.0000 </r>
       <r>    6.2108    0.0000 </r>
       <r>    6.2792    0.0000 </r>
       <r>    6.3595    0.0000 </r>
       <r>    6.3791    0.0000 </r>
       <r>    6.4371    0.0000 </r>
       <r>    6.5015    0.0000 </r>
       <r>    6.5357    0.0000 </r>
       <r>    6.6331    0.0000 </r>
      </set>
      <set comment="kpoint 3">
       <r>  -20.9036    1.0000 </r>
       <r>  -20.8714    1.0000 </r>
       <r>  -20.8496    1.0000 </r>
       <r>  -20.8243    1.0000 </r>
       <r>  -20.8046    1.0000 </r>
       <r>  -20.7852    1.0000 </r>
       <r>  -20.6327    1.0000 </r>
       <r>  -20.0656    1.0000 </r>
       <r>  -16.9185    1.0000 </r>
       <r>  -16.8680    1.0000 </r>
       <r>  -16.8500    1.0000 </r>
       <r>  -16.8438    1.0000 </r>
       <r>  -16.8071    1.0000 </r>
       <r>  -16.8050    1.0000 </r>
       <r>  -16.8000    1.0000 </r>
       <r>  -16.7914    1.0000 </r>
       <r>  -16.7608    1.0000 </r>
       <r>  -16.7526    1.0000 </r>
       <r>  -16.7496    1.0000 </r>
       <r>  -16.7447    1.0000 </r>
       <r>  -16.7321    1.0000 </r>
       <r>  -16.7285    1.0000 </r>
       <r>  -16.6878    1.0000 </r>
       <r>  -16.6820    1.0000 </r>
       <r>  -16.6727    1.0000 </r>
       <r>  -16.6406    1.0000 </r>
       <r>  -16.6272    1.0000 </r>
       <r>  -16.5735    1.0000 </r>
       <r>  -16.4565    1.0000 </r>
       <r>  -16.4496    1.0000 </r>
       <r>  -16.4068    1.0000 </r>
       <r>  -16.4063    1.0000 </r>
       <r>  -16.3872    1.0000 </r>
       <r>  -16.3773    1.0000 </r>
       <r>  -16.3733    1.0000 </r>
       <r>  -16.3459    1.0000 </r>
       <r>  -16.3346    1.0000 </r>
       <r>  -16.3342    1.0000 </r>
       <r>  -16.3266    1.0000 </r>
       <r>  -16.2950    1.0000 </r>
       <r>  -16.2842    1.0000 </r>
       <r>  -16.2786    1.0000 </r>
       <r>  -16.2741    1.0000 </r>
       <r>  -16.2718    1.0000 </r>
       <r>  -16.2567    1.0000 </r>
       <r>  -16.2555    1.0000 </r>
       <r>  -16.2517    1.0000 </r>
       <r>  -16.2348    1.0000 </r>
       <r>  -14.7018    1.0000 </r>
       <r>  -14.6548    1.0000 </r>
       <r>  -14.2952    1.0000 </r>
       <r>  -14.2463    1.0000 </r>
       <r>  -14.2401    1.0000 </r>
       <r>  -14.1836    1.0000 </r>
       <r>  -14.1572    1.0000 </r>
       <r>  -14.1285    1.0000 </r>
       <r>  -14.1159    1.0000 </r>
       <r>  -14.0942    1.0000 </r>
       <r>  -14.0810    1.0000 </r>
       <r>  -14.0590    1.0000 </r>
       <r>  -13.9819    1.0000 </r>
       <r>  -13.9747    1.0000 </r>
       <r>  -13.9445    1.0000 </r>
       <r>  -13.9330    1.0000 </r>
       <r>  -13.8834    1.0000 </r>
       <r>  -13.8487    1.0000 </r>
       <r>  -13.8134    1.0000 </r>
       <r>  -13.7744    1.0000 </r>
       <r>  -13.6597    1.0000 </r>
       <r>  -13.6510    1.0000 </r>
       <r>  -13.3543    1.0000 </r>
       <r>   -8.1605    1.0000 </r>
       <r>   -8.0352    1.0000 </r>
       <r>   -7.7686    1.0000 </r>
       <r>   -7.6203    1.0000 </r>
       <r>   -7.5074    1.0000 </r>
       <r>   -7.4415    1.0000 </r>
       <r>   -7.3393    1.0000 </r>
       <r>   -7.3039    1.0000 </r>
       <r>   -7.2881    1.0000 </r>
       <r>   -7.2818    1.0000 </r>
       <r>   -7.2741    1.0000 </r>
       <r>   -7.2696    1.0000 </r>
       <r>   -7.2578    1.0000 </r>
       <r>   -7.2448    1.0000 </r>
       <r>   -7.2443    1.0000 </r>
       <r>   -7.2308    1.0000 </r>
       <r>   -7.2270    1.0000 </r>
       <r>   -7.2247    1.0000 </r>
       <r>   -7.2162    1.0000 </r>
       <r>   -7.2049    1.0000 </r>
       <r>   -7.1923    1.0000 </r>
       <r>   -7.1716    1.0000 </r>
       <r>   -7.1583    1.0000 </r>
       <r>   -7.1455    1.0000 </r>
       <r>   -7.0774    1.0000 </r>
       <r>   -7.0637    1.0000 </r>
       <r>   -7.0352    1.0000 </r>
       <r>   -7.0083    1.0000 </r>
       <r>   -6.8976    1.0000 </r>
       <r>   -6.5997    1.0000 </r>
       <r>   -6.3719    1.0000 </r>
       <r>   -6.3150    1.0000 </r>
       <r>   -3.3221    1.0000 </r>
       <r>   -3.2998    1.0000 </r>
       <r>   -3.2762    1.0000 </r>
       <r>   -3.2103    1.0000 </r>
       <r>   -3.1524    1.0000 </r>
       <r>   -3.1086    1.0000 </r>
       <r>   -3.0734    1.0000 </r>
       <r>   -3.0546    1.0000 </r>
       <r>   -2.9995    1.0000 </r>
       <r>   -2.6504    1.0000 </r>
       <r>   -2.5594    1.0000 </r>
       <r>   -2.4928    1.0000 </r>
       <r>   -2.3873    1.0000 </r>
       <r>   -2.3729    1.0000 </r>
       <r>   -2.2823    1.0000 </r>
       <r>   -2.2762    1.0000 </r>
       <r>   -2.2198    1.0000 </r>
       <r>   -2.1463    1.0000 </r>
       <r>   -2.0978    1.0000 </r>
       <r>   -2.0025    1.0000 </r>
       <r>   -1.9668    1.0000 </r>
       <r>   -1.9252    1.0000 </r>
       <r>   -1.8681    1.0000 </r>
       <r>   -1.8573    1.0000 </r>
       <r>   -1.8068    1.0000 </r>
       <r>   -1.7507    1.0000 </r>
       <r>   -1.7475    1.0000 </r>
       <r>   -1.7025    1.0000 </r>
       <r>   -1.6847    1.0000 </r>
       <r>   -1.6236    1.0000 </r>
       <r>   -1.5895    1.0000 </r>
       <r>   -1.5667    1.0000 </r>
       <r>   -1.5351    1.0000 </r>
       <r>   -1.5192    1.0000 </r>
       <r>   -1.4910    1.0000 </r>
       <r>   -1.4797    1.0000 </r>
       <r>   -1.4702    1.0000 </r>
       <r>   -1.4549    1.0000 </r>
       <r>   -1.4352    1.0000 </r>
       <r>   -1.4194    1.0000 </r>
       <r>   -1.4108    1.0000 </r>
       <r>   -1.4020    1.0000 </r>
       <r>   -1.3752    1.0000 </r>
       <r>   -1.3554    1.0000 </r>
       <r>   -1.3297    1.0000 </r>
       <r>   -1.3178    1.0000 </r>
       <r>   -1.2946    1.0000 </r>
       <r>   -1.2809    1.0000 </r>
       <r>   -1.2604    1.0000 </r>
       <r>   -1.2397    1.0000 </r>
       <r>   -1.2011    1.0000 </r>
       <r>   -1.1725    1.0000 </r>
       <r>   -1.1487    1.0000 </r>
       <r>   -1.1321    1.0000 </r>
       <r>   -1.0957    1.0000 </r>
       <r>   -1.0563    1.0000 </r>
       <r>   -1.0414    1.0000 </r>
       <r>   -1.0018    1.0000 </r>
       <r>   -0.9636    1.0000 </r>
       <r>   -0.8960    1.0000 </r>
       <r>   -0.8225    1.0000 </r>
       <r>   -0.7031    1.0000 </r>
       <r>   -0.6504    1.0000 </r>
       <r>   -0.6389    1.0000 </r>
       <r>   -0.5951    1.0000 </r>
       <r>   -0.2621    1.0000 </r>
       <r>   -0.0109    1.0000 </r>
       <r>    0.1766    1.0000 </r>
       <r>    1.9271    1.0000 </r>
       <r>    2.2418    0.0000 </r>
       <r>    2.6025    0.0000 </r>
       <r>    2.7694    0.0000 </r>
       <r>    2.8736    0.0000 </r>
       <r>    3.0115    0.0000 </r>
       <r>    3.1153    0.0000 </r>
       <r>    3.1626    0.0000 </r>
       <r>    3.3420    0.0000 </r>
       <r>    3.3663    0.0000 </r>
       <r>    3.7306    0.0000 </r>
       <r>    3.9826    0.0000 </r>
       <r>    4.3741    0.0000 </r>
       <r>    4.4191    0.0000 </r>
       <r>    4.5341    0.0000 </r>
       <r>    4.6393    0.0000 </r>
       <r>    4.7837    0.0000 </r>
       <r>    4.8644    0.0000 </r>
       <r>    5.3918    0.0000 </r>
       <r>    5.5497    0.0000 </r>
       <r>    5.5631    0.0000 </r>
       <r>    5.6409    0.0000 </r>
       <r>    5.6979    0.0000 </r>
       <r>    5.8193    0.0000 </r>
       <r>    5.8889    0.0000 </r>
       <r>    6.0403    0.0000 </r>
       <r>    6.1053    0.0000 </r>
       <r>    6.1535    0.0000 </r>
       <r>    6.1866    0.0000 </r>
       <r>    6.2283    0.0000 </r>
       <r>    6.2868    0.0000 </r>
       <r>    6.3171    0.0000 </r>
       <r>    6.3797    0.0000 </r>
       <r>    6.4865    0.0000 </r>
       <r>    6.5193    0.0000 </r>
       <r>    6.5851    0.0000 </r>
       <r>    6.6205    0.0000 </r>
      </set>
      <set comment="kpoint 4">
       <r>  -20.9036    1.0000 </r>
       <r>  -20.8714    1.0000 </r>
       <r>  -20.8496    1.0000 </r>
       <r>  -20.8242    1.0000 </r>
       <r>  -20.8047    1.0000 </r>
       <r>  -20.7852    1.0000 </r>
       <r>  -20.6327    1.0000 </r>
       <r>  -20.0656    1.0000 </r>
       <r>  -16.9183    1.0000 </r>
       <r>  -16.8676    1.0000 </r>
       <r>  -16.8490    1.0000 </r>
       <r>  -16.8429    1.0000 </r>
       <r>  -16.8056    1.0000 </r>
       <r>  -16.8050    1.0000 </r>
       <r>  -16.8000    1.0000 </r>
       <r>  -16.7866    1.0000 </r>
       <r>  -16.7609    1.0000 </r>
       <r>  -16.7526    1.0000 </r>
       <r>  -16.7490    1.0000 </r>
       <r>  -16.7447    1.0000 </r>
       <r>  -16.7350    1.0000 </r>
       <r>  -16.7286    1.0000 </r>
       <r>  -16.6877    1.0000 </r>
       <r>  -16.6857    1.0000 </r>
       <r>  -16.6727    1.0000 </r>
       <r>  -16.6407    1.0000 </r>
       <r>  -16.6273    1.0000 </r>
       <r>  -16.5735    1.0000 </r>
       <r>  -16.4585    1.0000 </r>
       <r>  -16.4500    1.0000 </r>
       <r>  -16.4084    1.0000 </r>
       <r>  -16.3985    1.0000 </r>
       <r>  -16.3875    1.0000 </r>
       <r>  -16.3739    1.0000 </r>
       <r>  -16.3624    1.0000 </r>
       <r>  -16.3572    1.0000 </r>
       <r>  -16.3460    1.0000 </r>
       <r>  -16.3345    1.0000 </r>
       <r>  -16.3266    1.0000 </r>
       <r>  -16.2950    1.0000 </r>
       <r>  -16.2843    1.0000 </r>
       <r>  -16.2787    1.0000 </r>
       <r>  -16.2741    1.0000 </r>
       <r>  -16.2718    1.0000 </r>
       <r>  -16.2567    1.0000 </r>
       <r>  -16.2556    1.0000 </r>
       <r>  -16.2517    1.0000 </r>
       <r>  -16.2349    1.0000 </r>
       <r>  -14.6991    1.0000 </r>
       <r>  -14.6589    1.0000 </r>
       <r>  -14.2815    1.0000 </r>
       <r>  -14.2567    1.0000 </r>
       <r>  -14.2395    1.0000 </r>
       <r>  -14.2079    1.0000 </r>
       <r>  -14.1842    1.0000 </r>
       <r>  -14.1589    1.0000 </r>
       <r>  -14.1017    1.0000 </r>
       <r>  -14.0809    1.0000 </r>
       <r>  -14.0642    1.0000 </r>
       <r>  -14.0184    1.0000 </r>
       <r>  -13.9831    1.0000 </r>
       <r>  -13.9684    1.0000 </r>
       <r>  -13.9435    1.0000 </r>
       <r>  -13.9014    1.0000 </r>
       <r>  -13.8798    1.0000 </r>
       <r>  -13.8556    1.0000 </r>
       <r>  -13.8266    1.0000 </r>
       <r>  -13.7591    1.0000 </r>
       <r>  -13.6829    1.0000 </r>
       <r>  -13.6660    1.0000 </r>
       <r>  -13.3541    1.0000 </r>
       <r>   -8.0079    1.0000 </r>
       <r>   -7.9613    1.0000 </r>
       <r>   -7.7255    1.0000 </r>
       <r>   -7.7074    1.0000 </r>
       <r>   -7.6175    1.0000 </r>
       <r>   -7.3503    1.0000 </r>
       <r>   -7.3402    1.0000 </r>
       <r>   -7.3087    1.0000 </r>
       <r>   -7.2867    1.0000 </r>
       <r>   -7.2809    1.0000 </r>
       <r>   -7.2762    1.0000 </r>
       <r>   -7.2679    1.0000 </r>
       <r>   -7.2657    1.0000 </r>
       <r>   -7.2584    1.0000 </r>
       <r>   -7.2459    1.0000 </r>
       <r>   -7.2390    1.0000 </r>
       <r>   -7.2333    1.0000 </r>
       <r>   -7.2248    1.0000 </r>
       <r>   -7.2173    1.0000 </r>
       <r>   -7.2003    1.0000 </r>
       <r>   -7.1994    1.0000 </r>
       <r>   -7.1767    1.0000 </r>
       <r>   -7.1684    1.0000 </r>
       <r>   -7.1552    1.0000 </r>
       <r>   -7.1423    1.0000 </r>
       <r>   -7.1368    1.0000 </r>
       <r>   -7.0666    1.0000 </r>
       <r>   -7.0352    1.0000 </r>
       <r>   -7.0053    1.0000 </r>
       <r>   -6.6053    1.0000 </r>
       <r>   -6.3717    1.0000 </r>
       <r>   -6.3148    1.0000 </r>
       <r>   -3.2691    1.0000 </r>
       <r>   -3.1691    1.0000 </r>
       <r>   -3.1205    1.0000 </r>
       <r>   -3.0991    1.0000 </r>
       <r>   -3.0772    1.0000 </r>
       <r>   -2.7678    1.0000 </r>
       <r>   -2.6827    1.0000 </r>
       <r>   -2.6804    1.0000 </r>
       <r>   -2.6431    1.0000 </r>
       <r>   -2.5940    1.0000 </r>
       <r>   -2.5254    1.0000 </r>
       <r>   -2.4865    1.0000 </r>
       <r>   -2.4593    1.0000 </r>
       <r>   -2.4008    1.0000 </r>
       <r>   -2.3575    1.0000 </r>
       <r>   -2.3451    1.0000 </r>
       <r>   -2.2797    1.0000 </r>
       <r>   -2.2741    1.0000 </r>
       <r>   -2.2172    1.0000 </r>
       <r>   -2.1039    1.0000 </r>
       <r>   -2.0470    1.0000 </r>
       <r>   -1.9701    1.0000 </r>
       <r>   -1.9464    1.0000 </r>
       <r>   -1.9014    1.0000 </r>
       <r>   -1.8762    1.0000 </r>
       <r>   -1.8660    1.0000 </r>
       <r>   -1.7667    1.0000 </r>
       <r>   -1.7628    1.0000 </r>
       <r>   -1.6998    1.0000 </r>
       <r>   -1.6805    1.0000 </r>
       <r>   -1.6716    1.0000 </r>
       <r>   -1.6353    1.0000 </r>
       <r>   -1.6161    1.0000 </r>
       <r>   -1.5897    1.0000 </r>
       <r>   -1.5668    1.0000 </r>
       <r>   -1.5439    1.0000 </r>
       <r>   -1.4933    1.0000 </r>
       <r>   -1.4871    1.0000 </r>
       <r>   -1.4642    1.0000 </r>
       <r>   -1.4533    1.0000 </r>
       <r>   -1.4116    1.0000 </r>
       <r>   -1.3959    1.0000 </r>
       <r>   -1.3765    1.0000 </r>
       <r>   -1.3615    1.0000 </r>
       <r>   -1.3167    1.0000 </r>
       <r>   -1.3039    1.0000 </r>
       <r>   -1.2968    1.0000 </r>
       <r>   -1.2690    1.0000 </r>
       <r>   -1.2446    1.0000 </r>
       <r>   -1.2100    1.0000 </r>
       <r>   -1.1870    1.0000 </r>
       <r>   -1.1761    1.0000 </r>
       <r>   -1.1581    1.0000 </r>
       <r>   -1.1161    1.0000 </r>
       <r>   -1.1030    1.0000 </r>
       <r>   -1.0872    1.0000 </r>
       <r>   -1.0648    1.0000 </r>
       <r>   -1.0420    1.0000 </r>
       <r>   -1.0251    1.0000 </r>
       <r>   -0.9494    1.0000 </r>
       <r>   -0.9129    1.0000 </r>
       <r>   -0.8503    1.0000 </r>
       <r>   -0.8349    1.0000 </r>
       <r>   -0.6424    1.0000 </r>
       <r>   -0.5594    1.0000 </r>
       <r>   -0.4862    1.0000 </r>
       <r>   -0.4263    1.0000 </r>
       <r>    0.1656    1.0000 </r>
       <r>    1.9257    1.0000 </r>
       <r>    2.2950    0.0000 </r>
       <r>    2.6179    0.0000 </r>
       <r>    2.9381    0.0000 </r>
       <r>    3.1761    0.0000 </r>
       <r>    3.2040    0.0000 </r>
       <r>    3.7077    0.0000 </r>
       <r>    3.9097    0.0000 </r>
       <r>    4.1647    0.0000 </r>
       <r>    4.2581    0.0000 </r>
       <r>    4.3148    0.0000 </r>
       <r>    4.3503    0.0000 </r>
       <r>    4.3751    0.0000 </r>
       <r>    4.4162    0.0000 </r>
       <r>    4.4993    0.0000 </r>
       <r>    4.5262    0.0000 </r>
       <r>    4.6092    0.0000 </r>
       <r>    4.6782    0.0000 </r>
       <r>    4.7022    0.0000 </r>
       <r>    4.7360    0.0000 </r>
       <r>    4.7747    0.0000 </r>
       <r>    4.8196    0.0000 </r>
       <r>    5.6505    0.0000 </r>
       <r>    5.6638    0.0000 </r>
       <r>    5.8669    0.0000 </r>
       <r>    5.9104    0.0000 </r>
       <r>    5.9476    0.0000 </r>
       <r>    6.0210    0.0000 </r>
       <r>    6.0629    0.0000 </r>
       <r>    6.2146    0.0000 </r>
       <r>    6.2434    0.0000 </r>
       <r>    6.3102    0.0000 </r>
       <r>    6.3341    0.0000 </r>
       <r>    6.4103    0.0000 </r>
       <r>    6.4662    0.0000 </r>
       <r>    6.5023    0.0000 </r>
       <r>    6.5471    0.0000 </r>
      </set>
      <set comment="kpoint 5">
       <r>  -20.9036    1.0000 </r>
       <r>  -20.8714    1.0000 </r>
       <r>  -20.8496    1.0000 </r>
       <r>  -20.8243    1.0000 </r>
       <r>  -20.8046    1.0000 </r>
       <r>  -20.7852    1.0000 </r>
       <r>  -20.6327    1.0000 </r>
       <r>  -20.0656    1.0000 </r>
       <r>  -16.9187    1.0000 </r>
       <r>  -16.8679    1.0000 </r>
       <r>  -16.8514    1.0000 </r>
       <r>  -16.8444    1.0000 </r>
       <r>  -16.8058    1.0000 </r>
       <r>  -16.8050    1.0000 </r>
       <r>  -16.8000    1.0000 </r>
       <r>  -16.7927    1.0000 </r>
       <r>  -16.7609    1.0000 </r>
       <r>  -16.7526    1.0000 </r>
       <r>  -16.7497    1.0000 </r>
       <r>  -16.7447    1.0000 </r>
       <r>  -16.7318    1.0000 </r>
       <r>  -16.7285    1.0000 </r>
       <r>  -16.6878    1.0000 </r>
       <r>  -16.6806    1.0000 </r>
       <r>  -16.6727    1.0000 </r>
       <r>  -16.6406    1.0000 </r>
       <r>  -16.6271    1.0000 </r>
       <r>  -16.5735    1.0000 </r>
       <r>  -16.4545    1.0000 </r>
       <r>  -16.4378    1.0000 </r>
       <r>  -16.4233    1.0000 </r>
       <r>  -16.4052    1.0000 </r>
       <r>  -16.3939    1.0000 </r>
       <r>  -16.3855    1.0000 </r>
       <r>  -16.3585    1.0000 </r>
       <r>  -16.3460    1.0000 </r>
       <r>  -16.3345    1.0000 </r>
       <r>  -16.3313    1.0000 </r>
       <r>  -16.3266    1.0000 </r>
       <r>  -16.2950    1.0000 </r>
       <r>  -16.2843    1.0000 </r>
       <r>  -16.2787    1.0000 </r>
       <r>  -16.2741    1.0000 </r>
       <r>  -16.2718    1.0000 </r>
       <r>  -16.2568    1.0000 </r>
       <r>  -16.2555    1.0000 </r>
       <r>  -16.2517    1.0000 </r>
       <r>  -16.2349    1.0000 </r>
       <r>  -14.7008    1.0000 </r>
       <r>  -14.6554    1.0000 </r>
       <r>  -14.2903    1.0000 </r>
       <r>  -14.2557    1.0000 </r>
       <r>  -14.2242    1.0000 </r>
       <r>  -14.1789    1.0000 </r>
       <r>  -14.1554    1.0000 </r>
       <r>  -14.1415    1.0000 </r>
       <r>  -14.1344    1.0000 </r>
       <r>  -14.1003    1.0000 </r>
       <r>  -14.0711    1.0000 </r>
       <r>  -14.0480    1.0000 </r>
       <r>  -14.0077    1.0000 </r>
       <r>  -13.9646    1.0000 </r>
       <r>  -13.9597    1.0000 </r>
       <r>  -13.9258    1.0000 </r>
       <r>  -13.8725    1.0000 </r>
       <r>  -13.8359    1.0000 </r>
       <r>  -13.8134    1.0000 </r>
       <r>  -13.7666    1.0000 </r>
       <r>  -13.6768    1.0000 </r>
       <r>  -13.6450    1.0000 </r>
       <r>  -13.3536    1.0000 </r>
       <r>   -8.1865    1.0000 </r>
       <r>   -8.0476    1.0000 </r>
       <r>   -7.7590    1.0000 </r>
       <r>   -7.5924    1.0000 </r>
       <r>   -7.5373    1.0000 </r>
       <r>   -7.4211    1.0000 </r>
       <r>   -7.3404    1.0000 </r>
       <r>   -7.3031    1.0000 </r>
       <r>   -7.2970    1.0000 </r>
       <r>   -7.2775    1.0000 </r>
       <r>   -7.2752    1.0000 </r>
       <r>   -7.2728    1.0000 </r>
       <r>   -7.2585    1.0000 </r>
       <r>   -7.2454    1.0000 </r>
       <r>   -7.2426    1.0000 </r>
       <r>   -7.2314    1.0000 </r>
       <r>   -7.2282    1.0000 </r>
       <r>   -7.2230    1.0000 </r>
       <r>   -7.2149    1.0000 </r>
       <r>   -7.2039    1.0000 </r>
       <r>   -7.1893    1.0000 </r>
       <r>   -7.1710    1.0000 </r>
       <r>   -7.1575    1.0000 </r>
       <r>   -7.1433    1.0000 </r>
       <r>   -7.0809    1.0000 </r>
       <r>   -7.0567    1.0000 </r>
       <r>   -7.0312    1.0000 </r>
       <r>   -7.0040    1.0000 </r>
       <r>   -6.8546    1.0000 </r>
       <r>   -6.5995    1.0000 </r>
       <r>   -6.3717    1.0000 </r>
       <r>   -6.3153    1.0000 </r>
       <r>   -3.4004    1.0000 </r>
       <r>   -3.3269    1.0000 </r>
       <r>   -3.2891    1.0000 </r>
       <r>   -3.2727    1.0000 </r>
       <r>   -3.2077    1.0000 </r>
       <r>   -3.1796    1.0000 </r>
       <r>   -3.0660    1.0000 </r>
       <r>   -3.0630    1.0000 </r>
       <r>   -3.0120    1.0000 </r>
       <r>   -2.6374    1.0000 </r>
       <r>   -2.5029    1.0000 </r>
       <r>   -2.4919    1.0000 </r>
       <r>   -2.4040    1.0000 </r>
       <r>   -2.3814    1.0000 </r>
       <r>   -2.2897    1.0000 </r>
       <r>   -2.2521    1.0000 </r>
       <r>   -2.2316    1.0000 </r>
       <r>   -2.1409    1.0000 </r>
       <r>   -2.0885    1.0000 </r>
       <r>   -1.9812    1.0000 </r>
       <r>   -1.9409    1.0000 </r>
       <r>   -1.9209    1.0000 </r>
       <r>   -1.8559    1.0000 </r>
       <r>   -1.8041    1.0000 </r>
       <r>   -1.7837    1.0000 </r>
       <r>   -1.7361    1.0000 </r>
       <r>   -1.7109    1.0000 </r>
       <r>   -1.6945    1.0000 </r>
       <r>   -1.6567    1.0000 </r>
       <r>   -1.6383    1.0000 </r>
       <r>   -1.5876    1.0000 </r>
       <r>   -1.5719    1.0000 </r>
       <r>   -1.5390    1.0000 </r>
       <r>   -1.5278    1.0000 </r>
       <r>   -1.5249    1.0000 </r>
       <r>   -1.4844    1.0000 </r>
       <r>   -1.4625    1.0000 </r>
       <r>   -1.4520    1.0000 </r>
       <r>   -1.4376    1.0000 </r>
       <r>   -1.4292    1.0000 </r>
       <r>   -1.4271    1.0000 </r>
       <r>   -1.4130    1.0000 </r>
       <r>   -1.3671    1.0000 </r>
       <r>   -1.3533    1.0000 </r>
       <r>   -1.3299    1.0000 </r>
       <r>   -1.3198    1.0000 </r>
       <r>   -1.2983    1.0000 </r>
       <r>   -1.2718    1.0000 </r>
       <r>   -1.2587    1.0000 </r>
       <r>   -1.2195    1.0000 </r>
       <r>   -1.2123    1.0000 </r>
       <r>   -1.1949    1.0000 </r>
       <r>   -1.1501    1.0000 </r>
       <r>   -1.1377    1.0000 </r>
       <r>   -1.0929    1.0000 </r>
       <r>   -1.0517    1.0000 </r>
       <r>   -1.0280    1.0000 </r>
       <r>   -0.9883    1.0000 </r>
       <r>   -0.8989    1.0000 </r>
       <r>   -0.8653    1.0000 </r>
       <r>   -0.8578    1.0000 </r>
       <r>   -0.6793    1.0000 </r>
       <r>   -0.6504    1.0000 </r>
       <r>   -0.6223    1.0000 </r>
       <r>   -0.5127    1.0000 </r>
       <r>   -0.2195    1.0000 </r>
       <r>    0.0200    1.0000 </r>
       <r>    0.1675    1.0000 </r>
       <r>    1.9191    1.0000 </r>
       <r>    2.3006    0.0000 </r>
       <r>    2.5488    0.0000 </r>
       <r>    2.7489    0.0000 </r>
       <r>    2.8523    0.0000 </r>
       <r>    2.9204    0.0000 </r>
       <r>    3.0404    0.0000 </r>
       <r>    3.1457    0.0000 </r>
       <r>    3.2905    0.0000 </r>
       <r>    3.3699    0.0000 </r>
       <r>    3.5920    0.0000 </r>
       <r>    4.0846    0.0000 </r>
       <r>    4.3257    0.0000 </r>
       <r>    4.3588    0.0000 </r>
       <r>    4.5343    0.0000 </r>
       <r>    4.6039    0.0000 </r>
       <r>    4.6966    0.0000 </r>
       <r>    4.8075    0.0000 </r>
       <r>    5.4137    0.0000 </r>
       <r>    5.5341    0.0000 </r>
       <r>    5.5695    0.0000 </r>
       <r>    5.6291    0.0000 </r>
       <r>    5.8055    0.0000 </r>
       <r>    5.8777    0.0000 </r>
       <r>    6.0175    0.0000 </r>
       <r>    6.0529    0.0000 </r>
       <r>    6.1233    0.0000 </r>
       <r>    6.1706    0.0000 </r>
       <r>    6.1877    0.0000 </r>
       <r>    6.2006    0.0000 </r>
       <r>    6.2311    0.0000 </r>
       <r>    6.3301    0.0000 </r>
       <r>    6.3849    0.0000 </r>
       <r>    6.4140    0.0000 </r>
       <r>    6.4720    0.0000 </r>
       <r>    6.4872    0.0000 </r>
       <r>    6.6002    0.0000 </r>
      </set>
      <set comment="kpoint 6">
       <r>  -20.9036    1.0000 </r>
       <r>  -20.8714    1.0000 </r>
       <r>  -20.8495    1.0000 </r>
       <r>  -20.8243    1.0000 </r>
       <r>  -20.8047    1.0000 </r>
       <r>  -20.7852    1.0000 </r>
       <r>  -20.6327    1.0000 </r>
       <r>  -20.0656    1.0000 </r>
       <r>  -16.9185    1.0000 </r>
       <r>  -16.8674    1.0000 </r>
       <r>  -16.8504    1.0000 </r>
       <r>  -16.8435    1.0000 </r>
       <r>  -16.8050    1.0000 </r>
       <r>  -16.8044    1.0000 </r>
       <r>  -16.8000    1.0000 </r>
       <r>  -16.7880    1.0000 </r>
       <r>  -16.7609    1.0000 </r>
       <r>  -16.7526    1.0000 </r>
       <r>  -16.7491    1.0000 </r>
       <r>  -16.7447    1.0000 </r>
       <r>  -16.7346    1.0000 </r>
       <r>  -16.7285    1.0000 </r>
       <r>  -16.6877    1.0000 </r>
       <r>  -16.6842    1.0000 </r>
       <r>  -16.6727    1.0000 </r>
       <r>  -16.6406    1.0000 </r>
       <r>  -16.6272    1.0000 </r>
       <r>  -16.5735    1.0000 </r>
       <r>  -16.4566    1.0000 </r>
       <r>  -16.4382    1.0000 </r>
       <r>  -16.4236    1.0000 </r>
       <r>  -16.3991    1.0000 </r>
       <r>  -16.3955    1.0000 </r>
       <r>  -16.3706    1.0000 </r>
       <r>  -16.3669    1.0000 </r>
       <r>  -16.3459    1.0000 </r>
       <r>  -16.3447    1.0000 </r>
       <r>  -16.3345    1.0000 </r>
       <r>  -16.3266    1.0000 </r>
       <r>  -16.2950    1.0000 </r>
       <r>  -16.2843    1.0000 </r>
       <r>  -16.2787    1.0000 </r>
       <r>  -16.2741    1.0000 </r>
       <r>  -16.2718    1.0000 </r>
       <r>  -16.2567    1.0000 </r>
       <r>  -16.2556    1.0000 </r>
       <r>  -16.2517    1.0000 </r>
       <r>  -16.2348    1.0000 </r>
       <r>  -14.6980    1.0000 </r>
       <r>  -14.6595    1.0000 </r>
       <r>  -14.2784    1.0000 </r>
       <r>  -14.2556    1.0000 </r>
       <r>  -14.2299    1.0000 </r>
       <r>  -14.2130    1.0000 </r>
       <r>  -14.1728    1.0000 </r>
       <r>  -14.1624    1.0000 </r>
       <r>  -14.1338    1.0000 </r>
       <r>  -14.0877    1.0000 </r>
       <r>  -14.0454    1.0000 </r>
       <r>  -14.0334    1.0000 </r>
       <r>  -13.9823    1.0000 </r>
       <r>  -13.9652    1.0000 </r>
       <r>  -13.9431    1.0000 </r>
       <r>  -13.8970    1.0000 </r>
       <r>  -13.8933    1.0000 </r>
       <r>  -13.8416    1.0000 </r>
       <r>  -13.8088    1.0000 </r>
       <r>  -13.7571    1.0000 </r>
       <r>  -13.6959    1.0000 </r>
       <r>  -13.6654    1.0000 </r>
       <r>  -13.3537    1.0000 </r>
       <r>   -8.0617    1.0000 </r>
       <r>   -7.9188    1.0000 </r>
       <r>   -7.8061    1.0000 </r>
       <r>   -7.7036    1.0000 </r>
       <r>   -7.5430    1.0000 </r>
       <r>   -7.3718    1.0000 </r>
       <r>   -7.3318    1.0000 </r>
       <r>   -7.3147    1.0000 </r>
       <r>   -7.2895    1.0000 </r>
       <r>   -7.2839    1.0000 </r>
       <r>   -7.2806    1.0000 </r>
       <r>   -7.2699    1.0000 </r>
       <r>   -7.2636    1.0000 </r>
       <r>   -7.2479    1.0000 </r>
       <r>   -7.2477    1.0000 </r>
       <r>   -7.2353    1.0000 </r>
       <r>   -7.2309    1.0000 </r>
       <r>   -7.2224    1.0000 </r>
       <r>   -7.2156    1.0000 </r>
       <r>   -7.2080    1.0000 </r>
[...]
        <r>  0.0007  0.0025  0.0009 </r>
        <r>  0.0005  0.0006  0.0004 </r>
        <r>  0.0000  0.0014  0.0006 </r>
        <r>  0.0001  0.0034  0.0006 </r>
        <r>  0.0000  0.0049  0.0005 </r>
        <r>  0.0000  0.0045  0.0008 </r>
        <r>  0.0007  0.0008  0.0002 </r>
        <r>  0.0029  0.0066  0.0023 </r>
        <r>  0.0000  0.0008  0.0007 </r>
       </set>
       <set comment="band 199">
        <r>  0.0037  0.0010  0.0060 </r>
        <r>  0.0007  0.0019  0.0053 </r>
        <r>  0.0004  0.0003  0.0032 </r>
        <r>  0.0028  0.0009  0.0059 </r>
        <r>  0.0055  0.0007  0.0104 </r>
        <r>  0.0040  0.0009  0.0094 </r>
        <r>  0.0003  0.0005  0.0046 </r>
        <r>  0.0028  0.0003  0.0086 </r>
        <r>  0.0000  0.0009  0.0002 </r>
        <r>  0.0007  0.0041  0.0002 </r>
        <r>  0.0000  0.0052  0.0001 </r>
        <r>  0.0000  0.0138  0.0001 </r>
        <r>  0.0000  0.0012  0.0002 </r>
        <r>  0.0000  0.0015  0.0001 </r>
        <r>  0.0000  0.0010  0.0002 </r>
        <r>  0.0005  0.0129  0.0002 </r>
        <r>  0.0000  0.0039  0.0007 </r>
        <r>  0.0001  0.0018  0.0001 </r>
        <r>  0.0001  0.0002  0.0020 </r>
        <r>  0.0087  0.0087  0.0036 </r>
        <r>  0.0000  0.0015  0.0014 </r>
        <r>  0.0001  0.0038  0.0008 </r>
        <r>  0.0001  0.0024  0.0006 </r>
        <r>  0.0004  0.0004  0.0018 </r>
        <r>  0.0004  0.0016  0.0008 </r>
        <r>  0.0000  0.0018  0.0004 </r>
        <r>  0.0013  0.0020  0.0015 </r>
        <r>  0.0000  0.0014  0.0004 </r>
        <r>  0.0000  0.0003  0.0001 </r>
        <r>  0.0021  0.0021  0.0025 </r>
        <r>  0.0000  0.0017  0.0002 </r>
        <r>  0.0011  0.0093  0.0012 </r>
        <r>  0.0025  0.0026  0.0012 </r>
        <r>  0.0005  0.0015  0.0001 </r>
        <r>  0.0000  0.0001  0.0004 </r>
        <r>  0.0001  0.0016  0.0003 </r>
        <r>  0.0000  0.0014  0.0004 </r>
        <r>  0.0001  0.0006  0.0013 </r>
        <r>  0.0000  0.0006  0.0009 </r>
       </set>
       <set comment="band 200">
        <r>  0.0009  0.0008  0.0055 </r>
        <r>  0.0000  0.0005  0.0037 </r>
        <r>  0.0137  0.0001  0.0176 </r>
        <r>  0.0008  0.0000  0.0083 </r>
        <r>  0.0013  0.0004  0.0079 </r>
        <r>  0.0005  0.0002  0.0017 </r>
        <r>  0.0000  0.0009  0.0011 </r>
        <r>  0.0050  0.0024  0.0081 </r>
        <r>  0.0000  0.0025  0.0001 </r>
        <r>  0.0000  0.0133  0.0006 </r>
        <r>  0.0000  0.0019  0.0001 </r>
        <r>  0.0000  0.0001  0.0001 </r>
        <r>  0.0000  0.0039  0.0000 </r>
        <r>  0.0000  0.0081  0.0002 </r>
        <r>  0.0000  0.0029  0.0003 </r>
        <r>  0.0003  0.0095  0.0008 </r>
        <r>  0.0021  0.0013  0.0005 </r>
        <r>  0.0003  0.0044  0.0026 </r>
        <r>  0.0000  0.0005  0.0005 </r>
        <r>  0.0014  0.0094  0.0014 </r>
        <r>  0.0001  0.0053  0.0021 </r>
        <r>  0.0001  0.0016  0.0002 </r>
        <r>  0.0001  0.0013  0.0004 </r>
        <r>  0.0002  0.0021  0.0002 </r>
        <r>  0.0004  0.0028  0.0006 </r>
        <r>  0.0031  0.0026  0.0029 </r>
        <r>  0.0001  0.0023  0.0004 </r>
        <r>  0.0002  0.0006  0.0012 </r>
        <r>  0.0006  0.0021  0.0009 </r>
        <r>  0.0002  0.0009  0.0010 </r>
        <r>  0.0005  0.0010  0.0009 </r>
        <r>  0.0000  0.0005  0.0006 </r>
        <r>  0.0013  0.0054  0.0019 </r>
        <r>  0.0003  0.0005  0.0002 </r>
        <r>  0.0007  0.0018  0.0009 </r>
        <r>  0.0011  0.0014  0.0023 </r>
        <r>  0.0000  0.0059  0.0007 </r>
        <r>  0.0001  0.0012  0.0006 </r>
        <r>  0.0000  0.0002  0.0002 </r>
       </set>
       <set comment="band 201">
        <r>  0.0000  0.0005  0.0136 </r>
        <r>  0.0174  0.0011  0.0051 </r>
        <r>  0.0003  0.0005  0.0054 </r>
        <r>  0.0000  0.0004  0.0001 </r>
        <r>  0.0036  0.0014  0.0029 </r>
        <r>  0.0002  0.0014  0.0051 </r>
        <r>  0.0005  0.0003  0.0018 </r>
        <r>  0.0000  0.0002  0.0121 </r>
        <r>  0.0000  0.0086  0.0003 </r>
        <r>  0.0000  0.0025  0.0002 </r>
        <r>  0.0000  0.0016  0.0001 </r>
        <r>  0.0000  0.0028  0.0003 </r>
        <r>  0.0000  0.0040  0.0001 </r>
        <r>  0.0001  0.0112  0.0009 </r>
        <r>  0.0000  0.0191  0.0007 </r>
        <r>  0.0002  0.0021  0.0002 </r>
        <r>  0.0000  0.0001  0.0000 </r>
        <r>  0.0000  0.0050  0.0010 </r>
        <r>  0.0018  0.0057  0.0035 </r>
        <r>  0.0004  0.0038  0.0007 </r>
        <r>  0.0000  0.0061  0.0002 </r>
        <r>  0.0002  0.0015  0.0024 </r>
        <r>  0.0028  0.0014  0.0025 </r>
        <r>  0.0010  0.0010  0.0021 </r>
        <r>  0.0012  0.0010  0.0014 </r>
        <r>  0.0006  0.0001  0.0006 </r>
        <r>  0.0002  0.0028  0.0011 </r>
        <r>  0.0003  0.0011  0.0006 </r>
        <r>  0.0005  0.0017  0.0007 </r>
        <r>  0.0003  0.0013  0.0007 </r>
        <r>  0.0002  0.0004  0.0008 </r>
        <r>  0.0006  0.0019  0.0012 </r>
        <r>  0.0002  0.0001  0.0003 </r>
        <r>  0.0005  0.0005  0.0003 </r>
        <r>  0.0008  0.0031  0.0005 </r>
        <r>  0.0005  0.0009  0.0009 </r>
        <r>  0.0007  0.0038  0.0008 </r>
        <r>  0.0001  0.0132  0.0014 </r>
        <r>  0.0008  0.0007  0.0015 </r>
       </set>
       <set comment="band 202">
        <r>  0.0012  0.0003  0.0101 </r>
        <r>  0.0000  0.0008  0.0044 </r>
        <r>  0.0005  0.0010  0.0055 </r>
        <r>  0.0036  0.0012  0.0094 </r>
        <r>  0.0030  0.0012  0.0113 </r>
        <r>  0.0029  0.0005  0.0029 </r>
        <r>  0.0055  0.0014  0.0094 </r>
        <r>  0.0020  0.0005  0.0056 </r>
        <r>  0.0000  0.0018  0.0001 </r>
        <r>  0.0000  0.0025  0.0002 </r>
        <r>  0.0000  0.0020  0.0000 </r>
        <r>  0.0000  0.0014  0.0000 </r>
        <r>  0.0000  0.0030  0.0004 </r>
        <r>  0.0001  0.0071  0.0006 </r>
        <r>  0.0003  0.0153  0.0005 </r>
        <r>  0.0000  0.0069  0.0001 </r>
        <r>  0.0000  0.0031  0.0006 </r>
        <r>  0.0001  0.0057  0.0002 </r>
        <r>  0.0000  0.0089  0.0011 </r>
        <r>  0.0004  0.0029  0.0013 </r>
        <r>  0.0027  0.0007  0.0037 </r>
        <r>  0.0008  0.0002  0.0009 </r>
        <r>  0.0000  0.0046  0.0021 </r>
        <r>  0.0002  0.0014  0.0010 </r>
        <r>  0.0001  0.0002  0.0007 </r>
        <r>  0.0000  0.0008  0.0002 </r>
        <r>  0.0001  0.0042  0.0002 </r>
        <r>  0.0002  0.0012  0.0005 </r>
        <r>  0.0000  0.0030  0.0001 </r>
        <r>  0.0002  0.0028  0.0004 </r>
        <r>  0.0010  0.0012  0.0007 </r>
        <r>  0.0005  0.0001  0.0010 </r>
        <r>  0.0001  0.0010  0.0006 </r>
        <r>  0.0032  0.0023  0.0012 </r>
        <r>  0.0018  0.0000  0.0016 </r>
        <r>  0.0000  0.0009  0.0010 </r>
        <r>  0.0008  0.0015  0.0015 </r>
        <r>  0.0020  0.0058  0.0011 </r>
        <r>  0.0009  0.0006  0.0026 </r>
       </set>
       <set comment="band 203">
        <r>  0.0000  0.0011  0.0028 </r>
        <r>  0.0029  0.0009  0.0007 </r>
        <r>  0.0038  0.0004  0.0060 </r>
        <r>  0.0027  0.0019  0.0007 </r>
        <r>  0.0042  0.0001  0.0122 </r>
        <r>  0.0069  0.0004  0.0065 </r>
        <r>  0.0000  0.0010  0.0059 </r>
        <r>  0.0069  0.0002  0.0081 </r>
        <r>  0.0000  0.0061  0.0002 </r>
        <r>  0.0000  0.0061  0.0004 </r>
        <r>  0.0000  0.0084  0.0000 </r>
        <r>  0.0000  0.0025  0.0001 </r>
        <r>  0.0000  0.0031  0.0002 </r>
        <r>  0.0000  0.0025  0.0003 </r>
        <r>  0.0000  0.0131  0.0002 </r>
        <r>  0.0000  0.0030  0.0002 </r>
        <r>  0.0001  0.0043  0.0004 </r>
        <r>  0.0006  0.0044  0.0005 </r>
        <r>  0.0003  0.0044  0.0008 </r>
        <r>  0.0000  0.0019  0.0011 </r>
        <r>  0.0034  0.0015  0.0038 </r>
        <r>  0.0014  0.0019  0.0024 </r>
        <r>  0.0008  0.0020  0.0020 </r>
        <r>  0.0006  0.0008  0.0008 </r>
        <r>  0.0000  0.0027  0.0005 </r>
        <r>  0.0005  0.0015  0.0013 </r>
        <r>  0.0006  0.0022  0.0012 </r>
        <r>  0.0013  0.0004  0.0024 </r>
        <r>  0.0009  0.0009  0.0008 </r>
        <r>  0.0004  0.0012  0.0018 </r>
        <r>  0.0001  0.0019  0.0005 </r>
        <r>  0.0004  0.0016  0.0006 </r>
        <r>  0.0001  0.0021  0.0002 </r>
        <r>  0.0000  0.0042  0.0009 </r>
        <r>  0.0000  0.0058  0.0005 </r>
        <r>  0.0000  0.0029  0.0008 </r>
        <r>  0.0019  0.0029  0.0012 </r>
        <r>  0.0000  0.0040  0.0006 </r>
        <r>  0.0002  0.0003  0.0013 </r>
       </set>
       <set comment="band 204">
        <r>  0.0004  0.0004  0.0036 </r>
        <r>  0.0003  0.0001  0.0039 </r>
        <r>  0.0003  0.0010  0.0013 </r>
        <r>  0.0009  0.0042  0.0143 </r>
        <r>  0.0001  0.0005  0.0057 </r>
        <r>  0.0015  0.0001  0.0092 </r>
        <r>  0.0056  0.0006  0.0143 </r>
        <r>  0.0066  0.0003  0.0048 </r>
        <r>  0.0000  0.0042  0.0002 </r>
        <r>  0.0000  0.0177  0.0003 </r>
        <r>  0.0000  0.0022  0.0001 </r>
        <r>  0.0000  0.0015  0.0000 </r>
        <r>  0.0000  0.0053  0.0003 </r>
        <r>  0.0001  0.0104  0.0008 </r>
        <r>  0.0000  0.0114  0.0005 </r>
        <r>  0.0000  0.0116  0.0003 </r>
        <r>  0.0015  0.0039  0.0020 </r>
        <r>  0.0014  0.0008  0.0024 </r>
        <r>  0.0000  0.0017  0.0005 </r>
        <r>  0.0002  0.0059  0.0003 </r>
        <r>  0.0003  0.0059  0.0010 </r>
        <r>  0.0006  0.0020  0.0013 </r>
        <r>  0.0001  0.0026  0.0011 </r>
        <r>  0.0002  0.0010  0.0006 </r>
        <r>  0.0000  0.0016  0.0004 </r>
        <r>  0.0002  0.0038  0.0015 </r>
        <r>  0.0017  0.0028  0.0021 </r>
        <r>  0.0001  0.0006  0.0002 </r>
        <r>  0.0000  0.0013  0.0003 </r>
        <r>  0.0001  0.0005  0.0006 </r>
        <r>  0.0004  0.0001  0.0005 </r>
        <r>  0.0000  0.0010  0.0001 </r>
        <r>  0.0005  0.0031  0.0019 </r>
        <r>  0.0003  0.0024  0.0006 </r>
        <r>  0.0000  0.0008  0.0004 </r>
        <r>  0.0001  0.0026  0.0012 </r>
        <r>  0.0004  0.0045  0.0007 </r>
        <r>  0.0013  0.0023  0.0029 </r>
        <r>  0.0012  0.0008  0.0025 </r>
       </set>
       <set comment="band 205">
        <r>  0.0009  0.0007  0.0188 </r>
        <r>  0.0045  0.0006  0.0022 </r>
        <r>  0.0014  0.0001  0.0060 </r>
        <r>  0.0000  0.0002  0.0192 </r>
        <r>  0.0001  0.0002  0.0253 </r>
        <r>  0.0000  0.0007  0.0073 </r>
        <r>  0.0007  0.0003  0.0053 </r>
        <r>  0.0006  0.0008  0.0182 </r>
        <r>  0.0000  0.0067  0.0006 </r>
        <r>  0.0000  0.0051  0.0009 </r>
        <r>  0.0000  0.0053  0.0001 </r>
        <r>  0.0000  0.0022  0.0003 </r>
        <r>  0.0000  0.0001  0.0002 </r>
        <r>  0.0000  0.0054  0.0003 </r>
        <r>  0.0000  0.0012  0.0005 </r>
        <r>  0.0000  0.0072  0.0008 </r>
        <r>  0.0000  0.0015  0.0003 </r>
        <r>  0.0006  0.0013  0.0002 </r>
        <r>  0.0006  0.0002  0.0008 </r>
        <r>  0.0001  0.0002  0.0024 </r>
        <r>  0.0002  0.0008  0.0008 </r>
        <r>  0.0001  0.0019  0.0017 </r>
        <r>  0.0004  0.0006  0.0006 </r>
        <r>  0.0000  0.0013  0.0025 </r>
        <r>  0.0000  0.0009  0.0007 </r>
        <r>  0.0012  0.0040  0.0019 </r>
        <r>  0.0022  0.0002  0.0024 </r>
        <r>  0.0000  0.0001  0.0017 </r>
        <r>  0.0000  0.0016  0.0003 </r>
        <r>  0.0002  0.0025  0.0029 </r>
        <r>  0.0000  0.0014  0.0028 </r>
        <r>  0.0007  0.0010  0.0013 </r>
        <r>  0.0002  0.0029  0.0009 </r>
        <r>  0.0005  0.0012  0.0012 </r>
        <r>  0.0000  0.0005  0.0008 </r>
        <r>  0.0005  0.0047  0.0021 </r>
        <r>  0.0002  0.0018  0.0012 </r>
        <r>  0.0009  0.0014  0.0013 </r>
        <r>  0.0003  0.0007  0.0008 </r>
       </set>
       <set comment="band 206">
        <r>  0.0000  0.0000  0.0067 </r>
        <r>  0.0003  0.0002  0.0088 </r>
        <r>  0.0004  0.0019  0.0173 </r>
        <r>  0.0035  0.0005  0.0143 </r>
        <r>  0.0002  0.0009  0.0012 </r>
        <r>  0.0000  0.0001  0.0023 </r>
        <r>  0.0000  0.0002  0.0022 </r>
        <r>  0.0001  0.0037  0.0437 </r>
        <r>  0.0000  0.0002  0.0002 </r>
        <r>  0.0001  0.0117  0.0012 </r>
        <r>  0.0000  0.0040  0.0002 </r>
        <r>  0.0000  0.0027  0.0001 </r>
        <r>  0.0000  0.0026  0.0002 </r>
        <r>  0.0000  0.0020  0.0008 </r>
        <r>  0.0000  0.0008  0.0004 </r>
        <r>  0.0000  0.0211  0.0005 </r>
        <r>  0.0001  0.0047  0.0016 </r>
        <r>  0.0008  0.0003  0.0019 </r>
        <r>  0.0002  0.0007  0.0007 </r>
        <r>  0.0003  0.0100  0.0014 </r>
        <r>  0.0002  0.0046  0.0032 </r>
        <r>  0.0000  0.0009  0.0002 </r>
        <r>  0.0000  0.0005  0.0006 </r>
        <r>  0.0006  0.0011  0.0008 </r>
        <r>  0.0000  0.0026  0.0002 </r>
        <r>  0.0000  0.0017  0.0013 </r>
        <r>  0.0000  0.0020  0.0013 </r>
        <r>  0.0000  0.0014  0.0007 </r>
        <r>  0.0001  0.0012  0.0009 </r>
        <r>  0.0005  0.0012  0.0018 </r>
        <r>  0.0012  0.0023  0.0010 </r>
        <r>  0.0000  0.0017  0.0005 </r>
        <r>  0.0001  0.0051  0.0019 </r>
        <r>  0.0001  0.0002  0.0003 </r>
        <r>  0.0000  0.0005  0.0010 </r>
        <r>  0.0003  0.0015  0.0016 </r>
        <r>  0.0001  0.0007  0.0010 </r>
        <r>  0.0003  0.0022  0.0015 </r>
        <r>  0.0000  0.0002  0.0009 </r>
       </set>
       <set comment="band 207">
        <r>  0.0005  0.0004  0.0328 </r>
        <r>  0.0010  0.0000  0.0063 </r>
        <r>  0.0010  0.0002  0.0109 </r>
        <r>  0.0009  0.0003  0.0270 </r>
        <r>  0.0000  0.0001  0.0088 </r>
        <r>  0.0004  0.0001  0.0089 </r>
        <r>  0.0002  0.0001  0.0051 </r>
        <r>  0.0008  0.0002  0.0183 </r>
        <r>  0.0000  0.0086  0.0002 </r>
        <r>  0.0001  0.0138  0.0006 </r>
        <r>  0.0001  0.0028  0.0006 </r>
        <r>  0.0001  0.0011  0.0003 </r>
        <r>  0.0000  0.0101  0.0004 </r>
        <r>  0.0001  0.0060  0.0002 </r>
        <r>  0.0001  0.0012  0.0013 </r>
        <r>  0.0000  0.0049  0.0007 </r>
        <r>  0.0001  0.0007  0.0008 </r>
        <r>  0.0001  0.0005  0.0002 </r>
        <r>  0.0000  0.0003  0.0000 </r>
        <r>  0.0000  0.0001  0.0012 </r>
        <r>  0.0000  0.0007  0.0007 </r>
        <r>  0.0000  0.0001  0.0002 </r>
        <r>  0.0001  0.0003  0.0002 </r>
        <r>  0.0015  0.0004  0.0044 </r>
        <r>  0.0008  0.0021  0.0015 </r>
        <r>  0.0004  0.0011  0.0022 </r>
        <r>  0.0005  0.0021  0.0016 </r>
        <r>  0.0012  0.0036  0.0022 </r>
        <r>  0.0001  0.0003  0.0011 </r>
        <r>  0.0001  0.0020  0.0021 </r>
        <r>  0.0005  0.0015  0.0013 </r>
        <r>  0.0000  0.0023  0.0002 </r>
        <r>  0.0009  0.0009  0.0033 </r>
        <r>  0.0002  0.0005  0.0023 </r>
        <r>  0.0001  0.0008  0.0017 </r>
        <r>  0.0007  0.0011  0.0031 </r>
        <r>  0.0000  0.0023  0.0006 </r>
        <r>  0.0004  0.0020  0.0025 </r>
        <r>  0.0000  0.0005  0.0009 </r>
       </set>
       <set comment="band 208">
        <r>  0.0001  0.0002  0.0411 </r>
        <r>  0.0000  0.0010  0.0304 </r>
        <r>  0.0000  0.0007  0.0136 </r>
        <r>  0.0005  0.0004  0.0081 </r>
        <r>  0.0002  0.0005  0.0104 </r>
        <r>  0.0004  0.0004  0.0061 </r>
        <r>  0.0003  0.0003  0.0029 </r>
        <r>  0.0003  0.0002  0.0106 </r>
        <r>  0.0000  0.0025  0.0006 </r>
        <r>  0.0001  0.0044  0.0014 </r>
        <r>  0.0001  0.0031  0.0001 </r>
        <r>  0.0001  0.0041  0.0005 </r>
        <r>  0.0000  0.0025  0.0003 </r>
        <r>  0.0000  0.0046  0.0002 </r>
        <r>  0.0000  0.0044  0.0003 </r>
        <r>  0.0000  0.0018  0.0004 </r>
        <r>  0.0003  0.0012  0.0004 </r>
        <r>  0.0003  0.0004  0.0012 </r>
        <r>  0.0006  0.0040  0.0031 </r>
        <r>  0.0004  0.0020  0.0018 </r>
        <r>  0.0000  0.0008  0.0006 </r>
        <r>  0.0013  0.0008  0.0025 </r>
        <r>  0.0002  0.0023  0.0016 </r>
        <r>  0.0001  0.0016  0.0009 </r>
        <r>  0.0000  0.0015  0.0005 </r>
        <r>  0.0001  0.0018  0.0013 </r>
        <r>  0.0004  0.0004  0.0012 </r>
        <r>  0.0008  0.0016  0.0032 </r>
        <r>  0.0006  0.0014  0.0009 </r>
        <r>  0.0000  0.0004  0.0014 </r>
        <r>  0.0003  0.0003  0.0017 </r>
        <r>  0.0004  0.0012  0.0016 </r>
        <r>  0.0001  0.0012  0.0023 </r>
        <r>  0.0000  0.0011  0.0008 </r>
        <r>  0.0003  0.0013  0.0004 </r>
        <r>  0.0002  0.0004  0.0011 </r>
        <r>  0.0000  0.0005  0.0013 </r>
        <r>  0.0000  0.0019  0.0015 </r>
        <r>  0.0003  0.0001  0.0008 </r>
       </set>
      </set>
     </set>
    </set>
   </array>
  </projected>
 </calculation>
 <structure name="finalpos" >
  <crystal>
   <varray name="basis" >
    <v>       8.45648900       0.00000000       8.04030100 </v>
    <v>       0.00000000      11.72984700       0.00000000 </v>
    <v>      -8.45648900       0.00000000       8.04030100 </v>
   </varray>
   <i name="volume">   1595.08833419 </i>
   <varray name="rec_basis" >
    <v>       0.05912619      -0.00000000       0.06218673 </v>
    <v>       0.00000000       0.08525260      -0.00000000 </v>
    <v>      -0.05912619       0.00000000       0.06218673 </v>
   </varray>
  </crystal>
  <varray name="positions" >
   <v>       0.27262500       0.24626800       0.20091800 </v>
   <v>       0.76692700       0.24159000       0.71083800 </v>
   <v>       0.71177400       0.75066100       0.26605800 </v>
   <v>       0.21737100       0.75781500       0.77425800 </v>
   <v>       0.29190500       0.24947800       0.73200900 </v>
   <v>       0.78786000       0.24692400       0.22812100 </v>
   <v>       0.73250300       0.75377400       0.80316300 </v>
   <v>       0.22186500       0.75347500       0.28436300 </v>
   <v>       0.99992200       0.00170700       0.99978000 </v>
   <v>       0.49912300       0.00539000       0.49843100 </v>
   <v>       0.50032000       0.00011300       0.00104100 </v>
   <v>       0.00045100       0.00071800       0.50025500 </v>
   <v>       0.49964600       0.50038300       0.00024900 </v>
   <v>       0.00210500       0.49832700       0.49209800 </v>
   <v>       0.00024800       0.49851100       0.00494500 </v>
   <v>       0.49899600       0.49438700       0.49927100 </v>
   <v>       0.47376000       0.75016500       0.96591400 </v>
   <v>       0.96869400       0.74845100       0.46649600 </v>
   <v>       0.96242200       0.25198700       0.96778800 </v>
   <v>       0.46049400       0.24995400       0.46812100 </v>
   <v>       0.02923400       0.74904200       0.02325200 </v>
   <v>       0.53016200       0.25050500       0.03290500 </v>
   <v>       0.02773300       0.25195400       0.54454300 </v>
   <v>       0.24620300       0.46958500       0.94735300 </v>
   <v>       0.74793400       0.46715100       0.45302900 </v>
   <v>       0.45022400       0.53941100       0.25036000 </v>
   <v>       0.54702700       0.02669900       0.75208100 </v>
   <v>       0.04863900       0.03743100       0.25252900 </v>
   <v>       0.75240800       0.96864600       0.05059200 </v>
   <v>       0.25454800       0.96416200       0.54608900 </v>
   <v>       0.24761500       0.03351700       0.95053800 </v>
   <v>       0.74712400       0.03011700       0.44968000 </v>
   <v>       0.45206600       0.95970300       0.25065000 </v>
   <v>       0.95005700       0.96596200       0.74748900 </v>
   <v>       0.75340400       0.53209500       0.05122700 </v>
   <v>       0.25245200       0.53872300       0.55125400 </v>
   <v>       0.55484700       0.47001400       0.75190200 </v>
   <v>       0.05326800       0.46216200       0.25046900 </v>
   <v>       0.74058300       0.64035900       0.64000400 </v>
  </varray>
 </structure>
</modeling>
