CsPbBr3 cubic bulk                      
           1
     8.456489    0.000000    8.040301
     0.000000   11.729847    0.000000
    -8.456489    0.000000    8.040301
   Cs   Pb   Br
   8   8  23
Direct configuration=     1
   0.27262500  0.24626800  0.20091800
   0.76692700  0.24159000  0.71083800
   0.71177400  0.75066100  0.26605800
   0.21737100  0.75781500  0.77425800
   0.29190500  0.24947800  0.73200900
   0.78786000  0.24692400  0.22812100
   0.73250300  0.75377400  0.80316300
   0.22186500  0.75347500  0.28436300
   0.99992200  0.00170700  0.99978000
   0.49912300  0.00539000  0.49843100
   0.50032000  0.00011300  0.00104100
   0.00045100  0.00071800  0.50025500
   0.49964600  0.50038300  0.00024900
   0.00210500  0.49832700  0.49209800
   0.00024800  0.49851100  0.00494500
   0.49899600  0.49438700  0.49927100
   0.47376000  0.75016500  0.96591400
   0.96869400  0.74845100  0.46649600
   0.96242200  0.25198700  0.96778800
   0.46049400  0.24995400  0.46812100
   0.02923400  0.74904200  0.02325200
   0.53016200  0.25050500  0.03290500
   0.02773300  0.25195400  0.54454300
   0.24620300  0.46958500  0.94735300
   0.74793400  0.46715100  0.45302900
   0.45022400  0.53941100  0.25036000
   0.54702700  0.02669900  0.75208100
   0.04863900  0.03743100  0.25252900
   0.75240800  0.96864600  0.05059200
   0.25454800  0.96416200  0.54608900
   0.24761500  0.03351700  0.95053800
   0.74712400  0.03011700  0.44968000
   0.45206600  0.95970300  0.25065000
   0.95005700  0.96596200  0.74748900
   0.75340400  0.53209500  0.05122700
   0.25245200  0.53872300  0.55125400
   0.55484700  0.47001400  0.75190200
   0.05326800  0.46216200  0.25046900
   0.74058300  0.64035900  0.64000400
