 vasp.5.4.4.18Apr17-6-g9f103f2a35 (build Jun 22 2020 09:27:21) complex           
 executed on tx2_gcc-7.3_libsci-1 date 2021.10.12  03:53:45
 running on   64 total cores
 distrk:  each k-point on   64 cores,    1 groups
 distr:  one band on NCORES_PER_BAND=   8 cores,    8 groups


--------------------------------------------------------------------------------------------------------


 INCAR:
 POTCAR:    PAW_PBE Cs_sv 08Apr2002               
 POTCAR:    PAW_PBE Pb_d 06Sep2000                
 POTCAR:    PAW_PBE Br 06Sep2000                  
 POTCAR:    PAW_PBE Cs_sv 08Apr2002               
   SHA256 =  c1463496f0f6037ed62c6012a8013a89ee9ad6ffb38599dcd6c079e7ed31779b Cs
   COPYR  = (c) Copyright 08Apr2002 Georg Kresse                                
   COPYR  = This file is part of the software VASP. Any use, copying, and all ot
   COPYR  = If you do not have a valid VASP license, you may not use, copy or di
   VRHFIN =Cs: 5s5p6s                                                           
   LEXCH  = PE                                                                  
   EATOM  =   555.6835 eV,   40.8416 Ry                                         
                                                                                
   TITEL  = PAW_PBE Cs_sv 08Apr2002                                             
   LULTRA =        F    use ultrasoft PP ?                                      
   IUNSCR =        1    unscreen: 0-lin 1-nonlin 2-no                           
   RPACOR =    2.200    partial core radius                                     
   POMASS =  132.900; ZVAL   =    9.000    mass and valenz                      
   RCORE  =    2.500    outmost cutoff radius                                   
   RWIGS  =    2.500; RWIGS  =    1.323    wigner-seitz radius (au A)           
   ENMAX  =  220.318; ENMIN  =  165.238 eV                                      
   RCLOC  =    2.207    cutoff for local pot                                    
   LCOR   =        T    correct aug charges                                     
   LPAW   =        T    paw PP                                                  
   EAUG   =  407.933                                                            
   DEXC   =    0.000                                                            
   RMAX   =    2.554    core radius for proj-oper                               
   RAUG   =    1.300    factor for augmentation sphere                          
   RDEP   =    2.590    radius for radial grids                                 
   RDEPT  =    2.117    core radius for aug-charge                              
                                                                                
   Atomic configuration                                                         
   13 entries                                                                   
     n  l   j            E        occ.                                          
     1  0  0.50    -35790.1377   2.0000                                         
     2  0  0.50     -5613.6201   2.0000                                         
     2  1  1.50     -5035.0101   6.0000                                         
     3  0  0.50     -1167.0767   2.0000                                         
     3  1  1.50      -980.9754   6.0000                                         
     3  2  2.50      -708.0703  10.0000                                         
     4  0  0.50      -220.2386   2.0000                                         
     4  1  1.50      -160.7596   6.0000                                         
     4  2  2.50       -74.2354  10.0000                                         
     5  0  0.50       -26.7287   2.0000                                         
     6  0  0.50        -2.0862   1.0000                                         
     5  1  1.50       -13.5159   6.0000                                         
     5  2  2.50        -0.4136   0.0000                                         
   Description                                                                  
     l       E           TYP  RCUT    TYP  RCUT                                 
     0    -26.7287425     23  1.900                                             
     0     -2.0862306     23  1.900                                             
     1    -13.5158719     23  2.500                                             
     1     -2.7211652     23  2.500                                             
     2     -0.4136171     23  2.500                                             
  local pseudopotential read in
  partial core-charges read in
  partial kinetic energy density read in
  atomic valenz-charges read in
  non local Contribution for L=           0  read in
    real space projection operators read in
  non local Contribution for L=           0  read in
    real space projection operators read in
  non local Contribution for L=           1  read in
    real space projection operators read in
  non local Contribution for L=           1  read in
    real space projection operators read in
  non local Contribution for L=           2  read in
    real space projection operators read in
    PAW grid and wavefunctions read in

   number of l-projection  operators is LMAX  =           5
   number of lm-projection operators is LMMAX =          13

 POTCAR:    PAW_PBE Pb_d 06Sep2000                
   SHA256 =  fb885b08f0fba73a15f6a6b0e39bd200c13ec96ef97cf3ecd8e63bade5137abd Pb
   COPYR  = (c) Copyright 06Sep2000 Georg Kresse                                
   COPYR  = This file is part of the software VASP. Any use, copying, and all ot
   COPYR  = If you do not have a valid VASP license, you may not use, copy or di
   VRHFIN =Pb:                                                                  
   LEXCH  = PE                                                                  
   EATOM  =  1661.6185 eV,  122.1255 Ry                                         
                                                                                
   TITEL  = PAW_PBE Pb_d 06Sep2000                                              
   LULTRA =        F    use ultrasoft PP ?                                      
   IUNSCR =        1    unscreen: 0-lin 1-nonlin 2-no                           
   RPACOR =    2.200    partial core radius                                     
   POMASS =  207.200; ZVAL   =   14.000    mass and valenz                      
   RCORE  =    2.500    outmost cutoff radius                                   
   RWIGS  =    3.260; RWIGS  =    1.725    wigner-seitz radius (au A)           
   ENMAX  =  237.835; ENMIN  =  178.376 eV                                      
   ICORE  =        3    local potential                                         
   LCOR   =        T    correct aug charges                                     
   LPAW   =        T    paw PP                                                  
   EAUG   =  391.914                                                            
   DEXC   =    0.000                                                            
   RMAX   =    2.565    core radius for proj-oper                               
   RAUG   =    1.300    factor for augmentation sphere                          
   RDEP   =    2.643    radius for radial grids                                 
   RDEPT  =    2.092    core radius for aug-charge                              
                                                                                
   Atomic configuration                                                         
   16 entries                                                                   
     n  l   j            E        occ.                                          
     1  0  0.50    -88091.8466   2.0000                                         
     2  0  0.50    -15753.4197   2.0000                                         
     2  1  1.50    -13508.1797   6.0000                                         
     3  0  0.50     -3781.7194   2.0000                                         
     3  1  1.50     -3138.2529   6.0000                                         
     3  2  2.50     -2483.2977  10.0000                                         
     4  0  0.50      -856.2895   2.0000                                         
     4  1  1.50      -645.4942   6.0000                                         
     4  2  2.50      -401.8768  10.0000                                         
     4  3  3.50      -132.9059  14.0000                                         
     5  0  0.50      -144.0950   2.0000                                         
     5  1  1.50       -85.7879   6.0000                                         
     5  2  2.50       -21.1769  10.0000                                         
     6  0  0.50       -12.0372   2.0000                                         
     6  1  1.50        -3.4971   2.0000                                         
     5  3  2.50        -2.7212   0.0000                                         
   Description                                                                  
     l       E           TYP  RCUT    TYP  RCUT                                 
     2    -21.1768523     23  2.500                                             
     2      1.3605826     23  2.500                                             
     0    -12.0371562     23  2.500                                             
     0     13.6058260     23  2.500                                             
     1     -3.4971339     23  2.500                                             
     1     13.6058260     23  2.500                                             
     3     -1.3605826      7  2.500                                             
  local pseudopotential read in
  partial core-charges read in
  partial kinetic energy density read in
  atomic valenz-charges read in
  non local Contribution for L=           2  read in
    real space projection operators read in
  non local Contribution for L=           2  read in
    real space projection operators read in
  non local Contribution for L=           0  read in
    real space projection operators read in
  non local Contribution for L=           0  read in
    real space projection operators read in
  non local Contribution for L=           1  read in
    real space projection operators read in
  non local Contribution for L=           1  read in
    real space projection operators read in
    PAW grid and wavefunctions read in

   number of l-projection  operators is LMAX  =           6
   number of lm-projection operators is LMMAX =          18

 POTCAR:    PAW_PBE Br 06Sep2000                  
   SHA256 =  96a73d2954943bbee26f4990d676cc6c3bf44b8dd2c75cd4b3b825d8403f0103 Br
   COPYR  = (c) Copyright 06Sep2000 Georg Kresse                                
   COPYR  = This file is part of the software VASP. Any use, copying, and all ot
   COPYR  = If you do not have a valid VASP license, you may not use, copy or di
   VRHFIN =Br: s2p5                                                             
   LEXCH  = PE                                                                  
   EATOM  =   368.4488 eV,   27.0802 Ry                                         
                                                                                
   TITEL  = PAW_PBE Br 06Sep2000                                                
   LULTRA =        F    use ultrasoft PP ?                                      
   IUNSCR =        1    unscreen: 0-lin 1-nonlin 2-no                           
   RPACOR =    1.900    partial core radius                                     
   POMASS =   79.904; ZVAL   =    7.000    mass and valenz                      
   RCORE  =    2.100    outmost cutoff radius                                   
   RWIGS  =    2.200; RWIGS  =    1.164    wigner-seitz radius (au A)           
   ENMAX  =  216.285; ENMIN  =  162.214 eV                                      
   ICORE  =        3    local potential                                         
   LCOR   =        T    correct aug charges                                     
   LPAW   =        T    paw PP                                                  
   EAUG   =  503.852                                                            
   DEXC   =    0.000                                                            
   RMAX   =    2.139    core radius for proj-oper                               
   RAUG   =    1.300    factor for augmentation sphere                          
   RDEP   =    2.186    radius for radial grids                                 
   RDEPT  =    1.890    core radius for aug-charge                              
                                                                                
   Atomic configuration                                                         
   10 entries                                                                   
     n  l   j            E        occ.                                          
     1  0  0.50    -13316.2796   2.0000                                         
     2  0  0.50     -1732.8239   2.0000                                         
     2  1  1.50     -1528.2193   6.0000                                         
     3  0  0.50      -238.0460   2.0000                                         
     3  1  1.50      -173.4609   6.0000                                         
     3  2  2.50       -66.7132  10.0000                                         
     4  0  0.50       -20.1334   2.0000                                         
     4  1  0.50        -7.8591   5.0000                                         
     4  2  2.50        -8.1635   0.0000                                         
     4  3  2.50        -8.1635   0.0000                                         
   Description                                                                  
     l       E           TYP  RCUT    TYP  RCUT                                 
     0    -20.1333652     23  2.100                                             
     0    -21.4939478     23  2.100                                             
     1     -7.8591052     23  2.100                                             
     1     -3.1608434     23  2.100                                             
     2     -8.1634956     23  2.100                                             
     3     -1.3605826      7  2.100                                             
  local pseudopotential read in
  partial core-charges read in
  partial kinetic energy density read in
  atomic valenz-charges read in
  non local Contribution for L=           0  read in
    real space projection operators read in
  non local Contribution for L=           0  read in
    real space projection operators read in
  non local Contribution for L=           1  read in
    real space projection operators read in
  non local Contribution for L=           1  read in
    real space projection operators read in
  non local Contribution for L=           2  read in
    real space projection operators read in
    PAW grid and wavefunctions read in

   number of l-projection  operators is LMAX  =           5
   number of lm-projection operators is LMMAX =          13

 Optimization of the real space projectors (new method)

 maximal supplied QI-value         = 15.12
 optimisation between [QCUT,QGAM] = [  8.77, 17.69] = [ 21.53, 87.61] Ry 
 Optimized for a Real-space Cutoff    1.85 Angstroem

   l    n(q)    QCUT    max X(q) W(low)/X(q) W(high)/X(q)  e(spline) 
   0     10     8.768    25.322    0.81E-04    0.51E-04    0.48E-06
   0     10     8.768    99.187    0.78E-04    0.50E-04    0.47E-06
   1      9     8.768    11.761    0.21E-03    0.20E-03    0.37E-06
   1      9     8.768     8.275    0.24E-03    0.22E-03    0.41E-06
   2      9     8.768     3.829    0.23E-04    0.15E-03    0.18E-06
 Optimization of the real space projectors (new method)

 maximal supplied QI-value         = 15.12
 optimisation between [QCUT,QGAM] = [  8.77, 17.69] = [ 21.53, 87.61] Ry 
 Optimized for a Real-space Cutoff    1.59 Angstroem

   l    n(q)    QCUT    max X(q) W(low)/X(q) W(high)/X(q)  e(spline) 
   2      7     8.768     3.846    0.48E-04    0.11E-03    0.11E-06
   2      7     8.768     8.593    0.20E-03    0.22E-04    0.24E-06
   0      8     8.768    20.082    0.68E-04    0.88E-04    0.41E-07
   0      8     8.768     8.597    0.89E-04    0.13E-03    0.59E-07
   1      8     8.768    33.223    0.15E-03    0.53E-04    0.87E-07
   1      8     8.768    15.899    0.14E-03    0.44E-04    0.78E-07
 Optimization of the real space projectors (new method)

 maximal supplied QI-value         = 17.95
 optimisation between [QCUT,QGAM] = [  8.80, 17.59] = [ 21.67, 86.68] Ry 
 Optimized for a Real-space Cutoff    1.59 Angstroem

   l    n(q)    QCUT    max X(q) W(low)/X(q) W(high)/X(q)  e(spline) 
   0      8     8.797   175.082    0.82E-04    0.14E-03    0.89E-07
   0      8     8.797   174.004    0.79E-04    0.14E-03    0.86E-07
   1      8     8.797    54.315    0.16E-03    0.14E-04    0.30E-06
   1      8     8.797    42.441    0.16E-03    0.14E-04    0.30E-06
   2      7     8.797     3.596    0.92E-04    0.15E-03    0.85E-07
  PAW_PBE Cs_sv 08Apr2002               :
 energy of atom  1       EATOM= -555.6835
 kinetic energy error for atom=    0.0069 (will be added to EATOM!!)
  PAW_PBE Pb_d 06Sep2000                :
 energy of atom  2       EATOM=-1661.6185
 kinetic energy error for atom=    0.0498 (will be added to EATOM!!)
  PAW_PBE Br 06Sep2000                  :
 energy of atom  3       EATOM= -368.4488
 kinetic energy error for atom=    0.0072 (will be added to EATOM!!)


 POSCAR: Cs8 Pb8 Br23                            
  positions in direct lattice
  No initial velocities read in

 METAGGA = SCAN     LMAXTAU =  6    LMIXTAU =  F

 exchange correlation table for  LEXCH =        8
   RHO(1)=    0.500       N(1)  =     2000
   RHO(2)=  100.500       N(2)  =     4000

 VTST: version 3.2, (02/03/18)

 CHAIN: initializing optimizer
 
 OPT: Using VASP Conjugate-Gradient optimizer
 CHAIN: Read ICHAIN            0

 POSCAR: Cs8 Pb8 Br23                            
  positions in direct lattice
  No initial velocities read in



--------------------------------------------------------------------------------------------------------


 ion  position               nearest neighbor table
   1  0.278  0.251  0.215-
   2  0.772  0.248  0.700-
   3  0.706  0.750  0.263-
   4  0.228  0.742  0.773-
   5  0.234  0.230  0.732-
   6  0.807  0.250  0.229-
   7  0.759  0.771  0.816-
   8  0.217  0.755  0.272-
   9  0.007  0.005  0.001-  29 2.93  32 2.96  19 2.98  21 2.98  30 3.03  35 3.04
  10  0.500  0.990  0.515-  20 2.85  31 2.95  34 2.95  28 3.02  33 3.03
  11  0.509  0.009  0.013-  28 2.97  17 2.97  30 2.98  32 2.99  22 3.00  34 3.09
  12  0.998  0.994  0.492-  35 2.94  18 2.96  23 2.99  33 2.99  29 3.03  31 3.06
  13  0.500  0.508  0.996-  26 2.88  17 2.95  24 2.97  22 2.98  36 2.99
  14  0.993  0.501  0.492-  37 2.92  18 2.96  27 2.98  23 2.98  38 3.05  25 3.11
  15  0.001  0.500  0.993-  19 2.96  38 2.97  21 2.99  36 3.01  27 3.03  24 3.05
  16  0.487  0.484  0.484-  39 2.81  25 2.91  20 3.02  26 3.04  37 3.04
  17  0.483  0.759  0.983-  13 2.95  11 2.97
  18  0.964  0.748  0.448-  12 2.96  14 2.96
  19  0.968  0.253  0.957-  15 2.96   9 2.98
  20  0.459  0.229  0.510-  10 2.85  16 3.02
  21  0.032  0.753  0.012-   9 2.98  15 2.99
  22  0.536  0.262  0.047-  13 2.98  11 3.00
  23  0.012  0.248  0.508-  14 2.98  12 2.99
  24  0.252  0.464  0.943-  13 2.97  15 3.05
  25  0.731  0.464  0.444-  16 2.91  14 3.11
  26  0.449  0.543  0.232-  13 2.88  16 3.04
  27  0.946  0.530  0.739-  14 2.98  15 3.03
  28  0.559  0.028  0.767-  11 2.97  10 3.02
  29  0.061  0.036  0.247-   9 2.93  12 3.03
  30  0.760  0.977  0.064-  11 2.98   9 3.03
  31  0.254  0.952  0.547-  10 2.95  12 3.06
  32  0.255  0.029  0.964-   9 2.96  11 2.99
  33  0.746  0.028  0.452-  12 2.99  10 3.03
  34  0.452  0.964  0.265-  10 2.95  11 3.09
  35  0.970  0.985  0.742-  12 2.94   9 3.04
  36  0.753  0.535  0.043-  13 2.99  15 3.01
  37  0.239  0.521  0.543-  14 2.92  16 3.04
  38  0.054  0.469  0.243-  15 2.97  14 3.05
  39  0.523  0.639  0.665-  16 2.81


IMPORTANT INFORMATION: All symmetrisations will be switched off!
NOSYMM: (Re-)initialisation of all symmetry stuff for point group C_1.



 KPOINTS: 1x1x1                                   

Automatic generation of k-mesh.
Space group operators:
 irot       det(A)        alpha          n_x          n_y          n_z        tau_x        tau_y        tau_z
    1     1.000000     0.000001     1.000000     0.000000     0.000000     0.000000     0.000000     0.000000
 
 Subroutine IBZKPT returns following result:
 ===========================================
 
 Found      8 irreducible k-points:
 
 Following reciprocal coordinates:
            Coordinates               Weight
  0.000000  0.000000  0.000000      1.000000
  0.500000  0.000000  0.000000      1.000000
  0.000000  0.500000  0.000000      1.000000
  0.500000  0.500000  0.000000      1.000000
  0.000000  0.000000  0.500000      1.000000
  0.500000  0.000000  0.500000      1.000000
  0.000000  0.500000  0.500000      1.000000
  0.500000  0.500000  0.500000      1.000000
 
 Following cartesian coordinates:
            Coordinates               Weight
 -0.000000  0.000000  0.000000      1.000000
  0.029563  0.000000  0.031093      1.000000
 -0.000000  0.042626  0.000000      1.000000
  0.029563  0.042626  0.031093      1.000000
 -0.029563  0.000000  0.031093      1.000000
  0.000000  0.000000  0.062187      1.000000
 -0.029563  0.042626  0.031093      1.000000
  0.000000  0.042626  0.062187      1.000000
 


--------------------------------------------------------------------------------------------------------




 Dimension of arrays:
   k-points           NKPTS =      8   k-points in BZ     NKDIM =      8   number of bands    NBANDS=    208
   number of dos      NEDOS =    301   number of ions     NIONS =     39
   non local maximal  LDIM  =      6   non local SUM 2l+1 LMDIM =     18
   total plane-waves  NPLWV = 343000
   max r-space proj   IRMAX =   5734   max aug-charges    IRDMAX=  91523
   dimension x,y,z NGX =    70 NGY =   70 NGZ =   70
   dimension x,y,z NGXF=   140 NGYF=  140 NGZF=  140
   support grid    NGXF=   280 NGYF=  280 NGZF=  280
   ions per type =               8   8  23
   NGX,Y,Z   is equivalent  to a cutoff of   9.97,  9.92,  9.97 a.u.
   NGXF,Y,Z  is equivalent  to a cutoff of  19.95, 19.84, 19.95 a.u.

 SYSTEM =  CsPbBr3 cubic bulk                      
 POSCAR =  Cs8 Pb8 Br23                            

 Startparameter for this run:
   NWRITE =      2    write-flag & timer
   PREC   = accura    normal or accurate (medium, high low for compatibility)
   ISTART =      0    job   : 0-new  1-cont  2-samecut
   ICHARG =      2    charge: 1-file 2-atom 10-const
   ISPIN  =      1    spin polarized calculation?
   LNONCOLLINEAR =      F non collinear calculations
   LSORBIT =      F    spin-orbit coupling
   INIWAV =      1    electr: 0-lowe 1-rand  2-diag
   LASPH  =      T    aspherical Exc in radial PAW
   METAGGA=      F    non-selfconsistent MetaGGA calc.

 Electronic Relaxation 1
   ENCUT  =  300.0 eV  22.05 Ry    4.70 a.u.  16.48 16.57 16.48*2*pi/ulx,y,z
   ENINI  =  300.0     initial cutoff
   ENAUG  =  503.9 eV  augmentation charge cutoff
   NELM   =    200;   NELMIN=  2; NELMDL= -5     # of ELM steps 
   EDIFF  = 0.1E-05   stopping-criterion for ELM
   LREAL  =      T    real-space projection
   NLSPLINE    = F    spline interpolate recip. space projectors
   LCOMPAT=      F    compatible to vasp.4.4
   GGA_COMPAT  = T    GGA compatible to vasp.4.4-vasp.4.6
   LMAXPAW     = -100 max onsite density
   LMAXMIX     =    2 max onsite mixed and CHGCAR
   VOSKOWN=      0    Vosko Wilk Nusair interpolation
   ROPT   =   -0.00025  -0.00025  -0.00025
 Ionic relaxation
   EDIFFG = -.1E-01   stopping-criterion for IOM
   NSW    =      0    number of steps for IOM
   NBLOCK =      1;   KBLOCK =      1    inner block; outer block 
   IBRION =     -1    ionic relax: 0-MD 1-quasi-New 2-CG
   NFREE  =      1    steps in history (QN), initial steepest desc. (CG)
   ISIF   =      2    stress and relaxation
   IWAVPR =     10    prediction:  0-non 1-charg 2-wave 3-comb
   ISYM   =      0    0-nonsym 1-usesym 2-fastsym
   LCORR  =      T    Harris-Foulkes like correction to forces

   POTIM  = 0.5000    time-step for ionic-motion
   TEIN   =    0.0    initial temperature
   TEBEG  =    0.0;   TEEND  =   0.0 temperature during run
   SMASS  =  -3.00    Nose mass-parameter (am)
   estimated Nose-frequenzy (Omega)   =  0.10E-29 period in steps =****** mass=  -0.311E-26a.u.
   SCALEE = 1.0000    scale energy and forces
   NPACO  =    256;   APACO  = 16.0  distance and # of slots for P.C.
   PSTRESS=    0.0 pullay stress

  Mass of Ions in am
   POMASS = 132.90207.20 79.90
  Ionic Valenz
   ZVAL   =   9.00 14.00  7.00
  Atomic Wigner-Seitz radii
   RWIGS  =  -1.00 -1.00 -1.00
  virtual crystal weights 
   VCA    =   1.00  1.00  1.00
   NELECT =     344.0000    total number of electrons
   NUPDOWN=       0.0000    fix difference up-down

 DOS related values:
   EMIN   =  10.00;   EMAX   =-10.00  energy-range for DOS
   EFERMI =   0.00
   ISMEAR =     0;   SIGMA  =   0.01  broadening in eV -4-tet -1-fermi 0-gaus

 Electronic relaxation 2 (details)
   IALGO  =     38    algorithm
   LDIAG  =      T    sub-space diagonalisation (order eigenvalues)
   LSUBROT=      F    optimize rotation matrix (better conditioning)
   TURBO    =      0    0=normal 1=particle mesh
   IRESTART =      0    0=no restart 2=restart with 2 vectors
   NREBOOT  =      0    no. of reboots
   NMIN     =      0    reboot dimension
   EREF     =   0.00    reference energy to select bands
   IMIX   =      4    mixing-type and parameters
     AMIX     =   0.40;   BMIX     =  1.00
     AMIX_MAG =   1.60;   BMIX_MAG =  1.00
     AMIN     =   0.10
     WC   =   100.;   INIMIX=   1;  MIXPRE=   1;  MAXMIX= -45

 Intra band minimization:
   WEIMIN = 0.0000     energy-eigenvalue tresh-hold
   EBREAK =  0.12E-08  absolut break condition
   DEPER  =   0.30     relativ break condition  

   TIME   =   0.40     timestep for ELM

  volume/ion in A,a.u.               =      40.90       276.00
  Fermi-wavevector in a.u.,A,eV,Ry     =   0.981747  1.855232 13.113654  0.963826
  Thomas-Fermi vector in A             =   2.112777

 Write flags
   LWAVE        =      F    write WAVECAR
   LDOWNSAMPLE  =      F    k-point downsampling of WAVECAR
   LCHARG       =      F    write CHGCAR
   LVTOT        =      F    write LOCPOT, total local potential
   LVHAR        =      T    write LOCPOT, Hartree potential only
   LELF         =      F    write electronic localiz. function (ELF)
   LORBIT       =     10    0 simple, 1 ext, 2 COOP (PROOUT), +10 PAW based schemes


 Dipole corrections
   LMONO  =      F    monopole corrections only (constant potential shift)
   LDIPOL =      F    correct potential (dipole corrections)
   IDIPOL =      0    1-x, 2-y, 3-z, 4-all directions 
   EPSILON=  1.0000000 bulk dielectric constant

 Exchange correlation treatment:
   GGA     =    --    GGA type
   LEXCH   =     8    internal setting for exchange type
   VOSKOWN=      0    Vosko Wilk Nusair interpolation
   LHFCALC =     F    Hartree Fock is set to
   LHFONE  =     F    Hartree Fock one center treatment
   AEXX    =    0.0000 exact exchange contribution

 Linear response parameters
   LEPSILON=     F    determine dielectric tensor
   LRPA    =     F    only Hartree local field effects (RPA)
   LNABLA  =     F    use nabla operator in PAW spheres
   LVEL    =     F    velocity operator in full k-point grid
   LINTERFAST=   F  fast interpolation
   KINTER  =     0    interpolate to denser k-point grid
   CSHIFT  =0.1000    complex shift for real part using Kramers Kronig
   OMEGAMAX=  -1.0    maximum frequency
   DEG_THRESHOLD= 0.2000000E-02 threshold for treating states as degnerate
   RTIME   =   -0.100 relaxation time in fs
  (WPLASMAI=    0.000 imaginary part of plasma frequency in eV, 0.658/RTIME)
   DFIELD  = 0.0000000 0.0000000 0.0000000 field for delta impulse in time

 Orbital magnetization related:
   ORBITALMAG=     F  switch on orbital magnetization
   LCHIMAG   =     F  perturbation theory with respect to B field
   DQ        =  0.001000  dq finite difference perturbation B field
   LLRAUG    =     F  two centre corrections for induced B field



--------------------------------------------------------------------------------------------------------


 Static calculation
 charge density and potential will be updated during run
 non-spin polarized calculation
 Variant of blocked Davidson
 Davidson routine will perform the subspace rotation
 perform sub-space diagonalisation
    after iterative eigenvector-optimisation
 modified Broyden-mixing scheme, WC =      100.0
 initial mixing is a Kerker type mixing with AMIX =  0.4000 and BMIX =      1.0000
 Hartree-type preconditioning will be used
 using additional bands           36
 real space projection scheme for non local part
 use partial core corrections
 calculate Harris-corrections to forces   (improved forces if not selfconsistent)
 use gradient corrections 
 use of overlap-Matrix (Vanderbilt PP)
 Gauss-broadening in eV      SIGMA  =   0.01


--------------------------------------------------------------------------------------------------------


  energy-cutoff  :      300.00
  volume of cell :     1595.09
      direct lattice vectors                 reciprocal lattice vectors
     8.456489000  0.000000000  8.040301000     0.059126193 -0.000000000  0.062186727
     0.000000000 11.729847000  0.000000000     0.000000000  0.085252604 -0.000000000
    -8.456489000  0.000000000  8.040301000    -0.059126193  0.000000000  0.062186727

  length of vectors
    11.668703715 11.729847000 11.668703715     0.085808482  0.085252604  0.085808482



 k-points in units of 2pi/SCALE and weight: 1x1x1                                   
  -0.00000000  0.00000000  0.00000000       0.125
   0.02956310  0.00000000  0.03109336       0.125
  -0.00000000  0.04262630  0.00000000       0.125
   0.02956310  0.04262630  0.03109336       0.125
  -0.02956310  0.00000000  0.03109336       0.125
   0.00000000  0.00000000  0.06218673       0.125
  -0.02956310  0.04262630  0.03109336       0.125
   0.00000000  0.04262630  0.06218673       0.125

 k-points in reciprocal lattice and weights: 1x1x1                                   
   0.00000000  0.00000000  0.00000000       0.125
   0.50000000  0.00000000  0.00000000       0.125
   0.00000000  0.50000000  0.00000000       0.125
   0.50000000  0.50000000  0.00000000       0.125
   0.00000000  0.00000000  0.50000000       0.125
   0.50000000  0.00000000  0.50000000       0.125
   0.00000000  0.50000000  0.50000000       0.125
   0.50000000  0.50000000  0.50000000       0.125

 position of ions in fractional coordinates (direct lattice) 
   0.27772700  0.25069200  0.21535200
   0.77155700  0.24752900  0.69987100
   0.70574200  0.75002400  0.26292500
   0.22830400  0.74246900  0.77281200
   0.23380800  0.22982800  0.73191300
   0.80701000  0.25026200  0.22856500
   0.75883800  0.77118200  0.81601200
   0.21690000  0.75485500  0.27168700
   0.00702800  0.00506000  0.00067000
   0.49979200  0.98982100  0.51493200
   0.50859600  0.00935400  0.01306800
   0.99791900  0.99409200  0.49239600
   0.50042200  0.50829100  0.99552300
   0.99287100  0.50093800  0.49204800
   0.00130400  0.50001400  0.99327900
   0.48714400  0.48382300  0.48442200
   0.48319400  0.75906000  0.98322000
   0.96381800  0.74794900  0.44768500
   0.96842900  0.25254100  0.95712200
   0.45911700  0.22927200  0.50952300
   0.03242700  0.75262300  0.01239300
   0.53646000  0.26189900  0.04723600
   0.01198800  0.24775100  0.50810000
   0.25231500  0.46407800  0.94304000
   0.73076100  0.46405900  0.44425800
   0.44916900  0.54347900  0.23221200
   0.94593800  0.52955700  0.73884800
   0.55852900  0.02804800  0.76697300
   0.06072400  0.03582500  0.24704500
   0.75972100  0.97658700  0.06354900
   0.25387600  0.95220300  0.54704200
   0.25519300  0.02921500  0.96351200
   0.74554900  0.02751500  0.45159400
   0.45230000  0.96448100  0.26544300
   0.96998100  0.98464300  0.74156500
   0.75330100  0.53474600  0.04331700
   0.23916200  0.52122500  0.54339900
   0.05436300  0.46850100  0.24297000
   0.52327100  0.63919700  0.66545800

 position of ions in cartesian coordinates  (Angst):
   0.52747350  2.94057880  3.96450358
   0.60621187  2.90347730 11.83072402
   3.74467709  8.79766677  7.78837425
  -4.60462591  8.70904777  8.04927398
  -4.21221945  2.69584728  7.76468752
   4.89161378  2.93553497  8.32633471
  -0.48349130  9.04584687 12.66226803
  -0.46330566  8.85433366  3.92838654
   0.05376636  0.05935303  0.06189424
  -0.12803124 11.61044889  8.15868639
   4.19042708  0.10972099  4.19433558
   4.27494969 11.66054706 11.98258118
  -4.18681616  5.96217566 12.02784808
   4.23520419  5.87592610 11.93919572
  -8.38862568  5.86508772  7.99674669
   0.02301856  5.67516977  7.81168308
  -4.22846437  8.90365766 11.79040995
   4.36467304  8.77332733 11.34890898
   0.09561752  2.96226729 15.48200963
  -0.42625778  2.68932548  7.78815716
   0.16941730  8.82815264  0.36036629
   4.13711737  3.07203520  4.69309153
  -4.19536567  2.90608132  4.18166407
  -5.84110836  5.44356394  9.61101400
   2.42280947  5.44334107  9.44750644
   1.83469448  6.37492552  5.47850834
   1.75125431  6.21162259 13.54618656
  -1.76270439  0.32899875 10.65743506
  -1.57562149  0.42022177  2.47455540
   5.88717086 11.45521609  6.61933860
  -2.47915505 11.16919550  6.43962180
  -5.98989183  0.34268748  9.79875503
   2.48582722  0.32274674  9.62539006
   1.58015417 11.31321456  5.77086976
   1.93159739 11.54971174 13.76134502
   6.00397189  6.27248876  6.40504850
  -2.57277684  6.11388950  6.29202599
  -1.59495302  5.49544505  2.39064682
  -1.20240280  7.49768301  9.55773897



--------------------------------------------------------------------------------------------------------


 k-point  1 :   0.0000 0.0000 0.0000  plane waves:   18809
 k-point  2 :   0.5000 0.0000 0.0000  plane waves:   18808
 k-point  3 :   0.0000 0.5000 0.0000  plane waves:   18794
 k-point  4 :   0.5000 0.5000 0.0000  plane waves:   18804
 k-point  5 :   0.0000 0.0000 0.5000  plane waves:   18808
 k-point  6 :   0.5000 0.0000 0.5000  plane waves:   18790
 k-point  7 :   0.0000 0.5000 0.5000  plane waves:   18804
 k-point  8 :   0.5000 0.5000 0.5000  plane waves:   18800

 maximum and minimum number of plane-waves per node :      2389     2304

 maximum number of plane-waves:     18809
 maximum index in each direction: 
   IXMAX=   16   IYMAX=   16   IZMAX=   16
   IXMIN=  -16   IYMIN=  -17   IZMIN=  -16


 real space projection operators:
  total allocation   :      16736.06 KBytes
  max/ min on nodes  :       2199.41       1827.48


 parallel 3D FFT for wavefunctions:
    minimum data exchange during FFTs selected (reduces bandwidth)
 parallel 3D FFT for charge:
    minimum data exchange during FFTs selected (reduces bandwidth)


 total amount of memory used by VASP MPI-rank0    60669. kBytes
=======================================================================

   base      :      30000. kBytes
   nonlr-proj:       6504. kBytes
   fftplans  :       8423. kBytes
   grid      :       7465. kBytes
   one-center:         77. kBytes
   wavefun   :       8200. kBytes

     INWAV:  cpu time    0.0002: real time    0.0007
 Broyden mixing: mesh for mixing (old mesh)
   NGX = 33   NGY = 33   NGZ = 33
  (NGX  =140   NGY  =140   NGZ  =140)
  gives a total of  35937 points

 initial charge density was supplied:
 charge density of overlapping atoms calculated
 number of electron     345.0000000 magnetization 
 keeping initial charge density in first step


--------------------------------------------------------------------------------------------------------


 Maximum index for non-local projection operator          732
 Maximum index for augmentation-charges         3274 (set IRDMAX)


--------------------------------------------------------------------------------------------------------


 First call to EWALD:  gamma=   0.152
 Maximum number of real-space cells 3x 3x 3
 Maximum number of reciprocal cells 3x 3x 3

    FEWALD:  cpu time    0.0041: real time    0.0041


--------------------------------------- Iteration      1(   1)  ---------------------------------------


    POTLOK:  cpu time    0.2620: real time    0.2629
    SETDIJ:  cpu time    1.2012: real time    1.2012
     EDDAV:  cpu time   16.4832: real time   16.4889
       DOS:  cpu time    0.0008: real time    0.0008
    --------------------------------------------
      LOOP:  cpu time   17.9472: real time   17.9538

 eigenvalue-minimisations  :  3480
 total energy-change (2. order) : 0.1329909E+04  (-0.1105849E+05)
 number of electron     345.0000000 magnetization 
 augmentation part      345.0000000 magnetization 

 Free energy of the ion-electron system (eV)
  ---------------------------------------------------
  alpha Z        PSCENC =       872.70583573
  Ewald energy   TEWEN  =    -17920.90497864
  -Hartree energ DENC   =     -7436.41218863
  -exchange      EXHF   =         0.00000000
  -V(xc)+E(xc)   XCENC  =       908.09343131
  PAW double counting   =     21345.28103884   -22405.85761495
  entropy T*S    EENTRO =        -0.00082754
  eigenvalues    EBANDS =      -245.11398410
  atomic energy  EATOM  =     26212.11861568
  Solvation  Ediel_sol  =         0.00000000
  ---------------------------------------------------
  free energy    TOTEN  =      1329.90932770 eV

  energy without entropy =     1329.91015524  energy(sigma->0) =     1329.90974147


--------------------------------------------------------------------------------------------------------




--------------------------------------- Iteration      1(   2)  ---------------------------------------


     EDDAV:  cpu time   18.1940: real time   18.2090
       DOS:  cpu time    0.0007: real time    0.0007
    --------------------------------------------
      LOOP:  cpu time   18.1948: real time   18.2098

 eigenvalue-minimisations  :  4056
 total energy-change (2. order) :-0.2442417E+04  (-0.2360780E+04)
 number of electron     345.0000000 magnetization 
 augmentation part      345.0000000 magnetization 

 Free energy of the ion-electron system (eV)
  ---------------------------------------------------
  alpha Z        PSCENC =       872.70583573
  Ewald energy   TEWEN  =    -17920.90497864
  -Hartree energ DENC   =     -7436.41218863
  -exchange      EXHF   =         0.00000000
  -V(xc)+E(xc)   XCENC  =       908.09343131
  PAW double counting   =     21345.28103884   -22405.85761495
  entropy T*S    EENTRO =        -0.00000000
  eigenvalues    EBANDS =     -2687.53183817
  atomic energy  EATOM  =     26212.11861568
  Solvation  Ediel_sol  =         0.00000000
  ---------------------------------------------------
  free energy    TOTEN  =     -1112.50769883 eV

  energy without entropy =    -1112.50769883  energy(sigma->0) =    -1112.50769883


--------------------------------------------------------------------------------------------------------




--------------------------------------- Iteration      1(   3)  ---------------------------------------


     EDDAV:  cpu time   19.2573: real time   19.2886
       DOS:  cpu time    0.0004: real time    0.0004
    --------------------------------------------
      LOOP:  cpu time   19.2576: real time   19.2890

 eigenvalue-minimisations  :  4432
 total energy-change (2. order) :-0.3623508E+03  (-0.3603907E+03)
 number of electron     345.0000000 magnetization 
 augmentation part      345.0000000 magnetization 

 Free energy of the ion-electron system (eV)
  ---------------------------------------------------
  alpha Z        PSCENC =       872.70583573
  Ewald energy   TEWEN  =    -17920.90497864
  -Hartree energ DENC   =     -7436.41218863
  -exchange      EXHF   =         0.00000000
  -V(xc)+E(xc)   XCENC  =       908.09343131
  PAW double counting   =     21345.28103884   -22405.85761495
  entropy T*S    EENTRO =        -0.00000000
  eigenvalues    EBANDS =     -3049.88261377
  atomic energy  EATOM  =     26212.11861568
  Solvation  Ediel_sol  =         0.00000000
  ---------------------------------------------------
  free energy    TOTEN  =     -1474.85847443 eV

  energy without entropy =    -1474.85847443  energy(sigma->0) =    -1474.85847443


--------------------------------------------------------------------------------------------------------




--------------------------------------- Iteration      1(   4)  ---------------------------------------


     EDDAV:  cpu time   17.7468: real time   17.8103
       DOS:  cpu time    0.0004: real time    0.0004
    --------------------------------------------
      LOOP:  cpu time   17.7472: real time   17.8107

 eigenvalue-minimisations  :  3920
 total energy-change (2. order) :-0.1202048E+02  (-0.1198422E+02)
 number of electron     345.0000000 magnetization 
 augmentation part      345.0000000 magnetization 

 Free energy of the ion-electron system (eV)
  ---------------------------------------------------
  alpha Z        PSCENC =       872.70583573
  Ewald energy   TEWEN  =    -17920.90497864
  -Hartree energ DENC   =     -7436.41218863
  -exchange      EXHF   =         0.00000000
  -V(xc)+E(xc)   XCENC  =       908.09343131
  PAW double counting   =     21345.28103884   -22405.85761495
  entropy T*S    EENTRO =        -0.00000000
  eigenvalues    EBANDS =     -3061.90309195
  atomic energy  EATOM  =     26212.11861568
  Solvation  Ediel_sol  =         0.00000000
  ---------------------------------------------------
  free energy    TOTEN  =     -1486.87895261 eV

  energy without entropy =    -1486.87895261  energy(sigma->0) =    -1486.87895261


--------------------------------------------------------------------------------------------------------




--------------------------------------- Iteration      1(   5)  ---------------------------------------


     EDDAV:  cpu time   19.1830: real time   19.2222
       DOS:  cpu time    0.0004: real time    0.0004
    CHARGE:  cpu time    2.7041: real time    2.7042
    MIXING:  cpu time    0.0014: real time    0.0014
    --------------------------------------------
      LOOP:  cpu time   21.8891: real time   21.9284

 eigenvalue-minimisations  :  4416
 total energy-change (2. order) :-0.5503696E+00  (-0.5501092E+00)
 number of electron     344.0000000 magnetization 
 augmentation part       -5.0321841 magnetization 

 Broyden mixing:
  rms(total) = 0.10059E+01    rms(broyden)= 0.10053E+01
  rms(prec ) = 0.14000E+01
  weight for this iteration     100.00

 Free energy of the ion-electron system (eV)
  ---------------------------------------------------
  alpha Z        PSCENC =       872.70583573
  Ewald energy   TEWEN  =    -17920.90497864
  -Hartree energ DENC   =     -7436.41218863
  -exchange      EXHF   =         0.00000000
  -V(xc)+E(xc)   XCENC  =       908.09343131
  PAW double counting   =     21345.28103884   -22405.85761495
  entropy T*S    EENTRO =        -0.00000000
  eigenvalues    EBANDS =     -3062.45346157
  atomic energy  EATOM  =     26212.11861568
  Solvation  Ediel_sol  =         0.00000000
  ---------------------------------------------------
  free energy    TOTEN  =     -1487.42932223 eV

  energy without entropy =    -1487.42932223  energy(sigma->0) =    -1487.42932223


--------------------------------------------------------------------------------------------------------




--------------------------------------- Iteration      1(   6)  ---------------------------------------


    POTLOK:  cpu time    0.3132: real time    0.3179
    SETDIJ:  cpu time    1.1970: real time    1.1971
     EDDAV:  cpu time   18.9173: real time   18.9182
       DOS:  cpu time    0.0004: real time    0.0004
    CHARGE:  cpu time    2.6941: real time    2.6942
    MIXING:  cpu time    0.0015: real time    0.0015
    --------------------------------------------
      LOOP:  cpu time   23.1235: real time   23.1293

 eigenvalue-minimisations  :  4312
 total energy-change (2. order) : 0.7772623E+02  (-0.2361826E+01)
 number of electron     344.0000000 magnetization 
 augmentation part       -3.6495132 magnetization 

 Broyden mixing:
  rms(total) = 0.71757E+00    rms(broyden)= 0.71749E+00
  rms(prec ) = 0.90174E+00
  weight for this iteration     100.00

 eigenvalues of (default mixing * dielectric matrix)
  average eigenvalue GAMMA=   1.1819
  1.1819

 Free energy of the ion-electron system (eV)
  ---------------------------------------------------
  alpha Z        PSCENC =       872.70583573
  Ewald energy   TEWEN  =    -17920.90497864
  -Hartree energ DENC   =     -7416.41135927
  -exchange      EXHF   =         0.00000000
  -V(xc)+E(xc)   XCENC  =       936.06825174
  PAW double counting   =     21623.43930813   -22682.07049201
  entropy T*S    EENTRO =        -0.00000000
  eigenvalues    EBANDS =     -3034.64826961
  atomic energy  EATOM  =     26212.11861568
  Solvation  Ediel_sol  =         0.00000000
  ---------------------------------------------------
  free energy    TOTEN  =     -1409.70308825 eV

  energy without entropy =    -1409.70308825  energy(sigma->0) =    -1409.70308825


--------------------------------------------------------------------------------------------------------




--------------------------------------- Iteration      1(   7)  ---------------------------------------


    POTLOK:  cpu time    0.2975: real time    0.3180
    SETDIJ:  cpu time    1.1993: real time    1.1993
     EDDAV:  cpu time   18.1517: real time   18.1526
       DOS:  cpu time    0.0006: real time    0.0006
    CHARGE:  cpu time    2.6954: real time    2.6955
    MIXING:  cpu time    0.0015: real time    0.0015
    --------------------------------------------
      LOOP:  cpu time   22.3459: real time   22.3674

 eigenvalue-minimisations  :  4056
 total energy-change (2. order) : 0.5156293E+00  (-0.8792799E+00)
 number of electron     344.0000000 magnetization 
 augmentation part       -3.0751893 magnetization 

 Broyden mixing:
  rms(total) = 0.37346E+00    rms(broyden)= 0.37344E+00
  rms(prec ) = 0.41684E+00
  weight for this iteration     100.00

 eigenvalues of (default mixing * dielectric matrix)
  average eigenvalue GAMMA=   1.2969
  1.2969  1.2969

 Free energy of the ion-electron system (eV)
  ---------------------------------------------------
  alpha Z        PSCENC =       872.70583573
  Ewald energy   TEWEN  =    -17920.90497864
  -Hartree energ DENC   =     -7457.92919848
  -exchange      EXHF   =         0.00000000
  -V(xc)+E(xc)   XCENC  =       941.04633807
  PAW double counting   =     22232.75176276   -23289.36362126
  entropy T*S    EENTRO =        -0.00000000
  eigenvalues    EBANDS =     -2999.61221286
  atomic energy  EATOM  =     26212.11861568
  Solvation  Ediel_sol  =         0.00000000
  ---------------------------------------------------
  free energy    TOTEN  =     -1409.18745899 eV

  energy without entropy =    -1409.18745899  energy(sigma->0) =    -1409.18745899


--------------------------------------------------------------------------------------------------------




--------------------------------------- Iteration      1(   8)  ---------------------------------------


    POTLOK:  cpu time    0.2557: real time    0.3184
    SETDIJ:  cpu time    1.2003: real time    1.2003
     EDDAV:  cpu time   18.2504: real time   18.2511
       DOS:  cpu time    0.0005: real time    0.0005
    CHARGE:  cpu time    2.6974: real time    2.6975
    MIXING:  cpu time    0.0016: real time    0.0016
    --------------------------------------------
      LOOP:  cpu time   22.4058: real time   22.4694

 eigenvalue-minimisations  :  4088
 total energy-change (2. order) :-0.1743972E+00  (-0.4619580E-01)
 number of electron     344.0000000 magnetization 
 augmentation part       -3.1692121 magnetization 

 Broyden mixing:
  rms(total) = 0.21814E+00    rms(broyden)= 0.21814E+00
  rms(prec ) = 0.24840E+00
  weight for this iteration     100.00

 eigenvalues of (default mixing * dielectric matrix)
  average eigenvalue GAMMA=   1.6830
  1.1532  1.2647  2.6310

 Free energy of the ion-electron system (eV)
  ---------------------------------------------------
  alpha Z        PSCENC =       872.70583573
  Ewald energy   TEWEN  =    -17920.90497864
  -Hartree energ DENC   =     -7463.85940802
  -exchange      EXHF   =         0.00000000
  -V(xc)+E(xc)   XCENC  =       941.72951576
  PAW double counting   =     22460.39447125   -23517.36323335
  entropy T*S    EENTRO =        -0.00000000
  eigenvalues    EBANDS =     -2994.18267458
  atomic energy  EATOM  =     26212.11861568
  Solvation  Ediel_sol  =         0.00000000
  ---------------------------------------------------
  free energy    TOTEN  =     -1409.36185615 eV

  energy without entropy =    -1409.36185615  energy(sigma->0) =    -1409.36185615


--------------------------------------------------------------------------------------------------------




--------------------------------------- Iteration      1(   9)  ---------------------------------------


    POTLOK:  cpu time    0.3148: real time    0.3178
    SETDIJ:  cpu time    1.1963: real time    1.1964
     EDDAV:  cpu time   17.1320: real time   17.1328
       DOS:  cpu time    0.0005: real time    0.0005
    CHARGE:  cpu time    2.6946: real time    2.6947
    MIXING:  cpu time    0.0015: real time    0.0015
    --------------------------------------------
      LOOP:  cpu time   21.3396: real time   21.3436

 eigenvalue-minimisations  :  3696
 total energy-change (2. order) :-0.6660293E-01  (-0.1851887E-01)
 number of electron     344.0000000 magnetization 
 augmentation part       -3.2067415 magnetization 

 Broyden mixing:
  rms(total) = 0.45859E-01    rms(broyden)= 0.45855E-01
  rms(prec ) = 0.55655E-01
  weight for this iteration     100.00

 eigenvalues of (default mixing * dielectric matrix)
  average eigenvalue GAMMA=   1.4644
  2.5271  1.2428  1.2428  0.8452

 Free energy of the ion-electron system (eV)
  ---------------------------------------------------
  alpha Z        PSCENC =       872.70583573
  Ewald energy   TEWEN  =    -17920.90497864
  -Hartree energ DENC   =     -7471.14286822
  -exchange      EXHF   =         0.00000000
  -V(xc)+E(xc)   XCENC  =       943.64960137
  PAW double counting   =     22792.00610549   -23849.79365257
  entropy T*S    EENTRO =        -0.00000000
  eigenvalues    EBANDS =     -2988.06711792
  atomic energy  EATOM  =     26212.11861568
  Solvation  Ediel_sol  =         0.00000000
  ---------------------------------------------------
  free energy    TOTEN  =     -1409.42845908 eV

  energy without entropy =    -1409.42845908  energy(sigma->0) =    -1409.42845908


--------------------------------------------------------------------------------------------------------




--------------------------------------- Iteration      1(  10)  ---------------------------------------


    POTLOK:  cpu time    0.3130: real time    0.3231
    SETDIJ:  cpu time    1.1979: real time    1.1980
     EDDAV:  cpu time   19.1855: real time   19.1863
       DOS:  cpu time    0.0004: real time    0.0004
    CHARGE:  cpu time    2.6953: real time    2.6954
    MIXING:  cpu time    0.0016: real time    0.0016
    --------------------------------------------
      LOOP:  cpu time   23.3937: real time   23.4048

 eigenvalue-minimisations  :  4416
 total energy-change (2. order) :-0.3793785E-02  (-0.2574365E-02)
 number of electron     344.0000000 magnetization 
 augmentation part       -3.1943012 magnetization 

 Broyden mixing:
  rms(total) = 0.33539E-01    rms(broyden)= 0.33537E-01
  rms(prec ) = 0.42188E-01
  weight for this iteration     100.00

 eigenvalues of (default mixing * dielectric matrix)
  average eigenvalue GAMMA=   1.2935
  2.4274  1.3032  1.3032  0.8327  0.6010

 Free energy of the ion-electron system (eV)
  ---------------------------------------------------
  alpha Z        PSCENC =       872.70583573
  Ewald energy   TEWEN  =    -17920.90497864
  -Hartree energ DENC   =     -7469.51053719
  -exchange      EXHF   =         0.00000000
  -V(xc)+E(xc)   XCENC  =       943.50991170
  PAW double counting   =     22764.67359827   -23822.52685630
  entropy T*S    EENTRO =        -0.00000000
  eigenvalues    EBANDS =     -2989.49784211
  atomic energy  EATOM  =     26212.11861568
  Solvation  Ediel_sol  =         0.00000000
  ---------------------------------------------------
  free energy    TOTEN  =     -1409.43225286 eV

  energy without entropy =    -1409.43225286  energy(sigma->0) =    -1409.43225286


--------------------------------------------------------------------------------------------------------




--------------------------------------- Iteration      1(  11)  ---------------------------------------


    POTLOK:  cpu time    0.2661: real time    0.3166
    SETDIJ:  cpu time    1.1991: real time    1.1991
     EDDAV:  cpu time   17.1218: real time   17.1226
       DOS:  cpu time    0.0004: real time    0.0004
    CHARGE:  cpu time    2.6972: real time    2.6973
    MIXING:  cpu time    0.0019: real time    0.0019
    --------------------------------------------
      LOOP:  cpu time   21.2864: real time   21.3379

 eigenvalue-minimisations  :  3688
 total energy-change (2. order) :-0.1734413E-02  (-0.2847116E-03)
 number of electron     344.0000000 magnetization 
 augmentation part       -3.1930270 magnetization 

 Broyden mixing:
  rms(total) = 0.16512E-01    rms(broyden)= 0.16511E-01
  rms(prec ) = 0.24534E-01
  weight for this iteration     100.00

 eigenvalues of (default mixing * dielectric matrix)
  average eigenvalue GAMMA=   1.5976
  2.7492  2.7492  1.1976  1.1976  0.8461  0.8461

 Free energy of the ion-electron system (eV)
  ---------------------------------------------------
  alpha Z        PSCENC =       872.70583573
  Ewald energy   TEWEN  =    -17920.90497864
  -Hartree energ DENC   =     -7468.25794492
  -exchange      EXHF   =         0.00000000
  -V(xc)+E(xc)   XCENC  =       943.44850880
  PAW double counting   =     22749.83524349   -23807.86311922
  entropy T*S    EENTRO =        -0.00000000
  eigenvalues    EBANDS =     -2990.51614819
  atomic energy  EATOM  =     26212.11861568
  Solvation  Ediel_sol  =         0.00000000
  ---------------------------------------------------
  free energy    TOTEN  =     -1409.43398727 eV

  energy without entropy =    -1409.43398727  energy(sigma->0) =    -1409.43398727


--------------------------------------------------------------------------------------------------------




--------------------------------------- Iteration      1(  12)  ---------------------------------------


    POTLOK:  cpu time    0.2539: real time    0.3211
    SETDIJ:  cpu time    1.1994: real time    1.1994
     EDDAV:  cpu time   16.9468: real time   16.9474
       DOS:  cpu time    0.0004: real time    0.0004
    CHARGE:  cpu time    2.6999: real time    2.7000
    MIXING:  cpu time    0.0017: real time    0.0017
    --------------------------------------------
      LOOP:  cpu time   21.1021: real time   21.1701

 eigenvalue-minimisations  :  3632
 total energy-change (2. order) :-0.2713960E-02  (-0.5766486E-03)
 number of electron     344.0000000 magnetization 
 augmentation part       -3.1963388 magnetization 

 Broyden mixing:
  rms(total) = 0.10694E-01    rms(broyden)= 0.10693E-01
  rms(prec ) = 0.13635E-01
  weight for this iteration     100.00

 eigenvalues of (default mixing * dielectric matrix)
  average eigenvalue GAMMA=   1.5701
  2.7996  2.7996  1.2974  1.2974  0.8915  0.9525  0.9525

 Free energy of the ion-electron system (eV)
  ---------------------------------------------------
  alpha Z        PSCENC =       872.70583573
  Ewald energy   TEWEN  =    -17920.90497864
  -Hartree energ DENC   =     -7467.42559655
  -exchange      EXHF   =         0.00000000
  -V(xc)+E(xc)   XCENC  =       943.47751636
  PAW double counting   =     22744.16494626   -23802.49015798
  entropy T*S    EENTRO =        -0.00000000
  eigenvalues    EBANDS =     -2991.08288210
  atomic energy  EATOM  =     26212.11861568
  Solvation  Ediel_sol  =         0.00000000
  ---------------------------------------------------
  free energy    TOTEN  =     -1409.43670123 eV

  energy without entropy =    -1409.43670123  energy(sigma->0) =    -1409.43670123


--------------------------------------------------------------------------------------------------------




--------------------------------------- Iteration      1(  13)  ---------------------------------------


    POTLOK:  cpu time    0.2687: real time    0.3199
    SETDIJ:  cpu time    1.1996: real time    1.1996
     EDDAV:  cpu time   19.2956: real time   19.2963
       DOS:  cpu time    0.0004: real time    0.0004
    CHARGE:  cpu time    2.7004: real time    2.7005
    MIXING:  cpu time    0.0023: real time    0.0023
    --------------------------------------------
      LOOP:  cpu time   23.4670: real time   23.5190

 eigenvalue-minimisations  :  4448
 total energy-change (2. order) : 0.3826394E-03  (-0.1546789E-03)
 number of electron     344.0000000 magnetization 
 augmentation part       -3.1972574 magnetization 

 Broyden mixing:
  rms(total) = 0.54363E-02    rms(broyden)= 0.54357E-02
  rms(prec ) = 0.65025E-02
  weight for this iteration     100.00

 eigenvalues of (default mixing * dielectric matrix)
  average eigenvalue GAMMA=   1.5362
  3.1085  2.5240  1.5506  1.2346  1.0691  1.0691  0.9631  0.7704

 Free energy of the ion-electron system (eV)
  ---------------------------------------------------
  alpha Z        PSCENC =       872.70583573
  Ewald energy   TEWEN  =    -17920.90497864
  -Hartree energ DENC   =     -7468.38291662
  -exchange      EXHF   =         0.00000000
  -V(xc)+E(xc)   XCENC  =       943.53633322
  PAW double counting   =     22743.54263201   -23801.82059839
  entropy T*S    EENTRO =        -0.00000000
  eigenvalues    EBANDS =     -2990.23124159
  atomic energy  EATOM  =     26212.11861568
  Solvation  Ediel_sol  =         0.00000000
  ---------------------------------------------------
  free energy    TOTEN  =     -1409.43631859 eV

  energy without entropy =    -1409.43631859  energy(sigma->0) =    -1409.43631859


--------------------------------------------------------------------------------------------------------




--------------------------------------- Iteration      1(  14)  ---------------------------------------


    POTLOK:  cpu time    0.3033: real time    0.3132
    SETDIJ:  cpu time    1.2029: real time    1.2029
     EDDAV:  cpu time   17.5074: real time   17.5083
       DOS:  cpu time    0.0004: real time    0.0004
    CHARGE:  cpu time    2.7003: real time    2.7004
    MIXING:  cpu time    0.0020: real time    0.0020
    --------------------------------------------
      LOOP:  cpu time   21.7164: real time   21.7273

 eigenvalue-minimisations  :  3824
 total energy-change (2. order) : 0.7053566E-04  (-0.4631840E-04)
 number of electron     344.0000000 magnetization 
 augmentation part       -3.1961500 magnetization 

 Broyden mixing:
  rms(total) = 0.25703E-02    rms(broyden)= 0.25693E-02
  rms(prec ) = 0.34099E-02
  weight for this iteration     100.00

 eigenvalues of (default mixing * dielectric matrix)
  average eigenvalue GAMMA=   1.5279
  3.2105  2.1801  2.1801  1.0768  1.0768  1.1445  1.1445  0.8688  0.8688

 Free energy of the ion-electron system (eV)
  ---------------------------------------------------
  alpha Z        PSCENC =       872.70583573
  Ewald energy   TEWEN  =    -17920.90497864
  -Hartree energ DENC   =     -7468.74099125
  -exchange      EXHF   =         0.00000000
  -V(xc)+E(xc)   XCENC  =       943.55848812
  PAW double counting   =     22744.81948428   -23803.07243356
  entropy T*S    EENTRO =        -0.00000000
  eigenvalues    EBANDS =     -2989.92026841
  atomic energy  EATOM  =     26212.11861568
  Solvation  Ediel_sol  =         0.00000000
  ---------------------------------------------------
  free energy    TOTEN  =     -1409.43624806 eV

  energy without entropy =    -1409.43624806  energy(sigma->0) =    -1409.43624806


--------------------------------------------------------------------------------------------------------




--------------------------------------- Iteration      1(  15)  ---------------------------------------


    POTLOK:  cpu time    0.2494: real time    0.3159
    SETDIJ:  cpu time    1.1992: real time    1.1992
     EDDAV:  cpu time   18.0150: real time   18.0158
       DOS:  cpu time    0.0004: real time    0.0004
    CHARGE:  cpu time    2.6974: real time    2.6974
    MIXING:  cpu time    0.0019: real time    0.0019
    --------------------------------------------
      LOOP:  cpu time   22.1633: real time   22.2307

 eigenvalue-minimisations  :  4000
 total energy-change (2. order) : 0.6906597E-05  (-0.3132451E-05)
 number of electron     344.0000000 magnetization 
 augmentation part       -3.1963453 magnetization 

 Broyden mixing:
  rms(total) = 0.14935E-02    rms(broyden)= 0.14925E-02
  rms(prec ) = 0.21048E-02
  weight for this iteration     100.00

 eigenvalues of (default mixing * dielectric matrix)
  average eigenvalue GAMMA=   1.6157
  3.7091  2.4829  2.4829  1.2492  1.2492  1.2032  1.2032  0.8981  0.8981  0.7817

 Free energy of the ion-electron system (eV)
  ---------------------------------------------------
  alpha Z        PSCENC =       872.70583573
  Ewald energy   TEWEN  =    -17920.90497864
  -Hartree energ DENC   =     -7468.84344297
  -exchange      EXHF   =         0.00000000
  -V(xc)+E(xc)   XCENC  =       943.56068353
  PAW double counting   =     22745.27879996   -23803.52619446
  entropy T*S    EENTRO =        -0.00000000
  eigenvalues    EBANDS =     -2989.82555999
  atomic energy  EATOM  =     26212.11861568
  Solvation  Ediel_sol  =         0.00000000
  ---------------------------------------------------
  free energy    TOTEN  =     -1409.43624115 eV

  energy without entropy =    -1409.43624115  energy(sigma->0) =    -1409.43624115


--------------------------------------------------------------------------------------------------------




--------------------------------------- Iteration      1(  16)  ---------------------------------------


    POTLOK:  cpu time    0.3179: real time    0.3198
    SETDIJ:  cpu time    1.2058: real time    1.2058
     EDDAV:  cpu time   16.7347: real time   16.7353
       DOS:  cpu time    0.0004: real time    0.0004
    CHARGE:  cpu time    2.6964: real time    2.6964
    MIXING:  cpu time    0.0019: real time    0.0019
    --------------------------------------------
      LOOP:  cpu time   20.9570: real time   20.9597

 eigenvalue-minimisations  :  3552
 total energy-change (2. order) :-0.3631756E-04  (-0.3303963E-05)
 number of electron     344.0000000 magnetization 
 augmentation part       -3.1959974 magnetization 

 Broyden mixing:
  rms(total) = 0.57373E-03    rms(broyden)= 0.57118E-03
  rms(prec ) = 0.74840E-03
  weight for this iteration     100.00

 eigenvalues of (default mixing * dielectric matrix)
  average eigenvalue GAMMA=   1.6623
  4.1693  2.7178  2.2394  2.0395  1.0928  1.0928  1.1444  1.1444  0.9139  0.9139
  0.8174

 Free energy of the ion-electron system (eV)
  ---------------------------------------------------
  alpha Z        PSCENC =       872.70583573
  Ewald energy   TEWEN  =    -17920.90497864
  -Hartree energ DENC   =     -7468.92823095
  -exchange      EXHF   =         0.00000000
  -V(xc)+E(xc)   XCENC  =       943.55693504
  PAW double counting   =     22744.77810194   -23803.01904996
  entropy T*S    EENTRO =        -0.00000000
  eigenvalues    EBANDS =     -2989.74350631
  atomic energy  EATOM  =     26212.11861568
  Solvation  Ediel_sol  =         0.00000000
  ---------------------------------------------------
  free energy    TOTEN  =     -1409.43627747 eV

  energy without entropy =    -1409.43627747  energy(sigma->0) =    -1409.43627747


--------------------------------------------------------------------------------------------------------




--------------------------------------- Iteration      1(  17)  ---------------------------------------


    POTLOK:  cpu time    0.2604: real time    0.3159
    SETDIJ:  cpu time    1.2051: real time    1.2051
     EDDAV:  cpu time   18.4586: real time   18.4593
       DOS:  cpu time    0.0004: real time    0.0004
    CHARGE:  cpu time    2.6990: real time    2.6991
    MIXING:  cpu time    0.0022: real time    0.0022
    --------------------------------------------
      LOOP:  cpu time   22.6258: real time   22.6822

 eigenvalue-minimisations  :  4152
 total energy-change (2. order) :-0.1373881E-04  (-0.1125155E-05)
 number of electron     344.0000000 magnetization 
 augmentation part       -3.1958790 magnetization 

 Broyden mixing:
  rms(total) = 0.40572E-03    rms(broyden)= 0.40216E-03
  rms(prec ) = 0.44932E-03
  weight for this iteration     100.00

 eigenvalues of (default mixing * dielectric matrix)
  average eigenvalue GAMMA=   1.6368
  4.2769  2.9382  2.2134  2.1220  1.1659  1.1659  1.1301  1.1301  0.9719  0.9719
  0.7776  0.7776

 Free energy of the ion-electron system (eV)
  ---------------------------------------------------
  alpha Z        PSCENC =       872.70583573
  Ewald energy   TEWEN  =    -17920.90497864
  -Hartree energ DENC   =     -7468.90655735
  -exchange      EXHF   =         0.00000000
  -V(xc)+E(xc)   XCENC  =       943.55241523
  PAW double counting   =     22744.64315619   -23802.88226708
  entropy T*S    EENTRO =        -0.00000000
  eigenvalues    EBANDS =     -2989.76251097
  atomic energy  EATOM  =     26212.11861568
  Solvation  Ediel_sol  =         0.00000000
  ---------------------------------------------------
  free energy    TOTEN  =     -1409.43629121 eV

  energy without entropy =    -1409.43629121  energy(sigma->0) =    -1409.43629121


--------------------------------------------------------------------------------------------------------




--------------------------------------- Iteration      1(  18)  ---------------------------------------


    POTLOK:  cpu time    0.3078: real time    0.3099
    SETDIJ:  cpu time    1.2039: real time    1.2040
     EDDAV:  cpu time   13.6741: real time   13.6747
       DOS:  cpu time    0.0005: real time    0.0005
    CHARGE:  cpu time    2.6916: real time    2.6918
    MIXING:  cpu time    0.0020: real time    0.0020
    --------------------------------------------
      LOOP:  cpu time   17.8800: real time   17.8829

 eigenvalue-minimisations  :  2456
 total energy-change (2. order) : 0.7955035E-05  (-0.1455890E-06)
 number of electron     344.0000000 magnetization 
 augmentation part       -3.1959121 magnetization 

 Broyden mixing:
  rms(total) = 0.18979E-03    rms(broyden)= 0.18209E-03
  rms(prec ) = 0.20977E-03
  weight for this iteration     100.00

 eigenvalues of (default mixing * dielectric matrix)
  average eigenvalue GAMMA=   1.6545
  4.4861  2.8942  2.2603  2.2603  1.2992  1.2992  1.1521  1.1521  1.0421  1.0421
  0.8234  0.8984  0.8984

 Free energy of the ion-electron system (eV)
  ---------------------------------------------------
  alpha Z        PSCENC =       872.70583573
  Ewald energy   TEWEN  =    -17920.90497864
  -Hartree energ DENC   =     -7468.91052291
  -exchange      EXHF   =         0.00000000
  -V(xc)+E(xc)   XCENC  =       943.55244086
  PAW double counting   =     22744.74950506   -23802.98685302
  entropy T*S    EENTRO =        -0.00000000
  eigenvalues    EBANDS =     -2989.76032602
  atomic energy  EATOM  =     26212.11861568
  Solvation  Ediel_sol  =         0.00000000
  ---------------------------------------------------
  free energy    TOTEN  =     -1409.43628325 eV

  energy without entropy =    -1409.43628325  energy(sigma->0) =    -1409.43628325


--------------------------------------------------------------------------------------------------------




--------------------------------------- Iteration      1(  19)  ---------------------------------------


    POTLOK:  cpu time    0.3121: real time    0.3150
    SETDIJ:  cpu time    1.2051: real time    1.2052
     EDDAV:  cpu time   12.8210: real time   12.8217
       DOS:  cpu time    0.0004: real time    0.0004
    CHARGE:  cpu time    2.6985: real time    2.6986
    MIXING:  cpu time    0.0021: real time    0.0021
    --------------------------------------------
      LOOP:  cpu time   17.0391: real time   17.0429

 eigenvalue-minimisations  :  2152
 total energy-change (2. order) : 0.3964220E-05  (-0.3569754E-07)
 number of electron     344.0000000 magnetization 
 augmentation part       -3.1959255 magnetization 

 Broyden mixing:
  rms(total) = 0.97983E-04    rms(broyden)= 0.82133E-04
  rms(prec ) = 0.98680E-04
  weight for this iteration     100.00
  WARNING: grid for Broyden might be to small

 eigenvalues of (default mixing * dielectric matrix)
  average eigenvalue GAMMA=   1.6504
  4.6545  3.0462  2.2676  2.2676  1.1972  1.1972  1.4041  1.4041  1.0660  1.0660
  0.9717  0.9717  0.7960  0.7960

 Free energy of the ion-electron system (eV)
  ---------------------------------------------------
  alpha Z        PSCENC =       872.70583573
  Ewald energy   TEWEN  =    -17920.90497864
  -Hartree energ DENC   =     -7468.91333089
  -exchange      EXHF   =         0.00000000
  -V(xc)+E(xc)   XCENC  =       943.55260689
  PAW double counting   =     22744.83828052   -23803.07580733
  entropy T*S    EENTRO =        -0.00000000
  eigenvalues    EBANDS =     -2989.75750125
  atomic energy  EATOM  =     26212.11861568
  Solvation  Ediel_sol  =         0.00000000
  ---------------------------------------------------
  free energy    TOTEN  =     -1409.43627929 eV

  energy without entropy =    -1409.43627929  energy(sigma->0) =    -1409.43627929


--------------------------------------------------------------------------------------------------------




--------------------------------------- Iteration      1(  20)  ---------------------------------------


    POTLOK:  cpu time    0.2513: real time    0.3135
    SETDIJ:  cpu time    1.2036: real time    1.2037
     EDDAV:  cpu time   12.5503: real time   12.5510
       DOS:  cpu time    0.0005: real time    0.0005
    CHARGE:  cpu time    2.6930: real time    2.6931
    MIXING:  cpu time    0.0021: real time    0.0021
    --------------------------------------------
      LOOP:  cpu time   16.7008: real time   16.7639

 eigenvalue-minimisations  :  2056
 total energy-change (2. order) : 0.2849360E-05  (-0.1936214E-07)
 number of electron     344.0000000 magnetization 
 augmentation part       -3.1959387 magnetization 

 Broyden mixing:
  rms(total) = 0.75128E-04    rms(broyden)= 0.52815E-04
  rms(prec ) = 0.61997E-04
  weight for this iteration     100.00
  WARNING: grid for Broyden might be to small

 eigenvalues of (default mixing * dielectric matrix)
  average eigenvalue GAMMA=   1.6329
  4.7168  3.0994  2.2920  2.2920  1.8316  1.2276  1.2276  1.1346  1.1346  1.0175
  1.0175  1.0312  0.7908  0.8399  0.8399

 Free energy of the ion-electron system (eV)
  ---------------------------------------------------
  alpha Z        PSCENC =       872.70583573
  Ewald energy   TEWEN  =    -17920.90497864
  -Hartree energ DENC   =     -7468.91745146
  -exchange      EXHF   =         0.00000000
  -V(xc)+E(xc)   XCENC  =       943.55278235
  PAW double counting   =     22744.85626384   -23803.09323094
  entropy T*S    EENTRO =        -0.00000000
  eigenvalues    EBANDS =     -2989.75411300
  atomic energy  EATOM  =     26212.11861568
  Solvation  Ediel_sol  =         0.00000000
  ---------------------------------------------------
  free energy    TOTEN  =     -1409.43627644 eV

  energy without entropy =    -1409.43627644  energy(sigma->0) =    -1409.43627644


--------------------------------------------------------------------------------------------------------




--------------------------------------- Iteration      1(  21)  ---------------------------------------


    POTLOK:  cpu time    0.2565: real time    0.3224
    SETDIJ:  cpu time    1.2018: real time    1.2019
     EDDAV:  cpu time   12.4632: real time   12.4637
       DOS:  cpu time    0.0004: real time    0.0004
    --------------------------------------------
      LOOP:  cpu time   13.9219: real time   13.9884

 eigenvalue-minimisations  :  2024
 total energy-change (2. order) : 0.1052390E-06  (-0.7488187E-08)
 number of electron     344.0000000 magnetization 
 augmentation part       -3.1959387 magnetization 

 Free energy of the ion-electron system (eV)
  ---------------------------------------------------
  alpha Z        PSCENC =       872.70583573
  Ewald energy   TEWEN  =    -17920.90497864
  -Hartree energ DENC   =     -7468.91789840
  -exchange      EXHF   =         0.00000000
  -V(xc)+E(xc)   XCENC  =       943.55283986
  PAW double counting   =     22744.85537812   -23803.09221960
  entropy T*S    EENTRO =        -0.00000000
  eigenvalues    EBANDS =     -2989.75384909
  atomic energy  EATOM  =     26212.11861568
  Solvation  Ediel_sol  =         0.00000000
  ---------------------------------------------------
  free energy    TOTEN  =     -1409.43627633 eV

  energy without entropy =    -1409.43627633  energy(sigma->0) =    -1409.43627633


--------------------------------------------------------------------------------------------------------




 average (electrostatic) potential at core
  the test charge radii are     1.1312  1.1541  1.0178
  (the norm of the test charge is              1.0000)
       1 -55.3068       2 -55.3738       3 -55.3182       4 -55.1442       5 -55.3023
       6 -55.1168       7 -55.1275       8 -55.2160       9-101.6009      10-101.9156
      11-101.6431      12-101.6262      13-101.9188      14-101.6016      15-101.6160
      16-101.9756      17 -69.0026      18 -69.0199      19 -69.0384      20 -69.4977
      21 -69.0146      22 -68.9965      23 -68.9976      24 -69.0274      25 -69.0316
      26 -69.4448      27 -68.9189      28 -68.9885      29 -69.0070      30 -68.9638
      31 -69.0359      32 -68.9885      33 -68.9855      34 -68.9905      35 -68.9873
      36 -69.0184      37 -69.0204      38 -68.9208      39 -68.9399



 E-fermi :   0.4043     XC(G=0):  -7.9571     alpha+bet : -6.9586


 k-point     1 :       0.0000    0.0000    0.0000
  band No.  band energies     occupation 
      1     -20.8982      2.00000
      2     -20.8491      2.00000
      3     -20.8326      2.00000
      4     -20.8304      2.00000
      5     -20.7486      2.00000
      6     -20.6727      2.00000
      7     -20.6689      2.00000
      8     -20.6497      2.00000
      9     -16.7570      2.00000
     10     -16.7286      2.00000
     11     -16.6965      2.00000
     12     -16.6855      2.00000
     13     -16.6783      2.00000
     14     -16.6639      2.00000
     15     -16.6620      2.00000
     16     -16.6547      2.00000
     17     -16.5829      2.00000
     18     -16.5824      2.00000
     19     -16.5812      2.00000
     20     -16.5769      2.00000
     21     -16.5683      2.00000
     22     -16.5369      2.00000
     23     -16.5346      2.00000
     24     -16.4443      2.00000
     25     -16.4375      2.00000
     26     -16.4244      2.00000
     27     -16.4099      2.00000
     28     -16.4074      2.00000
     29     -16.3985      2.00000
     30     -16.3686      2.00000
     31     -16.3605      2.00000
     32     -16.3545      2.00000
     33     -16.3410      2.00000
     34     -16.3075      2.00000
     35     -16.3013      2.00000
     36     -16.2937      2.00000
     37     -16.2937      2.00000
     38     -16.2882      2.00000
     39     -16.2826      2.00000
     40     -16.2822      2.00000
     41     -16.2764      2.00000
     42     -16.2722      2.00000
     43     -16.2674      2.00000
     44     -16.2652      2.00000
     45     -16.2637      2.00000
     46     -16.2631      2.00000
     47     -16.2591      2.00000
     48     -16.2522      2.00000
     49     -14.5479      2.00000
     50     -14.4590      2.00000
     51     -14.3009      2.00000
     52     -14.1889      2.00000
     53     -14.1202      2.00000
     54     -14.0808      2.00000
     55     -14.0705      2.00000
     56     -14.0649      2.00000
     57     -14.0495      2.00000
     58     -14.0463      2.00000
     59     -14.0403      2.00000
     60     -14.0345      2.00000
     61     -14.0279      2.00000
     62     -14.0155      2.00000
     63     -14.0111      2.00000
     64     -13.9773      2.00000
     65     -13.9376      2.00000
     66     -13.8848      2.00000
     67     -13.8789      2.00000
     68     -13.7644      2.00000
     69     -13.7479      2.00000
     70     -13.7377      2.00000
     71     -13.7151      2.00000
     72      -8.2160      2.00000
     73      -7.8065      2.00000
     74      -7.7700      2.00000
     75      -7.7148      2.00000
     76      -7.3369      2.00000
     77      -7.3261      2.00000
     78      -7.2977      2.00000
     79      -7.2883      2.00000
     80      -7.2718      2.00000
     81      -7.2642      2.00000
     82      -7.2547      2.00000
     83      -7.2497      2.00000
     84      -7.2304      2.00000
     85      -7.2297      2.00000
     86      -7.2180      2.00000
     87      -7.2147      2.00000
     88      -7.2103      2.00000
     89      -7.1911      2.00000
     90      -7.1741      2.00000
     91      -7.1526      2.00000
     92      -7.1354      2.00000
     93      -7.1108      2.00000
     94      -7.0918      2.00000
     95      -7.0902      2.00000
     96      -7.0785      2.00000
     97      -7.0727      2.00000
     98      -7.0684      2.00000
     99      -7.0611      2.00000
    100      -7.0521      2.00000
    101      -7.0384      2.00000
    102      -7.0264      2.00000
    103      -6.5856      2.00000
    104      -3.3466      2.00000
    105      -3.3280      2.00000
    106      -3.2953      2.00000
    107      -3.2673      2.00000
    108      -3.2394      2.00000
    109      -3.2133      2.00000
    110      -3.1856      2.00000
    111      -3.1652      2.00000
    112      -3.0882      2.00000
    113      -3.0608      2.00000
    114      -2.9807      2.00000
    115      -2.8863      2.00000
    116      -2.2497      2.00000
    117      -2.2018      2.00000
    118      -2.1763      2.00000
    119      -2.0420      2.00000
    120      -2.0306      2.00000
    121      -1.9965      2.00000
    122      -1.9196      2.00000
    123      -1.9032      2.00000
    124      -1.8767      2.00000
    125      -1.8273      2.00000
    126      -1.7618      2.00000
    127      -1.7271      2.00000
    128      -1.7052      2.00000
    129      -1.6573      2.00000
    130      -1.6337      2.00000
    131      -1.5954      2.00000
    132      -1.5588      2.00000
    133      -1.5475      2.00000
    134      -1.5396      2.00000
    135      -1.5213      2.00000
    136      -1.5080      2.00000
    137      -1.4829      2.00000
    138      -1.4760      2.00000
    139      -1.4696      2.00000
    140      -1.4529      2.00000
    141      -1.4418      2.00000
    142      -1.4241      2.00000
    143      -1.4049      2.00000
    144      -1.3783      2.00000
    145      -1.3732      2.00000
    146      -1.3611      2.00000
    147      -1.3551      2.00000
    148      -1.3417      2.00000
    149      -1.3172      2.00000
    150      -1.3092      2.00000
    151      -1.3053      2.00000
    152      -1.2996      2.00000
    153      -1.2789      2.00000
[...]


--------------------------------------------------------------------------------------------------------


 soft charge-density along one line, spin component           1
         0         1         2         3         4         5         6         7         8         9
 total charge-density along one line

 pseudopotential strength for first ion, spin component:           1
 17.982  -4.707   0.002   0.003  -0.001  -0.002  -0.004   0.001
 -4.707   1.241  -0.000  -0.001   0.000   0.000   0.001  -0.000
  0.002  -0.000   2.268   0.000  -0.000  -2.713  -0.000   0.000
  0.003  -0.001   0.000   2.270  -0.001  -0.000  -2.716   0.002
 -0.001   0.000  -0.000  -0.001   2.268   0.000   0.002  -2.713
 -0.002   0.000  -2.713  -0.000   0.000   3.214   0.001  -0.000
 -0.004   0.001  -0.000  -2.716   0.002   0.001   3.219  -0.002
  0.001  -0.000   0.000   0.002  -2.713  -0.000  -0.002   3.215
 -0.000   0.000   0.001  -0.000   0.001  -0.001   0.000  -0.001
  0.000  -0.000   0.002   0.001  -0.000  -0.003  -0.001   0.000
  0.002  -0.000  -0.000   0.001   0.000   0.001  -0.001  -0.000
 -0.001   0.000  -0.000  -0.001   0.002   0.000   0.001  -0.003
  0.000  -0.000  -0.001  -0.000  -0.002   0.002   0.000   0.002
 total augmentation occupancy for first ion, spin component:           1
  1.911  -0.138   0.000   0.001  -0.000   0.001   0.002  -0.000  -0.000   0.001   0.002  -0.002   0.000
 -0.138   0.112   0.005   0.008  -0.002  -0.002  -0.004   0.001   0.001   0.001  -0.005   0.007   0.000
  0.000   0.005   2.014   0.001  -0.001   0.002   0.001  -0.001   0.002   0.005  -0.000  -0.000  -0.002
  0.001   0.008   0.001   2.022  -0.004   0.001   0.007  -0.002  -0.000   0.003   0.000  -0.000  -0.001
 -0.000  -0.002  -0.001  -0.004   2.015  -0.001  -0.002   0.002   0.001  -0.000   0.000   0.004  -0.003
  0.001  -0.002   0.002   0.001  -0.001   0.008   0.000   0.000  -0.002  -0.002   0.000   0.000   0.000
  0.002  -0.004   0.001   0.007  -0.002   0.000   0.006   0.002   0.000  -0.001   0.001  -0.001   0.001
 -0.000   0.001  -0.001  -0.002   0.002   0.000   0.002   0.009  -0.000   0.000  -0.001  -0.001   0.003
 -0.000   0.001   0.002  -0.000   0.001  -0.002   0.000  -0.000   0.006   0.002  -0.000   0.000   0.000
  0.001   0.001   0.005   0.003  -0.000  -0.002  -0.001   0.000   0.002   0.005  -0.000  -0.000  -0.000
  0.002  -0.005  -0.000   0.000   0.000   0.000   0.001  -0.001  -0.000  -0.000   0.003  -0.002  -0.001
 -0.002   0.007  -0.000  -0.000   0.004   0.000  -0.001  -0.001   0.000  -0.000  -0.002   0.004   0.001
  0.000   0.000  -0.002  -0.001  -0.003   0.000   0.001   0.003   0.000  -0.000  -0.001   0.001   0.005


------------------------ aborting loop because EDIFF is reached ----------------------------------------





 total charge     

# of ion       s       p       d       tot
------------------------------------------
    1        1.785   4.716   0.017   6.518
    2        1.785   4.716   0.017   6.518
    3        1.786   4.716   0.018   6.521
    4        1.785   4.717   0.017   6.519
    5        1.785   4.717   0.018   6.520
    6        1.786   4.717   0.018   6.521
    7        1.787   4.717   0.021   6.525
    8        1.786   4.717   0.019   6.521
    9        1.553   0.425   9.835  11.812
   10        1.530   0.438   9.831  11.799
   11        1.552   0.414   9.833  11.800
   12        1.553   0.420   9.834  11.807
   13        1.532   0.431   9.832  11.795
   14        1.552   0.420   9.833  11.805
   15        1.554   0.416   9.833  11.803
   16        1.539   0.443   9.828  11.811
   17        1.615   3.281   0.007   4.903
   18        1.615   3.285   0.007   4.907
   19        1.615   3.284   0.007   4.905
   20        1.616   3.271   0.007   4.894
   21        1.614   3.288   0.007   4.909
   22        1.614   3.281   0.006   4.901
   23        1.614   3.289   0.007   4.911
   24        1.614   3.279   0.006   4.899
   25        1.614   3.279   0.006   4.899
   26        1.616   3.272   0.007   4.895
   27        1.614   3.278   0.006   4.897
   28        1.614   3.278   0.006   4.898
   29        1.615   3.285   0.007   4.906
   30        1.614   3.285   0.006   4.906
   31        1.614   3.280   0.006   4.900
   32        1.614   3.284   0.007   4.905
   33        1.614   3.277   0.006   4.897
   34        1.614   3.278   0.006   4.898
   35        1.614   3.283   0.006   4.904
   36        1.614   3.280   0.006   4.900
   37        1.615   3.276   0.007   4.898
   38        1.614   3.281   0.006   4.901
   39        1.615   3.267   0.006   4.888
--------------------------------------------------
tot         63.783 116.582  78.951 259.316

    CHARGE:  cpu time    0.3907: real time    0.3907
    FORLOC:  cpu time    0.0111: real time    0.0111
    FORNL :  cpu time    1.9217: real time    1.9218
    STRESS:  cpu time   49.7026: real time   49.7046
    FORCOR:  cpu time    0.2406: real time    0.2406
    FORHAR:  cpu time    0.0275: real time    0.0275
    MIXING:  cpu time    0.0026: real time    0.0026
    OFIELD:  cpu time    0.0000: real time    0.0000

  FORCE on cell =-STRESS in cart. coord.  units (eV):
  Direction    XX          YY          ZZ          XY          YZ          ZX
  --------------------------------------------------------------------------------------
  Alpha Z   872.70584   872.70584   872.70584
  Ewald   -5966.21115 -5944.99446 -6009.77811   -15.66190   101.34871   166.69752
  Hartree  2510.01723  2484.96631  2473.93423    -1.95854    56.11562   111.41575
  E(xc)   -1449.34310 -1449.23515 -1449.16832     0.01158     0.14586     0.09744
  Local   -2934.58622 -2928.11266 -2857.52549    17.10678  -157.93720  -278.98621
  n-local  1747.61443  1747.77503  1747.22145    -1.15674     1.62303     0.85065
  augment   818.52199   817.29492   817.41823    -0.27334     0.23911     0.32696
  Kinetic  4393.33752  4394.37013  4400.57568     2.43954    -0.67022     0.28492
  Fock        0.00000     0.00000     0.00000     0.00000     0.00000     0.00000
  -------------------------------------------------------------------------------------
  Total      -7.94347    -5.23006    -4.61650     0.50737     0.86490     0.68704
  in kB      -7.97878    -5.25330    -4.63702     0.50962     0.86875     0.69009
  external pressure =       -5.96 kB  Pullay stress =        0.00 kB


 VOLUME and BASIS-vectors are now :
 -----------------------------------------------------------------------------
  energy-cutoff  :      300.00
  volume of cell :     1595.09
      direct lattice vectors                 reciprocal lattice vectors
     8.456489000  0.000000000  8.040301000     0.059126193 -0.000000000  0.062186727
     0.000000000 11.729847000  0.000000000     0.000000000  0.085252604 -0.000000000
    -8.456489000  0.000000000  8.040301000    -0.059126193  0.000000000  0.062186727

  length of vectors
    11.668703715 11.729847000 11.668703715     0.085808482  0.085252604  0.085808482


 FORCES acting on ions
    electron-ion (+dipol)            ewald-force                    non-local-force                 convergence-correction
 -----------------------------------------------------------------------------------------------
   0.139E+02 -.104E+02 -.308E+02   -.138E+02 0.102E+02 0.305E+02   -.573E-01 0.148E+00 0.259E+00   -.175E-04 0.807E-04 0.498E-04
   0.731E+02 -.381E+02 0.192E+02   -.726E+02 0.377E+02 -.189E+02   -.515E+00 0.395E+00 -.274E+00   0.607E-04 0.900E-04 -.737E-04
   0.302E+02 0.110E+02 -.302E+02   -.297E+02 -.108E+02 0.302E+02   -.461E+00 -.108E+00 0.498E-01   0.524E-04 -.116E-03 -.774E-04
   -.375E+02 0.347E+01 0.956E+00   0.376E+02 -.354E+01 -.825E+00   -.817E-01 0.609E-01 -.124E+00   -.135E-04 -.339E-04 0.474E-05
   -.317E+02 -.316E+02 -.384E+02   0.315E+02 0.314E+02 0.382E+02   0.198E+00 0.160E+00 0.188E+00   0.425E-04 0.388E-04 -.544E-04
   0.448E+02 -.119E+02 0.322E+02   -.447E+02 0.119E+02 -.322E+02   -.946E-01 0.415E-01 0.293E-01   -.928E-04 0.956E-04 0.741E-05
   -.359E+02 0.262E+02 0.674E+02   0.357E+02 -.262E+02 -.673E+02   0.173E+00 0.458E-01 -.591E-01   -.230E-04 -.620E-04 0.562E-04
   -.271E+02 0.147E+02 -.345E+02   0.269E+02 -.146E+02 0.342E+02   0.158E+00 -.157E+00 0.330E+00   0.168E-04 -.756E-04 -.983E-05
   -.155E+01 0.269E+01 0.175E+02   0.159E+01 -.298E+01 -.192E+02   -.324E-01 0.296E+00 0.165E+01   0.247E-04 0.436E-04 -.155E-03
   -.494E+01 0.110E+03 -.408E+02   0.539E+01 -.116E+03 0.431E+02   -.444E+00 0.593E+01 -.232E+01   -.959E-04 0.950E-03 -.100E-03
   -.400E+01 -.369E+02 0.743E+01   0.268E+01 0.375E+02 -.685E+01   0.129E+01 -.592E+00 -.578E+00   0.130E-03 -.379E-04 -.390E-04
   0.933E+01 0.304E+02 -.185E+01   -.807E+01 -.304E+02 0.215E+01   -.124E+01 0.146E-02 -.271E+00   -.105E-03 0.173E-03 0.353E-04
   -.112E+03 0.479E+02 0.745E+02   0.117E+03 -.486E+02 -.779E+02   -.497E+01 0.712E+00 0.345E+01   -.576E-03 0.132E-03 0.520E-03
   0.312E+02 -.237E+02 0.985E+01   -.321E+02 0.233E+02 -.121E+02   0.828E+00 0.441E+00 0.223E+01   -.147E-03 -.166E-03 0.184E-04
   -.542E+01 -.185E+01 0.158E+02   0.597E+01 0.241E+01 -.160E+02   -.560E+00 -.552E+00 0.169E+00   0.886E-05 -.402E-04 -.136E-03
   0.172E+02 -.715E+01 -.319E+02   -.171E+02 0.491E+01 0.288E+02   -.109E+00 0.224E+01 0.314E+01   0.116E-03 -.277E-03 0.944E-04
   0.132E+01 0.908E+01 0.343E+02   -.138E+01 -.907E+01 -.346E+02   0.524E-01 -.224E-01 0.225E+00   0.216E-04 -.176E-04 0.652E-05
   0.258E+02 0.665E+01 0.351E+02   -.258E+02 -.665E+01 -.354E+02   0.874E-02 0.711E-02 0.323E+00   -.828E-04 -.774E-04 0.475E-04
   -.241E+01 -.766E+01 0.504E+02   0.252E+01 0.760E+01 -.508E+02   -.977E-01 0.483E-01 0.362E+00   -.217E-04 0.479E-04 -.564E-04
   0.198E+02 -.426E+02 0.163E+00   -.200E+02 0.431E+02 -.398E+00   0.225E+00 -.404E+00 0.225E+00   0.386E-04 0.953E-04 0.113E-03
   -.807E+00 0.103E+02 -.242E+02   0.795E+00 -.104E+02 0.244E+02   0.618E-02 0.347E-01 -.152E+00   0.428E-04 -.433E-04 -.793E-04
   -.250E+02 -.933E+01 -.181E+02   0.250E+02 0.932E+01 0.184E+02   -.551E-01 0.164E-01 -.343E+00   0.432E-04 0.471E-04 0.403E-04
   -.116E+02 -.913E+01 -.224E+02   0.118E+02 0.915E+01 0.225E+02   -.154E+00 -.534E-02 -.397E-01   -.452E-04 0.691E-04 -.220E-04
   -.483E+02 0.265E+02 0.213E+02   0.484E+02 -.268E+02 -.216E+02   -.140E+00 0.235E+00 0.236E+00   0.297E-04 0.266E-04 -.115E-04
   0.534E-01 -.563E+00 0.113E+02   0.345E+00 0.458E+00 -.112E+02   -.374E+00 0.103E+00 -.401E-01   -.886E-04 -.644E-04 -.145E-04
   0.478E+02 -.290E+02 -.949E+01   -.483E+02 0.293E+02 0.940E+01   0.493E+00 -.263E+00 0.816E-01   0.737E-04 -.111E-03 0.808E-04
   0.324E+02 -.215E+02 0.429E+02   -.326E+02 0.217E+02 -.431E+02   0.266E+00 -.170E+00 0.171E+00   -.174E-04 -.529E-04 -.755E-04
   -.315E+02 -.267E+02 -.415E+01   0.318E+02 0.269E+02 0.429E+01   -.290E+00 -.176E+00 -.136E+00   -.285E-04 0.820E-04 -.821E-05
   -.135E+02 -.182E+02 -.428E+02   0.136E+02 0.184E+02 0.432E+02   -.112E+00 -.225E+00 -.416E+00   -.533E-04 0.708E-04 -.211E-04
   0.261E+02 0.880E+01 -.207E+02   -.263E+02 -.894E+01 0.211E+02   0.177E+00 0.126E+00 -.323E+00   -.596E-05 0.504E-04 -.640E-04
   0.883E+01 0.365E+02 -.310E+02   -.912E+01 -.367E+02 0.310E+02   0.265E+00 0.203E+00 -.459E-01   -.411E-04 0.626E-04 0.467E-04
   -.399E+02 -.118E+02 0.972E+01   0.401E+02 0.118E+02 -.984E+01   -.219E+00 -.307E-01 0.127E+00   0.683E-04 -.188E-04 -.279E-05
   0.794E+01 -.216E+01 0.382E+02   -.777E+01 0.237E+01 -.386E+02   -.166E+00 -.207E+00 0.356E+00   -.194E-04 0.153E-03 0.755E-05
   0.181E+02 0.242E+02 0.128E+02   -.181E+02 -.243E+02 -.132E+02   0.758E-01 0.166E+00 0.371E+00   0.622E-04 0.860E-04 0.188E-04
   0.194E+02 0.206E+02 0.216E+02   -.196E+02 -.207E+02 -.216E+02   0.202E+00 0.402E-01 -.299E-01   -.168E-05 0.410E-04 -.165E-04
   0.170E+02 0.115E+00 0.270E+00   -.172E+02 0.887E-02 -.186E-01   0.189E+00 -.132E+00 -.231E+00   -.302E-04 -.636E-04 -.307E-04
   -.255E+01 -.161E+02 -.590E+02   0.247E+01 0.164E+02 0.595E+02   0.855E-01 -.218E+00 -.520E+00   0.147E-04 -.857E-04 0.410E-04
   -.166E+02 0.103E+02 -.359E+02   0.167E+02 -.105E+02 0.363E+02   -.133E+00 0.160E+00 -.358E+00   -.673E-04 -.458E-04 -.405E-05
   0.133E+02 -.506E+02 -.539E+02   -.138E+02 0.513E+02 0.544E+02   0.472E+00 -.548E+00 -.456E+00   0.516E-04 -.174E-03 0.102E-04
 -----------------------------------------------------------------------------------------------
   0.512E+01 -.779E+01 -.725E+01   0.119E-12 0.000E+00 0.284E-13   -.514E+01 0.781E+01 0.725E+01   -.676E-03 0.873E-03 0.147E-03


 POSITION                                       TOTAL-FORCE (eV/Angst)
 -----------------------------------------------------------------------------------
      0.52747      2.94058      3.96450        -0.000049      0.000030     -0.000038
      0.60621      2.90348     11.83072         0.000144     -0.000234      0.000090
      3.74468      8.79767      7.78837        -0.000110      0.000104      0.000190
     -4.60463      8.70905      8.04927        -0.000134      0.000160     -0.000150
     -4.21222      2.69585      7.76469        -0.000190     -0.000059     -0.000058
      4.89161      2.93553      8.32633        -0.000042     -0.000112      0.000026
     -0.48349      9.04585     12.66227        -0.000004      0.000142      0.000222
     -0.46331      8.85433      3.92839         0.000243      0.000370     -0.000017
      0.05377      0.05935      0.06189         0.000114     -0.000310      0.000065
     -0.12803     11.61045      8.15869         0.000303     -0.000120      0.000566
      4.19043      0.10972      4.19434         0.000155     -0.000077     -0.000082
      4.27495     11.66055     11.98258        -0.000343     -0.000050     -0.000372
     -4.18682      5.96218     12.02785        -0.000277     -0.000320     -0.000172
      4.23520      5.87593     11.93920        -0.000258      0.000081     -0.000092
     -8.38863      5.86509      7.99675         0.000122      0.000199      0.000300
      0.02302      5.67517      7.81168        -0.000106      0.000342     -0.000183
     -4.22846      8.90366     11.79041        -0.000238     -0.000027      0.000159
      4.36467      8.77333     11.34891         0.000408     -0.000100     -0.000093
      0.09562      2.96227     15.48201         0.000080      0.000080     -0.000134
     -0.42626      2.68933      7.78816        -0.000046      0.000302      0.000055
      0.16942      8.82815      0.36037         0.000016     -0.000155      0.000040
      4.13712      3.07204      4.69309         0.000049      0.000080     -0.000052
     -4.19537      2.90608      4.18166         0.000045      0.000028     -0.000055
     -5.84111      5.44356      9.61101        -0.000118     -0.000036      0.000056
      2.42281      5.44334      9.44751        -0.000402      0.000227     -0.000169
      1.83469      6.37493      5.47851         0.000020     -0.000259     -0.000005
      1.75125      6.21162     13.54619         0.000246     -0.000089     -0.000144
     -1.76270      0.32900     10.65744        -0.000108     -0.000007      0.000323
     -1.57562      0.42022      2.47456        -0.000140      0.000085      0.000121
      5.88717     11.45522      6.61934         0.000004      0.000075     -0.000062
     -2.47916     11.16920      6.43962        -0.000218      0.000004     -0.000176
     -5.98989      0.34269      9.79876         0.000054      0.000122     -0.000074
      2.48583      0.32275      9.62539         0.000089     -0.000201      0.000216
      1.58015     11.31321      5.77087         0.000237      0.000232     -0.000192
      1.93160     11.54971     13.76135         0.000148     -0.000011     -0.000155
      6.00397      6.27249      6.40505        -0.000096     -0.000121      0.000192
     -2.57278      6.11389      6.29203         0.000114     -0.000091      0.000133
     -1.59495      5.49545      2.39065         0.000011      0.000051      0.000148
     -1.20240      7.49768      9.55774         0.000276     -0.000336     -0.000429
 -----------------------------------------------------------------------------------
    total drift:                               -0.027018      0.022464      0.004745


--------------------------------------------------------------------------------------------------------



  FREE ENERGIE OF THE ION-ELECTRON SYSTEM (eV)
  ---------------------------------------------------
  free  energy   TOTEN  =     -1409.43627633 eV

  energy  without entropy=    -1409.43627633  energy(sigma->0) =    -1409.43627633



--------------------------------------------------------------------------------------------------------


    POTLOK:  cpu time    1.4342: real time    1.4342


--------------------------------------------------------------------------------------------------------


 stress matrix after NEB project (eV)
     -7.94347      0.50739      0.68704
      0.50737     -5.23006      0.86477
      0.68697      0.86490     -4.61650
  FORCES: max atom, RMS     0.000653    0.000315
  FORCE total and by dimension    0.001969    0.000566
  Stress total and by dimension   10.710698    7.943474
     LOOP+:  cpu time  481.5815: real time  482.3056
    4ORBIT:  cpu time    0.0000: real time    0.0000



 total charge     

# of ion       s       p       d       tot
------------------------------------------
    1        1.785   4.716   0.017   6.518
    2        1.785   4.716   0.017   6.518
    3        1.786   4.716   0.018   6.521
    4        1.785   4.717   0.017   6.519
    5        1.785   4.717   0.018   6.520
    6        1.786   4.717   0.018   6.521
    7        1.787   4.717   0.021   6.525
    8        1.786   4.717   0.019   6.521
    9        1.553   0.425   9.835  11.812
   10        1.530   0.438   9.831  11.799
   11        1.552   0.414   9.833  11.800
   12        1.553   0.420   9.834  11.807
   13        1.532   0.431   9.832  11.795
   14        1.552   0.420   9.833  11.805
   15        1.554   0.416   9.833  11.803
   16        1.539   0.443   9.828  11.811
   17        1.615   3.281   0.007   4.903
   18        1.615   3.285   0.007   4.907
   19        1.615   3.284   0.007   4.905
   20        1.616   3.271   0.007   4.894
   21        1.614   3.288   0.007   4.909
   22        1.614   3.281   0.006   4.901
   23        1.614   3.289   0.007   4.911
   24        1.614   3.279   0.006   4.899
   25        1.614   3.279   0.006   4.899
   26        1.616   3.272   0.007   4.895
   27        1.614   3.278   0.006   4.897
   28        1.614   3.278   0.006   4.898
   29        1.615   3.285   0.007   4.906
   30        1.614   3.285   0.006   4.906
   31        1.614   3.280   0.006   4.900
   32        1.614   3.284   0.007   4.905
   33        1.614   3.277   0.006   4.897
   34        1.614   3.278   0.006   4.898
   35        1.614   3.283   0.006   4.904
   36        1.614   3.280   0.006   4.900
   37        1.615   3.276   0.007   4.898
   38        1.614   3.281   0.006   4.901
   39        1.615   3.267   0.006   4.888
--------------------------------------------------
tot         63.783 116.582  78.951 259.316


 total amount of memory used by VASP MPI-rank0    60669. kBytes
=======================================================================

   base      :      30000. kBytes
   nonlr-proj:       6504. kBytes
   fftplans  :       8423. kBytes
   grid      :       7465. kBytes
   one-center:         77. kBytes
   wavefun   :       8200. kBytes

  
  
 General timing and accounting informations for this job:
 ========================================================
  
                  Total CPU time used (sec):      493.857
                            User time (sec):      492.397
                          System time (sec):        1.460
                         Elapsed time (sec):      495.261
  
                   Maximum memory used (kb):       79052.
                   Average memory used (kb):           0.
  
                          Minor page faults:        21178
                          Major page faults:            1
                 Voluntary context switches:         1805
