 running on   64 total cores
 distrk:  each k-point on   64 cores,    1 groups
 distr:  one band on    8 cores,    8 groups
 using from now: INCAR     
 vasp.5.4.4.18Apr17-6-g9f103f2a35 (build Jun 22 2020 09:27:21) complex           
 POSCAR found type information on POSCAR  Cs Pb Br
 POSCAR found :  3 types and      39 ions
 scaLAPACK will be used
 LDA part: xc-table for Pade appr. of Perdew
 POSCAR found type information on POSCAR  Cs Pb Br
 POSCAR found :  3 types and      39 ions
 POSCAR, INCAR and KPOINTS ok, starting setup
 FFT: planning ...
 WAVECAR not read
 entering main loop
       N       E                     dE             d eps       ncg     rms          rms(c)
DAV:   1     0.132990932770E+04    0.13299E+04   -0.11058E+05  3480   0.973E+02
DAV:   2    -0.111250769883E+04   -0.24424E+04   -0.23608E+04  4056   0.300E+02
DAV:   3    -0.147485847443E+04   -0.36235E+03   -0.36039E+03  4432   0.137E+02
DAV:   4    -0.148687895261E+04   -0.12020E+02   -0.11984E+02  3920   0.329E+01
DAV:   5    -0.148742932223E+04   -0.55037E+00   -0.55011E+00  4416   0.555E+00BRMIX: very serious problems
 the old and the new charge density differ
 old charge density:   345.00000 new  344.00000
    0.101E+01
DAV:   6    -0.140970308825E+04    0.77726E+02   -0.23618E+01  4312   0.319E+01    0.718E+00
DAV:   7    -0.140918745899E+04    0.51563E+00   -0.87928E+00  4056   0.571E+00    0.373E+00
DAV:   8    -0.140936185615E+04   -0.17440E+00   -0.46196E-01  4088   0.208E+00    0.218E+00
DAV:   9    -0.140942845908E+04   -0.66603E-01   -0.18519E-01  3696   0.137E+00    0.459E-01
DAV:  10    -0.140943225286E+04   -0.37938E-02   -0.25744E-02  4416   0.452E-01    0.335E-01
DAV:  11    -0.140943398727E+04   -0.17344E-02   -0.28471E-03  3688   0.156E-01    0.165E-01
DAV:  12    -0.140943670123E+04   -0.27140E-02   -0.57665E-03  3632   0.204E-01    0.107E-01
DAV:  13    -0.140943631859E+04    0.38264E-03   -0.15468E-03  4448   0.110E-01    0.544E-02
DAV:  14    -0.140943624806E+04    0.70536E-04   -0.46318E-04  3824   0.421E-02    0.257E-02
DAV:  15    -0.140943624115E+04    0.69066E-05   -0.31325E-05  4000   0.161E-02    0.149E-02
DAV:  16    -0.140943627747E+04   -0.36318E-04   -0.33040E-05  3552   0.165E-02    0.574E-03
DAV:  17    -0.140943629121E+04   -0.13739E-04   -0.11252E-05  4152   0.855E-03    0.406E-03
DAV:  18    -0.140943628325E+04    0.79550E-05   -0.14559E-06  2456   0.297E-03    0.190E-03
DAV:  19    -0.140943627929E+04    0.39642E-05   -0.35698E-07  2152   0.213E-03    0.980E-04
DAV:  20    -0.140943627644E+04    0.28494E-05   -0.19362E-07  2056   0.139E-03    0.751E-04
DAV:  21    -0.140943627633E+04    0.10524E-06   -0.74882E-08  2024   0.107E-03
   1 F= -.14094363E+04 E0= -.14094363E+04  d E =-.688029E-12
Application 1922353 resources: utime ~31542s, stime ~125s, Rss ~79052, inblocks ~1334, outblocks ~111416
