<?xml version="1.0" encoding="ISO-8859-1"?>
<modeling>
 <generator>
  <i name="program" type="string">vasp </i>
  <i name="version" type="string">5.4.4.18Apr17-6-g9f103f2a35  </i>
  <i name="subversion" type="string">(build Jun 22 2020 09:27:21) complex            parallel </i>
  <i name="platform" type="string">tx2_gcc-7.3_libsci-18.07_cray-fftw-3.3.8 </i>
  <i name="date" type="string">2021 10 12 </i>
  <i name="time" type="string">03:53:45 </i>
 </generator>
 <incar>
  <i type="string" name="SYSTEM"> CsPbBr3 cubic bulk</i>
  <i type="string" name="PREC">accurate</i>
  <i type="string" name="ALGO"> NORMAL   ! Electronic minimisation algo</i>
  <i type="logical" name="ADDGRID"> T  </i>
  <i type="int" name="ISPIN">     1</i>
  <i type="int" name="NELM">   200</i>
  <i type="int" name="IBRION">     2</i>
  <i name="EDIFF">      0.00000100</i>
  <i name="EDIFFG">     -0.01000000</i>
  <i type="int" name="NSW">     0</i>
  <i type="int" name="ISIF">     2</i>
  <i type="int" name="ISYM">     0</i>
  <i name="ENCUT">    300.00000000</i>
  <i name="POTIM">      0.50000000</i>
  <i name="NUPDOWN">      0.00000000</i>
  <i name="NELECT">    344.00000000</i>
  <i type="string" name="LREAL"> AUTO</i>
  <i type="int" name="ISMEAR">     0</i>
  <i name="SIGMA">      0.01000000</i>
  <i type="logical" name="LWAVE"> F  </i>
  <i type="logical" name="LCHARG"> F  </i>
  <i type="logical" name="LVHAR"> T  </i>
  <i type="int" name="LORBIT">    10</i>
  <i type="logical" name="LASPH"> T  </i>
  <v type="int" name="KPOINT_BSE">    -1     0     0     0</v>
  <i type="int" name="NELM">   200</i>
  <i type="string" name="METAGGA"> SCAN       ! PBE exchange-correlation</i>
  <i type="logical" name="LASPH"> T  </i>
 </incar>
 <structure name="primitive_cell" >
  <crystal>
   <varray name="basis" >
    <v>       8.45648900       0.00000000       8.04030100 </v>
    <v>       0.00000000      11.72984700       0.00000000 </v>
    <v>      -8.45648900       0.00000000       8.04030100 </v>
   </varray>
   <i name="volume">   1595.08833419 </i>
   <varray name="rec_basis" >
    <v>       0.05912619      -0.00000000       0.06218673 </v>
    <v>       0.00000000       0.08525260      -0.00000000 </v>
    <v>      -0.05912619       0.00000000       0.06218673 </v>
   </varray>
  </crystal>
  <varray name="positions" >
   <v>       0.27772700       0.25069200       0.21535200 </v>
   <v>       0.06072400       0.03582500       0.24704500 </v>
   <v>       0.05436300       0.46850100       0.24297000 </v>
   <v>      -0.46354000       0.26189900       0.04723600 </v>
   <v>       0.25519300       0.02921500      -0.03648800 </v>
   <v>       0.45911700       0.22927200      -0.49047700 </v>
   <v>       0.45230000      -0.03551900       0.26544300 </v>
   <v>       0.44916900      -0.45652100       0.23221200 </v>
   <v>       0.25231500       0.46407800      -0.05696000 </v>
   <v>      -0.03157100       0.25254100      -0.04287800 </v>
   <v>      -0.49140400       0.00935400       0.01306800 </v>
   <v>       0.01198800       0.24775100      -0.49190000 </v>
   <v>       0.48714400       0.48382300       0.48442200 </v>
   <v>      -0.49957800      -0.49170900      -0.00447700 </v>
   <v>       0.00702800       0.00506000       0.00067000 </v>
   <v>       0.00130400      -0.49998600      -0.00672100 </v>
   <v>       0.23916200      -0.47877500      -0.45660100 </v>
   <v>       0.49979200      -0.01017900      -0.48506800 </v>
   <v>       0.25387600      -0.04779700      -0.45295800 </v>
   <v>      -0.19299000       0.25026200       0.22856500 </v>
   <v>      -0.00712900      -0.49906200       0.49204800 </v>
   <v>      -0.00208100      -0.00590800       0.49239600 </v>
   <v>       0.23380800       0.22982800      -0.26808700 </v>
   <v>       0.21690000      -0.24514500       0.27168700 </v>
   <v>      -0.26923900       0.46405900       0.44425800 </v>
   <v>      -0.25445100       0.02751500       0.45159400 </v>
   <v>      -0.24027900      -0.02341300       0.06354900 </v>
   <v>      -0.44147100       0.02804800      -0.23302700 </v>
   <v>       0.48319400      -0.24094000      -0.01678000 </v>
   <v>      -0.24669900      -0.46525400       0.04331700 </v>
   <v>       0.03242700      -0.24737700       0.01239300 </v>
   <v>      -0.03001900      -0.01535700      -0.25843500 </v>
   <v>      -0.05406200      -0.47044300      -0.26115200 </v>
   <v>      -0.47672900      -0.36080300      -0.33454200 </v>
   <v>      -0.03618200      -0.25205100       0.44768500 </v>
   <v>      -0.29425800      -0.24997600       0.26292500 </v>
   <v>       0.22830400      -0.25753100      -0.22718800 </v>
   <v>      -0.22844300       0.24752900      -0.30012900 </v>
   <v>      -0.24116200      -0.22881800      -0.18398800 </v>
  </varray>
 </structure>
 <varray name="primitive_index" >
  <v type="int" >        1 </v>
  <v type="int" >       29 </v>
  <v type="int" >       38 </v>
  <v type="int" >       22 </v>
  <v type="int" >       32 </v>
  <v type="int" >       20 </v>
  <v type="int" >       34 </v>
  <v type="int" >       26 </v>
  <v type="int" >       24 </v>
  <v type="int" >       19 </v>
  <v type="int" >       11 </v>
  <v type="int" >       23 </v>
  <v type="int" >       16 </v>
  <v type="int" >       13 </v>
  <v type="int" >        9 </v>
  <v type="int" >       15 </v>
  <v type="int" >       37 </v>
  <v type="int" >       10 </v>
  <v type="int" >       31 </v>
  <v type="int" >        6 </v>
  <v type="int" >       14 </v>
  <v type="int" >       12 </v>
  <v type="int" >        5 </v>
  <v type="int" >        8 </v>
  <v type="int" >       25 </v>
  <v type="int" >       33 </v>
  <v type="int" >       30 </v>
  <v type="int" >       28 </v>
  <v type="int" >       17 </v>
  <v type="int" >       36 </v>
  <v type="int" >       21 </v>
  <v type="int" >       35 </v>
  <v type="int" >       27 </v>
  <v type="int" >       39 </v>
  <v type="int" >       18 </v>
  <v type="int" >        3 </v>
  <v type="int" >        4 </v>
  <v type="int" >        2 </v>
  <v type="int" >        7 </v>
 </varray>
 <kpoints>
  <generation param="Gamma">
   <v type="int" name="divisions">       2        2        2 </v>
   <v name="usershift">      0.00000000       0.00000000       0.00000000 </v>
   <v name="genvec1">      0.50000000       0.00000000       0.00000000 </v>
   <v name="genvec2">      0.00000000       0.50000000       0.00000000 </v>
   <v name="genvec3">      0.00000000       0.00000000       0.50000000 </v>
   <v name="shift">      0.00000000       0.00000000       0.00000000 </v>
  </generation>
  <varray name="kpointlist" >
   <v>       0.00000000       0.00000000       0.00000000 </v>
   <v>       0.50000000       0.00000000       0.00000000 </v>
   <v>       0.00000000       0.50000000       0.00000000 </v>
   <v>       0.50000000       0.50000000       0.00000000 </v>
   <v>       0.00000000       0.00000000       0.50000000 </v>
   <v>       0.50000000       0.00000000       0.50000000 </v>
   <v>       0.00000000       0.50000000       0.50000000 </v>
   <v>       0.50000000       0.50000000       0.50000000 </v>
  </varray>
  <varray name="weights" >
   <v>       0.12500000 </v>
   <v>       0.12500000 </v>
   <v>       0.12500000 </v>
   <v>       0.12500000 </v>
   <v>       0.12500000 </v>
   <v>       0.12500000 </v>
   <v>       0.12500000 </v>
   <v>       0.12500000 </v>
  </varray>
 </kpoints>
 <parameters>
  <separator name="general" >
   <i type="string" name="SYSTEM">CsPbBr3 cubic bulk</i>
   <i type="logical" name="LCOMPAT"> F  </i>
  </separator>
  <separator name="electronic" >
   <i type="string" name="PREC">accura</i>
   <i name="ENMAX">    300.00000000</i>
   <i name="ENAUG">    503.85200000</i>
   <i name="EDIFF">      0.00000100</i>
   <i type="int" name="IALGO">    38</i>
   <i type="int" name="IWAVPR">    10</i>
   <i type="int" name="NBANDS">   208</i>
   <i name="NELECT">    344.00000000</i>
   <i type="int" name="TURBO">     0</i>
   <i type="int" name="IRESTART">     0</i>
   <i type="int" name="NREBOOT">     0</i>
   <i type="int" name="NMIN">     0</i>
   <i name="EREF">      0.00000000</i>
   <separator name="electronic smearing" >
    <i type="int" name="ISMEAR">     0</i>
    <i name="SIGMA">      0.01000000</i>
    <i name="KSPACING">      0.50000000</i>
    <i type="logical" name="KGAMMA"> T  </i>
   </separator>
   <separator name="electronic projectors" >
    <i type="logical" name="LREAL"> T  </i>
    <v name="ROPT">     -0.00025000     -0.00025000     -0.00025000</v>
    <i type="int" name="LMAXPAW">  -100</i>
    <i type="int" name="LMAXMIX">     2</i>
    <i type="logical" name="NLSPLINE"> F  </i>
   </separator>
   <separator name="electronic startup" >
    <i type="int" name="ISTART">     0</i>
    <i type="int" name="ICHARG">     2</i>
    <i type="int" name="INIWAV">     1</i>
   </separator>
   <separator name="electronic spin" >
    <i type="int" name="ISPIN">     1</i>
    <i type="logical" name="LNONCOLLINEAR"> F  </i>
    <v name="MAGMOM">      0.00000000      0.00000000      0.00000000      0.00000000      0.00000000      0.00000000      0.00000000      0.00000000      0.00000000      0.00000000      0.00000000      0.00000000      0.00000000      0.00000000      0.00000000      0.00000000      0.00000000      0.00000000      0.00000000      0.00000000
      0.00000000      0.00000000      0.00000000      0.00000000      0.00000000      0.00000000      0.00000000      0.00000000      0.00000000      0.00000000      0.00000000      0.00000000      0.00000000      0.00000000      0.00000000      0.00000000      0.00000000      0.00000000      0.00000000</v>
    <i name="NUPDOWN">      0.00000000</i>
    <i type="logical" name="LSORBIT"> F  </i>
    <v name="SAXIS">      0.00000000      0.00000000      1.00000000</v>
    <i type="logical" name="LSPIRAL"> F  </i>
    <v name="QSPIRAL">      0.00000000      0.00000000      0.00000000</v>
    <i type="logical" name="LZEROZ"> F  </i>
   </separator>
   <separator name="electronic exchange-correlation" >
    <i type="logical" name="LASPH"> T  </i>
    <i type="logical" name="LMETAGGA"> F  </i>
   </separator>
   <separator name="electronic convergence" >
    <i type="int" name="NELM">   200</i>
    <i type="int" name="NELMDL">    -5</i>
    <i type="int" name="NELMIN">     2</i>
    <i name="ENINI">    300.00000000</i>
    <separator name="electronic convergence detail" >
     <i type="logical" name="LDIAG"> T  </i>
     <i type="logical" name="LSUBROT"> F  </i>
     <i name="WEIMIN">      0.00000000</i>
     <i name="EBREAK">      0.00000000</i>
     <i name="DEPER">      0.30000000</i>
     <i type="int" name="NRMM">     4</i>
     <i name="TIME">      0.40000000</i>
    </separator>
   </separator>
   <separator name="electronic mixer" >
    <i name="AMIX">      0.40000000</i>
    <i name="BMIX">      1.00000000</i>
    <i name="AMIN">      0.10000000</i>
    <i name="AMIX_MAG">      1.60000000</i>
    <i name="BMIX_MAG">      1.00000000</i>
    <separator name="electronic mixer details" >
     <i type="int" name="IMIX">     4</i>
     <i type="logical" name="MIXFIRST"> F  </i>
     <i type="int" name="MAXMIX">   -45</i>
     <i name="WC">    100.00000000</i>
     <i type="int" name="INIMIX">     1</i>
     <i type="int" name="MIXPRE">     1</i>
     <i type="int" name="MREMOVE">     5</i>
    </separator>
   </separator>
   <separator name="electronic dipolcorrection" >
    <i type="logical" name="LDIPOL"> F  </i>
    <i type="logical" name="LMONO"> F  </i>
    <i type="int" name="IDIPOL">     0</i>
    <i name="EPSILON">      1.00000000</i>
    <v name="DIPOL">   -100.00000000   -100.00000000   -100.00000000</v>
    <i name="EFIELD">      0.00000000</i>
   </separator>
  </separator>
  <separator name="grids" >
   <i type="int" name="NGX">    70</i>
   <i type="int" name="NGY">    70</i>
   <i type="int" name="NGZ">    70</i>
   <i type="int" name="NGXF">   140</i>
   <i type="int" name="NGYF">   140</i>
   <i type="int" name="NGZF">   140</i>
   <i type="logical" name="ADDGRID"> T  </i>
  </separator>
  <separator name="ionic" >
   <i type="int" name="NSW">     0</i>
   <i type="int" name="IBRION">    -1</i>
   <i type="int" name="MDALGO">     0</i>
   <i type="int" name="ISIF">     2</i>
   <i name="PSTRESS">      0.00000000</i>
   <i name="EDIFFG">     -0.01000000</i>
   <i type="int" name="NFREE">     1</i>
   <i name="POTIM">      0.50000000</i>
   <i name="SMASS">     -3.00000000</i>
   <i name="SCALEE">      1.00000000</i>
  </separator>
  <separator name="ionic md" >
   <i name="TEBEG">      0.00010000</i>
   <i name="TEEND">      0.00010000</i>
   <i type="int" name="NBLOCK">     1</i>
   <i type="int" name="KBLOCK">     1</i>
   <i type="int" name="NPACO">   256</i>
   <i name="APACO">     16.00000000</i>
  </separator>
  <separator name="symmetry" >
   <i type="int" name="ISYM">     0</i>
   <i name="SYMPREC">      0.00001000</i>
  </separator>
  <separator name="dos" >
   <i type="int" name="LORBIT">    10</i>
   <v name="RWIGS">     -1.00000000     -1.00000000     -1.00000000</v>
   <i type="int" name="NEDOS">   301</i>
   <i name="EMIN">     10.00000000</i>
   <i name="EMAX">    -10.00000000</i>
   <i name="EFERMI">      0.00000000</i>
  </separator>
  <separator name="writing" >
   <i type="int" name="NWRITE">     2</i>
   <i type="logical" name="LWAVE"> F  </i>
   <i type="logical" name="LDOWNSAMPLE"> F  </i>
   <i type="logical" name="LCHARG"> F  </i>
   <i type="logical" name="LPARD"> F  </i>
   <i type="logical" name="LVTOT"> F  </i>
   <i type="logical" name="LVHAR"> T  </i>
   <i type="logical" name="LELF"> F  </i>
   <i type="logical" name="LOPTICS"> F  </i>
   <v name="STM">      0.00000000      0.00000000      0.00000000      0.00000000      0.00000000      0.00000000      0.00000000</v>
  </separator>
  <separator name="performance" >
   <i type="int" name="NPAR">     8</i>
   <i type="int" name="NSIM">     4</i>
   <i type="int" name="NBLK">    -1</i>
   <i type="logical" name="LPLANE"> T  </i>
   <i type="logical" name="LSCALAPACK"> T  </i>
   <i type="logical" name="LSCAAWARE"> F  </i>
   <i type="logical" name="LSCALU"> F  </i>
   <i type="logical" name="LASYNC"> F  </i>
   <i type="logical" name="LORBITALREAL"> F  </i>
  </separator>
  <separator name="miscellaneous" >
   <i type="int" name="IDIOT">     3</i>
   <i type="int" name="ISPECIAL">     0</i>
   <i type="logical" name="LMUSIC"> F  </i>
   <v name="POMASS">    132.90000000    207.20000000     79.90400000</v>
   <v name="DARWINR">      0.00000000      0.00000000      0.00000000</v>
   <v name="DARWINV">      1.00000000      1.00000000      1.00000000</v>
   <i type="logical" name="LCORR"> T  </i>
  </separator>
  <i type="logical" name="GGA_COMPAT"> T  </i>
  <i type="logical" name="LBERRY"> F  </i>
  <i type="int" name="ICORELEVEL">     0</i>
  <i type="logical" name="LDAU"> F  </i>
  <i type="int" name="I_CONSTRAINED_M">     0</i>
  <separator name="electronic exchange-correlation" >
   <i type="string" name="GGA">--</i>
   <i type="int" name="VOSKOWN">     0</i>
   <i type="logical" name="LHFCALC"> F  </i>
   <i type="string" name="PRECFOCK"></i>
   <i type="logical" name="LSYMGRAD"> F  </i>
   <i type="logical" name="LHFONE"> F  </i>
   <i type="logical" name="LRHFCALC"> F  </i>
   <i type="logical" name="LTHOMAS"> F  </i>
   <i type="logical" name="LMODELHF"> F  </i>
   <i name="ENCUT4O">     -1.00000000</i>
   <i type="int" name="EXXOEP">     0</i>
   <i type="int" name="FOURORBIT">     0</i>
   <i name="AEXX">      0.00000000</i>
   <i name="HFALPHA">      0.00000000</i>
   <i name="MCALPHA">      0.00000000</i>
   <i name="ALDAX">      1.00000000</i>
   <i name="AGGAX">      1.00000000</i>
   <i name="ALDAC">      1.00000000</i>
   <i name="AGGAC">      1.00000000</i>
   <i type="int" name="NKREDX">     1</i>
   <i type="int" name="NKREDY">     1</i>
   <i type="int" name="NKREDZ">     1</i>
   <i type="logical" name="SHIFTRED"> F  </i>
   <i type="logical" name="ODDONLY"> F  </i>
   <i type="logical" name="EVENONLY"> F  </i>
   <i type="int" name="LMAXFOCK">     0</i>
   <i type="int" name="NMAXFOCKAE">     0</i>
   <i type="logical" name="LFOCKAEDFT"> F  </i>
   <i name="HFSCREEN">      0.00000000</i>
   <i name="HFSCREENC">      0.00000000</i>
   <i type="int" name="NBANDSGWLOW">     0</i>
  </separator>
  <separator name="vdW DFT" >
   <i type="logical" name="LUSE_VDW"> F  </i>
   <i name="Zab_VDW">     -0.84910000</i>
   <i name="PARAM1">      0.12340000</i>
   <i name="PARAM2">      1.00000000</i>
   <i name="PARAM3">      0.00000000</i>
  </separator>
  <separator name="model GW" >
   <i type="int" name="MODEL_GW">     0</i>
   <i name="MODEL_EPS0">     24.53982053</i>
   <i name="MODEL_ALPHA">      1.00000000</i>
  </separator>
  <separator name="linear response parameters" >
   <i type="logical" name="LEPSILON"> F  </i>
   <i type="logical" name="LRPA"> F  </i>
   <i type="logical" name="LNABLA"> F  </i>
   <i type="logical" name="LVEL"> F  </i>
   <i type="int" name="KINTER">     0</i>
   <i name="CSHIFT">      0.10000000</i>
   <i name="OMEGAMAX">     -1.00000000</i>
   <i name="DEG_THRESHOLD">      0.00200000</i>
   <i name="RTIME">     -0.10000000</i>
   <i name="WPLASMAI">      0.00000000</i>
   <v name="DFIELD">      0.00000000      0.00000000      0.00000000</v>
   <v name="WPLASMA">      0.00000000      0.00000000      0.00000000      0.00000000      0.00000000      0.00000000      0.00000000      0.00000000      0.00000000</v>
  </separator>
  <separator name="orbital magnetization" >
   <i type="logical" name="NUCIND"> F  </i>
   <v name="MAGPOS">      0.00000000      0.00000000      0.00000000</v>
   <i type="logical" name="LNICSALL"> T  </i>
   <i type="logical" name="ORBITALMAG"> F  </i>
   <i type="logical" name="LMAGBLOCH"> F  </i>
   <i type="logical" name="LCHIMAG"> F  </i>
   <i type="logical" name="LGAUGE"> T  </i>
   <i type="int" name="MAGATOM">     0</i>
   <v name="MAGDIPOL">      0.00000000      0.00000000      0.00000000</v>
   <v name="AVECCONST">      0.00000000      0.00000000      0.00000000</v>
  </separator>
  <separator name="response functions" >
   <i type="logical" name="LADDER"> F  </i>
   <i type="logical" name="LRPAFORCE"> F  </i>
   <i type="logical" name="LFXC"> F  </i>
   <i type="logical" name="LHARTREE"> T  </i>
   <i type="int" name="IBSE">     0</i>
   <v type="int" name="KPOINT">    -1     0     0     0</v>
   <i type="logical" name="LTCTE"> F  </i>
   <i type="logical" name="LTETE"> F  </i>
   <i type="logical" name="LTRIPLET"> F  </i>
   <i type="logical" name="LFXCEPS"> F  </i>
   <i type="logical" name="LFXHEG"> F  </i>
   <i type="int" name="NATURALO">     2</i>
   <i type="logical" name="L2ORDER"> F  </i>
   <i type="logical" name="LMP2LT"> F  </i>
   <i type="logical" name="LUSEW"> F  </i>
   <i name="ENCUTGW">     -2.00000000</i>
   <i name="ENCUTGWSOFT">     -2.00000000</i>
   <i name="ENCUTLF">     -1.00000000</i>
   <i type="int" name="LMAXMP2">    -1</i>
   <i name="SCISSOR">      0.00000000</i>
   <i type="int" name="NOMEGA">     0</i>
   <i type="int" name="NOMEGAR">     0</i>
   <i type="int" name="NBANDSGW">    -1</i>
   <i type="int" name="NBANDSO">    -1</i>
   <i type="int" name="NBANDSV">    -1</i>
   <i type="int" name="NELM">   200</i>
   <i type="int" name="NELMHF">     1</i>
   <i type="int" name="DIM">     3</i>
   <i type="int" name="ANTIRES">     0</i>
   <i name="OMEGAMAX">    -30.00000000</i>
   <i name="OMEGAMIN">    -30.00000000</i>
   <i name="OMEGATL">   -200.00000000</i>
   <i type="int" name="OMEGAGRID">   140</i>
   <i name="CSHIFT">     -0.10000000</i>
   <i type="logical" name="SELFENERGY"> F  </i>
   <i type="logical" name="LSPECTRAL"> F  </i>
   <i type="logical" name="LSPECTRALGW"> F  </i>
   <i type="logical" name="LSINGLES"> F  </i>
   <i type="logical" name="LFERMIGW"> F  </i>
   <i type="logical" name="ODDONLYGW"> F  </i>
   <i type="logical" name="EVENONLYGW"> F  </i>
   <i type="int" name="NKREDLFX">     1</i>
   <i type="int" name="NKREDLFY">     1</i>
   <i type="int" name="NKREDLFZ">     1</i>
   <i type="int" name="MAXMEM">  2800</i>
   <i type="int" name="TELESCOPE">     0</i>
   <i type="int" name="TAUPAR">     1</i>
   <i type="int" name="OMEGAPAR">    -1</i>
   <i name="LAMBDA">      1.00000000</i>
  </separator>
  <separator name="External order field" >
   <i name="OFIELD_KAPPA">      0.00000000</i>
   <v name="OFIELD_K">      0.00000000      0.00000000      0.00000000</v>
   <i name="OFIELD_Q6_NEAR">      0.00000000</i>
   <i name="OFIELD_Q6_FAR">      0.00000000</i>
   <i name="OFIELD_A">      0.00000000</i>
  </separator>
 </parameters>
 <atominfo>
  <atoms>      39 </atoms>
  <types>       3 </types>
  <array name="atoms" >
   <dimension dim="1">ion</dimension>
   <field type="string">element</field>
   <field type="int">atomtype</field>
   <set>
    <rc><c>Cs</c><c>   1</c></rc>
    <rc><c>Cs</c><c>   1</c></rc>
    <rc><c>Cs</c><c>   1</c></rc>
    <rc><c>Cs</c><c>   1</c></rc>
    <rc><c>Cs</c><c>   1</c></rc>
    <rc><c>Cs</c><c>   1</c></rc>
    <rc><c>Cs</c><c>   1</c></rc>
    <rc><c>Cs</c><c>   1</c></rc>
    <rc><c>Pb</c><c>   2</c></rc>
    <rc><c>Pb</c><c>   2</c></rc>
    <rc><c>Pb</c><c>   2</c></rc>
    <rc><c>Pb</c><c>   2</c></rc>
    <rc><c>Pb</c><c>   2</c></rc>
    <rc><c>Pb</c><c>   2</c></rc>
    <rc><c>Pb</c><c>   2</c></rc>
    <rc><c>Pb</c><c>   2</c></rc>
    <rc><c>Br</c><c>   3</c></rc>
    <rc><c>Br</c><c>   3</c></rc>
    <rc><c>Br</c><c>   3</c></rc>
    <rc><c>Br</c><c>   3</c></rc>
    <rc><c>Br</c><c>   3</c></rc>
    <rc><c>Br</c><c>   3</c></rc>
    <rc><c>Br</c><c>   3</c></rc>
    <rc><c>Br</c><c>   3</c></rc>
    <rc><c>Br</c><c>   3</c></rc>
    <rc><c>Br</c><c>   3</c></rc>
    <rc><c>Br</c><c>   3</c></rc>
    <rc><c>Br</c><c>   3</c></rc>
    <rc><c>Br</c><c>   3</c></rc>
    <rc><c>Br</c><c>   3</c></rc>
    <rc><c>Br</c><c>   3</c></rc>
    <rc><c>Br</c><c>   3</c></rc>
    <rc><c>Br</c><c>   3</c></rc>
    <rc><c>Br</c><c>   3</c></rc>
    <rc><c>Br</c><c>   3</c></rc>
    <rc><c>Br</c><c>   3</c></rc>
    <rc><c>Br</c><c>   3</c></rc>
    <rc><c>Br</c><c>   3</c></rc>
    <rc><c>Br</c><c>   3</c></rc>
   </set>
  </array>
  <array name="atomtypes" >
   <dimension dim="1">type</dimension>
   <field type="int">atomspertype</field>
   <field type="string">element</field>
   <field>mass</field>
   <field>valence</field>
   <field type="string">pseudopotential</field>
   <set>
    <rc><c>   8</c><c>Cs</c><c>    132.90000000</c><c>      9.00000000</c><c>  PAW_PBE Cs_sv 08Apr2002               </c></rc>
    <rc><c>   8</c><c>Pb</c><c>    207.20000000</c><c>     14.00000000</c><c>  PAW_PBE Pb_d 06Sep2000                </c></rc>
    <rc><c>  23</c><c>Br</c><c>     79.90400000</c><c>      7.00000000</c><c>  PAW_PBE Br 06Sep2000                  </c></rc>
   </set>
  </array>
 </atominfo>
 <structure name="initialpos" >
  <crystal>
   <varray name="basis" >
    <v>       8.45648900       0.00000000       8.04030100 </v>
    <v>       0.00000000      11.72984700       0.00000000 </v>
    <v>      -8.45648900       0.00000000       8.04030100 </v>
   </varray>
   <i name="volume">   1595.08833419 </i>
   <varray name="rec_basis" >
    <v>       0.05912619      -0.00000000       0.06218673 </v>
    <v>       0.00000000       0.08525260      -0.00000000 </v>
    <v>      -0.05912619       0.00000000       0.06218673 </v>
   </varray>
  </crystal>
  <varray name="positions" >
   <v>       0.27772700       0.25069200       0.21535200 </v>
   <v>       0.77155700       0.24752900       0.69987100 </v>
   <v>       0.70574200       0.75002400       0.26292500 </v>
   <v>       0.22830400       0.74246900       0.77281200 </v>
   <v>       0.23380800       0.22982800       0.73191300 </v>
   <v>       0.80701000       0.25026200       0.22856500 </v>
   <v>       0.75883800       0.77118200       0.81601200 </v>
   <v>       0.21690000       0.75485500       0.27168700 </v>
   <v>       0.00702800       0.00506000       0.00067000 </v>
   <v>       0.49979200       0.98982100       0.51493200 </v>
   <v>       0.50859600       0.00935400       0.01306800 </v>
   <v>       0.99791900       0.99409200       0.49239600 </v>
   <v>       0.50042200       0.50829100       0.99552300 </v>
   <v>       0.99287100       0.50093800       0.49204800 </v>
   <v>       0.00130400       0.50001400       0.99327900 </v>
   <v>       0.48714400       0.48382300       0.48442200 </v>
   <v>       0.48319400       0.75906000       0.98322000 </v>
   <v>       0.96381800       0.74794900       0.44768500 </v>
   <v>       0.96842900       0.25254100       0.95712200 </v>
   <v>       0.45911700       0.22927200       0.50952300 </v>
   <v>       0.03242700       0.75262300       0.01239300 </v>
   <v>       0.53646000       0.26189900       0.04723600 </v>
   <v>       0.01198800       0.24775100       0.50810000 </v>
   <v>       0.25231500       0.46407800       0.94304000 </v>
   <v>       0.73076100       0.46405900       0.44425800 </v>
   <v>       0.44916900       0.54347900       0.23221200 </v>
   <v>       0.94593800       0.52955700       0.73884800 </v>
   <v>       0.55852900       0.02804800       0.76697300 </v>
   <v>       0.06072400       0.03582500       0.24704500 </v>
   <v>       0.75972100       0.97658700       0.06354900 </v>
   <v>       0.25387600       0.95220300       0.54704200 </v>
   <v>       0.25519300       0.02921500       0.96351200 </v>
   <v>       0.74554900       0.02751500       0.45159400 </v>
   <v>       0.45230000       0.96448100       0.26544300 </v>
   <v>       0.96998100       0.98464300       0.74156500 </v>
   <v>       0.75330100       0.53474600       0.04331700 </v>
   <v>       0.23916200       0.52122500       0.54339900 </v>
   <v>       0.05436300       0.46850100       0.24297000 </v>
   <v>       0.52327100       0.63919700       0.66545800 </v>
  </varray>
 </structure>
 <calculation>
  <scstep>
   <time name="dav">   16.48   16.49</time>
   <time name="total">   17.95   17.95</time>
   <energy>
    <i name="alphaZ">    872.70583573 </i>
    <i name="ewald"> -17920.90497864 </i>
    <i name="hartreedc">  -7436.41218863 </i>
    <i name="XCdc">    908.09343131 </i>
    <i name="pawpsdc">  21345.28103884 </i>
    <i name="pawaedc"> -22405.85761495 </i>
    <i name="eentropy">     -0.00082754 </i>
    <i name="bandstr">   -245.11398410 </i>
    <i name="atom">  26212.11861568 </i>
    <i name="e_fr_energy">   1329.90932770 </i>
    <i name="e_wo_entrp">   1329.91015524 </i>
    <i name="e_0_energy">   1329.90974147 </i>
   </energy>
  </scstep>
  <scstep>
   <time name="dav">   18.19   18.21</time>
   <time name="total">   18.19   18.21</time>
   <energy>
    <i name="e_fr_energy">  -1112.50769883 </i>
    <i name="e_wo_entrp">  -1112.50769883 </i>
    <i name="e_0_energy">  -1112.50769883 </i>
   </energy>
  </scstep>
  <scstep>
   <time name="dav">   19.26   19.29</time>
   <time name="total">   19.26   19.29</time>
   <energy>
    <i name="e_fr_energy">  -1474.85847443 </i>
    <i name="e_wo_entrp">  -1474.85847443 </i>
    <i name="e_0_energy">  -1474.85847443 </i>
   </energy>
  </scstep>
  <scstep>
   <time name="dav">   17.75   17.81</time>
   <time name="total">   17.75   17.81</time>
   <energy>
    <i name="e_fr_energy">  -1486.87895261 </i>
    <i name="e_wo_entrp">  -1486.87895261 </i>
    <i name="e_0_energy">  -1486.87895261 </i>
   </energy>
  </scstep>
  <scstep>
   <time name="dav">   19.18   19.22</time>
   <time name="total">   21.89   21.93</time>
   <energy>
    <i name="e_fr_energy">  -1487.42932223 </i>
    <i name="e_wo_entrp">  -1487.42932223 </i>
    <i name="e_0_energy">  -1487.42932223 </i>
   </energy>
  </scstep>
  <scstep>
   <time name="dav">   18.92   18.92</time>
   <time name="total">   23.12   23.13</time>
   <energy>
    <i name="e_fr_energy">  -1409.70308825 </i>
    <i name="e_wo_entrp">  -1409.70308825 </i>
    <i name="e_0_energy">  -1409.70308825 </i>
   </energy>
  </scstep>
  <scstep>
   <time name="dav">   18.15   18.15</time>
   <time name="total">   22.35   22.37</time>
   <energy>
    <i name="e_fr_energy">  -1409.18745899 </i>
    <i name="e_wo_entrp">  -1409.18745899 </i>
    <i name="e_0_energy">  -1409.18745899 </i>
   </energy>
  </scstep>
  <scstep>
   <time name="dav">   18.25   18.25</time>
   <time name="total">   22.41   22.47</time>
   <energy>
    <i name="e_fr_energy">  -1409.36185615 </i>
    <i name="e_wo_entrp">  -1409.36185615 </i>
    <i name="e_0_energy">  -1409.36185615 </i>
   </energy>
  </scstep>
  <scstep>
   <time name="dav">   17.13   17.13</time>
   <time name="total">   21.34   21.34</time>
   <energy>
    <i name="e_fr_energy">  -1409.42845908 </i>
    <i name="e_wo_entrp">  -1409.42845908 </i>
    <i name="e_0_energy">  -1409.42845908 </i>
   </energy>
  </scstep>
  <scstep>
   <time name="dav">   19.19   19.19</time>
   <time name="total">   23.39   23.40</time>
   <energy>
    <i name="e_fr_energy">  -1409.43225286 </i>
    <i name="e_wo_entrp">  -1409.43225286 </i>
    <i name="e_0_energy">  -1409.43225286 </i>
   </energy>
  </scstep>
  <scstep>
   <time name="dav">   17.12   17.12</time>
   <time name="total">   21.29   21.34</time>
   <energy>
    <i name="e_fr_energy">  -1409.43398727 </i>
    <i name="e_wo_entrp">  -1409.43398727 </i>
    <i name="e_0_energy">  -1409.43398727 </i>
   </energy>
  </scstep>
  <scstep>
   <time name="dav">   16.95   16.95</time>
   <time name="total">   21.10   21.17</time>
   <energy>
    <i name="e_fr_energy">  -1409.43670123 </i>
    <i name="e_wo_entrp">  -1409.43670123 </i>
    <i name="e_0_energy">  -1409.43670123 </i>
   </energy>
  </scstep>
  <scstep>
   <time name="dav">   19.30   19.30</time>
   <time name="total">   23.47   23.52</time>
   <energy>
    <i name="e_fr_energy">  -1409.43631859 </i>
    <i name="e_wo_entrp">  -1409.43631859 </i>
    <i name="e_0_energy">  -1409.43631859 </i>
   </energy>
  </scstep>
  <scstep>
   <time name="dav">   17.51   17.51</time>
   <time name="total">   21.72   21.73</time>
   <energy>
    <i name="e_fr_energy">  -1409.43624806 </i>
    <i name="e_wo_entrp">  -1409.43624806 </i>
    <i name="e_0_energy">  -1409.43624806 </i>
   </energy>
  </scstep>
  <scstep>
   <time name="dav">   18.02   18.02</time>
   <time name="total">   22.16   22.23</time>
   <energy>
    <i name="e_fr_energy">  -1409.43624115 </i>
    <i name="e_wo_entrp">  -1409.43624115 </i>
    <i name="e_0_energy">  -1409.43624115 </i>
   </energy>
  </scstep>
  <scstep>
   <time name="dav">   16.73   16.74</time>
   <time name="total">   20.96   20.96</time>
   <energy>
    <i name="e_fr_energy">  -1409.43627747 </i>
    <i name="e_wo_entrp">  -1409.43627747 </i>
    <i name="e_0_energy">  -1409.43627747 </i>
   </energy>
  </scstep>
  <scstep>
   <time name="dav">   18.46   18.46</time>
   <time name="total">   22.63   22.68</time>
   <energy>
    <i name="e_fr_energy">  -1409.43629121 </i>
    <i name="e_wo_entrp">  -1409.43629121 </i>
    <i name="e_0_energy">  -1409.43629121 </i>
   </energy>
  </scstep>
  <scstep>
   <time name="dav">   13.67   13.67</time>
   <time name="total">   17.88   17.88</time>
   <energy>
    <i name="e_fr_energy">  -1409.43628325 </i>
    <i name="e_wo_entrp">  -1409.43628325 </i>
    <i name="e_0_energy">  -1409.43628325 </i>
   </energy>
  </scstep>
  <scstep>
   <time name="dav">   12.82   12.82</time>
   <time name="total">   17.04   17.04</time>
   <energy>
    <i name="e_fr_energy">  -1409.43627929 </i>
    <i name="e_wo_entrp">  -1409.43627929 </i>
    <i name="e_0_energy">  -1409.43627929 </i>
   </energy>
  </scstep>
  <scstep>
   <time name="dav">   12.55   12.55</time>
   <time name="total">   16.70   16.76</time>
   <energy>
    <i name="e_fr_energy">  -1409.43627644 </i>
    <i name="e_wo_entrp">  -1409.43627644 </i>
    <i name="e_0_energy">  -1409.43627644 </i>
   </energy>
  </scstep>
  <scstep>
   <time name="dav">   12.46   12.46</time>
   <time name="total">   13.92   13.99</time>
   <energy>
    <i name="alphaZ">    872.70583573 </i>
    <i name="ewald"> -17920.90497864 </i>
    <i name="hartreedc">  -7468.91789840 </i>
    <i name="XCdc">    943.55283986 </i>
    <i name="pawpsdc">  22744.85537812 </i>
    <i name="pawaedc"> -23803.09221960 </i>
    <i name="eentropy">     -0.00000000 </i>
    <i name="bandstr">  -2989.75384909 </i>
    <i name="atom">  26212.11861568 </i>
    <i name="e_fr_energy">  -1409.43627633 </i>
    <i name="e_wo_entrp">  -1409.43627633 </i>
    <i name="e_0_energy">  -1409.43627633 </i>
   </energy>
  </scstep>
  <structure>
   <crystal>
    <varray name="basis" >
     <v>       8.45648900       0.00000000       8.04030100 </v>
     <v>       0.00000000      11.72984700       0.00000000 </v>
     <v>      -8.45648900       0.00000000       8.04030100 </v>
    </varray>
    <i name="volume">   1595.08833419 </i>
    <varray name="rec_basis" >
     <v>       0.05912619      -0.00000000       0.06218673 </v>
     <v>       0.00000000       0.08525260      -0.00000000 </v>
     <v>      -0.05912619       0.00000000       0.06218673 </v>
    </varray>
   </crystal>
   <varray name="positions" >
    <v>       0.27772700       0.25069200       0.21535200 </v>
    <v>       0.77155700       0.24752900       0.69987100 </v>
    <v>       0.70574200       0.75002400       0.26292500 </v>
    <v>       0.22830400       0.74246900       0.77281200 </v>
    <v>       0.23380800       0.22982800       0.73191300 </v>
    <v>       0.80701000       0.25026200       0.22856500 </v>
    <v>       0.75883800       0.77118200       0.81601200 </v>
    <v>       0.21690000       0.75485500       0.27168700 </v>
    <v>       0.00702800       0.00506000       0.00067000 </v>
    <v>       0.49979200       0.98982100       0.51493200 </v>
    <v>       0.50859600       0.00935400       0.01306800 </v>
    <v>       0.99791900       0.99409200       0.49239600 </v>
    <v>       0.50042200       0.50829100       0.99552300 </v>
    <v>       0.99287100       0.50093800       0.49204800 </v>
    <v>       0.00130400       0.50001400       0.99327900 </v>
    <v>       0.48714400       0.48382300       0.48442200 </v>
    <v>       0.48319400       0.75906000       0.98322000 </v>
    <v>       0.96381800       0.74794900       0.44768500 </v>
    <v>       0.96842900       0.25254100       0.95712200 </v>
    <v>       0.45911700       0.22927200       0.50952300 </v>
    <v>       0.03242700       0.75262300       0.01239300 </v>
    <v>       0.53646000       0.26189900       0.04723600 </v>
    <v>       0.01198800       0.24775100       0.50810000 </v>
    <v>       0.25231500       0.46407800       0.94304000 </v>
    <v>       0.73076100       0.46405900       0.44425800 </v>
    <v>       0.44916900       0.54347900       0.23221200 </v>
    <v>       0.94593800       0.52955700       0.73884800 </v>
    <v>       0.55852900       0.02804800       0.76697300 </v>
    <v>       0.06072400       0.03582500       0.24704500 </v>
    <v>       0.75972100       0.97658700       0.06354900 </v>
    <v>       0.25387600       0.95220300       0.54704200 </v>
    <v>       0.25519300       0.02921500       0.96351200 </v>
    <v>       0.74554900       0.02751500       0.45159400 </v>
    <v>       0.45230000       0.96448100       0.26544300 </v>
    <v>       0.96998100       0.98464300       0.74156500 </v>
    <v>       0.75330100       0.53474600       0.04331700 </v>
    <v>       0.23916200       0.52122500       0.54339900 </v>
    <v>       0.05436300       0.46850100       0.24297000 </v>
    <v>       0.52327100       0.63919700       0.66545800 </v>
   </varray>
  </structure>
  <varray name="forces" >
   <v>      -0.00004923       0.00003031      -0.00003757 </v>
   <v>       0.00014437      -0.00023384       0.00008951 </v>
   <v>      -0.00011023       0.00010400       0.00018997 </v>
   <v>      -0.00013423       0.00016048      -0.00014956 </v>
   <v>      -0.00018966      -0.00005860      -0.00005829 </v>
   <v>      -0.00004205      -0.00011224       0.00002614 </v>
   <v>      -0.00000373       0.00014198       0.00022224 </v>
   <v>       0.00024250       0.00036999      -0.00001664 </v>
   <v>       0.00011405      -0.00031029       0.00006526 </v>
   <v>       0.00030264      -0.00012010       0.00056596 </v>
   <v>       0.00015545      -0.00007670      -0.00008247 </v>
   <v>      -0.00034266      -0.00004985      -0.00037245 </v>
   <v>      -0.00027664      -0.00032003      -0.00017166 </v>
   <v>      -0.00025778       0.00008130      -0.00009182 </v>
   <v>       0.00012187       0.00019902       0.00030041 </v>
   <v>      -0.00010634       0.00034185      -0.00018270 </v>
   <v>      -0.00023810      -0.00002687       0.00015928 </v>
   <v>       0.00040763      -0.00010006      -0.00009300 </v>
   <v>       0.00007987       0.00007961      -0.00013420 </v>
   <v>      -0.00004587       0.00030204       0.00005511 </v>
   <v>       0.00001600      -0.00015547       0.00004002 </v>
   <v>       0.00004870       0.00007984      -0.00005153 </v>
   <v>       0.00004539       0.00002845      -0.00005502 </v>
   <v>      -0.00011800      -0.00003556       0.00005566 </v>
   <v>      -0.00040212       0.00022738      -0.00016866 </v>
   <v>       0.00002016      -0.00025893      -0.00000549 </v>
   <v>       0.00024627      -0.00008858      -0.00014359 </v>
   <v>      -0.00010823      -0.00000682       0.00032345 </v>
   <v>      -0.00013963       0.00008454       0.00012100 </v>
   <v>       0.00000415       0.00007521      -0.00006215 </v>
   <v>      -0.00021756       0.00000372      -0.00017640 </v>
   <v>       0.00005353       0.00012226      -0.00007423 </v>
   <v>       0.00008868      -0.00020080       0.00021626 </v>
   <v>       0.00023742       0.00023151      -0.00019155 </v>
   <v>       0.00014841      -0.00001148      -0.00015500 </v>
   <v>      -0.00009617      -0.00012103       0.00019199 </v>
   <v>       0.00011432      -0.00009123       0.00013321 </v>
   <v>       0.00001069       0.00005124       0.00014787 </v>
   <v>       0.00027611      -0.00033623      -0.00042935 </v>
  </varray>
  <varray name="stress" >
   <v>      -7.97877670       0.50964732       0.69009110 </v>
   <v>       0.50962216      -5.25329959       0.86860950 </v>
   <v>       0.69002612       0.86874538      -4.63701928 </v>
  </varray>
  <energy>
   <i name="e_fr_energy">  -1409.43627633 </i>
   <i name="e_wo_entrp">  -1409.43627633 </i>
   <i name="e_0_energy">     -0.00000000 </i>
  </energy>
  <time name="totalsc">  481.58  482.31</time>
  <eigenvalues>
   <array>
    <dimension dim="1">band</dimension>
    <dimension dim="2">kpoint</dimension>
    <dimension dim="3">spin</dimension>
    <field>eigene</field>
    <field>occ</field>
    <set>
     <set comment="spin 1">
      <set comment="kpoint 1">
       <r>  -20.8982    1.0000 </r>
       <r>  -20.8491    1.0000 </r>
       <r>  -20.8326    1.0000 </r>
       <r>  -20.8304    1.0000 </r>
       <r>  -20.7486    1.0000 </r>
       <r>  -20.6727    1.0000 </r>
       <r>  -20.6689    1.0000 </r>
       <r>  -20.6497    1.0000 </r>
       <r>  -16.7570    1.0000 </r>
       <r>  -16.7286    1.0000 </r>
       <r>  -16.6965    1.0000 </r>
       <r>  -16.6855    1.0000 </r>
       <r>  -16.6783    1.0000 </r>
       <r>  -16.6639    1.0000 </r>
       <r>  -16.6620    1.0000 </r>
       <r>  -16.6547    1.0000 </r>
       <r>  -16.5829    1.0000 </r>
       <r>  -16.5824    1.0000 </r>
       <r>  -16.5812    1.0000 </r>
       <r>  -16.5769    1.0000 </r>
       <r>  -16.5683    1.0000 </r>
       <r>  -16.5369    1.0000 </r>
       <r>  -16.5346    1.0000 </r>
       <r>  -16.4443    1.0000 </r>
       <r>  -16.4375    1.0000 </r>
       <r>  -16.4244    1.0000 </r>
       <r>  -16.4099    1.0000 </r>
       <r>  -16.4074    1.0000 </r>
       <r>  -16.3985    1.0000 </r>
       <r>  -16.3686    1.0000 </r>
       <r>  -16.3605    1.0000 </r>
       <r>  -16.3545    1.0000 </r>
       <r>  -16.3410    1.0000 </r>
       <r>  -16.3075    1.0000 </r>
       <r>  -16.3013    1.0000 </r>
       <r>  -16.2937    1.0000 </r>
       <r>  -16.2937    1.0000 </r>
       <r>  -16.2882    1.0000 </r>
       <r>  -16.2826    1.0000 </r>
       <r>  -16.2822    1.0000 </r>
       <r>  -16.2764    1.0000 </r>
       <r>  -16.2722    1.0000 </r>
       <r>  -16.2674    1.0000 </r>
       <r>  -16.2652    1.0000 </r>
       <r>  -16.2637    1.0000 </r>
       <r>  -16.2631    1.0000 </r>
       <r>  -16.2591    1.0000 </r>
       <r>  -16.2522    1.0000 </r>
       <r>  -14.5479    1.0000 </r>
       <r>  -14.4590    1.0000 </r>
       <r>  -14.3009    1.0000 </r>
       <r>  -14.1889    1.0000 </r>
       <r>  -14.1202    1.0000 </r>
       <r>  -14.0808    1.0000 </r>
       <r>  -14.0705    1.0000 </r>
       <r>  -14.0649    1.0000 </r>
       <r>  -14.0495    1.0000 </r>
       <r>  -14.0463    1.0000 </r>
       <r>  -14.0403    1.0000 </r>
       <r>  -14.0345    1.0000 </r>
       <r>  -14.0279    1.0000 </r>
       <r>  -14.0155    1.0000 </r>
       <r>  -14.0111    1.0000 </r>
       <r>  -13.9773    1.0000 </r>
       <r>  -13.9376    1.0000 </r>
       <r>  -13.8848    1.0000 </r>
       <r>  -13.8789    1.0000 </r>
       <r>  -13.7644    1.0000 </r>
       <r>  -13.7479    1.0000 </r>
       <r>  -13.7377    1.0000 </r>
       <r>  -13.7151    1.0000 </r>
       <r>   -8.2160    1.0000 </r>
       <r>   -7.8065    1.0000 </r>
       <r>   -7.7700    1.0000 </r>
       <r>   -7.7148    1.0000 </r>
       <r>   -7.3369    1.0000 </r>
       <r>   -7.3261    1.0000 </r>
       <r>   -7.2977    1.0000 </r>
       <r>   -7.2883    1.0000 </r>
       <r>   -7.2718    1.0000 </r>
       <r>   -7.2642    1.0000 </r>
       <r>   -7.2547    1.0000 </r>
       <r>   -7.2497    1.0000 </r>
       <r>   -7.2304    1.0000 </r>
       <r>   -7.2297    1.0000 </r>
       <r>   -7.2180    1.0000 </r>
       <r>   -7.2147    1.0000 </r>
       <r>   -7.2103    1.0000 </r>
       <r>   -7.1911    1.0000 </r>
       <r>   -7.1741    1.0000 </r>
       <r>   -7.1526    1.0000 </r>
       <r>   -7.1354    1.0000 </r>
       <r>   -7.1108    1.0000 </r>
       <r>   -7.0918    1.0000 </r>
       <r>   -7.0902    1.0000 </r>
       <r>   -7.0785    1.0000 </r>
       <r>   -7.0727    1.0000 </r>
       <r>   -7.0684    1.0000 </r>
       <r>   -7.0611    1.0000 </r>
       <r>   -7.0521    1.0000 </r>
       <r>   -7.0384    1.0000 </r>
       <r>   -7.0264    1.0000 </r>
       <r>   -6.5856    1.0000 </r>
       <r>   -3.3466    1.0000 </r>
       <r>   -3.3280    1.0000 </r>
       <r>   -3.2953    1.0000 </r>
       <r>   -3.2673    1.0000 </r>
       <r>   -3.2394    1.0000 </r>
       <r>   -3.2133    1.0000 </r>
       <r>   -3.1856    1.0000 </r>
       <r>   -3.1652    1.0000 </r>
       <r>   -3.0882    1.0000 </r>
       <r>   -3.0608    1.0000 </r>
       <r>   -2.9807    1.0000 </r>
       <r>   -2.8863    1.0000 </r>
       <r>   -2.2497    1.0000 </r>
       <r>   -2.2018    1.0000 </r>
       <r>   -2.1763    1.0000 </r>
       <r>   -2.0420    1.0000 </r>
       <r>   -2.0306    1.0000 </r>
       <r>   -1.9965    1.0000 </r>
       <r>   -1.9196    1.0000 </r>
       <r>   -1.9032    1.0000 </r>
       <r>   -1.8767    1.0000 </r>
       <r>   -1.8273    1.0000 </r>
       <r>   -1.7618    1.0000 </r>
       <r>   -1.7271    1.0000 </r>
       <r>   -1.7052    1.0000 </r>
       <r>   -1.6573    1.0000 </r>
       <r>   -1.6337    1.0000 </r>
       <r>   -1.5954    1.0000 </r>
       <r>   -1.5588    1.0000 </r>
       <r>   -1.5475    1.0000 </r>
       <r>   -1.5396    1.0000 </r>
       <r>   -1.5213    1.0000 </r>
       <r>   -1.5080    1.0000 </r>
       <r>   -1.4829    1.0000 </r>
       <r>   -1.4760    1.0000 </r>
       <r>   -1.4696    1.0000 </r>
       <r>   -1.4529    1.0000 </r>
       <r>   -1.4418    1.0000 </r>
       <r>   -1.4241    1.0000 </r>
       <r>   -1.4049    1.0000 </r>
       <r>   -1.3783    1.0000 </r>
       <r>   -1.3732    1.0000 </r>
       <r>   -1.3611    1.0000 </r>
       <r>   -1.3551    1.0000 </r>
       <r>   -1.3417    1.0000 </r>
       <r>   -1.3172    1.0000 </r>
       <r>   -1.3092    1.0000 </r>
       <r>   -1.3053    1.0000 </r>
       <r>   -1.2996    1.0000 </r>
       <r>   -1.2789    1.0000 </r>
       <r>   -1.2655    1.0000 </r>
       <r>   -1.2176    1.0000 </r>
       <r>   -1.1919    1.0000 </r>
       <r>   -1.1718    1.0000 </r>
       <r>   -1.1522    1.0000 </r>
       <r>   -1.1100    1.0000 </r>
       <r>   -1.0969    1.0000 </r>
       <r>   -1.0348    1.0000 </r>
       <r>   -1.0051    1.0000 </r>
       <r>   -0.9846    1.0000 </r>
       <r>   -0.9372    1.0000 </r>
       <r>   -0.8518    1.0000 </r>
       <r>   -0.8203    1.0000 </r>
       <r>   -0.7304    1.0000 </r>
       <r>   -0.7242    1.0000 </r>
       <r>   -0.3865    1.0000 </r>
       <r>   -0.2453    1.0000 </r>
       <r>   -0.1173    1.0000 </r>
       <r>    0.3587    1.0000 </r>
       <r>    2.5364    0.0000 </r>
       <r>    2.6946    0.0000 </r>
       <r>    2.8920    0.0000 </r>
       <r>    2.9429    0.0000 </r>
       <r>    3.0649    0.0000 </r>
       <r>    3.1177    0.0000 </r>
       <r>    3.1524    0.0000 </r>
       <r>    3.1746    0.0000 </r>
       <r>    3.2983    0.0000 </r>
       <r>    3.4562    0.0000 </r>
       <r>    3.5031    0.0000 </r>
       <r>    3.5600    0.0000 </r>
       <r>    4.2589    0.0000 </r>
       <r>    4.5192    0.0000 </r>
       <r>    4.8514    0.0000 </r>
       <r>    5.4831    0.0000 </r>
       <r>    5.5932    0.0000 </r>
       <r>    5.7209    0.0000 </r>
       <r>    5.7963    0.0000 </r>
       <r>    5.8409    0.0000 </r>
       <r>    5.8845    0.0000 </r>
       <r>    5.9336    0.0000 </r>
       <r>    6.0268    0.0000 </r>
       <r>    6.0626    0.0000 </r>
       <r>    6.0859    0.0000 </r>
       <r>    6.1413    0.0000 </r>
       <r>    6.1639    0.0000 </r>
       <r>    6.2266    0.0000 </r>
       <r>    6.3290    0.0000 </r>
       <r>    6.3394    0.0000 </r>
       <r>    6.3864    0.0000 </r>
       <r>    6.4172    0.0000 </r>
       <r>    6.5113    0.0000 </r>
       <r>    6.5601    0.0000 </r>
       <r>    6.6127    0.0000 </r>
       <r>    6.6868    0.0000 </r>
      </set>
      <set comment="kpoint 2">
       <r>  -20.8982    1.0000 </r>
       <r>  -20.8491    1.0000 </r>
       <r>  -20.8326    1.0000 </r>
       <r>  -20.8304    1.0000 </r>
       <r>  -20.7486    1.0000 </r>
       <r>  -20.6724    1.0000 </r>
       <r>  -20.6692    1.0000 </r>
       <r>  -20.6497    1.0000 </r>
       <r>  -16.7560    1.0000 </r>
       <r>  -16.7284    1.0000 </r>
       <r>  -16.6961    1.0000 </r>
       <r>  -16.6845    1.0000 </r>
       <r>  -16.6780    1.0000 </r>
       <r>  -16.6627    1.0000 </r>
       <r>  -16.6612    1.0000 </r>
       <r>  -16.6529    1.0000 </r>
       <r>  -16.5830    1.0000 </r>
       <r>  -16.5824    1.0000 </r>
       <r>  -16.5813    1.0000 </r>
       <r>  -16.5769    1.0000 </r>
       <r>  -16.5683    1.0000 </r>
       <r>  -16.5369    1.0000 </r>
       <r>  -16.5347    1.0000 </r>
       <r>  -16.4444    1.0000 </r>
       <r>  -16.4287    1.0000 </r>
       <r>  -16.4170    1.0000 </r>
       <r>  -16.4149    1.0000 </r>
       <r>  -16.4073    1.0000 </r>
       <r>  -16.4012    1.0000 </r>
       <r>  -16.3740    1.0000 </r>
       <r>  -16.3666    1.0000 </r>
       <r>  -16.3606    1.0000 </r>
       <r>  -16.3412    1.0000 </r>
       <r>  -16.3075    1.0000 </r>
       <r>  -16.3014    1.0000 </r>
       <r>  -16.2937    1.0000 </r>
       <r>  -16.2937    1.0000 </r>
       <r>  -16.2882    1.0000 </r>
       <r>  -16.2826    1.0000 </r>
       <r>  -16.2822    1.0000 </r>
       <r>  -16.2765    1.0000 </r>
       <r>  -16.2722    1.0000 </r>
       <r>  -16.2674    1.0000 </r>
       <r>  -16.2652    1.0000 </r>
       <r>  -16.2637    1.0000 </r>
       <r>  -16.2632    1.0000 </r>
       <r>  -16.2591    1.0000 </r>
       <r>  -16.2522    1.0000 </r>
       <r>  -14.5444    1.0000 </r>
       <r>  -14.4580    1.0000 </r>
       <r>  -14.3141    1.0000 </r>
       <r>  -14.1823    1.0000 </r>
       <r>  -14.1583    1.0000 </r>
       <r>  -14.1284    1.0000 </r>
       <r>  -14.0786    1.0000 </r>
       <r>  -14.0750    1.0000 </r>
       <r>  -14.0686    1.0000 </r>
       <r>  -14.0440    1.0000 </r>
       <r>  -14.0422    1.0000 </r>
       <r>  -14.0287    1.0000 </r>
       <r>  -14.0080    1.0000 </r>
       <r>  -13.9942    1.0000 </r>
       <r>  -13.9636    1.0000 </r>
       <r>  -13.9385    1.0000 </r>
       <r>  -13.8708    1.0000 </r>
       <r>  -13.8431    1.0000 </r>
       <r>  -13.8378    1.0000 </r>
       <r>  -13.8209    1.0000 </r>
       <r>  -13.7952    1.0000 </r>
       <r>  -13.7815    1.0000 </r>
       <r>  -13.7213    1.0000 </r>
       <r>   -8.0258    1.0000 </r>
       <r>   -7.9634    1.0000 </r>
       <r>   -7.6506    1.0000 </r>
       <r>   -7.6061    1.0000 </r>
       <r>   -7.4662    1.0000 </r>
       <r>   -7.4225    1.0000 </r>
       <r>   -7.3231    1.0000 </r>
       <r>   -7.2978    1.0000 </r>
       <r>   -7.2832    1.0000 </r>
       <r>   -7.2749    1.0000 </r>
       <r>   -7.2626    1.0000 </r>
       <r>   -7.2452    1.0000 </r>
       <r>   -7.2307    1.0000 </r>
       <r>   -7.2273    1.0000 </r>
       <r>   -7.2268    1.0000 </r>
       <r>   -7.2147    1.0000 </r>
       <r>   -7.2125    1.0000 </r>
       <r>   -7.1974    1.0000 </r>
       <r>   -7.1784    1.0000 </r>
       <r>   -7.1528    1.0000 </r>
       <r>   -7.1358    1.0000 </r>
       <r>   -7.0990    1.0000 </r>
       <r>   -7.0950    1.0000 </r>
       <r>   -7.0837    1.0000 </r>
       <r>   -7.0729    1.0000 </r>
       <r>   -7.0700    1.0000 </r>
       <r>   -7.0621    1.0000 </r>
       <r>   -7.0509    1.0000 </r>
       <r>   -7.0415    1.0000 </r>
       <r>   -7.0322    1.0000 </r>
       <r>   -7.0310    1.0000 </r>
       <r>   -6.8221    1.0000 </r>
       <r>   -3.3180    1.0000 </r>
       <r>   -3.2964    1.0000 </r>
       <r>   -3.2452    1.0000 </r>
       <r>   -3.2168    1.0000 </r>
       <r>   -3.2134    1.0000 </r>
       <r>   -3.0787    1.0000 </r>
       <r>   -3.0347    1.0000 </r>
       <r>   -2.9405    1.0000 </r>
       <r>   -2.6007    1.0000 </r>
       <r>   -2.5743    1.0000 </r>
       <r>   -2.5279    1.0000 </r>
       <r>   -2.5144    1.0000 </r>
       <r>   -2.4526    1.0000 </r>
       <r>   -2.3769    1.0000 </r>
       <r>   -2.3613    1.0000 </r>
       <r>   -2.3150    1.0000 </r>
       <r>   -2.1809    1.0000 </r>
       <r>   -2.1025    1.0000 </r>
       <r>   -2.0624    1.0000 </r>
       <r>   -2.0306    1.0000 </r>
       <r>   -2.0132    1.0000 </r>
       <r>   -1.9204    1.0000 </r>
       <r>   -1.8925    1.0000 </r>
       <r>   -1.8387    1.0000 </r>
       <r>   -1.8242    1.0000 </r>
       <r>   -1.7967    1.0000 </r>
       <r>   -1.7690    1.0000 </r>
       <r>   -1.6708    1.0000 </r>
       <r>   -1.6009    1.0000 </r>
       <r>   -1.5685    1.0000 </r>
       <r>   -1.5468    1.0000 </r>
       <r>   -1.5186    1.0000 </r>
       <r>   -1.4976    1.0000 </r>
       <r>   -1.4952    1.0000 </r>
       <r>   -1.4691    1.0000 </r>
       <r>   -1.4409    1.0000 </r>
       <r>   -1.4380    1.0000 </r>
       <r>   -1.4282    1.0000 </r>
       <r>   -1.4070    1.0000 </r>
       <r>   -1.4001    1.0000 </r>
       <r>   -1.3869    1.0000 </r>
       <r>   -1.3798    1.0000 </r>
       <r>   -1.3665    1.0000 </r>
       <r>   -1.3449    1.0000 </r>
       <r>   -1.3239    1.0000 </r>
       <r>   -1.3021    1.0000 </r>
       <r>   -1.2963    1.0000 </r>
       <r>   -1.2804    1.0000 </r>
       <r>   -1.2662    1.0000 </r>
       <r>   -1.2483    1.0000 </r>
       <r>   -1.2212    1.0000 </r>
       <r>   -1.2057    1.0000 </r>
       <r>   -1.1890    1.0000 </r>
       <r>   -1.1745    1.0000 </r>
       <r>   -1.1430    1.0000 </r>
       <r>   -1.1268    1.0000 </r>
       <r>   -1.1095    1.0000 </r>
       <r>   -1.0881    1.0000 </r>
       <r>   -1.0660    1.0000 </r>
       <r>   -1.0233    1.0000 </r>
       <r>   -1.0037    1.0000 </r>
       <r>   -0.9333    1.0000 </r>
       <r>   -0.8988    1.0000 </r>
       <r>   -0.7879    1.0000 </r>
       <r>   -0.7007    1.0000 </r>
       <r>   -0.5428    1.0000 </r>
       <r>   -0.4624    1.0000 </r>
       <r>   -0.2521    1.0000 </r>
       <r>    0.0609    1.0000 </r>
       <r>    2.6071    0.0000 </r>
       <r>    2.9555    0.0000 </r>
       <r>    2.9894    0.0000 </r>
       <r>    3.0133    0.0000 </r>
       <r>    3.0721    0.0000 </r>
       <r>    3.2824    0.0000 </r>
       <r>    3.3457    0.0000 </r>
       <r>    3.4293    0.0000 </r>
       <r>    4.1867    0.0000 </r>
       <r>    4.2027    0.0000 </r>
       <r>    4.2584    0.0000 </r>
       <r>    4.4569    0.0000 </r>
       <r>    4.5112    0.0000 </r>
       <r>    4.5379    0.0000 </r>
       <r>    4.5867    0.0000 </r>
       <r>    4.6375    0.0000 </r>
       <r>    4.7524    0.0000 </r>
       <r>    4.8769    0.0000 </r>
       <r>    5.3464    0.0000 </r>
       <r>    5.5804    0.0000 </r>
       <r>    5.6964    0.0000 </r>
       <r>    5.7532    0.0000 </r>
       <r>    5.9027    0.0000 </r>
       <r>    5.9400    0.0000 </r>
       <r>    6.0246    0.0000 </r>
       <r>    6.0640    0.0000 </r>
       <r>    6.1012    0.0000 </r>
       <r>    6.2140    0.0000 </r>
       <r>    6.2312    0.0000 </r>
       <r>    6.2937    0.0000 </r>
       <r>    6.3476    0.0000 </r>
       <r>    6.4032    0.0000 </r>
       <r>    6.4749    0.0000 </r>
       <r>    6.5319    0.0000 </r>
       <r>    6.5827    0.0000 </r>
       <r>    6.6301    0.0000 </r>
      </set>
      <set comment="kpoint 3">
       <r>  -20.8982    1.0000 </r>
       <r>  -20.8491    1.0000 </r>
       <r>  -20.8326    1.0000 </r>
       <r>  -20.8304    1.0000 </r>
       <r>  -20.7486    1.0000 </r>
       <r>  -20.6727    1.0000 </r>
       <r>  -20.6689    1.0000 </r>
       <r>  -20.6497    1.0000 </r>
       <r>  -16.7569    1.0000 </r>
       <r>  -16.7281    1.0000 </r>
       <r>  -16.6959    1.0000 </r>
       <r>  -16.6862    1.0000 </r>
       <r>  -16.6776    1.0000 </r>
       <r>  -16.6622    1.0000 </r>
       <r>  -16.6613    1.0000 </r>
       <r>  -16.6548    1.0000 </r>
       <r>  -16.5830    1.0000 </r>
       <r>  -16.5824    1.0000 </r>
       <r>  -16.5813    1.0000 </r>
       <r>  -16.5769    1.0000 </r>
       <r>  -16.5683    1.0000 </r>
       <r>  -16.5369    1.0000 </r>
       <r>  -16.5346    1.0000 </r>
       <r>  -16.4370    1.0000 </r>
       <r>  -16.4254    1.0000 </r>
       <r>  -16.4125    1.0000 </r>
       <r>  -16.4096    1.0000 </r>
       <r>  -16.4038    1.0000 </r>
       <r>  -16.3966    1.0000 </r>
       <r>  -16.3869    1.0000 </r>
       <r>  -16.3764    1.0000 </r>
       <r>  -16.3555    1.0000 </r>
       <r>  -16.3493    1.0000 </r>
       <r>  -16.3074    1.0000 </r>
       <r>  -16.3014    1.0000 </r>
       <r>  -16.2937    1.0000 </r>
       <r>  -16.2935    1.0000 </r>
       <r>  -16.2882    1.0000 </r>
       <r>  -16.2826    1.0000 </r>
       <r>  -16.2822    1.0000 </r>
       <r>  -16.2764    1.0000 </r>
       <r>  -16.2721    1.0000 </r>
       <r>  -16.2673    1.0000 </r>
       <r>  -16.2650    1.0000 </r>
       <r>  -16.2638    1.0000 </r>
       <r>  -16.2632    1.0000 </r>
       <r>  -16.2591    1.0000 </r>
       <r>  -16.2522    1.0000 </r>
       <r>  -14.5398    1.0000 </r>
       <r>  -14.4695    1.0000 </r>
       <r>  -14.2840    1.0000 </r>
       <r>  -14.2243    1.0000 </r>
       <r>  -14.1481    1.0000 </r>
       <r>  -14.1444    1.0000 </r>
       <r>  -14.0845    1.0000 </r>
       <r>  -14.0495    1.0000 </r>
       <r>  -14.0434    1.0000 </r>
       <r>  -14.0403    1.0000 </r>
       <r>  -14.0377    1.0000 </r>
       <r>  -14.0192    1.0000 </r>
       <r>  -14.0034    1.0000 </r>
       <r>  -14.0014    1.0000 </r>
       <r>  -13.9717    1.0000 </r>
       <r>  -13.9388    1.0000 </r>
       <r>  -13.9121    1.0000 </r>
       <r>  -13.8564    1.0000 </r>
       <r>  -13.8466    1.0000 </r>
       <r>  -13.8166    1.0000 </r>
       <r>  -13.7893    1.0000 </r>
       <r>  -13.7466    1.0000 </r>
       <r>  -13.7300    1.0000 </r>
       <r>   -8.0672    1.0000 </r>
       <r>   -7.9528    1.0000 </r>
       <r>   -7.6658    1.0000 </r>
       <r>   -7.5198    1.0000 </r>
       <r>   -7.4676    1.0000 </r>
       <r>   -7.4481    1.0000 </r>
       <r>   -7.3265    1.0000 </r>
       <r>   -7.2950    1.0000 </r>
       <r>   -7.2919    1.0000 </r>
       <r>   -7.2708    1.0000 </r>
       <r>   -7.2538    1.0000 </r>
       <r>   -7.2491    1.0000 </r>
       <r>   -7.2426    1.0000 </r>
       <r>   -7.2249    1.0000 </r>
       <r>   -7.2164    1.0000 </r>
       <r>   -7.2121    1.0000 </r>
       <r>   -7.2043    1.0000 </r>
       <r>   -7.1995    1.0000 </r>
       <r>   -7.1767    1.0000 </r>
       <r>   -7.1533    1.0000 </r>
       <r>   -7.1309    1.0000 </r>
       <r>   -7.1017    1.0000 </r>
       <r>   -7.0878    1.0000 </r>
       <r>   -7.0838    1.0000 </r>
       <r>   -7.0716    1.0000 </r>
       <r>   -7.0699    1.0000 </r>
       <r>   -7.0696    1.0000 </r>
       <r>   -7.0516    1.0000 </r>
       <r>   -7.0475    1.0000 </r>
       <r>   -7.0443    1.0000 </r>
       <r>   -6.9646    1.0000 </r>
       <r>   -6.8903    1.0000 </r>
       <r>   -3.2910    1.0000 </r>
       <r>   -3.2827    1.0000 </r>
       <r>   -3.2356    1.0000 </r>
       <r>   -3.1787    1.0000 </r>
       <r>   -3.1669    1.0000 </r>
       <r>   -3.1350    1.0000 </r>
       <r>   -3.1188    1.0000 </r>
       <r>   -3.0021    1.0000 </r>
       <r>   -2.9201    1.0000 </r>
       <r>   -2.5399    1.0000 </r>
       <r>   -2.4778    1.0000 </r>
       <r>   -2.4494    1.0000 </r>
       <r>   -2.4287    1.0000 </r>
       <r>   -2.4028    1.0000 </r>
       <r>   -2.3572    1.0000 </r>
       <r>   -2.1903    1.0000 </r>
       <r>   -2.1436    1.0000 </r>
       <r>   -2.1131    1.0000 </r>
       <r>   -2.0314    1.0000 </r>
       <r>   -2.0118    1.0000 </r>
       <r>   -1.9719    1.0000 </r>
       <r>   -1.9182    1.0000 </r>
       <r>   -1.8872    1.0000 </r>
       <r>   -1.8401    1.0000 </r>
       <r>   -1.7690    1.0000 </r>
       <r>   -1.7311    1.0000 </r>
       <r>   -1.7254    1.0000 </r>
       <r>   -1.6860    1.0000 </r>
       <r>   -1.6641    1.0000 </r>
       <r>   -1.6230    1.0000 </r>
       <r>   -1.5653    1.0000 </r>
       <r>   -1.5297    1.0000 </r>
       <r>   -1.5107    1.0000 </r>
       <r>   -1.4874    1.0000 </r>
       <r>   -1.4757    1.0000 </r>
       <r>   -1.4601    1.0000 </r>
       <r>   -1.4440    1.0000 </r>
       <r>   -1.4145    1.0000 </r>
       <r>   -1.4054    1.0000 </r>
       <r>   -1.3992    1.0000 </r>
       <r>   -1.3832    1.0000 </r>
       <r>   -1.3696    1.0000 </r>
       <r>   -1.3580    1.0000 </r>
       <r>   -1.3544    1.0000 </r>
       <r>   -1.3234    1.0000 </r>
       <r>   -1.3048    1.0000 </r>
       <r>   -1.2876    1.0000 </r>
       <r>   -1.2812    1.0000 </r>
       <r>   -1.2599    1.0000 </r>
       <r>   -1.2443    1.0000 </r>
       <r>   -1.2225    1.0000 </r>
       <r>   -1.2198    1.0000 </r>
       <r>   -1.1967    1.0000 </r>
       <r>   -1.1801    1.0000 </r>
       <r>   -1.1371    1.0000 </r>
       <r>   -1.1246    1.0000 </r>
       <r>   -1.0907    1.0000 </r>
       <r>   -1.0764    1.0000 </r>
       <r>   -1.0628    1.0000 </r>
       <r>   -1.0374    1.0000 </r>
       <r>   -1.0134    1.0000 </r>
       <r>   -0.8571    1.0000 </r>
       <r>   -0.8426    1.0000 </r>
       <r>   -0.7979    1.0000 </r>
       <r>   -0.6454    1.0000 </r>
       <r>   -0.6027    1.0000 </r>
       <r>   -0.5607    1.0000 </r>
       <r>   -0.1297    1.0000 </r>
       <r>   -0.0077    1.0000 </r>
       <r>    2.5122    0.0000 </r>
       <r>    2.8737    0.0000 </r>
       <r>    2.9329    0.0000 </r>
       <r>    3.0776    0.0000 </r>
       <r>    3.2372    0.0000 </r>
       <r>    3.2580    0.0000 </r>
       <r>    3.3016    0.0000 </r>
       <r>    3.3345    0.0000 </r>
       <r>    3.4928    0.0000 </r>
       <r>    3.9926    0.0000 </r>
       <r>    4.3087    0.0000 </r>
       <r>    4.4427    0.0000 </r>
       <r>    4.4898    0.0000 </r>
       <r>    4.6726    0.0000 </r>
       <r>    4.7214    0.0000 </r>
       <r>    4.8185    0.0000 </r>
       <r>    4.9176    0.0000 </r>
       <r>    5.3914    0.0000 </r>
       <r>    5.5798    0.0000 </r>
       <r>    5.6643    0.0000 </r>
       <r>    5.6888    0.0000 </r>
       <r>    5.7505    0.0000 </r>
       <r>    5.8822    0.0000 </r>
       <r>    5.9205    0.0000 </r>
       <r>    5.9931    0.0000 </r>
       <r>    6.1026    0.0000 </r>
       <r>    6.1454    0.0000 </r>
       <r>    6.1582    0.0000 </r>
       <r>    6.2841    0.0000 </r>
       <r>    6.3700    0.0000 </r>
       <r>    6.3828    0.0000 </r>
       <r>    6.4443    0.0000 </r>
       <r>    6.4876    0.0000 </r>
       <r>    6.5207    0.0000 </r>
       <r>    6.5729    0.0000 </r>
       <r>    6.6433    0.0000 </r>
      </set>
      <set comment="kpoint 4">
       <r>  -20.8982    1.0000 </r>
       <r>  -20.8491    1.0000 </r>
       <r>  -20.8326    1.0000 </r>
       <r>  -20.8304    1.0000 </r>
       <r>  -20.7486    1.0000 </r>
       <r>  -20.6724    1.0000 </r>
       <r>  -20.6692    1.0000 </r>
       <r>  -20.6497    1.0000 </r>
       <r>  -16.7559    1.0000 </r>
       <r>  -16.7279    1.0000 </r>
       <r>  -16.6955    1.0000 </r>
       <r>  -16.6852    1.0000 </r>
       <r>  -16.6773    1.0000 </r>
       <r>  -16.6622    1.0000 </r>
       <r>  -16.6593    1.0000 </r>
       <r>  -16.6530    1.0000 </r>
       <r>  -16.5830    1.0000 </r>
       <r>  -16.5825    1.0000 </r>
       <r>  -16.5813    1.0000 </r>
       <r>  -16.5769    1.0000 </r>
       <r>  -16.5683    1.0000 </r>
       <r>  -16.5369    1.0000 </r>
       <r>  -16.5347    1.0000 </r>
       <r>  -16.4296    1.0000 </r>
       <r>  -16.4187    1.0000 </r>
       <r>  -16.4099    1.0000 </r>
       <r>  -16.4080    1.0000 </r>
       <r>  -16.4064    1.0000 </r>
       <r>  -16.3993    1.0000 </r>
       <r>  -16.3889    1.0000 </r>
       <r>  -16.3887    1.0000 </r>
       <r>  -16.3626    1.0000 </r>
       <r>  -16.3504    1.0000 </r>
       <r>  -16.3075    1.0000 </r>
       <r>  -16.3014    1.0000 </r>
       <r>  -16.2937    1.0000 </r>
       <r>  -16.2936    1.0000 </r>
       <r>  -16.2882    1.0000 </r>
       <r>  -16.2827    1.0000 </r>
       <r>  -16.2822    1.0000 </r>
       <r>  -16.2764    1.0000 </r>
       <r>  -16.2722    1.0000 </r>
       <r>  -16.2673    1.0000 </r>
       <r>  -16.2651    1.0000 </r>
       <r>  -16.2638    1.0000 </r>
       <r>  -16.2632    1.0000 </r>
       <r>  -16.2591    1.0000 </r>
       <r>  -16.2523    1.0000 </r>
       <r>  -14.5383    1.0000 </r>
       <r>  -14.4674    1.0000 </r>
       <r>  -14.2781    1.0000 </r>
       <r>  -14.2453    1.0000 </r>
       <r>  -14.1873    1.0000 </r>
       <r>  -14.1338    1.0000 </r>
       <r>  -14.1305    1.0000 </r>
       <r>  -14.0900    1.0000 </r>
       <r>  -14.0552    1.0000 </r>
       <r>  -14.0416    1.0000 </r>
       <r>  -14.0288    1.0000 </r>
       <r>  -13.9820    1.0000 </r>
       <r>  -13.9417    1.0000 </r>
       <r>  -13.9248    1.0000 </r>
       <r>  -13.9108    1.0000 </r>
       <r>  -13.9059    1.0000 </r>
       <r>  -13.8926    1.0000 </r>
       <r>  -13.8885    1.0000 </r>
       <r>  -13.8788    1.0000 </r>
       <r>  -13.8106    1.0000 </r>
       <r>  -13.8079    1.0000 </r>
       <r>  -13.8000    1.0000 </r>
       <r>  -13.7531    1.0000 </r>
       <r>   -7.9365    1.0000 </r>
       <r>   -7.7537    1.0000 </r>
       <r>   -7.7346    1.0000 </r>
       <r>   -7.6892    1.0000 </r>
       <r>   -7.4933    1.0000 </r>
       <r>   -7.3248    1.0000 </r>
       <r>   -7.3006    1.0000 </r>
       <r>   -7.2929    1.0000 </r>
       <r>   -7.2830    1.0000 </r>
       <r>   -7.2784    1.0000 </r>
       <r>   -7.2517    1.0000 </r>
       <r>   -7.2472    1.0000 </r>
       <r>   -7.2409    1.0000 </r>
       <r>   -7.2344    1.0000 </r>
       <r>   -7.2297    1.0000 </r>
       <r>   -7.2166    1.0000 </r>
       <r>   -7.2083    1.0000 </r>
       <r>   -7.2068    1.0000 </r>
       <r>   -7.1861    1.0000 </r>
       <r>   -7.1693    1.0000 </r>
       <r>   -7.1514    1.0000 </r>
       <r>   -7.1459    1.0000 </r>
       <r>   -7.1244    1.0000 </r>
       <r>   -7.0998    1.0000 </r>
       <r>   -7.0898    1.0000 </r>
       <r>   -7.0795    1.0000 </r>
       <r>   -7.0709    1.0000 </r>
       <r>   -7.0630    1.0000 </r>
       <r>   -7.0572    1.0000 </r>
       <r>   -7.0431    1.0000 </r>
       <r>   -7.0384    1.0000 </r>
       <r>   -7.0278    1.0000 </r>
       <r>   -3.2289    1.0000 </r>
       <r>   -3.2125    1.0000 </r>
       <r>   -3.1126    1.0000 </r>
       <r>   -3.0443    1.0000 </r>
       <r>   -2.9737    1.0000 </r>
       <r>   -2.7049    1.0000 </r>
       <r>   -2.6780    1.0000 </r>
       <r>   -2.6607    1.0000 </r>
       <r>   -2.5928    1.0000 </r>
       <r>   -2.5577    1.0000 </r>
       <r>   -2.5384    1.0000 </r>
       <r>   -2.4679    1.0000 </r>
       <r>   -2.4248    1.0000 </r>
       <r>   -2.3836    1.0000 </r>
       <r>   -2.3484    1.0000 </r>
       <r>   -2.3292    1.0000 </r>
       <r>   -2.3169    1.0000 </r>
       <r>   -2.2473    1.0000 </r>
       <r>   -2.2243    1.0000 </r>
       <r>   -2.1510    1.0000 </r>
       <r>   -2.0246    1.0000 </r>
       <r>   -1.9817    1.0000 </r>
       <r>   -1.9298    1.0000 </r>
       <r>   -1.9235    1.0000 </r>
       <r>   -1.8650    1.0000 </r>
       <r>   -1.8112    1.0000 </r>
       <r>   -1.7986    1.0000 </r>
       <r>   -1.7253    1.0000 </r>
       <r>   -1.7082    1.0000 </r>
       <r>   -1.6510    1.0000 </r>
       <r>   -1.6244    1.0000 </r>
       <r>   -1.6039    1.0000 </r>
       <r>   -1.5777    1.0000 </r>
       <r>   -1.5740    1.0000 </r>
       <r>   -1.5414    1.0000 </r>
       <r>   -1.5233    1.0000 </r>
       <r>   -1.4761    1.0000 </r>
       <r>   -1.4695    1.0000 </r>
       <r>   -1.4537    1.0000 </r>
       <r>   -1.4100    1.0000 </r>
       <r>   -1.4058    1.0000 </r>
       <r>   -1.3859    1.0000 </r>
       <r>   -1.3486    1.0000 </r>
       <r>   -1.3201    1.0000 </r>
       <r>   -1.2924    1.0000 </r>
       <r>   -1.2790    1.0000 </r>
       <r>   -1.2631    1.0000 </r>
       <r>   -1.2471    1.0000 </r>
       <r>   -1.2417    1.0000 </r>
       <r>   -1.2226    1.0000 </r>
       <r>   -1.1909    1.0000 </r>
       <r>   -1.1646    1.0000 </r>
       <r>   -1.1598    1.0000 </r>
       <r>   -1.1440    1.0000 </r>
       <r>   -1.1258    1.0000 </r>
       <r>   -1.1200    1.0000 </r>
       <r>   -1.1022    1.0000 </r>
       <r>   -1.0967    1.0000 </r>
       <r>   -1.0908    1.0000 </r>
       <r>   -1.0567    1.0000 </r>
       <r>   -1.0032    1.0000 </r>
       <r>   -0.9466    1.0000 </r>
       <r>   -0.9303    1.0000 </r>
       <r>   -0.9045    1.0000 </r>
       <r>   -0.8320    1.0000 </r>
       <r>   -0.7196    1.0000 </r>
       <r>   -0.4808    1.0000 </r>
       <r>   -0.4528    1.0000 </r>
       <r>   -0.3858    1.0000 </r>
       <r>    2.5449    0.0000 </r>
       <r>    3.1013    0.0000 </r>
       <r>    3.1825    0.0000 </r>
       <r>    3.2233    0.0000 </r>
       <r>    3.3424    0.0000 </r>
       <r>    3.9642    0.0000 </r>
       <r>    4.2473    0.0000 </r>
       <r>    4.2782    0.0000 </r>
       <r>    4.3066    0.0000 </r>
       <r>    4.3668    0.0000 </r>
       <r>    4.4188    0.0000 </r>
       <r>    4.4698    0.0000 </r>
       <r>    4.5042    0.0000 </r>
       <r>    4.5915    0.0000 </r>
       <r>    4.6408    0.0000 </r>
       <r>    4.6627    0.0000 </r>
       <r>    4.7081    0.0000 </r>
       <r>    4.7460    0.0000 </r>
       <r>    4.7841    0.0000 </r>
       <r>    4.8724    0.0000 </r>
       <r>    4.9220    0.0000 </r>
       <r>    5.6365    0.0000 </r>
       <r>    5.7854    0.0000 </r>
       <r>    5.7996    0.0000 </r>
       <r>    5.9115    0.0000 </r>
       <r>    5.9644    0.0000 </r>
       <r>    6.0331    0.0000 </r>
       <r>    6.1005    0.0000 </r>
       <r>    6.1973    0.0000 </r>
       <r>    6.2410    0.0000 </r>
       <r>    6.3626    0.0000 </r>
       <r>    6.4031    0.0000 </r>
       <r>    6.4576    0.0000 </r>
       <r>    6.5140    0.0000 </r>
       <r>    6.5463    0.0000 </r>
       <r>    6.6016    0.0000 </r>
      </set>
      <set comment="kpoint 5">
       <r>  -20.8982    1.0000 </r>
       <r>  -20.8491    1.0000 </r>
       <r>  -20.8324    1.0000 </r>
       <r>  -20.8307    1.0000 </r>
       <r>  -20.7486    1.0000 </r>
       <r>  -20.6727    1.0000 </r>
       <r>  -20.6690    1.0000 </r>
       <r>  -20.6497    1.0000 </r>
       <r>  -16.7570    1.0000 </r>
       <r>  -16.7282    1.0000 </r>
       <r>  -16.6958    1.0000 </r>
       <r>  -16.6856    1.0000 </r>
       <r>  -16.6786    1.0000 </r>
       <r>  -16.6640    1.0000 </r>
       <r>  -16.6620    1.0000 </r>
       <r>  -16.6527    1.0000 </r>
       <r>  -16.5830    1.0000 </r>
       <r>  -16.5825    1.0000 </r>
       <r>  -16.5812    1.0000 </r>
       <r>  -16.5769    1.0000 </r>
       <r>  -16.5684    1.0000 </r>
       <r>  -16.5369    1.0000 </r>
       <r>  -16.5346    1.0000 </r>
       <r>  -16.4375    1.0000 </r>
       <r>  -16.4355    1.0000 </r>
       <r>  -16.4231    1.0000 </r>
       <r>  -16.4120    1.0000 </r>
       <r>  -16.3992    1.0000 </r>
       <r>  -16.3827    1.0000 </r>
       <r>  -16.3725    1.0000 </r>
       <r>  -16.3719    1.0000 </r>
       <r>  -16.3619    1.0000 </r>
       <r>  -16.3550    1.0000 </r>
       <r>  -16.3074    1.0000 </r>
       <r>  -16.3014    1.0000 </r>
       <r>  -16.2937    1.0000 </r>
       <r>  -16.2936    1.0000 </r>
       <r>  -16.2882    1.0000 </r>
       <r>  -16.2827    1.0000 </r>
       <r>  -16.2821    1.0000 </r>
       <r>  -16.2765    1.0000 </r>
       <r>  -16.2723    1.0000 </r>
       <r>  -16.2674    1.0000 </r>
       <r>  -16.2653    1.0000 </r>
       <r>  -16.2637    1.0000 </r>
       <r>  -16.2632    1.0000 </r>
       <r>  -16.2591    1.0000 </r>
       <r>  -16.2522    1.0000 </r>
       <r>  -14.5404    1.0000 </r>
       <r>  -14.4672    1.0000 </r>
       <r>  -14.2737    1.0000 </r>
       <r>  -14.2396    1.0000 </r>
       <r>  -14.1343    1.0000 </r>
       <r>  -14.1094    1.0000 </r>
       <r>  -14.0783    1.0000 </r>
       <r>  -14.0694    1.0000 </r>
       <r>  -14.0643    1.0000 </r>
       <r>  -14.0439    1.0000 </r>
       <r>  -14.0422    1.0000 </r>
       <r>  -14.0339    1.0000 </r>
       <r>  -14.0278    1.0000 </r>
       <r>  -14.0171    1.0000 </r>
       <r>  -13.9773    1.0000 </r>
       <r>  -13.9277    1.0000 </r>
       <r>  -13.8920    1.0000 </r>
       <r>  -13.8420    1.0000 </r>
       <r>  -13.8323    1.0000 </r>
       <r>  -13.7962    1.0000 </r>
       <r>  -13.7863    1.0000 </r>
       <r>  -13.7573    1.0000 </r>
       <r>  -13.7460    1.0000 </r>
       <r>   -8.0708    1.0000 </r>
       <r>   -7.9831    1.0000 </r>
       <r>   -7.6495    1.0000 </r>
       <r>   -7.5223    1.0000 </r>
       <r>   -7.5001    1.0000 </r>
       <r>   -7.4319    1.0000 </r>
       <r>   -7.3228    1.0000 </r>
       <r>   -7.2924    1.0000 </r>
       <r>   -7.2853    1.0000 </r>
       <r>   -7.2710    1.0000 </r>
       <r>   -7.2617    1.0000 </r>
       <r>   -7.2485    1.0000 </r>
       <r>   -7.2396    1.0000 </r>
       <r>   -7.2291    1.0000 </r>
       <r>   -7.2232    1.0000 </r>
       <r>   -7.2154    1.0000 </r>
       <r>   -7.2131    1.0000 </r>
       <r>   -7.1958    1.0000 </r>
       <r>   -7.1749    1.0000 </r>
       <r>   -7.1513    1.0000 </r>
       <r>   -7.1301    1.0000 </r>
       <r>   -7.1029    1.0000 </r>
       <r>   -7.0882    1.0000 </r>
       <r>   -7.0829    1.0000 </r>
       <r>   -7.0753    1.0000 </r>
       <r>   -7.0696    1.0000 </r>
       <r>   -7.0663    1.0000 </r>
       <r>   -7.0463    1.0000 </r>
       <r>   -7.0429    1.0000 </r>
       <r>   -7.0379    1.0000 </r>
       <r>   -6.9338    1.0000 </r>
       <r>   -6.8471    1.0000 </r>
       <r>   -3.3357    1.0000 </r>
       <r>   -3.2960    1.0000 </r>
       <r>   -3.2777    1.0000 </r>
       <r>   -3.2685    1.0000 </r>
       <r>   -3.2170    1.0000 </r>
       <r>   -3.1699    1.0000 </r>
       <r>   -3.1205    1.0000 </r>
       <r>   -3.0424    1.0000 </r>
       <r>   -2.8672    1.0000 </r>
       <r>   -2.5652    1.0000 </r>
       <r>   -2.4968    1.0000 </r>
       <r>   -2.4749    1.0000 </r>
       <r>   -2.4240    1.0000 </r>
       <r>   -2.3647    1.0000 </r>
       <r>   -2.3182    1.0000 </r>
       <r>   -2.1743    1.0000 </r>
       <r>   -2.1528    1.0000 </r>
       <r>   -2.0959    1.0000 </r>
       <r>   -2.0226    1.0000 </r>
       <r>   -1.9834    1.0000 </r>
       <r>   -1.9387    1.0000 </r>
       <r>   -1.9360    1.0000 </r>
       <r>   -1.8821    1.0000 </r>
       <r>   -1.8239    1.0000 </r>
       <r>   -1.7980    1.0000 </r>
       <r>   -1.7322    1.0000 </r>
       <r>   -1.6853    1.0000 </r>
       <r>   -1.6727    1.0000 </r>
       <r>   -1.6452    1.0000 </r>
       <r>   -1.6018    1.0000 </r>
       <r>   -1.5650    1.0000 </r>
       <r>   -1.5316    1.0000 </r>
       <r>   -1.5190    1.0000 </r>
       <r>   -1.4791    1.0000 </r>
       <r>   -1.4768    1.0000 </r>
       <r>   -1.4623    1.0000 </r>
       <r>   -1.4521    1.0000 </r>
       <r>   -1.4352    1.0000 </r>
       <r>   -1.4189    1.0000 </r>
       <r>   -1.3981    1.0000 </r>
       <r>   -1.3954    1.0000 </r>
       <r>   -1.3610    1.0000 </r>
       <r>   -1.3495    1.0000 </r>
       <r>   -1.3480    1.0000 </r>
       <r>   -1.3371    1.0000 </r>
       <r>   -1.3104    1.0000 </r>
       <r>   -1.2965    1.0000 </r>
       <r>   -1.2897    1.0000 </r>
       <r>   -1.2592    1.0000 </r>
       <r>   -1.2507    1.0000 </r>
       <r>   -1.2365    1.0000 </r>
       <r>   -1.2096    1.0000 </r>
       <r>   -1.1878    1.0000 </r>
       <r>   -1.1743    1.0000 </r>
       <r>   -1.1682    1.0000 </r>
       <r>   -1.1180    1.0000 </r>
       <r>   -1.1046    1.0000 </r>
       <r>   -1.0774    1.0000 </r>
       <r>   -1.0560    1.0000 </r>
       <r>   -1.0065    1.0000 </r>
       <r>   -0.9797    1.0000 </r>
       <r>   -0.8869    1.0000 </r>
       <r>   -0.8572    1.0000 </r>
       <r>   -0.7060    1.0000 </r>
       <r>   -0.6001    1.0000 </r>
       <r>   -0.5576    1.0000 </r>
       <r>   -0.4929    1.0000 </r>
       <r>   -0.0821    1.0000 </r>
       <r>    0.0297    1.0000 </r>
       <r>    2.4207    0.0000 </r>
       <r>    2.8939    0.0000 </r>
       <r>    2.9331    0.0000 </r>
       <r>    2.9675    0.0000 </r>
       <r>    3.1719    0.0000 </r>
       <r>    3.2659    0.0000 </r>
       <r>    3.3096    0.0000 </r>
       <r>    3.3479    0.0000 </r>
       <r>    3.4581    0.0000 </r>
       <r>    3.9219    0.0000 </r>
       <r>    4.2944    0.0000 </r>
       <r>    4.3914    0.0000 </r>
       <r>    4.5191    0.0000 </r>
       <r>    4.5681    0.0000 </r>
       <r>    4.6131    0.0000 </r>
       <r>    4.7577    0.0000 </r>
       <r>    4.8738    0.0000 </r>
       <r>    5.4640    0.0000 </r>
       <r>    5.6201    0.0000 </r>
       <r>    5.6356    0.0000 </r>
       <r>    5.6544    0.0000 </r>
       <r>    5.8760    0.0000 </r>
       <r>    5.9067    0.0000 </r>
       <r>    6.0394    0.0000 </r>
       <r>    6.0678    0.0000 </r>
       <r>    6.1118    0.0000 </r>
       <r>    6.1861    0.0000 </r>
       <r>    6.2160    0.0000 </r>
       <r>    6.2664    0.0000 </r>
       <r>    6.2929    0.0000 </r>
       <r>    6.3725    0.0000 </r>
       <r>    6.3852    0.0000 </r>
       <r>    6.4597    0.0000 </r>
       <r>    6.5413    0.0000 </r>
       <r>    6.6301    0.0000 </r>
       <r>    6.6580    0.0000 </r>
      </set>
      <set comment="kpoint 6">
       <r>  -20.8982    1.0000 </r>
       <r>  -20.8491    1.0000 </r>
       <r>  -20.8324    1.0000 </r>
       <r>  -20.8307    1.0000 </r>
       <r>  -20.7486    1.0000 </r>
       <r>  -20.6724    1.0000 </r>
       <r>  -20.6692    1.0000 </r>
       <r>  -20.6497    1.0000 </r>
       <r>  -16.7560    1.0000 </r>
       <r>  -16.7280    1.0000 </r>
       <r>  -16.6954    1.0000 </r>
       <r>  -16.6846    1.0000 </r>
       <r>  -16.6783    1.0000 </r>
       <r>  -16.6627    1.0000 </r>
       <r>  -16.6612    1.0000 </r>
       <r>  -16.6509    1.0000 </r>
       <r>  -16.5829    1.0000 </r>
       <r>  -16.5824    1.0000 </r>
       <r>  -16.5812    1.0000 </r>
       <r>  -16.5769    1.0000 </r>
       <r>  -16.5684    1.0000 </r>
       <r>  -16.5369    1.0000 </r>
       <r>  -16.5347    1.0000 </r>
       <r>  -16.4361    1.0000 </r>
       <r>  -16.4302    1.0000 </r>
       <r>  -16.4153    1.0000 </r>
       <r>  -16.4104    1.0000 </r>
       <r>  -16.4015    1.0000 </r>
       <r>  -16.3851    1.0000 </r>
       <r>  -16.3847    1.0000 </r>
       <r>  -16.3747    1.0000 </r>
       <r>  -16.3622    1.0000 </r>
       <r>  -16.3605    1.0000 </r>
       <r>  -16.3075    1.0000 </r>
       <r>  -16.3014    1.0000 </r>
       <r>  -16.2937    1.0000 </r>
       <r>  -16.2936    1.0000 </r>
       <r>  -16.2882    1.0000 </r>
       <r>  -16.2826    1.0000 </r>
       <r>  -16.2821    1.0000 </r>
       <r>  -16.2765    1.0000 </r>
       <r>  -16.2722    1.0000 </r>
       <r>  -16.2674    1.0000 </r>
       <r>  -16.2653    1.0000 </r>
       <r>  -16.2637    1.0000 </r>
       <r>  -16.2632    1.0000 </r>
       <r>  -16.2591    1.0000 </r>
       <r>  -16.2522    1.0000 </r>
       <r>  -14.5385    1.0000 </r>
       <r>  -14.4653    1.0000 </r>
       <r>  -14.2671    1.0000 </r>
       <r>  -14.2575    1.0000 </r>
       <r>  -14.1870    1.0000 </r>
       <r>  -14.1077    1.0000 </r>
       <r>  -14.0961    1.0000 </r>
       <r>  -14.0784    1.0000 </r>
       <r>  -14.0765    1.0000 </r>
       <r>  -14.0686    1.0000 </r>
       <r>  -14.0454    1.0000 </r>
       <r>  -14.0393    1.0000 </r>
       <r>  -13.9986    1.0000 </r>
       <r>  -13.9042    1.0000 </r>
       <r>  -13.8851    1.0000 </r>
       <r>  -13.8779    1.0000 </r>
       <r>  -13.8738    1.0000 </r>
       <r>  -13.8633    1.0000 </r>
       <r>  -13.8602    1.0000 </r>
       <r>  -13.8166    1.0000 </r>
       <r>  -13.8017    1.0000 </r>
       <r>  -13.7944    1.0000 </r>
       <r>  -13.7908    1.0000 </r>
       <r>   -7.9341    1.0000 </r>
       <r>   -7.7788    1.0000 </r>
       <r>   -7.7441    1.0000 </r>
       <r>   -7.7272    1.0000 </r>
       <r>   -7.4906    1.0000 </r>
       <r>   -7.3338    1.0000 </r>
       <r>   -7.3063    1.0000 </r>
       <r>   -7.2961    1.0000 </r>
       <r>   -7.2847    1.0000 </r>
       <r>   -7.2702    1.0000 </r>
       <r>   -7.2569    1.0000 </r>
       <r>   -7.2492    1.0000 </r>
       <r>   -7.2381    1.0000 </r>
       <r>   -7.2300    1.0000 </r>
       <r>   -7.2220    1.0000 </r>
       <r>   -7.2138    1.0000 </r>
       <r>   -7.2079    1.0000 </r>
       <r>   -7.1969    1.0000 </r>
       <r>   -7.1759    1.0000 </r>
       <r>   -7.1468    1.0000 </r>
[...]
        <r>  0.0000  0.0009  0.0015 </r>
        <r>  0.0006  0.0008  0.0010 </r>
        <r>  0.0014  0.0002  0.0008 </r>
        <r>  0.0002  0.0006  0.0004 </r>
        <r>  0.0004  0.0028  0.0003 </r>
        <r>  0.0002  0.0011  0.0005 </r>
        <r>  0.0010  0.0020  0.0013 </r>
        <r>  0.0003  0.0022  0.0009 </r>
        <r>  0.0007  0.0013  0.0009 </r>
       </set>
       <set comment="band 199">
        <r>  0.0003  0.0002  0.0052 </r>
        <r>  0.0016  0.0007  0.0040 </r>
        <r>  0.0005  0.0019  0.0098 </r>
        <r>  0.0000  0.0008  0.0034 </r>
        <r>  0.0000  0.0001  0.0043 </r>
        <r>  0.0001  0.0002  0.0053 </r>
        <r>  0.0081  0.0014  0.0187 </r>
        <r>  0.0074  0.0009  0.0061 </r>
        <r>  0.0000  0.0007  0.0003 </r>
        <r>  0.0000  0.0065  0.0009 </r>
        <r>  0.0000  0.0021  0.0002 </r>
        <r>  0.0000  0.0028  0.0001 </r>
        <r>  0.0002  0.0042  0.0003 </r>
        <r>  0.0000  0.0017  0.0001 </r>
        <r>  0.0000  0.0058  0.0001 </r>
        <r>  0.0002  0.0041  0.0004 </r>
        <r>  0.0017  0.0012  0.0017 </r>
        <r>  0.0015  0.0027  0.0035 </r>
        <r>  0.0001  0.0009  0.0005 </r>
        <r>  0.0001  0.0006  0.0006 </r>
        <r>  0.0000  0.0044  0.0006 </r>
        <r>  0.0005  0.0022  0.0010 </r>
        <r>  0.0001  0.0027  0.0004 </r>
        <r>  0.0006  0.0021  0.0005 </r>
        <r>  0.0004  0.0020  0.0008 </r>
        <r>  0.0030  0.0036  0.0009 </r>
        <r>  0.0009  0.0026  0.0010 </r>
        <r>  0.0000  0.0017  0.0004 </r>
        <r>  0.0000  0.0002  0.0007 </r>
        <r>  0.0004  0.0014  0.0009 </r>
        <r>  0.0000  0.0017  0.0014 </r>
        <r>  0.0004  0.0007  0.0004 </r>
        <r>  0.0001  0.0037  0.0015 </r>
        <r>  0.0005  0.0025  0.0015 </r>
        <r>  0.0007  0.0016  0.0012 </r>
        <r>  0.0024  0.0003  0.0013 </r>
        <r>  0.0005  0.0012  0.0008 </r>
        <r>  0.0000  0.0022  0.0003 </r>
        <r>  0.0005  0.0037  0.0008 </r>
       </set>
       <set comment="band 200">
        <r>  0.0070  0.0003  0.0147 </r>
        <r>  0.0018  0.0001  0.0088 </r>
        <r>  0.0090  0.0002  0.0073 </r>
        <r>  0.0003  0.0003  0.0042 </r>
        <r>  0.0014  0.0015  0.0123 </r>
        <r>  0.0007  0.0007  0.0009 </r>
        <r>  0.0000  0.0017  0.0014 </r>
        <r>  0.0004  0.0011  0.0032 </r>
        <r>  0.0001  0.0041  0.0001 </r>
        <r>  0.0001  0.0117  0.0003 </r>
        <r>  0.0000  0.0037  0.0001 </r>
        <r>  0.0000  0.0056  0.0003 </r>
        <r>  0.0001  0.0125  0.0005 </r>
        <r>  0.0000  0.0012  0.0000 </r>
        <r>  0.0000  0.0022  0.0001 </r>
        <r>  0.0000  0.0091  0.0007 </r>
        <r>  0.0010  0.0032  0.0006 </r>
        <r>  0.0005  0.0040  0.0007 </r>
        <r>  0.0006  0.0009  0.0009 </r>
        <r>  0.0031  0.0103  0.0021 </r>
        <r>  0.0002  0.0022  0.0010 </r>
        <r>  0.0005  0.0012  0.0014 </r>
        <r>  0.0000  0.0028  0.0013 </r>
        <r>  0.0007  0.0026  0.0024 </r>
        <r>  0.0000  0.0025  0.0001 </r>
        <r>  0.0003  0.0009  0.0012 </r>
        <r>  0.0004  0.0021  0.0002 </r>
        <r>  0.0000  0.0045  0.0004 </r>
        <r>  0.0000  0.0023  0.0006 </r>
        <r>  0.0003  0.0020  0.0005 </r>
        <r>  0.0013  0.0029  0.0015 </r>
        <r>  0.0007  0.0017  0.0008 </r>
        <r>  0.0012  0.0003  0.0018 </r>
        <r>  0.0021  0.0003  0.0023 </r>
        <r>  0.0003  0.0007  0.0005 </r>
        <r>  0.0007  0.0034  0.0013 </r>
        <r>  0.0000  0.0014  0.0009 </r>
        <r>  0.0003  0.0002  0.0009 </r>
        <r>  0.0000  0.0003  0.0016 </r>
       </set>
       <set comment="band 201">
        <r>  0.0034  0.0006  0.0036 </r>
        <r>  0.0071  0.0016  0.0158 </r>
        <r>  0.0012  0.0003  0.0019 </r>
        <r>  0.0003  0.0008  0.0023 </r>
        <r>  0.0075  0.0002  0.0077 </r>
        <r>  0.0013  0.0009  0.0061 </r>
        <r>  0.0000  0.0006  0.0100 </r>
        <r>  0.0024  0.0002  0.0029 </r>
        <r>  0.0000  0.0094  0.0001 </r>
        <r>  0.0002  0.0050  0.0001 </r>
        <r>  0.0000  0.0014  0.0001 </r>
        <r>  0.0000  0.0019  0.0002 </r>
        <r>  0.0000  0.0181  0.0002 </r>
        <r>  0.0000  0.0057  0.0001 </r>
        <r>  0.0000  0.0022  0.0002 </r>
        <r>  0.0000  0.0064  0.0003 </r>
        <r>  0.0002  0.0023  0.0009 </r>
        <r>  0.0007  0.0028  0.0004 </r>
        <r>  0.0012  0.0027  0.0025 </r>
        <r>  0.0028  0.0009  0.0019 </r>
        <r>  0.0001  0.0041  0.0004 </r>
        <r>  0.0010  0.0009  0.0022 </r>
        <r>  0.0012  0.0035  0.0021 </r>
        <r>  0.0001  0.0031  0.0011 </r>
        <r>  0.0001  0.0021  0.0006 </r>
        <r>  0.0001  0.0039  0.0003 </r>
        <r>  0.0009  0.0036  0.0008 </r>
        <r>  0.0000  0.0011  0.0005 </r>
        <r>  0.0003  0.0021  0.0005 </r>
        <r>  0.0000  0.0008  0.0005 </r>
        <r>  0.0012  0.0003  0.0015 </r>
        <r>  0.0000  0.0009  0.0003 </r>
        <r>  0.0000  0.0055  0.0009 </r>
        <r>  0.0004  0.0002  0.0008 </r>
        <r>  0.0024  0.0021  0.0023 </r>
        <r>  0.0010  0.0014  0.0015 </r>
        <r>  0.0000  0.0032  0.0005 </r>
        <r>  0.0000  0.0019  0.0002 </r>
        <r>  0.0000  0.0003  0.0019 </r>
       </set>
       <set comment="band 202">
        <r>  0.0001  0.0002  0.0056 </r>
        <r>  0.0020  0.0003  0.0059 </r>
        <r>  0.0048  0.0004  0.0075 </r>
        <r>  0.0061  0.0015  0.0168 </r>
        <r>  0.0016  0.0005  0.0032 </r>
        <r>  0.0000  0.0005  0.0023 </r>
        <r>  0.0005  0.0003  0.0197 </r>
        <r>  0.0024  0.0004  0.0168 </r>
        <r>  0.0000  0.0011  0.0000 </r>
        <r>  0.0001  0.0061  0.0004 </r>
        <r>  0.0000  0.0015  0.0004 </r>
        <r>  0.0000  0.0058  0.0000 </r>
        <r>  0.0001  0.0002  0.0003 </r>
        <r>  0.0000  0.0030  0.0004 </r>
        <r>  0.0000  0.0093  0.0001 </r>
        <r>  0.0000  0.0064  0.0002 </r>
        <r>  0.0004  0.0016  0.0029 </r>
        <r>  0.0009  0.0013  0.0018 </r>
        <r>  0.0002  0.0011  0.0004 </r>
        <r>  0.0001  0.0001  0.0008 </r>
        <r>  0.0005  0.0029  0.0033 </r>
        <r>  0.0000  0.0004  0.0006 </r>
        <r>  0.0003  0.0044  0.0004 </r>
        <r>  0.0000  0.0026  0.0010 </r>
        <r>  0.0000  0.0030  0.0005 </r>
        <r>  0.0001  0.0016  0.0014 </r>
        <r>  0.0021  0.0012  0.0028 </r>
        <r>  0.0007  0.0008  0.0021 </r>
        <r>  0.0002  0.0006  0.0003 </r>
        <r>  0.0007  0.0014  0.0009 </r>
        <r>  0.0007  0.0004  0.0006 </r>
        <r>  0.0004  0.0026  0.0016 </r>
        <r>  0.0001  0.0013  0.0003 </r>
        <r>  0.0000  0.0024  0.0022 </r>
        <r>  0.0001  0.0030  0.0012 </r>
        <r>  0.0006  0.0028  0.0009 </r>
        <r>  0.0014  0.0011  0.0015 </r>
        <r>  0.0006  0.0018  0.0005 </r>
        <r>  0.0014  0.0008  0.0009 </r>
       </set>
       <set comment="band 203">
        <r>  0.0010  0.0018  0.0062 </r>
        <r>  0.0000  0.0012  0.0110 </r>
        <r>  0.0011  0.0004  0.0014 </r>
        <r>  0.0001  0.0002  0.0042 </r>
        <r>  0.0065  0.0006  0.0050 </r>
        <r>  0.0081  0.0011  0.0149 </r>
        <r>  0.0004  0.0002  0.0034 </r>
        <r>  0.0003  0.0002  0.0108 </r>
        <r>  0.0000  0.0047  0.0003 </r>
        <r>  0.0000  0.0033  0.0001 </r>
        <r>  0.0000  0.0073  0.0001 </r>
        <r>  0.0000  0.0034  0.0001 </r>
        <r>  0.0001  0.0119  0.0002 </r>
        <r>  0.0000  0.0004  0.0002 </r>
        <r>  0.0000  0.0061  0.0001 </r>
        <r>  0.0001  0.0192  0.0002 </r>
        <r>  0.0000  0.0067  0.0004 </r>
        <r>  0.0001  0.0025  0.0003 </r>
        <r>  0.0001  0.0020  0.0008 </r>
        <r>  0.0004  0.0051  0.0013 </r>
        <r>  0.0001  0.0003  0.0005 </r>
        <r>  0.0005  0.0027  0.0041 </r>
        <r>  0.0019  0.0016  0.0010 </r>
        <r>  0.0002  0.0020  0.0015 </r>
        <r>  0.0021  0.0022  0.0030 </r>
        <r>  0.0019  0.0048  0.0011 </r>
        <r>  0.0001  0.0011  0.0001 </r>
        <r>  0.0006  0.0019  0.0016 </r>
        <r>  0.0009  0.0024  0.0019 </r>
        <r>  0.0000  0.0010  0.0007 </r>
        <r>  0.0011  0.0008  0.0010 </r>
        <r>  0.0001  0.0014  0.0009 </r>
        <r>  0.0007  0.0024  0.0006 </r>
        <r>  0.0001  0.0028  0.0006 </r>
        <r>  0.0001  0.0011  0.0006 </r>
        <r>  0.0001  0.0043  0.0007 </r>
        <r>  0.0004  0.0030  0.0010 </r>
        <r>  0.0008  0.0024  0.0008 </r>
        <r>  0.0008  0.0002  0.0005 </r>
       </set>
       <set comment="band 204">
        <r>  0.0005  0.0007  0.0059 </r>
        <r>  0.0001  0.0005  0.0088 </r>
        <r>  0.0000  0.0005  0.0218 </r>
        <r>  0.0092  0.0006  0.0031 </r>
        <r>  0.0002  0.0002  0.0070 </r>
        <r>  0.0015  0.0002  0.0067 </r>
        <r>  0.0011  0.0013  0.0169 </r>
        <r>  0.0072  0.0018  0.0028 </r>
        <r>  0.0000  0.0044  0.0002 </r>
        <r>  0.0001  0.0037  0.0003 </r>
        <r>  0.0000  0.0005  0.0002 </r>
        <r>  0.0000  0.0026  0.0002 </r>
        <r>  0.0001  0.0049  0.0001 </r>
        <r>  0.0000  0.0053  0.0002 </r>
        <r>  0.0000  0.0068  0.0004 </r>
        <r>  0.0000  0.0018  0.0001 </r>
        <r>  0.0009  0.0062  0.0009 </r>
        <r>  0.0001  0.0027  0.0008 </r>
        <r>  0.0000  0.0062  0.0007 </r>
        <r>  0.0000  0.0005  0.0001 </r>
        <r>  0.0047  0.0009  0.0039 </r>
        <r>  0.0001  0.0026  0.0004 </r>
        <r>  0.0003  0.0011  0.0009 </r>
        <r>  0.0017  0.0010  0.0015 </r>
        <r>  0.0002  0.0002  0.0004 </r>
        <r>  0.0024  0.0018  0.0016 </r>
        <r>  0.0004  0.0033  0.0016 </r>
        <r>  0.0010  0.0015  0.0006 </r>
        <r>  0.0001  0.0014  0.0006 </r>
        <r>  0.0000  0.0033  0.0021 </r>
        <r>  0.0001  0.0028  0.0011 </r>
        <r>  0.0005  0.0019  0.0003 </r>
        <r>  0.0002  0.0019  0.0013 </r>
        <r>  0.0004  0.0004  0.0010 </r>
        <r>  0.0009  0.0015  0.0015 </r>
        <r>  0.0010  0.0044  0.0019 </r>
        <r>  0.0000  0.0005  0.0004 </r>
        <r>  0.0010  0.0010  0.0019 </r>
        <r>  0.0002  0.0009  0.0005 </r>
       </set>
       <set comment="band 205">
        <r>  0.0011  0.0010  0.0062 </r>
        <r>  0.0009  0.0011  0.0132 </r>
        <r>  0.0010  0.0008  0.0067 </r>
        <r>  0.0017  0.0017  0.0137 </r>
        <r>  0.0014  0.0002  0.0063 </r>
        <r>  0.0020  0.0002  0.0026 </r>
        <r>  0.0043  0.0003  0.0017 </r>
        <r>  0.0033  0.0006  0.0253 </r>
        <r>  0.0000  0.0004  0.0004 </r>
        <r>  0.0000  0.0042  0.0000 </r>
        <r>  0.0000  0.0139  0.0001 </r>
        <r>  0.0000  0.0071  0.0001 </r>
        <r>  0.0000  0.0024  0.0004 </r>
        <r>  0.0000  0.0028  0.0003 </r>
        <r>  0.0000  0.0084  0.0001 </r>
        <r>  0.0000  0.0034  0.0008 </r>
        <r>  0.0000  0.0010  0.0007 </r>
        <r>  0.0001  0.0019  0.0001 </r>
        <r>  0.0007  0.0039  0.0009 </r>
        <r>  0.0000  0.0024  0.0005 </r>
        <r>  0.0012  0.0037  0.0022 </r>
        <r>  0.0003  0.0018  0.0013 </r>
        <r>  0.0000  0.0009  0.0007 </r>
        <r>  0.0006  0.0015  0.0011 </r>
        <r>  0.0000  0.0018  0.0016 </r>
        <r>  0.0000  0.0013  0.0022 </r>
        <r>  0.0013  0.0016  0.0016 </r>
        <r>  0.0003  0.0024  0.0006 </r>
        <r>  0.0010  0.0026  0.0012 </r>
        <r>  0.0017  0.0016  0.0023 </r>
        <r>  0.0000  0.0013  0.0013 </r>
        <r>  0.0019  0.0044  0.0016 </r>
        <r>  0.0000  0.0009  0.0003 </r>
        <r>  0.0001  0.0016  0.0006 </r>
        <r>  0.0021  0.0039  0.0015 </r>
        <r>  0.0001  0.0009  0.0004 </r>
        <r>  0.0004  0.0020  0.0029 </r>
        <r>  0.0001  0.0015  0.0007 </r>
        <r>  0.0002  0.0008  0.0010 </r>
       </set>
       <set comment="band 206">
        <r>  0.0001  0.0004  0.0236 </r>
        <r>  0.0004  0.0000  0.0182 </r>
        <r>  0.0000  0.0005  0.0029 </r>
        <r>  0.0080  0.0003  0.0083 </r>
        <r>  0.0000  0.0013  0.0064 </r>
        <r>  0.0001  0.0003  0.0068 </r>
        <r>  0.0000  0.0004  0.0068 </r>
        <r>  0.0008  0.0025  0.0180 </r>
        <r>  0.0000  0.0050  0.0001 </r>
        <r>  0.0000  0.0070  0.0007 </r>
        <r>  0.0001  0.0065  0.0008 </r>
        <r>  0.0001  0.0051  0.0003 </r>
        <r>  0.0000  0.0060  0.0002 </r>
        <r>  0.0000  0.0028  0.0002 </r>
        <r>  0.0001  0.0045  0.0005 </r>
        <r>  0.0001  0.0090  0.0007 </r>
        <r>  0.0016  0.0009  0.0026 </r>
        <r>  0.0005  0.0005  0.0007 </r>
        <r>  0.0002  0.0010  0.0004 </r>
        <r>  0.0016  0.0031  0.0014 </r>
        <r>  0.0000  0.0038  0.0022 </r>
        <r>  0.0000  0.0017  0.0006 </r>
        <r>  0.0006  0.0018  0.0012 </r>
        <r>  0.0007  0.0014  0.0010 </r>
        <r>  0.0004  0.0026  0.0006 </r>
        <r>  0.0001  0.0008  0.0006 </r>
        <r>  0.0000  0.0007  0.0008 </r>
        <r>  0.0000  0.0016  0.0014 </r>
        <r>  0.0000  0.0018  0.0005 </r>
        <r>  0.0000  0.0006  0.0006 </r>
        <r>  0.0012  0.0014  0.0025 </r>
        <r>  0.0020  0.0014  0.0023 </r>
        <r>  0.0001  0.0060  0.0004 </r>
        <r>  0.0003  0.0018  0.0016 </r>
        <r>  0.0001  0.0005  0.0020 </r>
        <r>  0.0000  0.0008  0.0007 </r>
        <r>  0.0011  0.0021  0.0026 </r>
        <r>  0.0012  0.0042  0.0014 </r>
        <r>  0.0004  0.0004  0.0006 </r>
       </set>
       <set comment="band 207">
        <r>  0.0012  0.0003  0.0149 </r>
        <r>  0.0019  0.0003  0.0165 </r>
        <r>  0.0004  0.0002  0.0224 </r>
        <r>  0.0006  0.0005  0.0177 </r>
        <r>  0.0005  0.0006  0.0127 </r>
        <r>  0.0007  0.0002  0.0112 </r>
        <r>  0.0011  0.0001  0.0125 </r>
        <r>  0.0000  0.0009  0.0069 </r>
        <r>  0.0000  0.0093  0.0003 </r>
        <r>  0.0000  0.0073  0.0001 </r>
        <r>  0.0000  0.0036  0.0005 </r>
        <r>  0.0000  0.0045  0.0008 </r>
        <r>  0.0000  0.0060  0.0003 </r>
        <r>  0.0000  0.0049  0.0001 </r>
        <r>  0.0000  0.0020  0.0003 </r>
        <r>  0.0001  0.0074  0.0003 </r>
        <r>  0.0008  0.0005  0.0010 </r>
        <r>  0.0001  0.0008  0.0010 </r>
        <r>  0.0003  0.0001  0.0016 </r>
        <r>  0.0001  0.0013  0.0002 </r>
        <r>  0.0001  0.0004  0.0007 </r>
        <r>  0.0000  0.0009  0.0003 </r>
        <r>  0.0001  0.0004  0.0005 </r>
        <r>  0.0003  0.0018  0.0008 </r>
        <r>  0.0006  0.0010  0.0026 </r>
        <r>  0.0003  0.0004  0.0014 </r>
        <r>  0.0001  0.0016  0.0006 </r>
        <r>  0.0012  0.0004  0.0026 </r>
        <r>  0.0003  0.0006  0.0025 </r>
        <r>  0.0001  0.0051  0.0007 </r>
        <r>  0.0004  0.0030  0.0017 </r>
        <r>  0.0010  0.0011  0.0022 </r>
        <r>  0.0000  0.0003  0.0014 </r>
        <r>  0.0002  0.0034  0.0019 </r>
        <r>  0.0029  0.0009  0.0027 </r>
        <r>  0.0010  0.0007  0.0025 </r>
        <r>  0.0001  0.0033  0.0007 </r>
        <r>  0.0001  0.0005  0.0012 </r>
        <r>  0.0001  0.0005  0.0008 </r>
       </set>
       <set comment="band 208">
        <r>  0.0002  0.0017  0.0293 </r>
        <r>  0.0010  0.0004  0.0177 </r>
        <r>  0.0001  0.0003  0.0248 </r>
        <r>  0.0002  0.0001  0.0090 </r>
        <r>  0.0010  0.0003  0.0173 </r>
        <r>  0.0001  0.0004  0.0088 </r>
        <r>  0.0001  0.0003  0.0113 </r>
        <r>  0.0002  0.0004  0.0050 </r>
        <r>  0.0000  0.0050  0.0009 </r>
        <r>  0.0000  0.0022  0.0002 </r>
        <r>  0.0000  0.0044  0.0003 </r>
        <r>  0.0001  0.0024  0.0005 </r>
        <r>  0.0001  0.0020  0.0002 </r>
        <r>  0.0000  0.0070  0.0001 </r>
        <r>  0.0000  0.0046  0.0003 </r>
        <r>  0.0000  0.0036  0.0001 </r>
        <r>  0.0012  0.0008  0.0013 </r>
        <r>  0.0001  0.0017  0.0009 </r>
        <r>  0.0023  0.0009  0.0041 </r>
        <r>  0.0000  0.0029  0.0010 </r>
        <r>  0.0000  0.0026  0.0006 </r>
        <r>  0.0000  0.0003  0.0006 </r>
        <r>  0.0009  0.0015  0.0017 </r>
        <r>  0.0001  0.0019  0.0009 </r>
        <r>  0.0001  0.0023  0.0011 </r>
        <r>  0.0002  0.0010  0.0009 </r>
        <r>  0.0002  0.0020  0.0012 </r>
        <r>  0.0001  0.0016  0.0007 </r>
        <r>  0.0001  0.0015  0.0024 </r>
        <r>  0.0001  0.0013  0.0012 </r>
        <r>  0.0001  0.0007  0.0010 </r>
        <r>  0.0003  0.0014  0.0025 </r>
        <r>  0.0002  0.0009  0.0013 </r>
        <r>  0.0004  0.0006  0.0021 </r>
        <r>  0.0005  0.0005  0.0009 </r>
        <r>  0.0003  0.0019  0.0020 </r>
        <r>  0.0000  0.0018  0.0008 </r>
        <r>  0.0002  0.0008  0.0013 </r>
        <r>  0.0006  0.0008  0.0007 </r>
       </set>
      </set>
     </set>
    </set>
   </array>
  </projected>
 </calculation>
 <structure name="finalpos" >
  <crystal>
   <varray name="basis" >
    <v>       8.45648900       0.00000000       8.04030100 </v>
    <v>       0.00000000      11.72984700       0.00000000 </v>
    <v>      -8.45648900       0.00000000       8.04030100 </v>
   </varray>
   <i name="volume">   1595.08833419 </i>
   <varray name="rec_basis" >
    <v>       0.05912619      -0.00000000       0.06218673 </v>
    <v>       0.00000000       0.08525260      -0.00000000 </v>
    <v>      -0.05912619       0.00000000       0.06218673 </v>
   </varray>
  </crystal>
  <varray name="positions" >
   <v>       0.27772700       0.25069200       0.21535200 </v>
   <v>       0.77155700       0.24752900       0.69987100 </v>
   <v>       0.70574200       0.75002400       0.26292500 </v>
   <v>       0.22830400       0.74246900       0.77281200 </v>
   <v>       0.23380800       0.22982800       0.73191300 </v>
   <v>       0.80701000       0.25026200       0.22856500 </v>
   <v>       0.75883800       0.77118200       0.81601200 </v>
   <v>       0.21690000       0.75485500       0.27168700 </v>
   <v>       0.00702800       0.00506000       0.00067000 </v>
   <v>       0.49979200       0.98982100       0.51493200 </v>
   <v>       0.50859600       0.00935400       0.01306800 </v>
   <v>       0.99791900       0.99409200       0.49239600 </v>
   <v>       0.50042200       0.50829100       0.99552300 </v>
   <v>       0.99287100       0.50093800       0.49204800 </v>
   <v>       0.00130400       0.50001400       0.99327900 </v>
   <v>       0.48714400       0.48382300       0.48442200 </v>
   <v>       0.48319400       0.75906000       0.98322000 </v>
   <v>       0.96381800       0.74794900       0.44768500 </v>
   <v>       0.96842900       0.25254100       0.95712200 </v>
   <v>       0.45911700       0.22927200       0.50952300 </v>
   <v>       0.03242700       0.75262300       0.01239300 </v>
   <v>       0.53646000       0.26189900       0.04723600 </v>
   <v>       0.01198800       0.24775100       0.50810000 </v>
   <v>       0.25231500       0.46407800       0.94304000 </v>
   <v>       0.73076100       0.46405900       0.44425800 </v>
   <v>       0.44916900       0.54347900       0.23221200 </v>
   <v>       0.94593800       0.52955700       0.73884800 </v>
   <v>       0.55852900       0.02804800       0.76697300 </v>
   <v>       0.06072400       0.03582500       0.24704500 </v>
   <v>       0.75972100       0.97658700       0.06354900 </v>
   <v>       0.25387600       0.95220300       0.54704200 </v>
   <v>       0.25519300       0.02921500       0.96351200 </v>
   <v>       0.74554900       0.02751500       0.45159400 </v>
   <v>       0.45230000       0.96448100       0.26544300 </v>
   <v>       0.96998100       0.98464300       0.74156500 </v>
   <v>       0.75330100       0.53474600       0.04331700 </v>
   <v>       0.23916200       0.52122500       0.54339900 </v>
   <v>       0.05436300       0.46850100       0.24297000 </v>
   <v>       0.52327100       0.63919700       0.66545800 </v>
  </varray>
 </structure>
</modeling>
