CsPbBr3 cubic bulk                      
           1
     8.456489    0.000000    8.040301
     0.000000   11.729847    0.000000
    -8.456489    0.000000    8.040301
   Cs   Pb   Br
   8   8  23
Direct configuration=     1
   0.27772700  0.25069200  0.21535200
   0.77155700  0.24752900  0.69987100
   0.70574200  0.75002400  0.26292500
   0.22830400  0.74246900  0.77281200
   0.23380800  0.22982800  0.73191300
   0.80701000  0.25026200  0.22856500
   0.75883800  0.77118200  0.81601200
   0.21690000  0.75485500  0.27168700
   0.00702800  0.00506000  0.00067000
   0.49979200  0.98982100  0.51493200
   0.50859600  0.00935400  0.01306800
   0.99791900  0.99409200  0.49239600
   0.50042200  0.50829100  0.99552300
   0.99287100  0.50093800  0.49204800
   0.00130400  0.50001400  0.99327900
   0.48714400  0.48382300  0.48442200
   0.48319400  0.75906000  0.98322000
   0.96381800  0.74794900  0.44768500
   0.96842900  0.25254100  0.95712200
   0.45911700  0.22927200  0.50952300
   0.03242700  0.75262300  0.01239300
   0.53646000  0.26189900  0.04723600
   0.01198800  0.24775100  0.50810000
   0.25231500  0.46407800  0.94304000
   0.73076100  0.46405900  0.44425800
   0.44916900  0.54347900  0.23221200
   0.94593800  0.52955700  0.73884800
   0.55852900  0.02804800  0.76697300
   0.06072400  0.03582500  0.24704500
   0.75972100  0.97658700  0.06354900
   0.25387600  0.95220300  0.54704200
   0.25519300  0.02921500  0.96351200
   0.74554900  0.02751500  0.45159400
   0.45230000  0.96448100  0.26544300
   0.96998100  0.98464300  0.74156500
   0.75330100  0.53474600  0.04331700
   0.23916200  0.52122500  0.54339900
   0.05436300  0.46850100  0.24297000
   0.52327100  0.63919700  0.66545800
