  10  10   1   0
  0.4012077E+02  0.6017141E-09  0.8165627E-09  0.8165627E-09  0.5000000E-15
   1.0000000000000000E-004
  CAR 
 CsPbBr3 cubic bulk                      
      8.64210969    -22.23859474  301      0.63886046      1.00000000
    -22.239  0.0000E+00  0.0000E+00
    -22.136  0.0000E+00  0.0000E+00
    -22.033  0.0000E+00  0.0000E+00
    -21.930  0.0000E+00  0.0000E+00
    -21.827  0.0000E+00  0.0000E+00
    -21.724  0.0000E+00  0.0000E+00
    -21.621  0.0000E+00  0.0000E+00
    -21.518  0.0000E+00  0.0000E+00
    -21.415  0.0000E+00  0.0000E+00
    -21.312  0.0000E+00  0.0000E+00
    -21.209  0.0000E+00  0.0000E+00
    -21.106  0.0000E+00  0.0000E+00
    -21.003  0.0000E+00  0.0000E+00
    -20.900  0.0000E+00  0.0000E+00
    -20.797  0.3886E+02  0.4000E+01
    -20.695  0.0000E+00  0.4000E+01
    -20.592  0.0000E+00  0.4000E+01
    -20.489  0.0000E+00  0.4000E+01
    -20.386  0.0000E+00  0.4000E+01
    -20.283  0.0000E+00  0.4000E+01
    -20.180  0.0000E+00  0.4000E+01
    -20.077  0.0000E+00  0.4000E+01
    -19.974  0.0000E+00  0.4000E+01
    -19.871  0.0000E+00  0.4000E+01
    -19.768  0.0000E+00  0.4000E+01
    -19.665  0.0000E+00  0.4000E+01
    -19.562  0.0000E+00  0.4000E+01
    -19.459  0.0000E+00  0.4000E+01
    -19.356  0.0000E+00  0.4000E+01
    -19.253  0.0000E+00  0.4000E+01
    -19.151  0.0000E+00  0.4000E+01
    -19.048  0.0000E+00  0.4000E+01
    -18.945  0.0000E+00  0.4000E+01
    -18.842  0.0000E+00  0.4000E+01
    -18.739  0.0000E+00  0.4000E+01
    -18.636  0.0000E+00  0.4000E+01
    -18.533  0.0000E+00  0.4000E+01
    -18.430  0.0000E+00  0.4000E+01
    -18.327  0.0000E+00  0.4000E+01
    -18.224  0.0000E+00  0.4000E+01
    -18.121  0.0000E+00  0.4000E+01
    -18.018  0.0000E+00  0.4000E+01
    -17.915  0.0000E+00  0.4000E+01
    -17.812  0.0000E+00  0.4000E+01
    -17.709  0.0000E+00  0.4000E+01
    -17.606  0.0000E+00  0.4000E+01
    -17.504  0.0000E+00  0.4000E+01
    -17.401  0.0000E+00  0.4000E+01
    -17.298  0.0000E+00  0.4000E+01
    -17.195  0.0000E+00  0.4000E+01
    -17.092  0.0000E+00  0.4000E+01
    -16.989  0.0000E+00  0.4000E+01
    -16.886  0.0000E+00  0.4000E+01
    -16.783  0.0000E+00  0.4000E+01
    -16.680  0.0000E+00  0.4000E+01
    -16.577  0.0000E+00  0.4000E+01
    -16.474  0.0000E+00  0.4000E+01
    -16.371  0.1131E+02  0.5164E+01
    -16.268  0.4100E+02  0.1200E+02
    -16.165  0.1166E+03  0.2400E+02
    -16.062  0.0000E+00  0.2400E+02
    -15.960  0.0000E+00  0.2400E+02
    -15.857  0.0000E+00  0.2400E+02
    -15.754  0.0000E+00  0.2400E+02
    -15.651  0.0000E+00  0.2400E+02
    -15.548  0.0000E+00  0.2400E+02
    -15.445  0.0000E+00  0.2400E+02
    -15.342  0.0000E+00  0.2400E+02
    -15.239  0.0000E+00  0.2400E+02
    -15.136  0.0000E+00  0.2400E+02
    -15.033  0.0000E+00  0.2400E+02
    -14.930  0.0000E+00  0.2400E+02
    -14.827  0.0000E+00  0.2400E+02
    -14.724  0.0000E+00  0.2400E+02
    -14.621  0.0000E+00  0.2400E+02
    -14.518  0.0000E+00  0.2400E+02
    -14.415  0.0000E+00  0.2400E+02
    -14.313  0.1699E+00  0.2402E+02
    -14.210  0.4190E+01  0.2449E+02
    -14.107  0.6656E+01  0.2574E+02
    -14.004  0.1230E+02  0.2749E+02
    -13.901  0.1952E+02  0.3023E+02
    -13.798  0.1127E+02  0.3277E+02
    -13.695  0.1739E+02  0.3551E+02
    -13.592  0.2158E+01  0.3600E+02
    -13.489  0.0000E+00  0.3600E+02
    -13.386  0.0000E+00  0.3600E+02
    -13.283  0.0000E+00  0.3600E+02
    -13.180  0.0000E+00  0.3600E+02
    -13.077  0.0000E+00  0.3600E+02
    -12.974  0.0000E+00  0.3600E+02
    -12.871  0.0000E+00  0.3600E+02
    -12.769  0.0000E+00  0.3600E+02
    -12.666  0.0000E+00  0.3600E+02
    -12.563  0.0000E+00  0.3600E+02
    -12.460  0.0000E+00  0.3600E+02
    -12.357  0.0000E+00  0.3600E+02
    -12.254  0.0000E+00  0.3600E+02
    -12.151  0.0000E+00  0.3600E+02
    -12.048  0.0000E+00  0.3600E+02
    -11.945  0.0000E+00  0.3600E+02
    -11.842  0.0000E+00  0.3600E+02
    -11.739  0.0000E+00  0.3600E+02
    -11.636  0.0000E+00  0.3600E+02
    -11.533  0.0000E+00  0.3600E+02
    -11.430  0.0000E+00  0.3600E+02
    -11.327  0.0000E+00  0.3600E+02
    -11.224  0.0000E+00  0.3600E+02
    -11.122  0.0000E+00  0.3600E+02
    -11.019  0.0000E+00  0.3600E+02
    -10.916  0.0000E+00  0.3600E+02
    -10.813  0.0000E+00  0.3600E+02
    -10.710  0.0000E+00  0.3600E+02
    -10.607  0.0000E+00  0.3600E+02
    -10.504  0.0000E+00  0.3600E+02
    -10.401  0.0000E+00  0.3600E+02
    -10.298  0.0000E+00  0.3600E+02
    -10.195  0.0000E+00  0.3600E+02
    -10.092  0.0000E+00  0.3600E+02
     -9.989  0.0000E+00  0.3600E+02
     -9.886  0.0000E+00  0.3600E+02
     -9.783  0.0000E+00  0.3600E+02
     -9.680  0.0000E+00  0.3600E+02
     -9.578  0.0000E+00  0.3600E+02
     -9.475  0.0000E+00  0.3600E+02
     -9.372  0.0000E+00  0.3600E+02
     -9.269  0.0000E+00  0.3600E+02
     -9.166  0.0000E+00  0.3600E+02
     -9.063  0.0000E+00  0.3600E+02
     -8.960  0.0000E+00  0.3600E+02
     -8.857  0.0000E+00  0.3600E+02
     -8.754  0.0000E+00  0.3600E+02
     -8.651  0.0000E+00  0.3600E+02
     -8.548  0.0000E+00  0.3600E+02
     -8.445  0.0000E+00  0.3600E+02
     -8.342  0.0000E+00  0.3600E+02
     -8.239  0.0000E+00  0.3600E+02
     -8.136  0.5840E-01  0.3601E+02
     -8.033  0.0000E+00  0.3606E+02
     -7.931  0.7914E-04  0.3606E+02
     -7.828  0.3238E+01  0.3639E+02
     -7.725  0.2159E+01  0.3661E+02
     -7.622  0.4481E+01  0.3707E+02
     -7.519  0.4120E+01  0.3754E+02
     -7.416  0.1642E-01  0.3778E+02
     -7.313  0.3480E-01  0.3823E+02
     -7.210  0.6385E+02  0.4524E+02
     -7.107  0.2212E+02  0.5117E+02
     -7.004  0.4809E+00  0.5138E+02
     -6.901  0.2157E+01  0.5161E+02
     -6.798  0.2216E+01  0.5184E+02
     -6.695  0.0000E+00  0.5194E+02
     -6.592  0.0000E+00  0.5194E+02
     -6.489  0.1782E-11  0.5194E+02
     -6.386  0.5397E+00  0.5200E+02
     -6.284  0.0000E+00  0.5200E+02
     -6.181  0.0000E+00  0.5200E+02
     -6.078  0.0000E+00  0.5200E+02
     -5.975  0.0000E+00  0.5200E+02
     -5.872  0.0000E+00  0.5200E+02
     -5.769  0.0000E+00  0.5200E+02
     -5.666  0.0000E+00  0.5200E+02
     -5.563  0.0000E+00  0.5200E+02
     -5.460  0.0000E+00  0.5200E+02
     -5.357  0.0000E+00  0.5200E+02
     -5.254  0.0000E+00  0.5200E+02
     -5.151  0.0000E+00  0.5200E+02
     -5.048  0.0000E+00  0.5200E+02
     -4.945  0.0000E+00  0.5200E+02
     -4.842  0.0000E+00  0.5200E+02
     -4.740  0.0000E+00  0.5200E+02
     -4.637  0.0000E+00  0.5200E+02
     -4.534  0.0000E+00  0.5200E+02
     -4.431  0.0000E+00  0.5200E+02
     -4.328  0.0000E+00  0.5200E+02
     -4.225  0.0000E+00  0.5200E+02
     -4.122  0.0000E+00  0.5200E+02
     -4.019  0.0000E+00  0.5200E+02
     -3.916  0.0000E+00  0.5200E+02
     -3.813  0.0000E+00  0.5200E+02
     -3.710  0.0000E+00  0.5200E+02
     -3.607  0.0000E+00  0.5200E+02
     -3.504  0.0000E+00  0.5200E+02
     -3.401  0.0000E+00  0.5200E+02
     -3.298  0.1596E-09  0.5200E+02
     -3.195  0.6907E+01  0.5271E+02
     -3.093  0.1031E+02  0.5401E+02
     -2.990  0.2704E+01  0.5433E+02
     -2.887  0.4329E+01  0.5500E+02
     -2.784  0.1785E-02  0.5522E+02
     -2.681  0.1280E+02  0.5654E+02
     -2.578  0.2159E+01  0.5700E+02
     -2.475  0.1942E-02  0.5700E+02
     -2.372  0.5396E+01  0.5756E+02
     -2.269  0.1295E+02  0.5889E+02
     -2.166  0.5404E+01  0.5945E+02
     -2.063  0.1100E+02  0.6063E+02
     -1.960  0.1485E+02  0.6270E+02
     -1.857  0.3245E+01  0.6328E+02
     -1.754  0.3810E+01  0.6389E+02
     -1.651  0.1332E+02  0.6587E+02
     -1.549  0.5461E+01  0.6706E+02
     -1.446  0.1331E+02  0.6876E+02
     -1.343  0.2664E+02  0.7174E+02
     -1.240  0.2063E+02  0.7440E+02
     -1.137  0.2599E+02  0.7806E+02
     -1.034  0.2396E+02  0.8124E+02
     -0.931  0.1295E+02  0.8350E+02
     -0.828  0.6826E+01  0.8420E+02
     -0.725  0.1069E+02  0.8549E+02
     -0.622  0.1105E-01  0.8550E+02
     -0.519  0.2194E+01  0.8595E+02
     -0.416  0.8649E+01  0.8689E+02
     -0.313  0.9905E-03  0.8711E+02
     -0.210  0.2158E+01  0.8733E+02
     -0.107  0.0000E+00  0.8733E+02
     -0.004  0.7012E+00  0.8741E+02
      0.098  0.5397E+00  0.8783E+02
      0.201  0.1079E+01  0.8794E+02
      0.304  0.0000E+00  0.8794E+02
      0.407  0.0000E+00  0.8794E+02
      0.510  0.0000E+00  0.8794E+02
      0.613  0.5379E+00  0.8800E+02
      0.716  0.0000E+00  0.8800E+02
      0.819  0.0000E+00  0.8800E+02
      0.922  0.0000E+00  0.8800E+02
      1.025  0.0000E+00  0.8800E+02
      1.128  0.0000E+00  0.8800E+02
      1.231  0.0000E+00  0.8800E+02
      1.334  0.0000E+00  0.8800E+02
      1.437  0.0000E+00  0.8800E+02
      1.540  0.0000E+00  0.8800E+02
      1.642  0.0000E+00  0.8800E+02
      1.745  0.0000E+00  0.8800E+02
      1.848  0.0000E+00  0.8800E+02
      1.951  0.0000E+00  0.8800E+02
      2.054  0.0000E+00  0.8800E+02
      2.157  0.0000E+00  0.8800E+02
      2.260  0.0000E+00  0.8800E+02
      2.363  0.0000E+00  0.8800E+02
      2.466  0.0000E+00  0.8800E+02
      2.569  0.0000E+00  0.8800E+02
      2.672  0.4437E+00  0.8805E+02
      2.775  0.0000E+00  0.8806E+02
      2.878  0.1045E+00  0.8807E+02
      2.981  0.1080E+01  0.8839E+02
      3.084  0.2159E+01  0.8861E+02
      3.187  0.2144E+01  0.8883E+02
      3.289  0.4331E+01  0.8928E+02
      3.392  0.2457E+01  0.8975E+02
      3.495  0.6473E-02  0.9006E+02
      3.598  0.2145E+01  0.9033E+02
      3.701  0.2080E-03  0.9033E+02
      3.804  0.2159E+01  0.9056E+02
      3.907  0.5999E+01  0.9117E+02
      4.010  0.3980E-05  0.9122E+02
      4.113  0.8635E+01  0.9211E+02
      4.216  0.9955E+00  0.9221E+02
      4.319  0.3028E+01  0.9287E+02
      4.422  0.2157E+01  0.9311E+02
      4.525  0.4318E+01  0.9356E+02
      4.628  0.4318E+01  0.9400E+02
      4.731  0.1373E+01  0.9414E+02
      4.833  0.4318E+01  0.9494E+02
      4.936  0.1051E+01  0.9505E+02
      5.039  0.1245E+01  0.9518E+02
      5.142  0.0000E+00  0.9528E+02
      5.245  0.6455E+01  0.9594E+02
      5.348  0.4318E+01  0.9639E+02
      5.451  0.1157E+02  0.9758E+02
      5.554  0.8924E-04  0.9761E+02
      5.657  0.2699E+01  0.9789E+02
      5.760  0.1088E+01  0.9800E+02
      5.863  0.7434E+01  0.9882E+02
      5.966  0.7336E+01  0.9981E+02
      6.069  0.7789E+01  0.1007E+03
      6.172  0.3278E+01  0.1016E+03
      6.275  0.1184E+02  0.1031E+03
      6.378  0.4495E+01  0.1035E+03
      6.480  0.2699E+01  0.1040E+03
      6.583  0.9258E+01  0.1050E+03
      6.686  0.7653E+01  0.1061E+03
      6.789  0.1815E+02  0.1084E+03
      6.892  0.1586E+02  0.1100E+03
      6.995  0.1047E+01  0.1106E+03
      7.098  0.4857E+01  0.1113E+03
      7.201  0.4240E+01  0.1118E+03
      7.304  0.2159E+01  0.1120E+03
      7.407  0.0000E+00  0.1120E+03
      7.510  0.0000E+00  0.1120E+03
      7.613  0.0000E+00  0.1120E+03
      7.716  0.0000E+00  0.1120E+03
      7.819  0.0000E+00  0.1120E+03
      7.922  0.0000E+00  0.1120E+03
      8.024  0.0000E+00  0.1120E+03
      8.127  0.0000E+00  0.1120E+03
      8.230  0.0000E+00  0.1120E+03
      8.333  0.0000E+00  0.1120E+03
      8.436  0.0000E+00  0.1120E+03
      8.539  0.0000E+00  0.1120E+03
      8.642  0.0000E+00  0.1120E+03
      8.64210969    -22.23859474  301      0.63886046      1.00000000
    -22.239  0.0000E+00  0.0000E+00  0.0000E+00
    -22.136  0.0000E+00  0.0000E+00  0.0000E+00
    -22.033  0.0000E+00  0.0000E+00  0.0000E+00
    -21.930  0.0000E+00  0.0000E+00  0.0000E+00
    -21.827  0.0000E+00  0.0000E+00  0.0000E+00
    -21.724  0.0000E+00  0.0000E+00  0.0000E+00
    -21.621  0.0000E+00  0.0000E+00  0.0000E+00
    -21.518  0.0000E+00  0.0000E+00  0.0000E+00
    -21.415  0.0000E+00  0.0000E+00  0.0000E+00
    -21.312  0.0000E+00  0.0000E+00  0.0000E+00
    -21.209  0.0000E+00  0.0000E+00  0.0000E+00
    -21.106  0.0000E+00  0.0000E+00  0.0000E+00
    -21.003  0.0000E+00  0.0000E+00  0.0000E+00
    -20.900  0.0000E+00  0.0000E+00  0.0000E+00
    -20.797  0.1724E+02  0.1639E-06  0.1887E-04
    -20.695  0.0000E+00  0.0000E+00  0.0000E+00
    -20.592  0.0000E+00  0.0000E+00  0.0000E+00
    -20.489  0.0000E+00  0.0000E+00  0.0000E+00
    -20.386  0.0000E+00  0.0000E+00  0.0000E+00
    -20.283  0.0000E+00  0.0000E+00  0.0000E+00
    -20.180  0.0000E+00  0.0000E+00  0.0000E+00
    -20.077  0.0000E+00  0.0000E+00  0.0000E+00
    -19.974  0.0000E+00  0.0000E+00  0.0000E+00
    -19.871  0.0000E+00  0.0000E+00  0.0000E+00
    -19.768  0.0000E+00  0.0000E+00  0.0000E+00
    -19.665  0.0000E+00  0.0000E+00  0.0000E+00
    -19.562  0.0000E+00  0.0000E+00  0.0000E+00
    -19.459  0.0000E+00  0.0000E+00  0.0000E+00
    -19.356  0.0000E+00  0.0000E+00  0.0000E+00
    -19.253  0.0000E+00  0.0000E+00  0.0000E+00
    -19.151  0.0000E+00  0.0000E+00  0.0000E+00
    -19.048  0.0000E+00  0.0000E+00  0.0000E+00
    -18.945  0.0000E+00  0.0000E+00  0.0000E+00
    -18.842  0.0000E+00  0.0000E+00  0.0000E+00
    -18.739  0.0000E+00  0.0000E+00  0.0000E+00
    -18.636  0.0000E+00  0.0000E+00  0.0000E+00
    -18.533  0.0000E+00  0.0000E+00  0.0000E+00
    -18.430  0.0000E+00  0.0000E+00  0.0000E+00
    -18.327  0.0000E+00  0.0000E+00  0.0000E+00
    -18.224  0.0000E+00  0.0000E+00  0.0000E+00
    -18.121  0.0000E+00  0.0000E+00  0.0000E+00
    -18.018  0.0000E+00  0.0000E+00  0.0000E+00
    -17.915  0.0000E+00  0.0000E+00  0.0000E+00
    -17.812  0.0000E+00  0.0000E+00  0.0000E+00
    -17.709  0.0000E+00  0.0000E+00  0.0000E+00
    -17.606  0.0000E+00  0.0000E+00  0.0000E+00
    -17.504  0.0000E+00  0.0000E+00  0.0000E+00
    -17.401  0.0000E+00  0.0000E+00  0.0000E+00
    -17.298  0.0000E+00  0.0000E+00  0.0000E+00
    -17.195  0.0000E+00  0.0000E+00  0.0000E+00
    -17.092  0.0000E+00  0.0000E+00  0.0000E+00
    -16.989  0.0000E+00  0.0000E+00  0.0000E+00
    -16.886  0.0000E+00  0.0000E+00  0.0000E+00
    -16.783  0.0000E+00  0.0000E+00  0.0000E+00
    -16.680  0.0000E+00  0.0000E+00  0.0000E+00
    -16.577  0.0000E+00  0.0000E+00  0.0000E+00
    -16.474  0.0000E+00  0.0000E+00  0.0000E+00
    -16.371  0.3991E-04  0.1732E-04  0.2425E-05
    -16.268  0.3181E-04  0.5964E-04  0.9420E-05
    -16.165  0.3061E-04  0.1857E-04  0.2035E-05
    -16.062  0.0000E+00  0.0000E+00  0.0000E+00
    -15.960  0.0000E+00  0.0000E+00  0.0000E+00
    -15.857  0.0000E+00  0.0000E+00  0.0000E+00
    -15.754  0.0000E+00  0.0000E+00  0.0000E+00
    -15.651  0.0000E+00  0.0000E+00  0.0000E+00
    -15.548  0.0000E+00  0.0000E+00  0.0000E+00
    -15.445  0.0000E+00  0.0000E+00  0.0000E+00
    -15.342  0.0000E+00  0.0000E+00  0.0000E+00
    -15.239  0.0000E+00  0.0000E+00  0.0000E+00
    -15.136  0.0000E+00  0.0000E+00  0.0000E+00
    -15.033  0.0000E+00  0.0000E+00  0.0000E+00
    -14.930  0.0000E+00  0.0000E+00  0.0000E+00
    -14.827  0.0000E+00  0.0000E+00  0.0000E+00
    -14.724  0.0000E+00  0.0000E+00  0.0000E+00
    -14.621  0.0000E+00  0.0000E+00  0.0000E+00
    -14.518  0.0000E+00  0.0000E+00  0.0000E+00
    -14.415  0.0000E+00  0.0000E+00  0.0000E+00
    -14.313  0.1202E-03  0.4501E-17  0.1206E-05
    -14.210  0.1860E-02  0.7376E-03  0.2421E-04
    -14.107  0.1387E-02  0.2240E-02  0.3615E-04
    -14.004  0.3639E-03  0.5046E-02  0.2466E-03
    -13.901  0.4922E-03  0.1846E-02  0.3939E-03
    -13.798  0.1130E-02  0.1522E-02  0.2033E-03
    -13.695  0.1267E-02  0.2947E-02  0.1999E-03
    -13.592  0.3036E-04  0.9271E-04  0.1926E-05
    -13.489  0.0000E+00  0.0000E+00  0.0000E+00
    -13.386  0.0000E+00  0.0000E+00  0.0000E+00
    -13.283  0.0000E+00  0.0000E+00  0.0000E+00
    -13.180  0.0000E+00  0.0000E+00  0.0000E+00
    -13.077  0.0000E+00  0.0000E+00  0.0000E+00
    -12.974  0.0000E+00  0.0000E+00  0.0000E+00
    -12.871  0.0000E+00  0.0000E+00  0.0000E+00
    -12.769  0.0000E+00  0.0000E+00  0.0000E+00
    -12.666  0.0000E+00  0.0000E+00  0.0000E+00
    -12.563  0.0000E+00  0.0000E+00  0.0000E+00
    -12.460  0.0000E+00  0.0000E+00  0.0000E+00
    -12.357  0.0000E+00  0.0000E+00  0.0000E+00
    -12.254  0.0000E+00  0.0000E+00  0.0000E+00
    -12.151  0.0000E+00  0.0000E+00  0.0000E+00
    -12.048  0.0000E+00  0.0000E+00  0.0000E+00
    -11.945  0.0000E+00  0.0000E+00  0.0000E+00
    -11.842  0.0000E+00  0.0000E+00  0.0000E+00
    -11.739  0.0000E+00  0.0000E+00  0.0000E+00
    -11.636  0.0000E+00  0.0000E+00  0.0000E+00
    -11.533  0.0000E+00  0.0000E+00  0.0000E+00
    -11.430  0.0000E+00  0.0000E+00  0.0000E+00
    -11.327  0.0000E+00  0.0000E+00  0.0000E+00
    -11.224  0.0000E+00  0.0000E+00  0.0000E+00
    -11.122  0.0000E+00  0.0000E+00  0.0000E+00
    -11.019  0.0000E+00  0.0000E+00  0.0000E+00
    -10.916  0.0000E+00  0.0000E+00  0.0000E+00
    -10.813  0.0000E+00  0.0000E+00  0.0000E+00
    -10.710  0.0000E+00  0.0000E+00  0.0000E+00
    -10.607  0.0000E+00  0.0000E+00  0.0000E+00
    -10.504  0.0000E+00  0.0000E+00  0.0000E+00
    -10.401  0.0000E+00  0.0000E+00  0.0000E+00
    -10.298  0.0000E+00  0.0000E+00  0.0000E+00
    -10.195  0.0000E+00  0.0000E+00  0.0000E+00
    -10.092  0.0000E+00  0.0000E+00  0.0000E+00
     -9.989  0.0000E+00  0.0000E+00  0.0000E+00
     -9.886  0.0000E+00  0.0000E+00  0.0000E+00
     -9.783  0.0000E+00  0.0000E+00  0.0000E+00
     -9.680  0.0000E+00  0.0000E+00  0.0000E+00
     -9.578  0.0000E+00  0.0000E+00  0.0000E+00
     -9.475  0.0000E+00  0.0000E+00  0.0000E+00
     -9.372  0.0000E+00  0.0000E+00  0.0000E+00
     -9.269  0.0000E+00  0.0000E+00  0.0000E+00
     -9.166  0.0000E+00  0.0000E+00  0.0000E+00
     -9.063  0.0000E+00  0.0000E+00  0.0000E+00
     -8.960  0.0000E+00  0.0000E+00  0.0000E+00
     -8.857  0.0000E+00  0.0000E+00  0.0000E+00
     -8.754  0.0000E+00  0.0000E+00  0.0000E+00
     -8.651  0.0000E+00  0.0000E+00  0.0000E+00
     -8.548  0.0000E+00  0.0000E+00  0.0000E+00
     -8.445  0.0000E+00  0.0000E+00  0.0000E+00
     -8.342  0.0000E+00  0.0000E+00  0.0000E+00
     -8.239  0.0000E+00  0.0000E+00  0.0000E+00
     -8.136  0.3575E-21  0.8984E-16  0.9026E-18
     -8.033  0.0000E+00  0.0000E+00  0.0000E+00
     -7.931  0.1212E-22  0.3050E-07  0.3517E-09
     -7.828  0.1397E-17  0.8372E-03  0.1106E-04
     -7.725  0.7985E-16  0.6146E-14  0.7860E-05
     -7.622  0.6618E-05  0.1023E-01  0.1769E-04
     -7.519  0.6443E-16  0.4711E-01  0.7128E-05
     -7.416  0.1629E-07  0.4395E-03  0.8897E-07
     -7.313  0.1422E-06  0.6316E-02  0.2993E-06
     -7.210  0.2227E-04  0.2334E+02  0.4000E-04
     -7.107  0.4206E-04  0.6703E+01  0.4613E-04
     -7.004  0.1280E-16  0.4332E-01  0.1749E-15
     -6.901  0.1318E-04  0.5032E-01  0.4690E-05
     -6.798  0.4348E-04  0.1447E-01  0.1607E-04
     -6.695  0.0000E+00  0.0000E+00  0.0000E+00
     -6.592  0.0000E+00  0.0000E+00  0.0000E+00
     -6.489  0.5445E-16  0.7299E-27  0.2615E-16
     -6.386  0.1649E-04  0.2211E-15  0.7921E-05
     -6.284  0.0000E+00  0.0000E+00  0.0000E+00
     -6.181  0.0000E+00  0.0000E+00  0.0000E+00
     -6.078  0.0000E+00  0.0000E+00  0.0000E+00
     -5.975  0.0000E+00  0.0000E+00  0.0000E+00
     -5.872  0.0000E+00  0.0000E+00  0.0000E+00
     -5.769  0.0000E+00  0.0000E+00  0.0000E+00
     -5.666  0.0000E+00  0.0000E+00  0.0000E+00
     -5.563  0.0000E+00  0.0000E+00  0.0000E+00
     -5.460  0.0000E+00  0.0000E+00  0.0000E+00
     -5.357  0.0000E+00  0.0000E+00  0.0000E+00
     -5.254  0.0000E+00  0.0000E+00  0.0000E+00
     -5.151  0.0000E+00  0.0000E+00  0.0000E+00
     -5.048  0.0000E+00  0.0000E+00  0.0000E+00
     -4.945  0.0000E+00  0.0000E+00  0.0000E+00
     -4.842  0.0000E+00  0.0000E+00  0.0000E+00
     -4.740  0.0000E+00  0.0000E+00  0.0000E+00
     -4.637  0.0000E+00  0.0000E+00  0.0000E+00
     -4.534  0.0000E+00  0.0000E+00  0.0000E+00
     -4.431  0.0000E+00  0.0000E+00  0.0000E+00
     -4.328  0.0000E+00  0.0000E+00  0.0000E+00
     -4.225  0.0000E+00  0.0000E+00  0.0000E+00
     -4.122  0.0000E+00  0.0000E+00  0.0000E+00
     -4.019  0.0000E+00  0.0000E+00  0.0000E+00
     -3.916  0.0000E+00  0.0000E+00  0.0000E+00
     -3.813  0.0000E+00  0.0000E+00  0.0000E+00
     -3.710  0.0000E+00  0.0000E+00  0.0000E+00
     -3.607  0.0000E+00  0.0000E+00  0.0000E+00
     -3.504  0.0000E+00  0.0000E+00  0.0000E+00
     -3.401  0.0000E+00  0.0000E+00  0.0000E+00
     -3.298  0.2970E-26  0.7001E-12  0.3784E-25
     -3.195  0.2988E-15  0.2224E-01  0.6620E-03
     -3.093  0.1572E-13  0.2210E-02  0.1463E-02
     -2.990  0.2987E-06  0.1878E-04  0.8552E-04
     -2.887  0.1080E-03  0.1119E-01  0.6941E-03
     -2.784  0.5887E-08  0.3569E-05  0.2719E-06
     -2.681  0.2308E-03  0.1524E-01  0.3052E-02
     -2.578  0.1764E-13  0.6109E-14  0.2449E-04
     -2.475  0.2243E-06  0.3053E-05  0.1278E-06
     -2.372  0.9360E-03  0.1336E-01  0.3248E-03
     -2.269  0.2535E-02  0.2720E-01  0.5264E-02
     -2.166  0.9774E-04  0.1070E-01  0.2525E-02
     -2.063  0.1774E-02  0.4209E-01  0.3504E-02
     -1.960  0.2836E-01  0.2291E-01  0.4904E-02
     -1.857  0.4530E-02  0.2383E-01  0.8256E-03
     -1.754  0.1070E-03  0.5226E-01  0.1561E-02
     -1.651  0.8947E-03  0.1283E+00  0.7858E-02
     -1.549  0.5033E-03  0.3539E-01  0.1197E-02
     -1.446  0.1659E-02  0.6667E-01  0.1393E-01
     -1.343  0.4096E-02  0.1944E-01  0.1765E-01
     -1.240  0.2794E-02  0.1084E+00  0.7610E-02
     -1.137  0.2367E-02  0.7097E-01  0.1403E-01
     -1.034  0.1434E-02  0.7072E-01  0.1177E-01
     -0.931  0.1111E-02  0.3349E-01  0.8235E-02
     -0.828  0.4373E-03  0.6371E-02  0.1229E-02
     -0.725  0.7791E-04  0.1938E-01  0.3801E-02
     -0.622  0.1727E-17  0.2739E-06  0.4253E-07
     -0.519  0.5606E-04  0.8918E-03  0.1887E-03
     -0.416  0.7812E-04  0.1776E-02  0.1171E-02
     -0.313  0.2132E-19  0.1837E-06  0.5631E-06
     -0.210  0.4645E-16  0.4002E-03  0.1227E-02
     -0.107  0.0000E+00  0.0000E+00  0.0000E+00
     -0.004  0.6302E-17  0.4417E-06  0.2906E-04
      0.098  0.1475E-16  0.1183E-15  0.1471E-03
      0.201  0.1231E-15  0.5348E-15  0.1083E-03
      0.304  0.0000E+00  0.0000E+00  0.0000E+00
      0.407  0.0000E+00  0.0000E+00  0.0000E+00
      0.510  0.0000E+00  0.0000E+00  0.0000E+00
      0.613  0.2763E-16  0.2527E-15  0.1276E-15
      0.716  0.0000E+00  0.0000E+00  0.0000E+00
      0.819  0.0000E+00  0.0000E+00  0.0000E+00
      0.922  0.0000E+00  0.0000E+00  0.0000E+00
      1.025  0.0000E+00  0.0000E+00  0.0000E+00
      1.128  0.0000E+00  0.0000E+00  0.0000E+00
      1.231  0.0000E+00  0.0000E+00  0.0000E+00
      1.334  0.0000E+00  0.0000E+00  0.0000E+00
      1.437  0.0000E+00  0.0000E+00  0.0000E+00
      1.540  0.0000E+00  0.0000E+00  0.0000E+00
      1.642  0.0000E+00  0.0000E+00  0.0000E+00
      1.745  0.0000E+00  0.0000E+00  0.0000E+00
      1.848  0.0000E+00  0.0000E+00  0.0000E+00
      1.951  0.0000E+00  0.0000E+00  0.0000E+00
      2.054  0.0000E+00  0.0000E+00  0.0000E+00
      2.157  0.0000E+00  0.0000E+00  0.0000E+00
      2.260  0.0000E+00  0.0000E+00  0.0000E+00
      2.363  0.0000E+00  0.0000E+00  0.0000E+00
      2.466  0.0000E+00  0.0000E+00  0.0000E+00
      2.569  0.0000E+00  0.0000E+00  0.0000E+00
      2.672  0.5901E-15  0.2059E-14  0.5213E-03
      2.775  0.0000E+00  0.0000E+00  0.0000E+00
      2.878  0.2074E-06  0.2233E-04  0.7167E-04
      2.981  0.1502E-14  0.3872E-07  0.1810E-02
      3.084  0.2535E-15  0.2431E-03  0.4813E-03
      3.187  0.1868E-08  0.1898E-03  0.1534E-02
      3.289  0.2118E-04  0.2943E-02  0.1406E-02
      3.392  0.4417E-03  0.6878E-03  0.1506E-02
      3.495  0.4196E-06  0.9386E-17  0.4648E-05
      3.598  0.1055E-02  0.2987E-03  0.1927E-02
      3.701  0.1264E-18  0.1356E-06  0.2350E-06
      3.804  0.1311E-14  0.1407E-02  0.2438E-02
      3.907  0.8736E-03  0.1911E-02  0.9694E-02
      4.010  0.1463E-09  0.1467E-08  0.5055E-08
      4.113  0.1480E-02  0.6255E-02  0.7617E-02
      4.216  0.5238E-03  0.1063E-02  0.3710E-03
      4.319  0.1100E-03  0.1219E-02  0.2981E-02
      4.422  0.1972E-02  0.7310E-03  0.1923E-02
      4.525  0.2882E-03  0.2639E-02  0.1068E-01
      4.628  0.2322E-14  0.5766E-03  0.6983E-02
      4.731  0.6325E-03  0.2819E-02  0.1603E-02
      4.833  0.3020E-02  0.4645E-02  0.9836E-02
      4.936  0.5324E-02  0.1295E-02  0.4639E-02
      5.039  0.2784E-15  0.2749E-15  0.4680E-02
      5.142  0.0000E+00  0.0000E+00  0.0000E+00
      5.245  0.3475E-01  0.1224E-01  0.1694E-01
      5.348  0.7644E-08  0.4029E-02  0.6614E-02
      5.451  0.3753E-01  0.1375E-01  0.2605E-01
      5.554  0.1067E-07  0.5432E-17  0.5359E-05
      5.657  0.3498E-02  0.1368E-03  0.3660E-01
      5.760  0.6633E-02  0.7646E-03  0.5169E-01
      5.863  0.4898E-01  0.1655E-01  0.4994E-01
      5.966  0.5592E-01  0.8463E-02  0.1114E+00
      6.069  0.1331E-01  0.1446E-02  0.1404E+00
      6.172  0.6690E-03  0.1351E-02  0.5579E-01
      6.275  0.6001E-01  0.4983E-01  0.2563E+00
      6.378  0.7256E-02  0.2010E-01  0.3046E+00
      6.480  0.2630E-01  0.1383E-01  0.9407E-01
      6.583  0.5482E-01  0.6553E-02  0.5059E+00
      6.686  0.7304E-01  0.2243E-01  0.4210E+00
      6.789  0.1076E-01  0.9488E-01  0.7330E+00
      6.892  0.1622E-01  0.4957E-01  0.8233E+00
      6.995  0.1341E-02  0.6077E-04  0.6381E-01
      7.098  0.5021E-07  0.3429E-01  0.2387E+00
      7.201  0.6633E-02  0.1605E-01  0.2538E+00
      7.304  0.1596E-07  0.1151E-01  0.8867E-01
      7.407  0.0000E+00  0.0000E+00  0.0000E+00
      7.510  0.0000E+00  0.0000E+00  0.0000E+00
      7.613  0.0000E+00  0.0000E+00  0.0000E+00
      7.716  0.0000E+00  0.0000E+00  0.0000E+00
      7.819  0.0000E+00  0.0000E+00  0.0000E+00
      7.922  0.0000E+00  0.0000E+00  0.0000E+00
      8.024  0.0000E+00  0.0000E+00  0.0000E+00
      8.127  0.0000E+00  0.0000E+00  0.0000E+00
      8.230  0.0000E+00  0.0000E+00  0.0000E+00
      8.333  0.0000E+00  0.0000E+00  0.0000E+00
      8.436  0.0000E+00  0.0000E+00  0.0000E+00
      8.539  0.0000E+00  0.0000E+00  0.0000E+00
      8.642  0.0000E+00  0.0000E+00  0.0000E+00
      8.64210969    -22.23859474  301      0.63886046      1.00000000
    -22.239  0.0000E+00  0.0000E+00  0.0000E+00
    -22.136  0.0000E+00  0.0000E+00  0.0000E+00
    -22.033  0.0000E+00  0.0000E+00  0.0000E+00
    -21.930  0.0000E+00  0.0000E+00  0.0000E+00
    -21.827  0.0000E+00  0.0000E+00  0.0000E+00
    -21.724  0.0000E+00  0.0000E+00  0.0000E+00
    -21.621  0.0000E+00  0.0000E+00  0.0000E+00
    -21.518  0.0000E+00  0.0000E+00  0.0000E+00
    -21.415  0.0000E+00  0.0000E+00  0.0000E+00
    -21.312  0.0000E+00  0.0000E+00  0.0000E+00
    -21.209  0.0000E+00  0.0000E+00  0.0000E+00
    -21.106  0.0000E+00  0.0000E+00  0.0000E+00
    -21.003  0.0000E+00  0.0000E+00  0.0000E+00
    -20.900  0.0000E+00  0.0000E+00  0.0000E+00
    -20.797  0.1724E+02  0.1636E-06  0.1886E-04
    -20.695  0.0000E+00  0.0000E+00  0.0000E+00
    -20.592  0.0000E+00  0.0000E+00  0.0000E+00
    -20.489  0.0000E+00  0.0000E+00  0.0000E+00
    -20.386  0.0000E+00  0.0000E+00  0.0000E+00
    -20.283  0.0000E+00  0.0000E+00  0.0000E+00
    -20.180  0.0000E+00  0.0000E+00  0.0000E+00
    -20.077  0.0000E+00  0.0000E+00  0.0000E+00
    -19.974  0.0000E+00  0.0000E+00  0.0000E+00
    -19.871  0.0000E+00  0.0000E+00  0.0000E+00
    -19.768  0.0000E+00  0.0000E+00  0.0000E+00
    -19.665  0.0000E+00  0.0000E+00  0.0000E+00
    -19.562  0.0000E+00  0.0000E+00  0.0000E+00
    -19.459  0.0000E+00  0.0000E+00  0.0000E+00
    -19.356  0.0000E+00  0.0000E+00  0.0000E+00
    -19.253  0.0000E+00  0.0000E+00  0.0000E+00
    -19.151  0.0000E+00  0.0000E+00  0.0000E+00
    -19.048  0.0000E+00  0.0000E+00  0.0000E+00
    -18.945  0.0000E+00  0.0000E+00  0.0000E+00
    -18.842  0.0000E+00  0.0000E+00  0.0000E+00
    -18.739  0.0000E+00  0.0000E+00  0.0000E+00
    -18.636  0.0000E+00  0.0000E+00  0.0000E+00
    -18.533  0.0000E+00  0.0000E+00  0.0000E+00
    -18.430  0.0000E+00  0.0000E+00  0.0000E+00
    -18.327  0.0000E+00  0.0000E+00  0.0000E+00
    -18.224  0.0000E+00  0.0000E+00  0.0000E+00
    -18.121  0.0000E+00  0.0000E+00  0.0000E+00
    -18.018  0.0000E+00  0.0000E+00  0.0000E+00
    -17.915  0.0000E+00  0.0000E+00  0.0000E+00
    -17.812  0.0000E+00  0.0000E+00  0.0000E+00
    -17.709  0.0000E+00  0.0000E+00  0.0000E+00
    -17.606  0.0000E+00  0.0000E+00  0.0000E+00
    -17.504  0.0000E+00  0.0000E+00  0.0000E+00
    -17.401  0.0000E+00  0.0000E+00  0.0000E+00
    -17.298  0.0000E+00  0.0000E+00  0.0000E+00
    -17.195  0.0000E+00  0.0000E+00  0.0000E+00
    -17.092  0.0000E+00  0.0000E+00  0.0000E+00
    -16.989  0.0000E+00  0.0000E+00  0.0000E+00
    -16.886  0.0000E+00  0.0000E+00  0.0000E+00
    -16.783  0.0000E+00  0.0000E+00  0.0000E+00
    -16.680  0.0000E+00  0.0000E+00  0.0000E+00
    -16.577  0.0000E+00  0.0000E+00  0.0000E+00
    -16.474  0.0000E+00  0.0000E+00  0.0000E+00
    -16.371  0.4770E-04  0.2480E-04  0.4960E-05
    -16.268  0.2469E-04  0.3904E-04  0.3658E-05
    -16.165  0.3036E-04  0.1877E-04  0.2053E-05
    -16.062  0.0000E+00  0.0000E+00  0.0000E+00
    -15.960  0.0000E+00  0.0000E+00  0.0000E+00
    -15.857  0.0000E+00  0.0000E+00  0.0000E+00
    -15.754  0.0000E+00  0.0000E+00  0.0000E+00
    -15.651  0.0000E+00  0.0000E+00  0.0000E+00
    -15.548  0.0000E+00  0.0000E+00  0.0000E+00
    -15.445  0.0000E+00  0.0000E+00  0.0000E+00
    -15.342  0.0000E+00  0.0000E+00  0.0000E+00
    -15.239  0.0000E+00  0.0000E+00  0.0000E+00
    -15.136  0.0000E+00  0.0000E+00  0.0000E+00
    -15.033  0.0000E+00  0.0000E+00  0.0000E+00
    -14.930  0.0000E+00  0.0000E+00  0.0000E+00
    -14.827  0.0000E+00  0.0000E+00  0.0000E+00
    -14.724  0.0000E+00  0.0000E+00  0.0000E+00
    -14.621  0.0000E+00  0.0000E+00  0.0000E+00
    -14.518  0.0000E+00  0.0000E+00  0.0000E+00
    -14.415  0.0000E+00  0.0000E+00  0.0000E+00
    -14.313  0.1202E-03  0.7708E-17  0.1206E-05
    -14.210  0.1846E-02  0.7558E-03  0.2374E-04
    -14.107  0.7903E-03  0.2327E-02  0.6649E-04
    -14.004  0.3651E-03  0.2452E-02  0.1858E-03
    -13.901  0.1960E-02  0.2207E-02  0.3072E-03
    -13.798  0.8946E-04  0.1183E-02  0.2393E-03
    -13.695  0.1090E-02  0.3085E-02  0.3377E-03
    -13.592  0.5968E-04  0.1598E-03  0.2328E-04
    -13.489  0.0000E+00  0.0000E+00  0.0000E+00
    -13.386  0.0000E+00  0.0000E+00  0.0000E+00
    -13.283  0.0000E+00  0.0000E+00  0.0000E+00
    -13.180  0.0000E+00  0.0000E+00  0.0000E+00
    -13.077  0.0000E+00  0.0000E+00  0.0000E+00