Automatically generated mesh
       9
Reciprocal lattice
    0.00000000000000    0.00000000000000    0.00000000000000             1
    0.25000000000000    0.00000000000000    0.00000000000000             2
    0.50000000000000    0.00000000000000    0.00000000000000             1
    0.00000000000000    0.33333333333333    0.00000000000000             4
    0.25000000000000    0.33333333333333    0.00000000000000             8
    0.50000000000000    0.33333333333333    0.00000000000000             4
    0.00000000000000    0.33333333333333    0.33333333333333             4
    0.25000000000000    0.33333333333333    0.33333333333333             8
    0.50000000000000    0.33333333333333    0.33333333333333             4
