       N       E                     dE             d eps       ncg     rms          rms(c)
DAV:   1     0.332647536774E+03    0.33265E+03   -0.28340E+04  1024   0.918E+02
DAV:   2    -0.295586193044E+03   -0.62823E+03   -0.60890E+03  1272   0.285E+02
DAV:   3    -0.374336807202E+03   -0.78751E+02   -0.78340E+02  1272   0.120E+02
DAV:   4    -0.377181753223E+03   -0.28449E+01   -0.28354E+01  1240   0.297E+01
DAV:   5    -0.377305119494E+03   -0.12337E+00   -0.12333E+00  1376   0.479E+00    0.505E+00
DAV:   6    -0.357471845819E+03    0.19833E+02   -0.58809E+00  1280   0.282E+01    0.360E+00
DAV:   7    -0.357351169131E+03    0.12068E+00   -0.20367E+00  1320   0.492E+00    0.182E+00
DAV:   8    -0.357394288387E+03   -0.43119E-01   -0.87064E-02  1192   0.165E+00    0.106E+00
DAV:   9    -0.357414308861E+03   -0.20020E-01   -0.38911E-02  1112   0.119E+00    0.239E-01
DAV:  10    -0.357414632438E+03   -0.32358E-03   -0.20498E-03  1400   0.298E-01    0.136E-01
DAV:  11    -0.357415569733E+03   -0.93730E-03   -0.10562E-03  1192   0.198E-01    0.522E-02
DAV:  12    -0.357415499313E+03    0.70420E-04   -0.19786E-04  1184   0.996E-02    0.162E-02
DAV:  13    -0.357415483095E+03    0.16218E-04   -0.26877E-05  1344   0.281E-02    0.445E-03
DAV:  14    -0.357415491497E+03   -0.84027E-05   -0.15786E-06   864   0.789E-03    0.118E-03
DAV:  15    -0.357415493080E+03   -0.15827E-05   -0.36345E-07   728   0.364E-03    0.635E-04
DAV:  16    -0.357415492185E+03    0.89496E-06   -0.10434E-07   712   0.192E-03
   1 F= -.35741549E+03 E0= -.35741549E+03  d E =-.277648E-12
