PROCAR new format
# of k-points:    9         # of bands:   56         # of ions:   10

 k-point     1 :    0.00000000 0.00000000 0.00000000     weight = 0.02777778

band     1 # energy  -20.83492636 # occ.  2.00000000

ion      s      p      d    tot
    1  0.443  0.000  0.000  0.443
    2  0.443  0.000  0.000  0.443
    3  0.000  0.000  0.000  0.000
    4  0.000  0.000  0.000  0.000
    5  0.000  0.000  0.000  0.000
    6  0.000  0.000  0.000  0.000
    7  0.000  0.000  0.000  0.000
    8  0.000  0.000  0.000  0.000
    9  0.000  0.000  0.000  0.000
   10  0.000  0.000  0.000  0.000
tot    0.887  0.000  0.000  0.887

band     2 # energy  -20.83246609 # occ.  2.00000000

ion      s      p      d    tot
    1  0.444  0.000  0.000  0.444
    2  0.444  0.000  0.000  0.444
    3  0.000  0.000  0.000  0.000
    4  0.000  0.000  0.000  0.000
    5  0.000  0.000  0.000  0.000
    6  0.000  0.000  0.000  0.000
    7  0.000  0.000  0.000  0.000
    8  0.000  0.000  0.000  0.000
    9  0.000  0.000  0.000  0.000
   10  0.000  0.000  0.000  0.000
tot    0.888  0.000  0.000  0.888

band     3 # energy  -16.38642669 # occ.  2.00000000

ion      s      p      d    tot
    1  0.000  0.000  0.000  0.000
    2  0.000  0.000  0.000  0.000
    3  0.000  0.000  0.462  0.462
    4  0.000  0.000  0.462  0.462
    5  0.003  0.000  0.000  0.004
    6  0.003  0.000  0.000  0.004
    7  0.012  0.000  0.000  0.012
    8  0.012  0.000  0.000  0.012
    9  0.003  0.000  0.000  0.004
   10  0.003  0.000  0.000  0.004
tot    0.037  0.000  0.924  0.961

band     4 # energy  -16.38525938 # occ.  2.00000000

ion      s      p      d    tot
    1  0.000  0.000  0.000  0.000
    2  0.000  0.000  0.000  0.000
    3  0.000  0.000  0.459  0.459
    4  0.000  0.000  0.459  0.459
    5  0.010  0.000  0.000  0.010
    6  0.010  0.000  0.000  0.010
    7  0.000  0.000  0.000  0.000
    8  0.000  0.000  0.000  0.000
    9  0.010  0.000  0.000  0.010
   10  0.010  0.000  0.000  0.010
tot    0.041  0.000  0.919  0.960

band     5 # energy  -16.35592973 # occ.  2.00000000

ion      s      p      d    tot
    1  0.000  0.000  0.000  0.000
    2  0.000  0.000  0.000  0.000
    3  0.000  0.000  0.469  0.469
    4  0.000  0.000  0.469  0.469
    5  0.000  0.000  0.000  0.000
    6  0.000  0.000  0.000  0.000
    7  0.013  0.000  0.000  0.013
    8  0.013  0.000  0.000  0.013
    9  0.000  0.000  0.000  0.000
   10  0.000  0.000  0.000  0.000
tot    0.026  0.001  0.938  0.965

band     6 # energy  -16.28584573 # occ.  2.00000000

ion      s      p      d    tot
    1  0.000  0.000  0.000  0.000
    2  0.000  0.000  0.000  0.000
    3  0.000  0.000  0.486  0.486
    4  0.000  0.000  0.486  0.486
    5  0.000  0.001  0.000  0.001
    6  0.000  0.001  0.000  0.001
    7  0.000  0.000  0.000  0.000
    8  0.000  0.000  0.000  0.000
    9  0.000  0.001  0.000  0.001
   10  0.000  0.001  0.000  0.001
tot    0.000  0.003  0.972  0.974

band     7 # energy  -16.21869664 # occ.  2.00000000

ion      s      p      d    tot
    1  0.000  0.000  0.000  0.000
    2  0.000  0.000  0.000  0.000
    3  0.000  0.000  0.489  0.489
    4  0.000  0.000  0.489  0.489
    5  0.000  0.000  0.000  0.000
    6  0.000  0.000  0.000  0.000
    7  0.000  0.000  0.000  0.000
    8  0.000  0.000  0.000  0.000
    9  0.000  0.000  0.000  0.000
   10  0.000  0.000  0.000  0.000
tot    0.000  0.000  0.978  0.978

band     8 # energy  -16.21869661 # occ.  2.00000000

ion      s      p      d    tot
    1  0.000  0.000  0.000  0.000
    2  0.000  0.000  0.000  0.000
    3  0.000  0.000  0.489  0.489
    4  0.000  0.000  0.489  0.489
    5  0.000  0.000  0.000  0.000
    6  0.000  0.000  0.000  0.000
    7  0.000  0.000  0.000  0.000
    8  0.000  0.000  0.000  0.000
    9  0.000  0.000  0.000  0.000
   10  0.000  0.000  0.000  0.000
tot    0.000  0.000  0.978  0.978

band     9 # energy  -16.21738910 # occ.  2.00000000

ion      s      p      d    tot
    1  0.000  0.000  0.000  0.000
    2  0.000  0.000  0.000  0.000
    3  0.000  0.000  0.489  0.489
    4  0.000  0.000  0.489  0.489
    5  0.000  0.000  0.000  0.000
    6  0.000  0.000  0.000  0.000
    7  0.000  0.000  0.000  0.000
    8  0.000  0.000  0.000  0.000
    9  0.000  0.000  0.000  0.000
   10  0.000  0.000  0.000  0.000
tot    0.000  0.000  0.978  0.978

band    10 # energy  -16.21738907 # occ.  2.00000000

ion      s      p      d    tot
    1  0.000  0.000  0.000  0.000
    2  0.000  0.000  0.000  0.000
    3  0.000  0.000  0.489  0.489
    4  0.000  0.000  0.489  0.489
    5  0.000  0.000  0.000  0.000
    6  0.000  0.000  0.000  0.000
    7  0.000  0.000  0.000  0.000
    8  0.000  0.000  0.000  0.000
    9  0.000  0.000  0.000  0.000
   10  0.000  0.000  0.000  0.000
tot    0.000  0.000  0.978  0.978

band    11 # energy  -16.21176693 # occ.  2.00000000

ion      s      p      d    tot
    1  0.000  0.000  0.000  0.000
    2  0.000  0.000  0.000  0.000
    3  0.000  0.000  0.489  0.489
    4  0.000  0.000  0.489  0.489
    5  0.000  0.000  0.000  0.000
    6  0.000  0.000  0.000  0.000
    7  0.000  0.000  0.000  0.000
    8  0.000  0.000  0.000  0.000
    9  0.000  0.000  0.000  0.000
   10  0.000  0.000  0.000  0.000
tot    0.000  0.000  0.977  0.978

band    12 # energy  -16.20928647 # occ.  2.00000000

ion      s      p      d    tot
    1  0.000  0.000  0.000  0.000
    2  0.000  0.000  0.000  0.000
    3  0.000  0.000  0.489  0.489
    4  0.000  0.000  0.489  0.489
    5  0.000  0.000  0.000  0.000
    6  0.000  0.000  0.000  0.000
    7  0.000  0.000  0.000  0.000
    8  0.000  0.000  0.000  0.000
    9  0.000  0.000  0.000  0.000
   10  0.000  0.000  0.000  0.000
tot    0.000  0.000  0.978  0.978

band    13 # energy  -14.30913515 # occ.  2.00000000

ion      s      p      d    tot
    1  0.001  0.000  0.000  0.001
    2  0.001  0.000  0.000  0.001
    3  0.016  0.000  0.000  0.016
    4  0.016  0.000  0.000  0.016
    5  0.127  0.000  0.000  0.127
    6  0.127  0.000  0.000  0.127
    7  0.115  0.000  0.000  0.115
    8  0.115  0.000  0.000  0.115
    9  0.127  0.000  0.000  0.127
   10  0.127  0.000  0.000  0.127
tot    0.770  0.000  0.001  0.770

band    14 # energy  -13.96093173 # occ.  2.00000000

ion      s      p      d    tot
    1  0.000  0.000  0.000  0.000
    2  0.000  0.001  0.000  0.001
    3  0.000  0.002  0.000  0.002
    4  0.000  0.002  0.000  0.002
    5  0.397  0.000  0.000  0.397
    6  0.397  0.000  0.000  0.397
    7  0.000  0.000  0.000  0.000
    8  0.000  0.000  0.000  0.000
    9  0.000  0.000  0.000  0.000
   10  0.000  0.000  0.000  0.000
tot    0.794  0.005  0.000  0.799

band    15 # energy  -13.96093166 # occ.  2.00000000

ion      s      p      d    tot
    1  0.000  0.001  0.000  0.001
    2  0.000  0.000  0.000  0.000
    3  0.000  0.002  0.000  0.002
    4  0.000  0.002  0.000  0.002
    5  0.000  0.000  0.000  0.000
    6  0.000  0.000  0.000  0.000
    7  0.000  0.000  0.000  0.000
    8  0.000  0.000  0.000  0.000
    9  0.397  0.000  0.000  0.397
   10  0.397  0.000  0.000  0.397
tot    0.794  0.005  0.000  0.799

band    16 # energy  -13.88909874 # occ.  2.00000000

ion      s      p      d    tot
    1  0.000  0.000  0.000  0.000
    2  0.000  0.000  0.000  0.000
    3  0.006  0.000  0.019  0.026
    4  0.006  0.000  0.019  0.026
    5  0.000  0.000  0.000  0.000
    6  0.000  0.000  0.000  0.000
    7  0.378  0.000  0.000  0.378
    8  0.378  0.000  0.000  0.378
    9  0.000  0.000  0.000  0.000
   10  0.000  0.000  0.000  0.000
tot    0.769  0.001  0.038  0.808

band    17 # energy  -13.68203358 # occ.  2.00000000

ion      s      p      d    tot
    1  0.000  0.000  0.000  0.000
    2  0.000  0.000  0.000  0.000
    3  0.000  0.000  0.031  0.031
    4  0.000  0.000  0.031  0.031
    5  0.192  0.000  0.000  0.192
    6  0.192  0.000  0.000  0.192
    7  0.000  0.000  0.000  0.000
    8  0.000  0.000  0.000  0.000
    9  0.192  0.000  0.000  0.192
   10  0.192  0.000  0.000  0.192
tot    0.769  0.000  0.061  0.831

band    18 # energy  -13.68159608 # occ.  2.00000000

ion      s      p      d    tot
    1  0.000  0.000  0.000  0.000
    2  0.000  0.000  0.000  0.000
    3  0.000  0.000  0.028  0.028
    4  0.000  0.000  0.028  0.028
    5  0.060  0.000  0.000  0.060
    6  0.060  0.000  0.000  0.060
    7  0.268  0.000  0.000  0.268
    8  0.268  0.000  0.000  0.268
    9  0.060  0.000  0.000  0.060
   10  0.060  0.000  0.000  0.060
tot    0.773  0.000  0.056  0.829

band    19 # energy   -7.61806995 # occ.  2.00000000

ion      s      p      d    tot
    1  0.000  0.000  0.000  0.000
    2  0.000  0.000  0.000  0.000
    3  0.297  0.000  0.001  0.298
    4  0.297  0.000  0.001  0.298
    5  0.000  0.020  0.000  0.020
    6  0.000  0.020  0.000  0.020
    7  0.014  0.000  0.001  0.015
    8  0.014  0.000  0.001  0.015
    9  0.000  0.020  0.000  0.020
   10  0.000  0.020  0.000  0.020
tot    0.623  0.080  0.004  0.707

band    20 # energy   -7.26478796 # occ.  2.00000000

ion      s      p      d    tot
    1  0.000  0.377  0.000  0.377
    2  0.000  0.391  0.000  0.391
    3  0.000  0.000  0.000  0.000
    4  0.000  0.000  0.000  0.000
    5  0.000  0.000  0.000  0.000
    6  0.000  0.000  0.000  0.000
    7  0.000  0.001  0.000  0.001
    8  0.000  0.001  0.000  0.001
    9  0.000  0.000  0.000  0.000
   10  0.000  0.000  0.000  0.000
tot    0.001  0.771  0.000  0.771

band    21 # energy   -7.26478792 # occ.  2.00000000

ion      s      p      d    tot
    1  0.000  0.391  0.000  0.391
    2  0.000  0.377  0.000  0.377
    3  0.000  0.000  0.000  0.000
    4  0.000  0.000  0.000  0.000
    5  0.000  0.000  0.000  0.000
    6  0.000  0.000  0.000  0.000
    7  0.000  0.001  0.000  0.001
    8  0.000  0.001  0.000  0.001
    9  0.000  0.000  0.000  0.000
   10  0.000  0.000  0.000  0.000
tot    0.001  0.771  0.000  0.771

band    22 # energy   -7.22981418 # occ.  2.00000000

ion      s      p      d    tot
    1  0.000  0.379  0.000  0.379
    2  0.000  0.379  0.000  0.379
    3  0.000  0.000  0.000  0.000
    4  0.000  0.000  0.000  0.000
    5  0.000  0.002  0.000  0.002
    6  0.000  0.002  0.000  0.002
    7  0.000  0.000  0.000  0.000
    8  0.000  0.000  0.000  0.000
    9  0.000  0.002  0.000  0.002
   10  0.000  0.002  0.000  0.002
tot    0.000  0.766  0.000  0.766

band    23 # energy   -7.20269335 # occ.  2.00000000

ion      s      p      d    tot
    1  0.000  0.384  0.000  0.384
    2  0.000  0.384  0.000  0.384
    3  0.000  0.000  0.000  0.000
    4  0.000  0.000  0.000  0.000
    5  0.000  0.001  0.000  0.001
    6  0.000  0.001  0.000  0.001
    7  0.000  0.000  0.000  0.000
    8  0.000  0.000  0.000  0.000
    9  0.000  0.001  0.000  0.001
   10  0.000  0.001  0.000  0.001
tot    0.000  0.772  0.000  0.773

band    24 # energy   -7.19269305 # occ.  2.00000000

ion      s      p      d    tot
    1  0.000  0.420  0.000  0.420
    2  0.000  0.352  0.000  0.352
    3  0.000  0.000  0.000  0.000
    4  0.000  0.000  0.000  0.000
    5  0.001  0.000  0.000  0.001
    6  0.001  0.000  0.000  0.001
    7  0.000  0.001  0.000  0.001
    8  0.000  0.001  0.000  0.001
    9  0.001  0.000  0.000  0.001
   10  0.001  0.000  0.000  0.001
tot    0.002  0.774  0.000  0.777

band    25 # energy   -7.19269301 # occ.  2.00000000

ion      s      p      d    tot
    1  0.000  0.352  0.000  0.352
    2  0.000  0.420  0.000  0.420
    3  0.000  0.000  0.000  0.000
    4  0.000  0.000  0.000  0.000
    5  0.001  0.000  0.000  0.001
    6  0.001  0.000  0.000  0.001
    7  0.000  0.001  0.000  0.001
    8  0.000  0.001  0.000  0.001
    9  0.001  0.000  0.000  0.001
   10  0.001  0.000  0.000  0.001
tot    0.002  0.774  0.000  0.777

band    26 # energy   -6.44088547 # occ.  2.00000000

ion      s      p      d    tot
    1  0.000  0.000  0.000  0.000
    2  0.000  0.000  0.000  0.000
    3  0.354  0.000  0.000  0.354
    4  0.354  0.000  0.000  0.354
    5  0.012  0.002  0.001  0.015
    6  0.012  0.002  0.001  0.015
    7  0.011  0.000  0.001  0.012
    8  0.011  0.000  0.001  0.012
    9  0.012  0.002  0.001  0.015
   10  0.012  0.002  0.001  0.015
tot    0.780  0.009  0.005  0.794

band    27 # energy   -3.25387427 # occ.  2.00000000

ion      s      p      d    tot
    1  0.000  0.001  0.000  0.001
    2  0.000  0.008  0.000  0.008
    3  0.000  0.047  0.000  0.047
    4  0.000  0.047  0.000  0.047
    5  0.000  0.180  0.000  0.180
    6  0.000  0.180  0.000  0.180
    7  0.000  0.015  0.000  0.015
    8  0.000  0.015  0.000  0.015
    9  0.000  0.018  0.000  0.018
   10  0.000  0.018  0.000  0.018
tot    0.000  0.528  0.000  0.529

band    28 # energy   -3.25387411 # occ.  2.00000000

ion      s      p      d    tot
    1  0.000  0.008  0.000  0.008
    2  0.000  0.001  0.000  0.001
    3  0.000  0.047  0.000  0.047
    4  0.000  0.047  0.000  0.047
    5  0.000  0.018  0.000  0.018
    6  0.000  0.018  0.000  0.018
    7  0.000  0.015  0.000  0.015
    8  0.000  0.015  0.000  0.015
    9  0.000  0.180  0.000  0.180
   10  0.000  0.180  0.000  0.180
tot    0.000  0.528  0.000  0.529

band    29 # energy   -3.24562362 # occ.  2.00000000

ion      s      p      d    tot
    1  0.000  0.006  0.000  0.006
    2  0.000  0.006  0.000  0.006
    3  0.000  0.046  0.000  0.046
    4  0.000  0.046  0.000  0.046
    5  0.000  0.016  0.000  0.016
    6  0.000  0.016  0.000  0.016
    7  0.000  0.180  0.000  0.180
    8  0.000  0.180  0.000  0.180
    9  0.000  0.016  0.000  0.016
   10  0.000  0.016  0.000  0.016
tot    0.000  0.528  0.000  0.528

band    30 # energy   -3.01950057 # occ.  2.00000000

ion      s      p      d    tot
    1  0.000  0.000  0.000  0.000
    2  0.000  0.000  0.000  0.000
    3  0.000  0.049  0.000  0.049
    4  0.000  0.049  0.000  0.049
    5  0.000  0.000  0.000  0.000
    6  0.000  0.000  0.000  0.000
    7  0.000  0.222  0.000  0.222
    8  0.000  0.222  0.000  0.222
    9  0.000  0.000  0.000  0.000
   10  0.000  0.000  0.000  0.000
tot    0.000  0.543  0.001  0.543

band    31 # energy   -2.14968646 # occ.  2.00000000

ion      s      p      d    tot
    1  0.001  0.000  0.001  0.002
    2  0.001  0.000  0.001  0.002
    3  0.000  0.000  0.003  0.003
    4  0.000  0.000  0.003  0.003
    5  0.000  0.124  0.000  0.124
    6  0.000  0.124  0.000  0.124
    7  0.000  0.000  0.000  0.000
    8  0.000  0.000  0.000  0.000
    9  0.000  0.124  0.000  0.124
   10  0.000  0.124  0.000  0.124
tot    0.003  0.495  0.008  0.506

band    32 # energy   -1.57504306 # occ.  2.00000000

ion      s      p      d    tot
    1  0.000  0.005  0.000  0.005
    2  0.000  0.005  0.000  0.005
    3  0.000  0.010  0.000  0.010
    4  0.000  0.010  0.000  0.010
    5  0.002  0.033  0.000  0.035
    6  0.002  0.033  0.000  0.035
    7  0.000  0.215  0.000  0.215
    8  0.000  0.215  0.000  0.215
    9  0.001  0.017  0.000  0.017
   10  0.001  0.017  0.000  0.017
tot    0.005  0.560  0.000  0.565

band    33 # energy   -1.57504296 # occ.  2.00000000

ion      s      p      d    tot
    1  0.000  0.005  0.000  0.005
    2  0.000  0.005  0.000  0.005
    3  0.000  0.010  0.000  0.010
    4  0.000  0.010  0.000  0.010
    5  0.001  0.017  0.000  0.017
    6  0.001  0.017  0.000  0.017
    7  0.000  0.215  0.000  0.215
    8  0.000  0.215  0.000  0.215
    9  0.002  0.033  0.000  0.035
   10  0.002  0.033  0.000  0.035
tot    0.005  0.560  0.000  0.565

band    34 # energy   -1.52758518 # occ.  2.00000000

ion      s      p      d    tot
    1  0.000  0.000  0.005  0.005
    2  0.000  0.000  0.000  0.000
    3  0.000  0.000  0.002  0.002
    4  0.000  0.000  0.002  0.002
    5  0.000  0.000  0.000  0.000
    6  0.000  0.000  0.000  0.000
    7  0.000  0.000  0.000  0.000
    8  0.000  0.000  0.000  0.000
    9  0.000  0.278  0.000  0.278
   10  0.000  0.278  0.000  0.278
tot    0.000  0.556  0.009  0.565

band    35 # energy   -1.52758511 # occ.  2.00000000

ion      s      p      d    tot
    1  0.000  0.000  0.000  0.000
    2  0.000  0.000  0.005  0.005
    3  0.000  0.000  0.002  0.002
    4  0.000  0.000  0.002  0.002
    5  0.000  0.278  0.000  0.278
    6  0.000  0.278  0.000  0.278
    7  0.000  0.000  0.000  0.000
    8  0.000  0.000  0.000  0.000
    9  0.000  0.000  0.000  0.000
   10  0.000  0.000  0.000  0.000
tot    0.000  0.556  0.009  0.565

band    36 # energy   -1.39206430 # occ.  2.00000000

ion      s      p      d    tot
    1  0.000  0.000  0.000  0.000
    2  0.000  0.000  0.000  0.000
    3  0.000  0.000  0.013  0.013
    4  0.000  0.000  0.013  0.013
    5  0.000  0.154  0.000  0.154
    6  0.000  0.154  0.000  0.154
    7  0.000  0.000  0.000  0.000
    8  0.000  0.000  0.000  0.000
    9  0.000  0.154  0.000  0.154
   10  0.000  0.154  0.000  0.154
tot    0.000  0.615  0.027  0.642

band    37 # energy   -1.20426115 # occ.  2.00000000

ion      s      p      d    tot
    1  0.000  0.002  0.000  0.002
    2  0.000  0.004  0.000  0.004
    3  0.000  0.001  0.000  0.001
    4  0.000  0.001  0.000  0.001
    5  0.000  0.015  0.000  0.015
    6  0.000  0.015  0.000  0.015
    7  0.000  0.268  0.000  0.268
    8  0.000  0.268  0.000  0.268
    9  0.000  0.014  0.000  0.014
   10  0.000  0.014  0.000  0.014
tot    0.000  0.602  0.000  0.602

band    38 # energy   -1.20426104 # occ.  2.00000000

ion      s      p      d    tot
    1  0.000  0.004  0.000  0.004
    2  0.000  0.002  0.000  0.002
    3  0.000  0.001  0.000  0.001
    4  0.000  0.001  0.000  0.001
    5  0.000  0.014  0.000  0.014
    6  0.000  0.014  0.000  0.014
    7  0.000  0.268  0.000  0.268
    8  0.000  0.268  0.000  0.268
    9  0.000  0.015  0.000  0.015
   10  0.000  0.015  0.000  0.015
tot    0.000  0.602  0.000  0.602

band    39 # energy   -1.20136120 # occ.  2.00000000

ion      s      p      d    tot
    1  0.000  0.009  0.000  0.009
    2  0.000  0.009  0.000  0.009
    3  0.000  0.000  0.000  0.000
    4  0.000  0.000  0.000  0.000
    5  0.000  0.147  0.000  0.147
    6  0.000  0.147  0.000  0.147
    7  0.000  0.000  0.000  0.000
    8  0.000  0.000  0.000  0.000
    9  0.000  0.147  0.000  0.147
   10  0.000  0.147  0.000  0.147
tot    0.000  0.608  0.000  0.608

band    40 # energy   -1.10222567 # occ.  2.00000000

ion      s      p      d    tot
    1  0.000  0.011  0.000  0.011
    2  0.000  0.011  0.000  0.011
    3  0.000  0.002  0.000  0.002
    4  0.000  0.002  0.000  0.002
    5  0.000  0.123  0.000  0.123
    6  0.000  0.123  0.000  0.123
    7  0.000  0.055  0.000  0.055
    8  0.000  0.055  0.000  0.055
    9  0.000  0.123  0.000  0.123
   10  0.000  0.123  0.000  0.123
tot    0.000  0.629  0.000  0.629

band    41 # energy   -0.99667807 # occ.  2.00000000

ion      s      p      d    tot
    1  0.000  0.001  0.000  0.001
    2  0.000  0.008  0.000  0.008
    3  0.000  0.003  0.000  0.003
    4  0.000  0.003  0.000  0.003
    5  0.000  0.186  0.000  0.186
    6  0.000  0.186  0.000  0.186
    7  0.000  0.062  0.000  0.062
    8  0.000  0.062  0.000  0.062
    9  0.000  0.059  0.000  0.060
   10  0.000  0.059  0.000  0.060
tot    0.000  0.629  0.000  0.630

band    42 # energy   -0.99667800 # occ.  2.00000000

ion      s      p      d    tot
    1  0.000  0.008  0.000  0.008
    2  0.000  0.001  0.000  0.001
    3  0.000  0.003  0.000  0.003
    4  0.000  0.003  0.000  0.003
    5  0.000  0.059  0.000  0.060
    6  0.000  0.059  0.000  0.060
    7  0.000  0.062  0.000  0.062
    8  0.000  0.062  0.000  0.062
    9  0.000  0.186  0.000  0.186
   10  0.000  0.186  0.000  0.186
tot    0.000  0.629  0.000  0.630

band    43 # energy   -0.96201132 # occ.  2.00000000

ion      s      p      d    tot
    1  0.001  0.000  0.001  0.002
    2  0.001  0.000  0.001  0.002
    3  0.009  0.000  0.000  0.009
    4  0.009  0.000  0.000  0.009
    5  0.000  0.148  0.000  0.149
    6  0.000  0.148  0.000  0.149
    7  0.000  0.000  0.000  0.000
    8  0.000  0.000  0.000  0.000
    9  0.000  0.148  0.000  0.149
   10  0.000  0.148  0.000  0.149
tot    0.021  0.594  0.004  0.618

band    44 # energy    0.02328374 # occ.  2.00000000

ion      s      p      d    tot
    1  0.000  0.000  0.000  0.000
    2  0.000  0.000  0.000  0.000
    3  0.095  0.000  0.005  0.099
    4  0.095  0.000  0.005  0.099
    5  0.000  0.135  0.000  0.135
    6  0.000  0.135  0.000  0.135
    7  0.001  0.000  0.001  0.001
    8  0.001  0.000  0.001  0.001
    9  0.000  0.135  0.000  0.135
   10  0.000  0.135  0.000  0.135
tot    0.190  0.539  0.012  0.742

band    45 # energy    3.39238811 # occ.  0.00000000

ion      s      p      d    tot
    1  0.000  0.000  0.000  0.000
    2  0.000  0.000  0.000  0.000
    3  0.000  0.195  0.000  0.195
    4  0.000  0.195  0.000  0.195
    5  0.000  0.002  0.004  0.006
    6  0.000  0.002  0.004  0.006
    7  0.000  0.017  0.000  0.017
    8  0.000  0.017  0.000  0.017
    9  0.018  0.010  0.010  0.038
   10  0.018  0.010  0.010  0.038
tot    0.037  0.448  0.028  0.513

band    46 # energy    3.39238821 # occ.  0.00000000

ion      s      p      d    tot
    1  0.000  0.000  0.000  0.000
    2  0.000  0.000  0.000  0.000
    3  0.000  0.195  0.000  0.195
    4  0.000  0.195  0.000  0.195
    5  0.018  0.010  0.010  0.038
    6  0.018  0.010  0.010  0.038
    7  0.000  0.017  0.000  0.017
    8  0.000  0.017  0.000  0.017
    9  0.000  0.002  0.004  0.006
   10  0.000  0.002  0.004  0.006
tot    0.037  0.448  0.028  0.513

band    47 # energy    4.74470075 # occ.  0.00000000

ion      s      p      d    tot
    1  0.022  0.000  0.003  0.026
    2  0.022  0.000  0.003  0.026
    3  0.004  0.000  0.000  0.004
    4  0.004  0.000  0.000  0.004
    5  0.007  0.000  0.001  0.008
    6  0.007  0.000  0.001  0.008
    7  0.013  0.000  0.002  0.016
    8  0.013  0.000  0.002  0.016
    9  0.007  0.000  0.001  0.008
   10  0.007  0.000  0.001  0.008
tot    0.107  0.000  0.017  0.124

band    48 # energy    5.57942434 # occ.  0.00000000

ion      s      p      d    tot
    1  0.000  0.000  0.060  0.060
    2  0.000  0.000  0.060  0.060
    3  0.000  0.000  0.000  0.000
    4  0.000  0.000  0.000  0.000
    5  0.003  0.002  0.002  0.007
    6  0.003  0.002  0.002  0.007
    7  0.000  0.000  0.008  0.008
    8  0.000  0.000  0.008  0.008
    9  0.003  0.002  0.002  0.007
   10  0.003  0.002  0.002  0.007
tot    0.011  0.008  0.145  0.163

band    49 # energy    5.81142520 # occ.  0.00000000

ion      s      p      d    tot
    1  0.000  0.000  0.000  0.000
    2  0.000  0.000  0.000  0.000
    3  0.000  0.151  0.000  0.151
    4  0.000  0.151  0.000  0.151
    5  0.000  0.000  0.006  0.006
    6  0.000  0.000  0.006  0.006
    7  0.000  0.123  0.000  0.123
    8  0.000  0.123  0.000  0.123
    9  0.000  0.000  0.006  0.006
   10  0.000  0.000  0.006  0.006
tot    0.000  0.548  0.024  0.573

band    50 # energy    6.25216038 # occ.  0.00000000

ion      s      p      d    tot
    1  0.000  0.000  0.109  0.109
    2  0.000  0.000  0.010  0.010
    3  0.000  0.000  0.009  0.009
    4  0.000  0.000  0.009  0.009
    5  0.000  0.002  0.005  0.007
    6  0.000  0.002  0.005  0.007
    7  0.000  0.000  0.008  0.008
    8  0.000  0.000  0.008  0.008
    9  0.000  0.000  0.010  0.010
   10  0.000  0.000  0.010  0.010
tot    0.000  0.005  0.184  0.189

band    51 # energy    6.25216046 # occ.  0.00000000

ion      s      p      d    tot
    1  0.000  0.000  0.010  0.010
    2  0.000  0.000  0.109  0.109
    3  0.000  0.000  0.009  0.009
    4  0.000  0.000  0.009  0.009
    5  0.000  0.000  0.010  0.010
    6  0.000  0.000  0.010  0.010
    7  0.000  0.000  0.008  0.008
    8  0.000  0.000  0.008  0.008
    9  0.000  0.002  0.005  0.007
   10  0.000  0.002  0.005  0.007
tot    0.000  0.005  0.184  0.189

band    52 # energy    6.45131685 # occ.  0.00000000

ion      s      p      d    tot
    1  0.000  0.000  0.062  0.062
    2  0.000  0.000  0.062  0.062
    3  0.001  0.000  0.000  0.002
    4  0.001  0.000  0.000  0.002
    5  0.006  0.007  0.007  0.020
    6  0.006  0.007  0.007  0.020
    7  0.002  0.000  0.000  0.003
    8  0.002  0.000  0.000  0.003
    9  0.006  0.007  0.007  0.020
   10  0.006  0.007  0.007  0.020
tot    0.030  0.028  0.154  0.212

band    53 # energy    6.61209296 # occ.  0.00000000

ion      s      p      d    tot
    1  0.000  0.000  0.000  0.000
    2  0.000  0.000  0.000  0.000
    3  0.000  0.207  0.000  0.207
    4  0.000  0.207  0.000  0.207
    5  0.001  0.014  0.000  0.015
    6  0.001  0.014  0.000  0.015
    7  0.000  0.008  0.000  0.008
    8  0.000  0.008  0.000  0.008
    9  0.000  0.097  0.004  0.101
   10  0.000  0.097  0.004  0.101
tot    0.001  0.653  0.009  0.663

band    54 # energy    6.61213150 # occ.  0.00000000

ion      s      p      d    tot
    1  0.000  0.000  0.000  0.000
    2  0.000  0.000  0.000  0.000
    3  0.000  0.207  0.000  0.207
    4  0.000  0.207  0.000  0.207
    5  0.000  0.097  0.004  0.101
    6  0.000  0.097  0.004  0.101
    7  0.000  0.008  0.000  0.008
    8  0.000  0.008  0.000  0.008
    9  0.001  0.014  0.000  0.015
   10  0.001  0.014  0.000  0.015
tot    0.001  0.653  0.009  0.663

band    55 # energy    6.63923071 # occ.  0.00000000

ion      s      p      d    tot
    1  0.000  0.000  0.000  0.000
    2  0.000  0.000  0.000  0.000
    3  0.000  0.200  0.000  0.200
    4  0.000  0.200  0.000  0.200
    5  0.000  0.010  0.001  0.010
    6  0.000  0.010  0.001  0.010
    7  0.000  0.115  0.000  0.115
    8  0.000  0.115  0.000  0.115
    9  0.000  0.010  0.001  0.010
   10  0.000  0.009  0.001  0.010
tot    0.000  0.667  0.002  0.669

band    56 # energy    6.93406154 # occ.  0.00000000

ion      s      p      d    tot
    1  0.000  0.000  0.015  0.015
    2  0.000  0.000  0.171  0.171
    3  0.001  0.000  0.002  0.002
    4  0.001  0.000  0.002  0.002
    5  0.000  0.007  0.001  0.008
    6  0.000  0.007  0.002  0.009
    7  0.014  0.000  0.006  0.020
    8  0.014  0.000  0.006  0.020
    9  0.000  0.002  0.001  0.002
   10  0.000  0.002  0.001  0.002
tot    0.029  0.017  0.207  0.253


 k-point     2 :    0.25000000 0.00000000 0.00000000     weight = 0.05555556

band     1 # energy  -20.83395681 # occ.  2.00000000

ion      s      p      d    tot
    1  0.444  0.000  0.000  0.444
    2  0.444  0.000  0.000  0.444
    3  0.000  0.000  0.000  0.000
    4  0.000  0.000  0.000  0.000
    5  0.000  0.000  0.000  0.000
    6  0.000  0.000  0.000  0.000
    7  0.000  0.000  0.000  0.000
    8  0.000  0.000  0.000  0.000
    9  0.000  0.000  0.000  0.000
   10  0.000  0.000  0.000  0.000
tot    0.887  0.000  0.000  0.887

band     2 # energy  -20.83139697 # occ.  2.00000000

ion      s      p      d    tot
    1  0.444  0.000  0.000  0.444
    2  0.444  0.000  0.000  0.444
    3  0.000  0.000  0.000  0.000
    4  0.000  0.000  0.000  0.000
    5  0.000  0.000  0.000  0.000
    6  0.000  0.000  0.000  0.000
    7  0.000  0.000  0.000  0.000
    8  0.000  0.000  0.000  0.000
    9  0.000  0.000  0.000  0.000
   10  0.000  0.000  0.000  0.000
tot    0.888  0.000  0.000  0.888

band     3 # energy  -16.38542403 # occ.  2.00000000

ion      s      p      d    tot
    1  0.000  0.000  0.000  0.000
    2  0.000  0.000  0.000  0.000
    3  0.000  0.000  0.459  0.459
    4  0.000  0.000  0.459  0.459
    5  0.010  0.000  0.000  0.010
    6  0.010  0.000  0.000  0.010
    7  0.000  0.000  0.000  0.000
    8  0.000  0.000  0.000  0.000
    9  0.010  0.000  0.000  0.010
   10  0.010  0.000  0.000  0.010
tot    0.041  0.000  0.919  0.960

band     4 # energy  -16.36056609 # occ.  2.00000000

ion      s      p      d    tot
    1  0.000  0.000  0.000  0.000
    2  0.000  0.000  0.000  0.000
    3  0.000  0.000  0.468  0.468
    4  0.000  0.000  0.468  0.468
    5  0.004  0.000  0.000  0.004
    6  0.004  0.000  0.000  0.004
    7  0.006  0.000  0.000  0.006
    8  0.006  0.000  0.000  0.006
    9  0.004  0.000  0.000  0.004
   10  0.004  0.000  0.000  0.004
tot    0.027  0.001  0.936  0.965

band     5 # energy  -16.32664877 # occ.  2.00000000

ion      s      p      d    tot
    1  0.000  0.000  0.000  0.000
    2  0.000  0.000  0.000  0.000
    3  0.000  0.000  0.477  0.477
    4  0.000  0.000  0.477  0.477
    5  0.000  0.000  0.000  0.000
    6  0.000  0.000  0.000  0.000
    7  0.007  0.000  0.000  0.007
    8  0.007  0.000  0.000  0.007
    9  0.000  0.000  0.000  0.000
   10  0.000  0.000  0.000  0.000
tot    0.014  0.002  0.954  0.970

band     6 # energy  -16.28580405 # occ.  2.00000000

ion      s      p      d    tot
    1  0.000  0.000  0.000  0.000
    2  0.000  0.000  0.000  0.000
    3  0.000  0.000  0.486  0.486
    4  0.000  0.000  0.486  0.486
    5  0.000  0.001  0.000  0.001
    6  0.000  0.001  0.000  0.001
    7  0.000  0.000  0.000  0.000
    8  0.000  0.000  0.000  0.000
    9  0.000  0.001  0.000  0.001
   10  0.000  0.001  0.000  0.001
tot    0.000  0.003  0.972  0.974

band     7 # energy  -16.21873396 # occ.  2.00000000

ion      s      p      d    tot
    1  0.000  0.000  0.000  0.000
    2  0.000  0.000  0.000  0.000
    3  0.000  0.000  0.489  0.489
    4  0.000  0.000  0.489  0.489
    5  0.000  0.000  0.000  0.000
    6  0.000  0.000  0.000  0.000
    7  0.000  0.000  0.000  0.000
    8  0.000  0.000  0.000  0.000
    9  0.000  0.000  0.000  0.000
   10  0.000  0.000  0.000  0.000
tot    0.000  0.000  0.977  0.978

band     8 # energy  -16.21873393 # occ.  2.00000000

ion      s      p      d    tot
    1  0.000  0.000  0.000  0.000
    2  0.000  0.000  0.000  0.000
    3  0.000  0.000  0.489  0.489
    4  0.000  0.000  0.489  0.489
    5  0.000  0.000  0.000  0.000
    6  0.000  0.000  0.000  0.000
    7  0.000  0.000  0.000  0.000
    8  0.000  0.000  0.000  0.000
    9  0.000  0.000  0.000  0.000
   10  0.000  0.000  0.000  0.000
tot    0.000  0.000  0.977  0.978

band     9 # energy  -16.21786278 # occ.  2.00000000

ion      s      p      d    tot
    1  0.000  0.000  0.000  0.000
    2  0.000  0.000  0.000  0.000
    3  0.000  0.000  0.489  0.489
    4  0.000  0.000  0.489  0.489