CsPbBr3 cubic bulk                      
           1
    -0.000000   -0.000000   -6.017141
    -5.773970   -5.773970    0.000000
    -5.773970    5.773970   -0.000000
   Cs   Pb   Br
   2   2   6
Direct configuration=     1
   0.50000000  0.50000000  0.00000000
   0.50000000  0.00000000  0.50000000
   0.00000000  0.00000000  0.00000000
   0.00000000  0.50000000  0.50000000
   0.00000000  0.81400792  0.31400792
   0.00000000  0.18599208  0.68599208
   0.50000000  0.00000000  0.00000000
   0.50000000  0.50000000  0.50000000
   0.00000000  0.68599208  0.81400792
   0.00000000  0.31400792  0.18599208
