  39  39   1   0
  0.4103261E+02  0.1166835E-08  0.1176381E-08  0.1166835E-08  0.5000000E-15
   1.0000000000000000E-004
  CAR 
 CsPbBr3 cubic bulk                      
      7.93678201    -22.91643898  301      0.24918778      1.00000000
    -22.916  0.0000E+00  0.0000E+00
    -22.814  0.0000E+00  0.0000E+00
    -22.711  0.0000E+00  0.0000E+00
    -22.608  0.0000E+00  0.0000E+00
    -22.505  0.0000E+00  0.0000E+00
    -22.402  0.0000E+00  0.0000E+00
    -22.299  0.0000E+00  0.0000E+00
    -22.197  0.0000E+00  0.0000E+00
    -22.094  0.0000E+00  0.0000E+00
    -21.991  0.0000E+00  0.0000E+00
    -21.888  0.0000E+00  0.0000E+00
    -21.785  0.0000E+00  0.0000E+00
    -21.682  0.0000E+00  0.0000E+00
    -21.579  0.0000E+00  0.0000E+00
    -21.477  0.1945E+02  0.2000E+01
    -21.374  0.0000E+00  0.2000E+01
    -21.271  0.0000E+00  0.2000E+01
    -21.168  0.0000E+00  0.2000E+01
    -21.065  0.2919E-07  0.2000E+01
    -20.962  0.3889E+02  0.6000E+01
    -20.860  0.5834E+02  0.1200E+02
    -20.757  0.1945E+02  0.1400E+02
    -20.654  0.0000E+00  0.1400E+02
    -20.551  0.0000E+00  0.1400E+02
    -20.448  0.0000E+00  0.1400E+02
    -20.345  0.0000E+00  0.1400E+02
    -20.242  0.0000E+00  0.1400E+02
    -20.140  0.0000E+00  0.1400E+02
    -20.037  0.0000E+00  0.1400E+02
    -19.934  0.0000E+00  0.1400E+02
    -19.831  0.0000E+00  0.1400E+02
    -19.728  0.0000E+00  0.1400E+02
    -19.625  0.0000E+00  0.1400E+02
    -19.523  0.0000E+00  0.1400E+02
    -19.420  0.0000E+00  0.1400E+02
    -19.317  0.0000E+00  0.1400E+02
    -19.214  0.0000E+00  0.1400E+02
    -19.111  0.0000E+00  0.1400E+02
    -19.008  0.0000E+00  0.1400E+02
    -18.906  0.0000E+00  0.1400E+02
    -18.803  0.0000E+00  0.1400E+02
    -18.700  0.0000E+00  0.1400E+02
    -18.597  0.0000E+00  0.1400E+02
    -18.494  0.0000E+00  0.1400E+02
    -18.391  0.0000E+00  0.1400E+02
    -18.288  0.0000E+00  0.1400E+02
    -18.186  0.0000E+00  0.1400E+02
    -18.083  0.0000E+00  0.1400E+02
    -17.980  0.0000E+00  0.1400E+02
    -17.877  0.0000E+00  0.1400E+02
    -17.774  0.0000E+00  0.1400E+02
    -17.671  0.0000E+00  0.1400E+02
    -17.569  0.0000E+00  0.1400E+02
    -17.466  0.0000E+00  0.1400E+02
    -17.363  0.0000E+00  0.1400E+02
    -17.260  0.0000E+00  0.1400E+02
    -17.157  0.0000E+00  0.1400E+02
    -17.054  0.0000E+00  0.1400E+02
    -16.951  0.0000E+00  0.1400E+02
    -16.849  0.0000E+00  0.1400E+02
    -16.746  0.2559E-04  0.1400E+02
    -16.643  0.1451E+03  0.2893E+02
    -16.540  0.3052E+03  0.6714E+02
    -16.437  0.1847E+03  0.9400E+02
    -16.334  0.0000E+00  0.9400E+02
    -16.232  0.0000E+00  0.9400E+02
    -16.129  0.0000E+00  0.9400E+02
    -16.026  0.0000E+00  0.9400E+02
    -15.923  0.0000E+00  0.9400E+02
    -15.820  0.0000E+00  0.9400E+02
    -15.717  0.0000E+00  0.9400E+02
    -15.615  0.0000E+00  0.9400E+02
    -15.512  0.0000E+00  0.9400E+02
    -15.409  0.0000E+00  0.9400E+02
    -15.306  0.0000E+00  0.9400E+02
    -15.203  0.0000E+00  0.9400E+02
    -15.100  0.0000E+00  0.9400E+02
    -14.997  0.0000E+00  0.9400E+02
    -14.895  0.0000E+00  0.9400E+02
    -14.792  0.0000E+00  0.9400E+02
    -14.689  0.0000E+00  0.9400E+02
    -14.586  0.2084E-11  0.9400E+02
    -14.483  0.9188E+01  0.9494E+02
    -14.380  0.3387E+02  0.9973E+02
    -14.278  0.5273E+02  0.1062E+03
    -14.175  0.5857E+02  0.1140E+03
    -14.072  0.7490E+02  0.1245E+03
    -13.969  0.4603E+02  0.1312E+03
    -13.866  0.4536E+02  0.1377E+03
    -13.763  0.1945E+02  0.1420E+03
    -13.660  0.0000E+00  0.1420E+03
    -13.558  0.0000E+00  0.1420E+03
    -13.455  0.0000E+00  0.1420E+03
    -13.352  0.0000E+00  0.1420E+03
    -13.249  0.0000E+00  0.1420E+03
    -13.146  0.0000E+00  0.1420E+03
    -13.043  0.0000E+00  0.1420E+03
    -12.941  0.0000E+00  0.1420E+03
    -12.838  0.0000E+00  0.1420E+03
    -12.735  0.0000E+00  0.1420E+03
    -12.632  0.0000E+00  0.1420E+03
    -12.529  0.0000E+00  0.1420E+03
    -12.426  0.0000E+00  0.1420E+03
    -12.323  0.0000E+00  0.1420E+03
    -12.221  0.0000E+00  0.1420E+03
    -12.118  0.0000E+00  0.1420E+03
    -12.015  0.0000E+00  0.1420E+03
    -11.912  0.0000E+00  0.1420E+03
    -11.809  0.0000E+00  0.1420E+03
    -11.706  0.0000E+00  0.1420E+03
    -11.604  0.0000E+00  0.1420E+03
    -11.501  0.0000E+00  0.1420E+03
    -11.398  0.0000E+00  0.1420E+03
    -11.295  0.0000E+00  0.1420E+03
    -11.192  0.0000E+00  0.1420E+03
    -11.089  0.0000E+00  0.1420E+03
    -10.987  0.0000E+00  0.1420E+03
    -10.884  0.0000E+00  0.1420E+03
    -10.781  0.0000E+00  0.1420E+03
    -10.678  0.0000E+00  0.1420E+03
    -10.575  0.0000E+00  0.1420E+03
    -10.472  0.0000E+00  0.1420E+03
    -10.369  0.0000E+00  0.1420E+03
    -10.267  0.0000E+00  0.1420E+03
    -10.164  0.0000E+00  0.1420E+03
    -10.061  0.0000E+00  0.1420E+03
     -9.958  0.0000E+00  0.1420E+03
     -9.855  0.0000E+00  0.1420E+03
     -9.752  0.0000E+00  0.1420E+03
     -9.650  0.0000E+00  0.1420E+03
     -9.547  0.0000E+00  0.1420E+03
     -9.444  0.0000E+00  0.1420E+03
     -9.341  0.0000E+00  0.1420E+03
     -9.238  0.0000E+00  0.1420E+03
     -9.135  0.0000E+00  0.1420E+03
     -9.032  0.0000E+00  0.1420E+03
     -8.930  0.0000E+00  0.1420E+03
     -8.827  0.0000E+00  0.1420E+03
     -8.724  0.0000E+00  0.1420E+03
     -8.621  0.0000E+00  0.1420E+03
     -8.518  0.0000E+00  0.1420E+03
     -8.415  0.8096E-15  0.1420E+03
     -8.313  0.2431E+01  0.1422E+03
     -8.210  0.2132E-13  0.1422E+03
     -8.107  0.1453E+02  0.1437E+03
     -8.004  0.3253E-06  0.1438E+03
     -7.901  0.2937E+02  0.1468E+03
     -7.798  0.4619E+02  0.1535E+03
     -7.696  0.8628E+01  0.1544E+03
     -7.593  0.3399E+02  0.1585E+03
     -7.490  0.1146E-01  0.1585E+03
     -7.387  0.1290E+03  0.1725E+03
     -7.284  0.1662E+03  0.1903E+03
     -7.181  0.6077E+02  0.1982E+03
     -7.078  0.8763E+01  0.1992E+03
     -6.976  0.2431E+01  0.1998E+03
     -6.873  0.0000E+00  0.1998E+03
     -6.770  0.3348E-01  0.1998E+03
     -6.667  0.0000E+00  0.2000E+03
     -6.564  0.0000E+00  0.2000E+03
     -6.461  0.0000E+00  0.2000E+03
     -6.359  0.0000E+00  0.2000E+03
     -6.256  0.0000E+00  0.2000E+03
     -6.153  0.0000E+00  0.2000E+03
     -6.050  0.0000E+00  0.2000E+03
     -5.947  0.0000E+00  0.2000E+03
     -5.844  0.0000E+00  0.2000E+03
     -5.741  0.0000E+00  0.2000E+03
     -5.639  0.0000E+00  0.2000E+03
     -5.536  0.0000E+00  0.2000E+03
     -5.433  0.0000E+00  0.2000E+03
     -5.330  0.0000E+00  0.2000E+03
     -5.227  0.0000E+00  0.2000E+03
     -5.124  0.0000E+00  0.2000E+03
     -5.022  0.0000E+00  0.2000E+03
     -4.919  0.0000E+00  0.2000E+03
     -4.816  0.0000E+00  0.2000E+03
     -4.713  0.0000E+00  0.2000E+03
     -4.610  0.0000E+00  0.2000E+03
     -4.507  0.0000E+00  0.2000E+03
     -4.405  0.0000E+00  0.2000E+03
     -4.302  0.0000E+00  0.2000E+03
     -4.199  0.0000E+00  0.2000E+03
     -4.096  0.0000E+00  0.2000E+03
     -3.993  0.0000E+00  0.2000E+03
     -3.890  0.0000E+00  0.2000E+03
     -3.787  0.0000E+00  0.2000E+03
     -3.685  0.0000E+00  0.2000E+03
     -3.582  0.0000E+00  0.2000E+03
     -3.479  0.8275E+01  0.2009E+03
     -3.376  0.3439E+02  0.2050E+03
     -3.273  0.3246E+02  0.2088E+03
     -3.170  0.1555E+02  0.2113E+03
     -3.068  0.2421E+01  0.2120E+03
     -2.965  0.1984E+01  0.2122E+03
     -2.862  0.1024E+02  0.2136E+03
     -2.759  0.2535E+02  0.2169E+03
     -2.656  0.3271E+02  0.2211E+03
     -2.553  0.3818E+02  0.2267E+03
     -2.450  0.2552E+02  0.2304E+03
     -2.348  0.2639E+02  0.2347E+03
     -2.245  0.2351E+02  0.2374E+03
     -2.142  0.3892E+02  0.2428E+03
     -2.039  0.2128E+02  0.2457E+03
     -1.936  0.2666E+02  0.2490E+03
     -1.833  0.5225E+02  0.2554E+03
     -1.731  0.5544E+02  0.2627E+03
     -1.628  0.6489E+02  0.2707E+03
     -1.525  0.1022E+03  0.2838E+03
     -1.422  0.8256E+02  0.2947E+03
     -1.319  0.8228E+02  0.3057E+03
     -1.216  0.7959E+02  0.3157E+03
     -1.113  0.7791E+02  0.3260E+03
     -1.011  0.1676E+02  0.3285E+03
     -0.908  0.3017E+02  0.3331E+03
     -0.805  0.1459E+02  0.3350E+03
     -0.702  0.2030E+02  0.3373E+03
     -0.599  0.2850E+02  0.3404E+03
     -0.496  0.4622E+01  0.3412E+03
     -0.394  0.3083E+01  0.3416E+03
     -0.291  0.4862E+01  0.3422E+03
     -0.188  0.9796E+01  0.3433E+03
     -0.085  0.2018E+01  0.3437E+03
      0.018  0.0000E+00  0.3438E+03
      0.121  0.0000E+00  0.3438E+03
      0.223  0.2419E+01  0.3440E+03
      0.326  0.0000E+00  0.3440E+03
      0.429  0.0000E+00  0.3440E+03
      0.532  0.0000E+00  0.3440E+03
      0.635  0.0000E+00  0.3440E+03
      0.738  0.0000E+00  0.3440E+03
      0.841  0.0000E+00  0.3440E+03
      0.943  0.0000E+00  0.3440E+03
      1.046  0.0000E+00  0.3440E+03
      1.149  0.0000E+00  0.3440E+03
      1.252  0.0000E+00  0.3440E+03
      1.355  0.0000E+00  0.3440E+03
      1.458  0.0000E+00  0.3440E+03
      1.560  0.0000E+00  0.3440E+03
      1.663  0.0000E+00  0.3440E+03
      1.766  0.0000E+00  0.3440E+03
      1.869  0.0000E+00  0.3440E+03
      1.972  0.0000E+00  0.3440E+03
      2.075  0.0000E+00  0.3440E+03
      2.178  0.0000E+00  0.3440E+03
      2.280  0.0000E+00  0.3440E+03
      2.383  0.0000E+00  0.3440E+03
      2.486  0.0000E+00  0.3440E+03
      2.589  0.7206E-04  0.3440E+03
      2.692  0.4862E+01  0.3445E+03
      2.795  0.1373E+02  0.3459E+03
      2.897  0.5862E+01  0.3471E+03
      3.000  0.3483E+02  0.3513E+03
      3.103  0.8946E+01  0.3524E+03
      3.206  0.2427E+02  0.3550E+03
      3.309  0.1070E+01  0.3554E+03
      3.412  0.4861E+01  0.3560E+03
      3.514  0.0000E+00  0.3560E+03
      3.617  0.0000E+00  0.3560E+03
      3.720  0.4077E+00  0.3560E+03
      3.823  0.2431E+01  0.3565E+03
      3.926  0.2755E+01  0.3568E+03
      4.029  0.1804E+02  0.3589E+03
      4.132  0.1956E+02  0.3610E+03
      4.234  0.1691E+02  0.3632E+03
      4.337  0.3246E+02  0.3673E+03
      4.440  0.3849E+02  0.3720E+03
      4.543  0.2372E+02  0.3747E+03
      4.646  0.2483E+02  0.3776E+03
      4.749  0.1459E+02  0.3795E+03
      4.851  0.2431E+01  0.3798E+03
      4.954  0.4750E+01  0.3802E+03
      5.057  0.2442E+01  0.3805E+03
      5.160  0.0000E+00  0.3808E+03
      5.263  0.3492E-02  0.3808E+03
      5.366  0.2431E+01  0.3813E+03
      5.469  0.1549E+02  0.3828E+03
      5.571  0.1499E+02  0.3853E+03
      5.674  0.1638E+02  0.3882E+03
      5.777  0.1899E+02  0.3910E+03
      5.880  0.1850E+02  0.3939E+03
      5.983  0.1899E+02  0.3967E+03
      6.086  0.1792E+02  0.3998E+03
      6.188  0.2502E+02  0.4031E+03
      6.291  0.2159E+02  0.4057E+03
      6.394  0.3823E+02  0.4099E+03
      6.497  0.2841E+02  0.4142E+03
      6.600  0.1215E+02  0.4160E+03
      6.703  0.0000E+00  0.4160E+03
      6.805  0.0000E+00  0.4160E+03
      6.908  0.0000E+00  0.4160E+03
      7.011  0.0000E+00  0.4160E+03
      7.114  0.0000E+00  0.4160E+03
      7.217  0.0000E+00  0.4160E+03
      7.320  0.0000E+00  0.4160E+03
      7.423  0.0000E+00  0.4160E+03
      7.525  0.0000E+00  0.4160E+03
      7.628  0.0000E+00  0.4160E+03
      7.731  0.0000E+00  0.4160E+03
      7.834  0.0000E+00  0.4160E+03
      7.937  0.0000E+00  0.4160E+03
      7.93678201    -22.91643898  301      0.24918778      1.00000000
    -22.916  0.0000E+00  0.0000E+00  0.0000E+00
    -22.814  0.0000E+00  0.0000E+00  0.0000E+00
    -22.711  0.0000E+00  0.0000E+00  0.0000E+00
    -22.608  0.0000E+00  0.0000E+00  0.0000E+00
    -22.505  0.0000E+00  0.0000E+00  0.0000E+00
    -22.402  0.0000E+00  0.0000E+00  0.0000E+00
    -22.299  0.0000E+00  0.0000E+00  0.0000E+00
    -22.197  0.0000E+00  0.0000E+00  0.0000E+00
    -22.094  0.0000E+00  0.0000E+00  0.0000E+00
    -21.991  0.0000E+00  0.0000E+00  0.0000E+00
    -21.888  0.0000E+00  0.0000E+00  0.0000E+00
    -21.785  0.0000E+00  0.0000E+00  0.0000E+00
    -21.682  0.0000E+00  0.0000E+00  0.0000E+00
    -21.579  0.0000E+00  0.0000E+00  0.0000E+00
    -21.477  0.4995E-07  0.2603E-08  0.1016E-09
    -21.374  0.0000E+00  0.0000E+00  0.0000E+00
    -21.271  0.0000E+00  0.0000E+00  0.0000E+00
    -21.168  0.0000E+00  0.0000E+00  0.0000E+00
    -21.065  0.1175E-11  0.1015E-15  0.1002E-16
    -20.962  0.1731E-02  0.1866E-06  0.2149E-07
    -20.860  0.1725E+02  0.1269E-04  0.3820E-05
    -20.757  0.2644E-02  0.3402E-06  0.3335E-07
    -20.654  0.0000E+00  0.0000E+00  0.0000E+00
    -20.551  0.0000E+00  0.0000E+00  0.0000E+00
    -20.448  0.0000E+00  0.0000E+00  0.0000E+00
    -20.345  0.0000E+00  0.0000E+00  0.0000E+00
    -20.242  0.0000E+00  0.0000E+00  0.0000E+00
    -20.140  0.0000E+00  0.0000E+00  0.0000E+00
    -20.037  0.0000E+00  0.0000E+00  0.0000E+00
    -19.934  0.0000E+00  0.0000E+00  0.0000E+00
    -19.831  0.0000E+00  0.0000E+00  0.0000E+00
    -19.728  0.0000E+00  0.0000E+00  0.0000E+00
    -19.625  0.0000E+00  0.0000E+00  0.0000E+00
    -19.523  0.0000E+00  0.0000E+00  0.0000E+00
    -19.420  0.0000E+00  0.0000E+00  0.0000E+00
    -19.317  0.0000E+00  0.0000E+00  0.0000E+00
    -19.214  0.0000E+00  0.0000E+00  0.0000E+00
    -19.111  0.0000E+00  0.0000E+00  0.0000E+00
    -19.008  0.0000E+00  0.0000E+00  0.0000E+00
    -18.906  0.0000E+00  0.0000E+00  0.0000E+00
    -18.803  0.0000E+00  0.0000E+00  0.0000E+00
    -18.700  0.0000E+00  0.0000E+00  0.0000E+00
    -18.597  0.0000E+00  0.0000E+00  0.0000E+00
    -18.494  0.0000E+00  0.0000E+00  0.0000E+00
    -18.391  0.0000E+00  0.0000E+00  0.0000E+00
    -18.288  0.0000E+00  0.0000E+00  0.0000E+00
    -18.186  0.0000E+00  0.0000E+00  0.0000E+00
    -18.083  0.0000E+00  0.0000E+00  0.0000E+00
    -17.980  0.0000E+00  0.0000E+00  0.0000E+00
    -17.877  0.0000E+00  0.0000E+00  0.0000E+00
    -17.774  0.0000E+00  0.0000E+00  0.0000E+00
    -17.671  0.0000E+00  0.0000E+00  0.0000E+00
    -17.569  0.0000E+00  0.0000E+00  0.0000E+00
    -17.466  0.0000E+00  0.0000E+00  0.0000E+00
    -17.363  0.0000E+00  0.0000E+00  0.0000E+00
    -17.260  0.0000E+00  0.0000E+00  0.0000E+00
    -17.157  0.0000E+00  0.0000E+00  0.0000E+00
    -17.054  0.0000E+00  0.0000E+00  0.0000E+00
    -16.951  0.0000E+00  0.0000E+00  0.0000E+00
    -16.849  0.0000E+00  0.0000E+00  0.0000E+00
    -16.746  0.8695E-11  0.4171E-11  0.1245E-11
    -16.643  0.5635E-04  0.6401E-04  0.1623E-04
    -16.540  0.1028E-03  0.7254E-04  0.9187E-05
    -16.437  0.1285E-04  0.5522E-05  0.4966E-06
    -16.334  0.0000E+00  0.0000E+00  0.0000E+00
    -16.232  0.0000E+00  0.0000E+00  0.0000E+00
    -16.129  0.0000E+00  0.0000E+00  0.0000E+00
    -16.026  0.0000E+00  0.0000E+00  0.0000E+00
    -15.923  0.0000E+00  0.0000E+00  0.0000E+00
    -15.820  0.0000E+00  0.0000E+00  0.0000E+00
    -15.717  0.0000E+00  0.0000E+00  0.0000E+00
    -15.615  0.0000E+00  0.0000E+00  0.0000E+00
    -15.512  0.0000E+00  0.0000E+00  0.0000E+00
    -15.409  0.0000E+00  0.0000E+00  0.0000E+00
    -15.306  0.0000E+00  0.0000E+00  0.0000E+00
    -15.203  0.0000E+00  0.0000E+00  0.0000E+00
    -15.100  0.0000E+00  0.0000E+00  0.0000E+00
    -14.997  0.0000E+00  0.0000E+00  0.0000E+00
    -14.895  0.0000E+00  0.0000E+00  0.0000E+00
    -14.792  0.0000E+00  0.0000E+00  0.0000E+00
    -14.689  0.0000E+00  0.0000E+00  0.0000E+00
    -14.586  0.6539E-15  0.7789E-17  0.1690E-17
    -14.483  0.2608E-02  0.2965E-03  0.8129E-05
    -14.380  0.2284E-02  0.3417E-02  0.7019E-04
    -14.278  0.1624E-02  0.6524E-02  0.2544E-03
    -14.175  0.1621E-02  0.4379E-02  0.4602E-03
    -14.072  0.2868E-02  0.7841E-02  0.8089E-03
    -13.969  0.5238E-03  0.1915E-02  0.3911E-03
    -13.866  0.1928E-03  0.7553E-03  0.1540E-03
    -13.763  0.1083E-03  0.2909E-03  0.5456E-04
    -13.660  0.0000E+00  0.0000E+00  0.0000E+00
    -13.558  0.0000E+00  0.0000E+00  0.0000E+00
    -13.455  0.0000E+00  0.0000E+00  0.0000E+00
    -13.352  0.0000E+00  0.0000E+00  0.0000E+00
    -13.249  0.0000E+00  0.0000E+00  0.0000E+00
    -13.146  0.0000E+00  0.0000E+00  0.0000E+00
    -13.043  0.0000E+00  0.0000E+00  0.0000E+00
    -12.941  0.0000E+00  0.0000E+00  0.0000E+00
    -12.838  0.0000E+00  0.0000E+00  0.0000E+00
    -12.735  0.0000E+00  0.0000E+00  0.0000E+00
    -12.632  0.0000E+00  0.0000E+00  0.0000E+00
    -12.529  0.0000E+00  0.0000E+00  0.0000E+00
    -12.426  0.0000E+00  0.0000E+00  0.0000E+00
    -12.323  0.0000E+00  0.0000E+00  0.0000E+00
    -12.221  0.0000E+00  0.0000E+00  0.0000E+00
    -12.118  0.0000E+00  0.0000E+00  0.0000E+00
    -12.015  0.0000E+00  0.0000E+00  0.0000E+00
    -11.912  0.0000E+00  0.0000E+00  0.0000E+00
    -11.809  0.0000E+00  0.0000E+00  0.0000E+00
    -11.706  0.0000E+00  0.0000E+00  0.0000E+00
    -11.604  0.0000E+00  0.0000E+00  0.0000E+00
    -11.501  0.0000E+00  0.0000E+00  0.0000E+00
    -11.398  0.0000E+00  0.0000E+00  0.0000E+00
    -11.295  0.0000E+00  0.0000E+00  0.0000E+00
    -11.192  0.0000E+00  0.0000E+00  0.0000E+00
    -11.089  0.0000E+00  0.0000E+00  0.0000E+00
    -10.987  0.0000E+00  0.0000E+00  0.0000E+00
    -10.884  0.0000E+00  0.0000E+00  0.0000E+00
    -10.781  0.0000E+00  0.0000E+00  0.0000E+00
    -10.678  0.0000E+00  0.0000E+00  0.0000E+00
    -10.575  0.0000E+00  0.0000E+00  0.0000E+00
    -10.472  0.0000E+00  0.0000E+00  0.0000E+00
    -10.369  0.0000E+00  0.0000E+00  0.0000E+00
    -10.267  0.0000E+00  0.0000E+00  0.0000E+00
    -10.164  0.0000E+00  0.0000E+00  0.0000E+00
    -10.061  0.0000E+00  0.0000E+00  0.0000E+00
     -9.958  0.0000E+00  0.0000E+00  0.0000E+00
     -9.855  0.0000E+00  0.0000E+00  0.0000E+00
     -9.752  0.0000E+00  0.0000E+00  0.0000E+00
     -9.650  0.0000E+00  0.0000E+00  0.0000E+00
     -9.547  0.0000E+00  0.0000E+00  0.0000E+00
     -9.444  0.0000E+00  0.0000E+00  0.0000E+00
     -9.341  0.0000E+00  0.0000E+00  0.0000E+00
     -9.238  0.0000E+00  0.0000E+00  0.0000E+00
     -9.135  0.0000E+00  0.0000E+00  0.0000E+00
     -9.032  0.0000E+00  0.0000E+00  0.0000E+00
     -8.930  0.0000E+00  0.0000E+00  0.0000E+00
     -8.827  0.0000E+00  0.0000E+00  0.0000E+00
     -8.724  0.0000E+00  0.0000E+00  0.0000E+00
     -8.621  0.0000E+00  0.0000E+00  0.0000E+00
     -8.518  0.0000E+00  0.0000E+00  0.0000E+00
     -8.415  0.3882E-28  0.8819E-21  0.3198E-20
     -8.313  0.1166E-12  0.2648E-05  0.9601E-05
     -8.210  0.1246E-26  0.1583E-18  0.1009E-18
     -8.107  0.4312E-06  0.4687E-02  0.4418E-04
     -8.004  0.3877E-21  0.1202E-09  0.1939E-11
     -7.901  0.2845E-05  0.1686E-01  0.6763E-04
     -7.798  0.3339E-05  0.3390E-01  0.2069E-04
     -7.696  0.8031E-05  0.2047E-01  0.2217E-04
     -7.593  0.5502E-04  0.1848E+00  0.8102E-04
     -7.490  0.1234E-07  0.2321E-03  0.1140E-07
     -7.387  0.9242E-04  0.2490E+01  0.8223E-04
     -7.284  0.5938E-04  0.3880E+02  0.5083E-04
     -7.181  0.3298E-04  0.1115E+01  0.4245E-04
     -7.078  0.6076E-04  0.4729E-01  0.1527E-04
     -6.976  0.1522E-04  0.1774E-01  0.8758E-05
     -6.873  0.0000E+00  0.0000E+00  0.0000E+00
     -6.770  0.4795E-06  0.5001E-04  0.1112E-07
     -6.667  0.0000E+00  0.0000E+00  0.0000E+00
     -6.564  0.0000E+00  0.0000E+00  0.0000E+00
     -6.461  0.0000E+00  0.0000E+00  0.0000E+00
     -6.359  0.0000E+00  0.0000E+00  0.0000E+00
     -6.256  0.0000E+00  0.0000E+00  0.0000E+00
     -6.153  0.0000E+00  0.0000E+00  0.0000E+00
     -6.050  0.0000E+00  0.0000E+00  0.0000E+00
     -5.947  0.0000E+00  0.0000E+00  0.0000E+00
     -5.844  0.0000E+00  0.0000E+00  0.0000E+00
     -5.741  0.0000E+00  0.0000E+00  0.0000E+00
     -5.639  0.0000E+00  0.0000E+00  0.0000E+00
     -5.536  0.0000E+00  0.0000E+00  0.0000E+00
     -5.433  0.0000E+00  0.0000E+00  0.0000E+00
     -5.330  0.0000E+00  0.0000E+00  0.0000E+00
     -5.227  0.0000E+00  0.0000E+00  0.0000E+00
     -5.124  0.0000E+00  0.0000E+00  0.0000E+00
     -5.022  0.0000E+00  0.0000E+00  0.0000E+00
     -4.919  0.0000E+00  0.0000E+00  0.0000E+00
     -4.816  0.0000E+00  0.0000E+00  0.0000E+00
     -4.713  0.0000E+00  0.0000E+00  0.0000E+00
     -4.610  0.0000E+00  0.0000E+00  0.0000E+00
     -4.507  0.0000E+00  0.0000E+00  0.0000E+00
     -4.405  0.0000E+00  0.0000E+00  0.0000E+00
     -4.302  0.0000E+00  0.0000E+00  0.0000E+00
     -4.199  0.0000E+00  0.0000E+00  0.0000E+00
     -4.096  0.0000E+00  0.0000E+00  0.0000E+00
     -3.993  0.0000E+00  0.0000E+00  0.0000E+00
     -3.890  0.0000E+00  0.0000E+00  0.0000E+00
     -3.787  0.0000E+00  0.0000E+00  0.0000E+00
     -3.685  0.0000E+00  0.0000E+00  0.0000E+00
     -3.582  0.0000E+00  0.0000E+00  0.0000E+00
     -3.479  0.4394E-11  0.5665E-02  0.1108E-03
     -3.376  0.9554E-04  0.2144E-01  0.1644E-02
     -3.273  0.1781E-03  0.1584E-01  0.2068E-02
     -3.170  0.2063E-03  0.7626E-02  0.1528E-02
     -3.068  0.4140E-12  0.1375E-03  0.1615E-03
     -2.965  0.2925E-04  0.1799E-03  0.4178E-04
     -2.862  0.2675E-03  0.9542E-02  0.6970E-03
     -2.759  0.8244E-03  0.2681E-01  0.1426E-02
     -2.656  0.1576E-02  0.4107E-01  0.2284E-02
     -2.553  0.1061E-02  0.1671E-01  0.3733E-02
     -2.450  0.1686E-02  0.1770E-01  0.1814E-02
     -2.348  0.2155E-02  0.8861E-02  0.2881E-02
     -2.245  0.1708E-01  0.1845E-01  0.2181E-02
     -2.142  0.2361E-01  0.3162E-01  0.4112E-02
     -2.039  0.9081E-03  0.6939E-01  0.2088E-02
     -1.936  0.1261E-02  0.9607E-01  0.4965E-02
     -1.833  0.3867E-02  0.7547E-01  0.8525E-02
     -1.731  0.2737E-02  0.1373E+00  0.1461E-01
     -1.628  0.2184E-02  0.5719E-01  0.1887E-01
     -1.525  0.3071E-02  0.9460E-01  0.2320E-01
     -1.422  0.5635E-02  0.7057E-01  0.1735E-01
     -1.319  0.2622E-02  0.9606E-01  0.1465E-01
     -1.216  0.9823E-03  0.4408E-01  0.1272E-01
     -1.113  0.6416E-03  0.3341E-01  0.6542E-02
     -1.011  0.3519E-03  0.5070E-02  0.1714E-02
     -0.908  0.6762E-03  0.2074E-01  0.3046E-02
     -0.805  0.3115E-03  0.7632E-02  0.1074E-02
     -0.702  0.2847E-03  0.3333E-02  0.1216E-02
     -0.599  0.1844E-03  0.4452E-02  0.1759E-02
     -0.496  0.1411E-03  0.1039E-02  0.2168E-03
     -0.394  0.3934E-12  0.6469E-04  0.4463E-04
     -0.291  0.1176E-04  0.1001E-02  0.5699E-03
     -0.188  0.4494E-07  0.3371E-03  0.6266E-03
     -0.085  0.4500E-13  0.2145E-03  0.2365E-03
      0.018  0.0000E+00  0.0000E+00  0.0000E+00
      0.121  0.0000E+00  0.0000E+00  0.0000E+00
      0.223  0.1415E-14  0.2543E-04  0.2530E-03
      0.326  0.0000E+00  0.0000E+00  0.0000E+00
      0.429  0.0000E+00  0.0000E+00  0.0000E+00
      0.532  0.0000E+00  0.0000E+00  0.0000E+00
      0.635  0.0000E+00  0.0000E+00  0.0000E+00
      0.738  0.0000E+00  0.0000E+00  0.0000E+00
      0.841  0.0000E+00  0.0000E+00  0.0000E+00
      0.943  0.0000E+00  0.0000E+00  0.0000E+00
      1.046  0.0000E+00  0.0000E+00  0.0000E+00
      1.149  0.0000E+00  0.0000E+00  0.0000E+00
      1.252  0.0000E+00  0.0000E+00  0.0000E+00
      1.355  0.0000E+00  0.0000E+00  0.0000E+00
      1.458  0.0000E+00  0.0000E+00  0.0000E+00
      1.560  0.0000E+00  0.0000E+00  0.0000E+00
      1.663  0.0000E+00  0.0000E+00  0.0000E+00
      1.766  0.0000E+00  0.0000E+00  0.0000E+00
      1.869  0.0000E+00  0.0000E+00  0.0000E+00
      1.972  0.0000E+00  0.0000E+00  0.0000E+00
      2.075  0.0000E+00  0.0000E+00  0.0000E+00
      2.178  0.0000E+00  0.0000E+00  0.0000E+00
      2.280  0.0000E+00  0.0000E+00  0.0000E+00
      2.383  0.0000E+00  0.0000E+00  0.0000E+00
      2.486  0.0000E+00  0.0000E+00  0.0000E+00
      2.589  0.1252E-11  0.5776E-09  0.2665E-07
      2.692  0.1421E-04  0.1755E-03  0.1478E-02
      2.795  0.2629E-03  0.4245E-03  0.4097E-02
      2.897  0.3574E-03  0.8046E-03  0.1015E-02
      3.000  0.1330E-02  0.5849E-02  0.7463E-02
      3.103  0.4184E-03  0.1076E-02  0.1613E-02
      3.206  0.1164E-02  0.4311E-02  0.3960E-02
      3.309  0.2631E-06  0.2155E-03  0.6192E-04
      3.412  0.4253E-03  0.4835E-03  0.1147E-02
      3.514  0.0000E+00  0.0000E+00  0.0000E+00
      3.617  0.0000E+00  0.0000E+00  0.0000E+00
      3.720  0.2023E-04  0.1208E-03  0.1645E-03
      3.823  0.1370E-03  0.4884E-03  0.1322E-02
      3.926  0.9984E-04  0.4321E-03  0.1157E-02
      4.029  0.2807E-03  0.2733E-02  0.6542E-02
      4.132  0.1673E-03  0.1478E-02  0.5916E-02
      4.234  0.2762E-03  0.2989E-02  0.4373E-02
      4.337  0.1356E-02  0.2917E-02  0.9904E-02
      4.440  0.2766E-02  0.7032E-02  0.1317E-01
      4.543  0.1612E-02  0.5475E-02  0.1061E-01
      4.646  0.1055E-02  0.9982E-02  0.1786E-01
      4.749  0.3482E-02  0.1346E-02  0.5777E-02
      4.851  0.1282E-01  0.2248E-05  0.5123E-03
      4.954  0.7171E-03  0.1207E-02  0.3561E-02
      5.057  0.9256E-11  0.2442E-04  0.4688E-02
      5.160  0.0000E+00  0.0000E+00  0.0000E+00
      5.263  0.7066E-08  0.2623E-07  0.1755E-05
      5.366  0.1364E-01  0.2801E-03  0.9580E-03
      5.469  0.4253E-01  0.6405E-02  0.1348E-01
      5.571  0.1847E-02  0.5360E-02  0.8170E-02
      5.674  0.1540E-02  0.3449E-02  0.1362E-01
      5.777  0.2159E-02  0.7820E-02  0.3235E-01
      5.880  0.3644E-01  0.6996E-02  0.7678E-01
      5.983  0.5154E-01  0.2466E-01  0.8338E-01
      6.086  0.5586E-02  0.6660E-02  0.1876E+00
      6.188  0.6089E-01  0.1521E-01  0.3260E+00
      6.291  0.8818E-02  0.1765E-01  0.4020E+00
      6.394  0.1944E-01  0.3180E-01  0.5330E+00
      6.497  0.1652E-01  0.2949E-01  0.4306E+00
      6.600  0.1286E-01  0.5445E-02  0.1696E+00
      6.703  0.0000E+00  0.0000E+00  0.0000E+00
      6.805  0.0000E+00  0.0000E+00  0.0000E+00
      6.908  0.0000E+00  0.0000E+00  0.0000E+00
      7.011  0.0000E+00  0.0000E+00  0.0000E+00
      7.114  0.0000E+00  0.0000E+00  0.0000E+00
      7.217  0.0000E+00  0.0000E+00  0.0000E+00
      7.320  0.0000E+00  0.0000E+00  0.0000E+00
      7.423  0.0000E+00  0.0000E+00  0.0000E+00
      7.525  0.0000E+00  0.0000E+00  0.0000E+00
      7.628  0.0000E+00  0.0000E+00  0.0000E+00
      7.731  0.0000E+00  0.0000E+00  0.0000E+00
      7.834  0.0000E+00  0.0000E+00  0.0000E+00
      7.937  0.0000E+00  0.0000E+00  0.0000E+00
      7.93678201    -22.91643898  301      0.24918778      1.00000000
    -22.916  0.0000E+00  0.0000E+00  0.0000E+00
    -22.814  0.0000E+00  0.0000E+00  0.0000E+00
    -22.711  0.0000E+00  0.0000E+00  0.0000E+00
    -22.608  0.0000E+00  0.0000E+00  0.0000E+00
    -22.505  0.0000E+00  0.0000E+00  0.0000E+00
    -22.402  0.0000E+00  0.0000E+00  0.0000E+00
    -22.299  0.0000E+00  0.0000E+00  0.0000E+00
    -22.197  0.0000E+00  0.0000E+00  0.0000E+00
    -22.094  0.0000E+00  0.0000E+00  0.0000E+00
    -21.991  0.0000E+00  0.0000E+00  0.0000E+00
    -21.888  0.0000E+00  0.0000E+00  0.0000E+00
    -21.785  0.0000E+00  0.0000E+00  0.0000E+00
    -21.682  0.0000E+00  0.0000E+00  0.0000E+00
    -21.579  0.0000E+00  0.0000E+00  0.0000E+00
    -21.477  0.6715E-07  0.2721E-08  0.4845E-09
    -21.374  0.0000E+00  0.0000E+00  0.0000E+00
    -21.271  0.0000E+00  0.0000E+00  0.0000E+00
    -21.168  0.0000E+00  0.0000E+00  0.0000E+00
    -21.065  0.1345E-12  0.2030E-16  0.3576E-17
    -20.962  0.5425E-03  0.6655E-07  0.1408E-07
    -20.860  0.1726E+02  0.1910E-04  0.7031E-05
    -20.757  0.1780E-02  0.1514E-06  0.2704E-07
    -20.654  0.0000E+00  0.0000E+00  0.0000E+00
    -20.551  0.0000E+00  0.0000E+00  0.0000E+00
    -20.448  0.0000E+00  0.0000E+00  0.0000E+00
    -20.345  0.0000E+00  0.0000E+00  0.0000E+00
    -20.242  0.0000E+00  0.0000E+00  0.0000E+00
    -20.140  0.0000E+00  0.0000E+00  0.0000E+00
    -20.037  0.0000E+00  0.0000E+00  0.0000E+00
    -19.934  0.0000E+00  0.0000E+00  0.0000E+00
    -19.831  0.0000E+00  0.0000E+00  0.0000E+00
    -19.728  0.0000E+00  0.0000E+00  0.0000E+00
    -19.625  0.0000E+00  0.0000E+00  0.0000E+00
    -19.523  0.0000E+00  0.0000E+00  0.0000E+00
    -19.420  0.0000E+00  0.0000E+00  0.0000E+00
    -19.317  0.0000E+00  0.0000E+00  0.0000E+00
    -19.214  0.0000E+00  0.0000E+00  0.0000E+00
    -19.111  0.0000E+00  0.0000E+00  0.0000E+00
    -19.008  0.0000E+00  0.0000E+00  0.0000E+00
    -18.906  0.0000E+00  0.0000E+00  0.0000E+00
    -18.803  0.0000E+00  0.0000E+00  0.0000E+00
    -18.700  0.0000E+00  0.0000E+00  0.0000E+00
    -18.597  0.0000E+00  0.0000E+00  0.0000E+00
    -18.494  0.0000E+00  0.0000E+00  0.0000E+00
    -18.391  0.0000E+00  0.0000E+00  0.0000E+00
    -18.288  0.0000E+00  0.0000E+00  0.0000E+00
    -18.186  0.0000E+00  0.0000E+00  0.0000E+00
    -18.083  0.0000E+00  0.0000E+00  0.0000E+00
    -17.980  0.0000E+00  0.0000E+00  0.0000E+00
    -17.877  0.0000E+00  0.0000E+00  0.0000E+00
    -17.774  0.0000E+00  0.0000E+00  0.0000E+00
    -17.671  0.0000E+00  0.0000E+00  0.0000E+00
    -17.569  0.0000E+00  0.0000E+00  0.0000E+00
    -17.466  0.0000E+00  0.0000E+00  0.0000E+00
    -17.363  0.0000E+00  0.0000E+00  0.0000E+00
    -17.260  0.0000E+00  0.0000E+00  0.0000E+00
    -17.157  0.0000E+00  0.0000E+00  0.0000E+00
    -17.054  0.0000E+00  0.0000E+00  0.0000E+00
    -16.951  0.0000E+00  0.0000E+00  0.0000E+00
    -16.849  0.0000E+00  0.0000E+00  0.0000E+00
    -16.746  0.6682E-10  0.2602E-10  0.3780E-11
    -16.643  0.1156E-03  0.7104E-04  0.1432E-04
    -16.540  0.2966E-04  0.4083E-04  0.5965E-05
    -16.437  0.4662E-04  0.2697E-04  0.3458E-05
    -16.334  0.0000E+00  0.0000E+00  0.0000E+00
    -16.232  0.0000E+00  0.0000E+00  0.0000E+00
    -16.129  0.0000E+00  0.0000E+00  0.0000E+00
    -16.026  0.0000E+00  0.0000E+00  0.0000E+00
    -15.923  0.0000E+00  0.0000E+00  0.0000E+00
    -15.820  0.0000E+00  0.0000E+00  0.0000E+00
    -15.717  0.0000E+00  0.0000E+00  0.0000E+00
    -15.615  0.0000E+00  0.0000E+00  0.0000E+00
    -15.512  0.0000E+00  0.0000E+00  0.0000E+00
    -15.409  0.0000E+00  0.0000E+00  0.0000E+00
    -15.306  0.0000E+00  0.0000E+00  0.0000E+00
    -15.203  0.0000E+00  0.0000E+00  0.0000E+00
    -15.100  0.0000E+00  0.0000E+00  0.0000E+00
    -14.997  0.0000E+00  0.0000E+00  0.0000E+00
    -14.895  0.0000E+00  0.0000E+00  0.0000E+00
    -14.792  0.0000E+00  0.0000E+00  0.0000E+00
    -14.689  0.0000E+00  0.0000E+00  0.0000E+00
    -14.586  0.3453E-15  0.1532E-16  0.8612E-18
    -14.483  0.9653E-03  0.3250E-03  0.8488E-05
    -14.380  0.2252E-02  0.1548E-02  0.4829E-04
    -14.278  0.2192E-02  0.4043E-02  0.2233E-03
    -14.175  0.9830E-03  0.4338E-02  0.2510E-03
    -14.072  0.2095E-02  0.5697E-02  0.2969E-03
    -13.969  0.5087E-03  0.2050E-02  0.3058E-03
    -13.866  0.2355E-02  0.4877E-02  0.4895E-03
    -13.763  0.5504E-03  0.1217E-02  0.1093E-03