 vasp.5.4.4.18Apr17-6-g9f103f2a35 (build Jun 22 2020 09:27:21) complex           
 executed on tx2_gcc-7.3_libsci-1 date 2021.10.12  05:44:55
 running on   64 total cores
 distrk:  each k-point on   64 cores,    1 groups
 distr:  one band on NCORES_PER_BAND=   8 cores,    8 groups


--------------------------------------------------------------------------------------------------------


 INCAR:
 POTCAR:    PAW_PBE Cs_sv 08Apr2002               
 POTCAR:    PAW_PBE Pb_d 06Sep2000                
 POTCAR:    PAW_PBE Br 06Sep2000                  
 POTCAR:    PAW_PBE Cs_sv 08Apr2002               
 POTCAR:    PAW_PBE Cs_sv 08Apr2002               
   SHA256 =  c1463496f0f6037ed62c6012a8013a89ee9ad6ffb38599dcd6c079e7ed31779b Cs
   COPYR  = (c) Copyright 08Apr2002 Georg Kresse                                
   COPYR  = This file is part of the software VASP. Any use, copying, and all ot
   COPYR  = If you do not have a valid VASP license, you may not use, copy or di
   VRHFIN =Cs: 5s5p6s                                                           
   LEXCH  = PE                                                                  
   EATOM  =   555.6835 eV,   40.8416 Ry                                         
                                                                                
   TITEL  = PAW_PBE Cs_sv 08Apr2002                                             
   LULTRA =        F    use ultrasoft PP ?                                      
   IUNSCR =        1    unscreen: 0-lin 1-nonlin 2-no                           
   RPACOR =    2.200    partial core radius                                     
   POMASS =  132.900; ZVAL   =    9.000    mass and valenz                      
   RCORE  =    2.500    outmost cutoff radius                                   
   RWIGS  =    2.500; RWIGS  =    1.323    wigner-seitz radius (au A)           
   ENMAX  =  220.318; ENMIN  =  165.238 eV                                      
   RCLOC  =    2.207    cutoff for local pot                                    
   LCOR   =        T    correct aug charges                                     
   LPAW   =        T    paw PP                                                  
   EAUG   =  407.933                                                            
   DEXC   =    0.000                                                            
   RMAX   =    2.554    core radius for proj-oper                               
   RAUG   =    1.300    factor for augmentation sphere                          
   RDEP   =    2.590    radius for radial grids                                 
   RDEPT  =    2.117    core radius for aug-charge                              
                                                                                
   Atomic configuration                                                         
   13 entries                                                                   
     n  l   j            E        occ.                                          
     1  0  0.50    -35790.1377   2.0000                                         
     2  0  0.50     -5613.6201   2.0000                                         
     2  1  1.50     -5035.0101   6.0000                                         
     3  0  0.50     -1167.0767   2.0000                                         
     3  1  1.50      -980.9754   6.0000                                         
     3  2  2.50      -708.0703  10.0000                                         
     4  0  0.50      -220.2386   2.0000                                         
     4  1  1.50      -160.7596   6.0000                                         
     4  2  2.50       -74.2354  10.0000                                         
     5  0  0.50       -26.7287   2.0000                                         
     6  0  0.50        -2.0862   1.0000                                         
     5  1  1.50       -13.5159   6.0000                                         
     5  2  2.50        -0.4136   0.0000                                         
   Description                                                                  
     l       E           TYP  RCUT    TYP  RCUT                                 
     0    -26.7287425     23  1.900                                             
     0     -2.0862306     23  1.900                                             
     1    -13.5158719     23  2.500                                             
     1     -2.7211652     23  2.500                                             
     2     -0.4136171     23  2.500                                             
  local pseudopotential read in
  partial core-charges read in
  partial kinetic energy density read in
  atomic valenz-charges read in
  non local Contribution for L=           0  read in
    real space projection operators read in
  non local Contribution for L=           0  read in
    real space projection operators read in
  non local Contribution for L=           1  read in
    real space projection operators read in
  non local Contribution for L=           1  read in
    real space projection operators read in
  non local Contribution for L=           2  read in
    real space projection operators read in
    PAW grid and wavefunctions read in

   number of l-projection  operators is LMAX  =           5
   number of lm-projection operators is LMMAX =          13

 POTCAR:    PAW_PBE Pb_d 06Sep2000                
   SHA256 =  fb885b08f0fba73a15f6a6b0e39bd200c13ec96ef97cf3ecd8e63bade5137abd Pb
   COPYR  = (c) Copyright 06Sep2000 Georg Kresse                                
   COPYR  = This file is part of the software VASP. Any use, copying, and all ot
   COPYR  = If you do not have a valid VASP license, you may not use, copy or di
   VRHFIN =Pb:                                                                  
   LEXCH  = PE                                                                  
   EATOM  =  1661.6185 eV,  122.1255 Ry                                         
                                                                                
   TITEL  = PAW_PBE Pb_d 06Sep2000                                              
   LULTRA =        F    use ultrasoft PP ?                                      
   IUNSCR =        1    unscreen: 0-lin 1-nonlin 2-no                           
   RPACOR =    2.200    partial core radius                                     
   POMASS =  207.200; ZVAL   =   14.000    mass and valenz                      
   RCORE  =    2.500    outmost cutoff radius                                   
   RWIGS  =    3.260; RWIGS  =    1.725    wigner-seitz radius (au A)           
   ENMAX  =  237.835; ENMIN  =  178.376 eV                                      
   ICORE  =        3    local potential                                         
   LCOR   =        T    correct aug charges                                     
   LPAW   =        T    paw PP                                                  
   EAUG   =  391.914                                                            
   DEXC   =    0.000                                                            
   RMAX   =    2.565    core radius for proj-oper                               
   RAUG   =    1.300    factor for augmentation sphere                          
   RDEP   =    2.643    radius for radial grids                                 
   RDEPT  =    2.092    core radius for aug-charge                              
                                                                                
   Atomic configuration                                                         
   16 entries                                                                   
     n  l   j            E        occ.                                          
     1  0  0.50    -88091.8466   2.0000                                         
     2  0  0.50    -15753.4197   2.0000                                         
     2  1  1.50    -13508.1797   6.0000                                         
     3  0  0.50     -3781.7194   2.0000                                         
     3  1  1.50     -3138.2529   6.0000                                         
     3  2  2.50     -2483.2977  10.0000                                         
     4  0  0.50      -856.2895   2.0000                                         
     4  1  1.50      -645.4942   6.0000                                         
     4  2  2.50      -401.8768  10.0000                                         
     4  3  3.50      -132.9059  14.0000                                         
     5  0  0.50      -144.0950   2.0000                                         
     5  1  1.50       -85.7879   6.0000                                         
     5  2  2.50       -21.1769  10.0000                                         
     6  0  0.50       -12.0372   2.0000                                         
     6  1  1.50        -3.4971   2.0000                                         
     5  3  2.50        -2.7212   0.0000                                         
   Description                                                                  
     l       E           TYP  RCUT    TYP  RCUT                                 
     2    -21.1768523     23  2.500                                             
     2      1.3605826     23  2.500                                             
     0    -12.0371562     23  2.500                                             
     0     13.6058260     23  2.500                                             
     1     -3.4971339     23  2.500                                             
     1     13.6058260     23  2.500                                             
     3     -1.3605826      7  2.500                                             
  local pseudopotential read in
  partial core-charges read in
  partial kinetic energy density read in
  atomic valenz-charges read in
  non local Contribution for L=           2  read in
    real space projection operators read in
  non local Contribution for L=           2  read in
    real space projection operators read in
  non local Contribution for L=           0  read in
    real space projection operators read in
  non local Contribution for L=           0  read in
    real space projection operators read in
  non local Contribution for L=           1  read in
    real space projection operators read in
  non local Contribution for L=           1  read in
    real space projection operators read in
    PAW grid and wavefunctions read in

   number of l-projection  operators is LMAX  =           6
   number of lm-projection operators is LMMAX =          18

 POTCAR:    PAW_PBE Br 06Sep2000                  
   SHA256 =  96a73d2954943bbee26f4990d676cc6c3bf44b8dd2c75cd4b3b825d8403f0103 Br
   COPYR  = (c) Copyright 06Sep2000 Georg Kresse                                
   COPYR  = This file is part of the software VASP. Any use, copying, and all ot
   COPYR  = If you do not have a valid VASP license, you may not use, copy or di
   VRHFIN =Br: s2p5                                                             
   LEXCH  = PE                                                                  
   EATOM  =   368.4488 eV,   27.0802 Ry                                         
                                                                                
   TITEL  = PAW_PBE Br 06Sep2000                                                
   LULTRA =        F    use ultrasoft PP ?                                      
   IUNSCR =        1    unscreen: 0-lin 1-nonlin 2-no                           
   RPACOR =    1.900    partial core radius                                     
   POMASS =   79.904; ZVAL   =    7.000    mass and valenz                      
   RCORE  =    2.100    outmost cutoff radius                                   
   RWIGS  =    2.200; RWIGS  =    1.164    wigner-seitz radius (au A)           
   ENMAX  =  216.285; ENMIN  =  162.214 eV                                      
   ICORE  =        3    local potential                                         
   LCOR   =        T    correct aug charges                                     
   LPAW   =        T    paw PP                                                  
   EAUG   =  503.852                                                            
   DEXC   =    0.000                                                            
   RMAX   =    2.139    core radius for proj-oper                               
   RAUG   =    1.300    factor for augmentation sphere                          
   RDEP   =    2.186    radius for radial grids                                 
   RDEPT  =    1.890    core radius for aug-charge                              
                                                                                
   Atomic configuration                                                         
   10 entries                                                                   
     n  l   j            E        occ.                                          
     1  0  0.50    -13316.2796   2.0000                                         
     2  0  0.50     -1732.8239   2.0000                                         
     2  1  1.50     -1528.2193   6.0000                                         
     3  0  0.50      -238.0460   2.0000                                         
     3  1  1.50      -173.4609   6.0000                                         
     3  2  2.50       -66.7132  10.0000                                         
     4  0  0.50       -20.1334   2.0000                                         
     4  1  0.50        -7.8591   5.0000                                         
     4  2  2.50        -8.1635   0.0000                                         
     4  3  2.50        -8.1635   0.0000                                         
   Description                                                                  
     l       E           TYP  RCUT    TYP  RCUT                                 
     0    -20.1333652     23  2.100                                             
     0    -21.4939478     23  2.100                                             
     1     -7.8591052     23  2.100                                             
     1     -3.1608434     23  2.100                                             
     2     -8.1634956     23  2.100                                             
     3     -1.3605826      7  2.100                                             
  local pseudopotential read in
  partial core-charges read in
  partial kinetic energy density read in
  atomic valenz-charges read in
  non local Contribution for L=           0  read in
    real space projection operators read in
  non local Contribution for L=           0  read in
    real space projection operators read in
  non local Contribution for L=           1  read in
    real space projection operators read in
  non local Contribution for L=           1  read in
    real space projection operators read in
  non local Contribution for L=           2  read in
    real space projection operators read in
    PAW grid and wavefunctions read in

   number of l-projection  operators is LMAX  =           5
   number of lm-projection operators is LMMAX =          13

 POTCAR:    PAW_PBE Cs_sv 08Apr2002               
   SHA256 =  c1463496f0f6037ed62c6012a8013a89ee9ad6ffb38599dcd6c079e7ed31779b Cs
   COPYR  = (c) Copyright 08Apr2002 Georg Kresse                                
   COPYR  = This file is part of the software VASP. Any use, copying, and all ot
   COPYR  = If you do not have a valid VASP license, you may not use, copy or di
   VRHFIN =Cs: 5s5p6s                                                           
   LEXCH  = PE                                                                  
   EATOM  =   555.6835 eV,   40.8416 Ry                                         
                                                                                
   TITEL  = PAW_PBE Cs_sv 08Apr2002                                             
   LULTRA =        F    use ultrasoft PP ?                                      
   IUNSCR =        1    unscreen: 0-lin 1-nonlin 2-no                           
   RPACOR =    2.200    partial core radius                                     
   POMASS =  132.900; ZVAL   =    9.000    mass and valenz                      
   RCORE  =    2.500    outmost cutoff radius                                   
   RWIGS  =    2.500; RWIGS  =    1.323    wigner-seitz radius (au A)           
   ENMAX  =  220.318; ENMIN  =  165.238 eV                                      
   RCLOC  =    2.207    cutoff for local pot                                    
   LCOR   =        T    correct aug charges                                     
   LPAW   =        T    paw PP                                                  
   EAUG   =  407.933                                                            
   DEXC   =    0.000                                                            
   RMAX   =    2.554    core radius for proj-oper                               
   RAUG   =    1.300    factor for augmentation sphere                          
   RDEP   =    2.590    radius for radial grids                                 
   RDEPT  =    2.117    core radius for aug-charge                              
                                                                                
   Atomic configuration                                                         
   13 entries                                                                   
     n  l   j            E        occ.                                          
     1  0  0.50    -35790.1377   2.0000                                         
     2  0  0.50     -5613.6201   2.0000                                         
     2  1  1.50     -5035.0101   6.0000                                         
     3  0  0.50     -1167.0767   2.0000                                         
     3  1  1.50      -980.9754   6.0000                                         
     3  2  2.50      -708.0703  10.0000                                         
     4  0  0.50      -220.2386   2.0000                                         
     4  1  1.50      -160.7596   6.0000                                         
     4  2  2.50       -74.2354  10.0000                                         
     5  0  0.50       -26.7287   2.0000                                         
     6  0  0.50        -2.0862   1.0000                                         
     5  1  1.50       -13.5159   6.0000                                         
     5  2  2.50        -0.4136   0.0000                                         
   Description                                                                  
     l       E           TYP  RCUT    TYP  RCUT                                 
     0    -26.7287425     23  1.900                                             
     0     -2.0862306     23  1.900                                             
     1    -13.5158719     23  2.500                                             
     1     -2.7211652     23  2.500                                             
     2     -0.4136171     23  2.500                                             
  local pseudopotential read in
  partial core-charges read in
  partial kinetic energy density read in
  atomic valenz-charges read in
  non local Contribution for L=           0  read in
    real space projection operators read in
  non local Contribution for L=           0  read in
    real space projection operators read in
  non local Contribution for L=           1  read in
    real space projection operators read in
  non local Contribution for L=           1  read in
    real space projection operators read in
  non local Contribution for L=           2  read in
    real space projection operators read in
    PAW grid and wavefunctions read in

   number of l-projection  operators is LMAX  =           5
   number of lm-projection operators is LMMAX =          13

 Optimization of the real space projectors (new method)

 maximal supplied QI-value         = 15.12
 optimisation between [QCUT,QGAM] = [  8.77, 17.69] = [ 21.53, 87.61] Ry 
 Optimized for a Real-space Cutoff    1.85 Angstroem

   l    n(q)    QCUT    max X(q) W(low)/X(q) W(high)/X(q)  e(spline) 
   0     10     8.768    25.322    0.81E-04    0.51E-04    0.48E-06
   0     10     8.768    99.187    0.78E-04    0.50E-04    0.47E-06
   1      9     8.768    11.761    0.21E-03    0.20E-03    0.37E-06
   1      9     8.768     8.275    0.24E-03    0.22E-03    0.41E-06
   2      9     8.768     3.829    0.23E-04    0.15E-03    0.18E-06
 Optimization of the real space projectors (new method)

 maximal supplied QI-value         = 15.12
 optimisation between [QCUT,QGAM] = [  8.77, 17.69] = [ 21.53, 87.61] Ry 
 Optimized for a Real-space Cutoff    1.59 Angstroem

   l    n(q)    QCUT    max X(q) W(low)/X(q) W(high)/X(q)  e(spline) 
   2      7     8.768     3.846    0.48E-04    0.11E-03    0.11E-06
   2      7     8.768     8.593    0.20E-03    0.22E-04    0.24E-06
   0      8     8.768    20.082    0.68E-04    0.88E-04    0.41E-07
   0      8     8.768     8.597    0.89E-04    0.13E-03    0.59E-07
   1      8     8.768    33.223    0.15E-03    0.53E-04    0.87E-07
   1      8     8.768    15.899    0.14E-03    0.44E-04    0.78E-07
 Optimization of the real space projectors (new method)

 maximal supplied QI-value         = 17.95
 optimisation between [QCUT,QGAM] = [  8.80, 17.59] = [ 21.67, 86.68] Ry 
 Optimized for a Real-space Cutoff    1.59 Angstroem

   l    n(q)    QCUT    max X(q) W(low)/X(q) W(high)/X(q)  e(spline) 
   0      8     8.797   175.082    0.82E-04    0.14E-03    0.89E-07
   0      8     8.797   174.004    0.79E-04    0.14E-03    0.86E-07
   1      8     8.797    54.315    0.16E-03    0.14E-04    0.30E-06
   1      8     8.797    42.441    0.16E-03    0.14E-04    0.30E-06
   2      7     8.797     3.596    0.92E-04    0.15E-03    0.85E-07
 Optimization of the real space projectors (new method)

 maximal supplied QI-value         = 15.12
 optimisation between [QCUT,QGAM] = [  8.77, 17.69] = [ 21.53, 87.61] Ry 
 Optimized for a Real-space Cutoff    1.85 Angstroem

   l    n(q)    QCUT    max X(q) W(low)/X(q) W(high)/X(q)  e(spline) 
   0     10     8.768    25.322    0.81E-04    0.51E-04    0.48E-06
   0     10     8.768    99.187    0.78E-04    0.50E-04    0.47E-06
   1      9     8.768    11.761    0.21E-03    0.20E-03    0.37E-06
   1      9     8.768     8.275    0.24E-03    0.22E-03    0.41E-06
   2      9     8.768     3.829    0.23E-04    0.15E-03    0.18E-06
  PAW_PBE Cs_sv 08Apr2002               :
 energy of atom  1       EATOM= -555.6835
 kinetic energy error for atom=    0.0069 (will be added to EATOM!!)
  PAW_PBE Pb_d 06Sep2000                :
 energy of atom  2       EATOM=-1661.6185
 kinetic energy error for atom=    0.0498 (will be added to EATOM!!)
  PAW_PBE Br 06Sep2000                  :
 energy of atom  3       EATOM= -368.4488
 kinetic energy error for atom=    0.0072 (will be added to EATOM!!)
  PAW_PBE Cs_sv 08Apr2002               :
 energy of atom  4       EATOM= -555.6835
 kinetic energy error for atom=    0.0069 (will be added to EATOM!!)


 POSCAR: Cs7 Pb8 Br24                            
  positions in direct lattice
  No initial velocities read in

 METAGGA = SCAN     LMAXTAU =  6    LMIXTAU =  F

 exchange correlation table for  LEXCH =        8
   RHO(1)=    0.500       N(1)  =     2000
   RHO(2)=  100.500       N(2)  =     4000

 VTST: version 3.2, (02/03/18)

 CHAIN: initializing optimizer
 
 OPT: Using VASP Conjugate-Gradient optimizer
 CHAIN: Read ICHAIN            0

 POSCAR: Cs7 Pb8 Br24                            
  positions in direct lattice
  No initial velocities read in



--------------------------------------------------------------------------------------------------------


 ion  position               nearest neighbor table
   1  0.270  0.250  0.196-
   2  0.773  0.250  0.719-
   3  0.210  0.750  0.762-
   4  0.295  0.250  0.743-
   5  0.791  0.250  0.223-
   6  0.248  0.750  0.268-
   7  0.995  0.995  0.996-  19 2.96  29 2.99  34 3.01  17 3.02  31 3.03  28 3.05
   8  0.497  0.005  0.499-  18 2.96  27 2.99  33 2.99  30 3.01  20 3.01  32 3.03
   9  0.507  0.995  0.999-  29 2.96  15 2.96  33 3.01  27 3.02  21 3.03  31 3.08
  10  0.005  0.004  0.500-  30 2.93  22 2.97  34 2.99  16 3.02  28 3.02  32 3.08
  11  0.507  0.505  0.999-  35 2.96  15 2.96  25 3.01  37 3.02  21 3.03  23 3.08
  12  0.005  0.496  0.500-  36 2.93  22 2.97  26 2.99  16 3.02  38 3.02  24 3.08
  13  0.995  0.505  0.996-  19 2.96  35 2.99  26 3.01  17 3.02  23 3.03  38 3.05
  14  0.497  0.495  0.499-  18 2.96  37 2.99  25 2.99  36 3.01  20 3.01  24 3.03
  15  0.453  0.750  0.973-  11 2.96   9 2.96
  16  0.018  0.750  0.466-  12 3.02  10 3.02
  17  0.972  0.250  0.969-  13 3.02   7 3.02
  18  0.447  0.250  0.468-   8 2.96  14 2.96
  19  0.046  0.750  0.027-   7 2.96  13 2.96
  20  0.485  0.750  0.524-   8 3.01  14 3.01
  21  0.529  0.250  0.028-   9 3.03  11 3.03
  22  0.031  0.250  0.549-  12 2.97  10 2.97
  23  0.247  0.471  0.952-  13 3.03  11 3.08
  24  0.747  0.449  0.458-  14 3.03  12 3.08
  25  0.445  0.517  0.247-  14 2.99  11 3.01
  26  0.945  0.540  0.743-  12 2.99  13 3.01
  27  0.546  0.043  0.750-   8 2.99   9 3.02
  28  0.052  0.037  0.249-  10 3.02   7 3.05
  29  0.753  0.972  0.066-   9 2.96   7 2.99
  30  0.251  0.986  0.563-  10 2.93   8 3.01
  31  0.247  0.029  0.952-   7 3.03   9 3.08
  32  0.747  0.051  0.458-   8 3.03  10 3.08
  33  0.445  0.983  0.247-   8 2.99   9 3.01
  34  0.945  0.960  0.743-  10 2.99   7 3.01
  35  0.753  0.528  0.066-  11 2.96  13 2.99
  36  0.251  0.514  0.563-  12 2.93  14 3.01
  37  0.546  0.457  0.750-  14 2.99  11 3.02
  38  0.052  0.463  0.249-  12 3.02  13 3.05
  39  0.735  0.750  0.294-


IMPORTANT INFORMATION: All symmetrisations will be switched off!
NOSYMM: (Re-)initialisation of all symmetry stuff for point group C_1.



 KPOINTS: 1x1x1                                   

Automatic generation of k-mesh.
Space group operators:
 irot       det(A)        alpha          n_x          n_y          n_z        tau_x        tau_y        tau_z
    1     1.000000     0.000000     1.000000     0.000000     0.000000     0.000000     0.000000     0.000000
 
 Subroutine IBZKPT returns following result:
 ===========================================
 
 Found      8 irreducible k-points:
 
 Following reciprocal coordinates:
            Coordinates               Weight
  0.000000  0.000000  0.000000      1.000000
  0.500000  0.000000  0.000000      1.000000
  0.000000  0.500000  0.000000      1.000000
  0.500000  0.500000  0.000000      1.000000
  0.000000  0.000000  0.500000      1.000000
  0.500000  0.000000  0.500000      1.000000
  0.000000  0.500000  0.500000      1.000000
  0.500000  0.500000  0.500000      1.000000
 
 Following cartesian coordinates:
            Coordinates               Weight
  0.000000  0.000000  0.000000      1.000000
  0.029691  0.000000  0.030948      1.000000
  0.000000  0.042503  0.000000      1.000000
  0.029691  0.042503  0.030948      1.000000
 -0.029691  0.000000  0.030948      1.000000
  0.000000  0.000000  0.061897      1.000000
 -0.029691  0.042503  0.030948      1.000000
  0.000000  0.042503  0.061897      1.000000
 


--------------------------------------------------------------------------------------------------------




 Dimension of arrays:
   k-points           NKPTS =      8   k-points in BZ     NKDIM =      8   number of bands    NBANDS=    208
   number of dos      NEDOS =    301   number of ions     NIONS =     39
   non local maximal  LDIM  =      6   non local SUM 2l+1 LMDIM =     18
   total plane-waves  NPLWV = 343000
   max r-space proj   IRMAX =   5716   max aug-charges    IRDMAX=  91227
   dimension x,y,z NGX =    70 NGY =   70 NGZ =   70
   dimension x,y,z NGXF=   140 NGYF=  140 NGZF=  140
   support grid    NGXF=   280 NGYF=  280 NGZF=  280
   ions per type =               6   8  24   1
   NGX,Y,Z   is equivalent  to a cutoff of   9.97,  9.89,  9.97 a.u.
   NGXF,Y,Z  is equivalent  to a cutoff of  19.95, 19.78, 19.95 a.u.

 SYSTEM =  CsPbBr3 cubic bulk                      
 POSCAR =  Cs7 Pb8 Br24                            

 Startparameter for this run:
   NWRITE =      2    write-flag & timer
   PREC   = accura    normal or accurate (medium, high low for compatibility)
   ISTART =      0    job   : 0-new  1-cont  2-samecut
   ICHARG =      2    charge: 1-file 2-atom 10-const
   ISPIN  =      1    spin polarized calculation?
   LNONCOLLINEAR =      F non collinear calculations
   LSORBIT =      F    spin-orbit coupling
   INIWAV =      1    electr: 0-lowe 1-rand  2-diag
   LASPH  =      T    aspherical Exc in radial PAW
   METAGGA=      F    non-selfconsistent MetaGGA calc.

 Electronic Relaxation 1
   ENCUT  =  300.0 eV  22.05 Ry    4.70 a.u.  16.48 16.61 16.48*2*pi/ulx,y,z
   ENINI  =  300.0     initial cutoff
   ENAUG  =  503.9 eV  augmentation charge cutoff
   NELM   =    200;   NELMIN=  2; NELMDL= -5     # of ELM steps 
   EDIFF  = 0.1E-05   stopping-criterion for ELM
   LREAL  =      T    real-space projection
   NLSPLINE    = F    spline interpolate recip. space projectors
   LCOMPAT=      F    compatible to vasp.4.4
   GGA_COMPAT  = T    GGA compatible to vasp.4.4-vasp.4.6
   LMAXPAW     = -100 max onsite density
   LMAXMIX     =    2 max onsite mixed and CHGCAR
   VOSKOWN=      0    Vosko Wilk Nusair interpolation
   ROPT   =   -0.00025  -0.00025  -0.00025  -0.00025
 Ionic relaxation
   EDIFFG = -.1E-01   stopping-criterion for IOM
   NSW    =      0    number of steps for IOM
   NBLOCK =      1;   KBLOCK =      1    inner block; outer block 
   IBRION =     -1    ionic relax: 0-MD 1-quasi-New 2-CG
   NFREE  =      1    steps in history (QN), initial steepest desc. (CG)
   ISIF   =      2    stress and relaxation
   IWAVPR =     10    prediction:  0-non 1-charg 2-wave 3-comb
   ISYM   =      0    0-nonsym 1-usesym 2-fastsym
   LCORR  =      T    Harris-Foulkes like correction to forces

   POTIM  = 0.5000    time-step for ionic-motion
   TEIN   =    0.0    initial temperature
   TEBEG  =    0.0;   TEEND  =   0.0 temperature during run
   SMASS  =  -3.00    Nose mass-parameter (am)
   estimated Nose-frequenzy (Omega)   =  0.10E-29 period in steps =****** mass=  -0.311E-26a.u.
   SCALEE = 1.0000    scale energy and forces
   NPACO  =    256;   APACO  = 16.0  distance and # of slots for P.C.
   PSTRESS=    0.0 pullay stress

  Mass of Ions in am
   POMASS = 132.90207.20 79.90132.90
  Ionic Valenz
   ZVAL   =   9.00 14.00  7.00  9.00
  Atomic Wigner-Seitz radii
   RWIGS  =  -1.00 -1.00 -1.00 -1.00
  virtual crystal weights 
   VCA    =   1.00  1.00  1.00  1.00
   NELECT =     344.0000    total number of electrons
   NUPDOWN=       0.0000    fix difference up-down

 DOS related values:
   EMIN   =  10.00;   EMAX   =-10.00  energy-range for DOS
   EFERMI =   0.00
   ISMEAR =     0;   SIGMA  =   0.01  broadening in eV -4-tet -1-fermi 0-gaus

 Electronic relaxation 2 (details)
   IALGO  =     38    algorithm
   LDIAG  =      T    sub-space diagonalisation (order eigenvalues)
   LSUBROT=      F    optimize rotation matrix (better conditioning)
   TURBO    =      0    0=normal 1=particle mesh
   IRESTART =      0    0=no restart 2=restart with 2 vectors
   NREBOOT  =      0    no. of reboots
   NMIN     =      0    reboot dimension
   EREF     =   0.00    reference energy to select bands
   IMIX   =      4    mixing-type and parameters
     AMIX     =   0.40;   BMIX     =  1.00
     AMIX_MAG =   1.60;   BMIX_MAG =  1.00
     AMIN     =   0.10
     WC   =   100.;   INIMIX=   1;  MIXPRE=   1;  MAXMIX= -45

 Intra band minimization:
   WEIMIN = 0.0000     energy-eigenvalue tresh-hold
   EBREAK =  0.12E-08  absolut break condition
   DEPER  =   0.30     relativ break condition  

   TIME   =   0.40     timestep for ELM

  volume/ion in A,a.u.               =      41.03       276.90
  Fermi-wavevector in a.u.,A,eV,Ry     =   0.980685  1.853227 13.085320  0.961744
  Thomas-Fermi vector in A             =   2.111635

 Write flags
   LWAVE        =      F    write WAVECAR
   LDOWNSAMPLE  =      F    k-point downsampling of WAVECAR
   LCHARG       =      F    write CHGCAR
   LVTOT        =      F    write LOCPOT, total local potential
   LVHAR        =      T    write LOCPOT, Hartree potential only
   LELF         =      F    write electronic localiz. function (ELF)
   LORBIT       =     10    0 simple, 1 ext, 2 COOP (PROOUT), +10 PAW based schemes


 Dipole corrections
   LMONO  =      F    monopole corrections only (constant potential shift)
   LDIPOL =      F    correct potential (dipole corrections)
   IDIPOL =      0    1-x, 2-y, 3-z, 4-all directions 
   EPSILON=  1.0000000 bulk dielectric constant

 Exchange correlation treatment:
   GGA     =    --    GGA type
   LEXCH   =     8    internal setting for exchange type
   VOSKOWN=      0    Vosko Wilk Nusair interpolation
   LHFCALC =     F    Hartree Fock is set to
   LHFONE  =     F    Hartree Fock one center treatment
   AEXX    =    0.0000 exact exchange contribution

 Linear response parameters
   LEPSILON=     F    determine dielectric tensor
   LRPA    =     F    only Hartree local field effects (RPA)
   LNABLA  =     F    use nabla operator in PAW spheres
   LVEL    =     F    velocity operator in full k-point grid
   LINTERFAST=   F  fast interpolation
   KINTER  =     0    interpolate to denser k-point grid
   CSHIFT  =0.1000    complex shift for real part using Kramers Kronig
   OMEGAMAX=  -1.0    maximum frequency
   DEG_THRESHOLD= 0.2000000E-02 threshold for treating states as degnerate
   RTIME   =   -0.100 relaxation time in fs
  (WPLASMAI=    0.000 imaginary part of plasma frequency in eV, 0.658/RTIME)
   DFIELD  = 0.0000000 0.0000000 0.0000000 field for delta impulse in time

 Orbital magnetization related:
   ORBITALMAG=     F  switch on orbital magnetization
   LCHIMAG   =     F  perturbation theory with respect to B field
   DQ        =  0.001000  dq finite difference perturbation B field
   LLRAUG    =     F  two centre corrections for induced B field



--------------------------------------------------------------------------------------------------------


 Static calculation
 charge density and potential will be updated during run
 non-spin polarized calculation
 Variant of blocked Davidson
 Davidson routine will perform the subspace rotation
 perform sub-space diagonalisation
    after iterative eigenvector-optimisation
 modified Broyden-mixing scheme, WC =      100.0
 initial mixing is a Kerker type mixing with AMIX =  0.4000 and BMIX =      1.0000
 Hartree-type preconditioning will be used
 using additional bands           36
 real space projection scheme for non local part
 use partial core corrections
 calculate Harris-corrections to forces   (improved forces if not selfconsistent)
 use gradient corrections 
 use of overlap-Matrix (Vanderbilt PP)
 Gauss-broadening in eV      SIGMA  =   0.01


--------------------------------------------------------------------------------------------------------


  energy-cutoff  :      300.00
  volume of cell :     1600.27
      direct lattice vectors                 reciprocal lattice vectors
     8.420018000  0.000000000  8.077981000     0.059382296 -0.000000000  0.061896655
     0.000000000 11.763808000  0.000000000     0.000000000  0.085006488 -0.000000000
    -8.420018000  0.000000000  8.077981000    -0.059382296  0.000000000  0.061896655

  length of vectors
    11.668353789 11.763808000 11.668353789     0.085775596  0.085006488  0.085775596



 k-points in units of 2pi/SCALE and weight: 1x1x1                                   
   0.00000000  0.00000000  0.00000000       0.125
   0.02969115  0.00000000  0.03094833       0.125
   0.00000000  0.04250324  0.00000000       0.125
   0.02969115  0.04250324  0.03094833       0.125
  -0.02969115  0.00000000  0.03094833       0.125
   0.00000000  0.00000000  0.06189665       0.125
  -0.02969115  0.04250324  0.03094833       0.125
   0.00000000  0.04250324  0.06189665       0.125

 k-points in reciprocal lattice and weights: 1x1x1                                   
   0.00000000  0.00000000  0.00000000       0.125
   0.50000000  0.00000000  0.00000000       0.125
   0.00000000  0.50000000  0.00000000       0.125
   0.50000000  0.50000000  0.00000000       0.125
   0.00000000  0.00000000  0.50000000       0.125
   0.50000000  0.00000000  0.50000000       0.125
   0.00000000  0.50000000  0.50000000       0.125
   0.50000000  0.50000000  0.50000000       0.125

 position of ions in fractional coordinates (direct lattice) 
   0.26955200  0.25000100  0.19587200
   0.77292800  0.25000100  0.71859100
   0.21032900  0.75000000  0.76239400
   0.29472500  0.24999800  0.74291400
   0.79050400  0.24999800  0.22293900
   0.24818000  0.75000100  0.26782800
   0.99500900  0.99517800  0.99565600
   0.49684300  0.00457700  0.49944200
   0.50654500  0.99515700  0.99934700
   0.00510600  0.00378700  0.50017300
   0.50654800  0.50484900  0.99934900
   0.00510400  0.49621100  0.50018300
   0.99501000  0.50481900  0.99564800
   0.49684600  0.49542500  0.49943800
   0.45311600  0.75000200  0.97339600
   0.01778400  0.74999600  0.46623000
   0.97222900  0.24999900  0.96852700
   0.44723900  0.25000100  0.46792200
   0.04586900  0.75000100  0.02663400
   0.48458700  0.75000200  0.52393300
   0.52928900  0.25000100  0.02789300
   0.03105400  0.25000000  0.54919000
   0.24739100  0.47124400  0.95237500
   0.74697800  0.44921600  0.45801900
   0.44525600  0.51665600  0.24690300
   0.94504800  0.54029100  0.74321900
   0.54595500  0.04262200  0.74964100
   0.05208900  0.03678500  0.24940800
   0.75294100  0.97167100  0.06598000
   0.25050500  0.98631900  0.56299900
   0.24739300  0.02875900  0.95237300
   0.74698000  0.05078500  0.45801700
   0.44525600  0.98334400  0.24690300
   0.94504800  0.95970600  0.74321700
   0.75294300  0.52833000  0.06598100
   0.25050700  0.51367900  0.56299600
   0.54595500  0.45737800  0.74964300
   0.05208700  0.46321100  0.24940600
   0.73469600  0.74999900  0.29369100

 position of ions in cartesian coordinates  (Angst):
   0.62038693  2.94096376  3.75968623
   0.45751852  2.94096376 12.04846214
  -4.64839724  8.82285600  7.85763791
  -3.77375945  2.94092847  8.38202813
   4.77890752  2.94092847  8.18657330
  -0.16543651  8.82286776  4.16830282
  -0.00544775 11.70708292 16.08055405
  -0.02188363  0.05384295  8.04797130
  -4.14940171 11.70683588 12.16456696
  -4.16847305  0.04454954  4.08163416
  -4.14939329  5.93894670 12.16460735
  -4.16857409  5.83733093  4.08169879
  -0.00537197  5.93859379 16.08049750
  -0.02182469  5.82808458  8.04796322
  -4.38076697  8.82287953 11.52333683
  -3.77592339  8.82280894  3.90985590
   0.03117091  2.94094024 15.67739009
  -0.17415123  2.94096376  7.39265317
   0.16195905  8.82286776  0.58567786
  -0.33129403  8.82287953  8.14680540
   4.22176335  2.94096376  4.50090561
  -4.36271445  2.94095200  4.68720001
  -5.93597797  5.54362394  9.69168695
   2.43303998  5.28449077  9.73394287
   1.67013583  6.07784199  5.59124725
   1.69940381  6.35587959 13.63778875
  -1.71503979  0.50139702 10.46579987
  -1.66142953  0.43273168  2.43548704
   5.78422399 11.43055108  6.61522828
  -2.63120510 11.60286734  6.57146986
  -5.93594429  0.33831535  9.69168695
   2.43307366  0.59742499  9.73394287
   1.67013583 11.56787001  5.59124725
   1.69942065 11.28979712 13.63777259
   5.78423241  6.21517268  6.61525251
  -2.63116300  6.04282113  6.57146178
  -1.71505663  5.38050698 10.46581603
  -1.66142953  5.44912527  2.43545473
   3.71327004  8.82284424  8.30729065



--------------------------------------------------------------------------------------------------------


 k-point  1 :   0.0000 0.0000 0.0000  plane waves:   18901
 k-point  2 :   0.5000 0.0000 0.0000  plane waves:   18892
 k-point  3 :   0.0000 0.5000 0.0000  plane waves:   18858
 k-point  4 :   0.5000 0.5000 0.0000  plane waves:   18900
 k-point  5 :   0.0000 0.0000 0.5000  plane waves:   18892
 k-point  6 :   0.5000 0.0000 0.5000  plane waves:   18810
 k-point  7 :   0.0000 0.5000 0.5000  plane waves:   18900
 k-point  8 :   0.5000 0.5000 0.5000  plane waves:   18888

 maximum and minimum number of plane-waves per node :      2391     2328

 maximum number of plane-waves:     18901
 maximum index in each direction: 
   IXMAX=   16   IYMAX=   16   IZMAX=   16
   IXMIN=  -16   IYMIN=  -17   IZMIN=  -16


 real space projection operators:
  total allocation   :      16478.67 KBytes
  max/ min on nodes  :       2151.25       1792.06


 parallel 3D FFT for wavefunctions:
    minimum data exchange during FFTs selected (reduces bandwidth)
 parallel 3D FFT for charge:
    minimum data exchange during FFTs selected (reduces bandwidth)


 total amount of memory used by VASP MPI-rank0    61012. kBytes
=======================================================================

   base      :      30000. kBytes
   nonlr-proj:       6424. kBytes
   fftplans  :       8423. kBytes
   grid      :       7942. kBytes
   one-center:         77. kBytes
   wavefun   :       8146. kBytes

     INWAV:  cpu time    0.0000: real time    0.0000
 Broyden mixing: mesh for mixing (old mesh)
   NGX = 33   NGY = 33   NGZ = 33
  (NGX  =140   NGY  =140   NGZ  =140)
  gives a total of  35937 points

 initial charge density was supplied:
 charge density of overlapping atoms calculated
 number of electron     343.0000000 magnetization 
 keeping initial charge density in first step


--------------------------------------------------------------------------------------------------------


 Maximum index for non-local projection operator          730
 Maximum index for augmentation-charges         3187 (set IRDMAX)


--------------------------------------------------------------------------------------------------------


 First call to EWALD:  gamma=   0.152
 Maximum number of real-space cells 3x 3x 3
 Maximum number of reciprocal cells 3x 3x 3

    FEWALD:  cpu time    0.0042: real time    0.0042


--------------------------------------- Iteration      1(   1)  ---------------------------------------


    POTLOK:  cpu time    0.2633: real time    0.2856
    SETDIJ:  cpu time    1.2057: real time    1.2058
     EDDAV:  cpu time   16.5604: real time   16.5675
       DOS:  cpu time    0.0010: real time    0.0010
    --------------------------------------------
      LOOP:  cpu time   18.0305: real time   18.0598

 eigenvalue-minimisations  :  3456
 total energy-change (2. order) : 0.1350364E+04  (-0.1105862E+05)
 number of electron     343.0000000 magnetization 
 augmentation part      343.0000000 magnetization 

 Free energy of the ion-electron system (eV)
  ---------------------------------------------------
  alpha Z        PSCENC =       835.99855037
  Ewald energy   TEWEN  =    -17497.76463597
  -Hartree energ DENC   =     -7636.26853412
  -exchange      EXHF   =         0.00000000
  -V(xc)+E(xc)   XCENC  =       905.09274714
  PAW double counting   =     21217.07306836   -22257.58625956
  entropy T*S    EENTRO =        -0.00249147
  eigenvalues    EBANDS =      -241.06199260
  atomic energy  EATOM  =     26024.88362379
  Solvation  Ediel_sol  =         0.00000000
  ---------------------------------------------------
  free energy    TOTEN  =      1350.36407593 eV

  energy without entropy =     1350.36656741  energy(sigma->0) =     1350.36532167


--------------------------------------------------------------------------------------------------------




--------------------------------------- Iteration      1(   2)  ---------------------------------------


     EDDAV:  cpu time   18.4563: real time   18.4715
       DOS:  cpu time    0.0007: real time    0.0007
    --------------------------------------------
      LOOP:  cpu time   18.4570: real time   18.4722

 eigenvalue-minimisations  :  4088
 total energy-change (2. order) :-0.2441432E+04  (-0.2360794E+04)
 number of electron     343.0000000 magnetization 
 augmentation part      343.0000000 magnetization 

 Free energy of the ion-electron system (eV)
  ---------------------------------------------------
  alpha Z        PSCENC =       835.99855037
  Ewald energy   TEWEN  =    -17497.76463597
  -Hartree energ DENC   =     -7636.26853412
  -exchange      EXHF   =         0.00000000
  -V(xc)+E(xc)   XCENC  =       905.09274714
  PAW double counting   =     21217.07306836   -22257.58625956
  entropy T*S    EENTRO =        -0.00000000
  eigenvalues    EBANDS =     -2682.49598849
  atomic energy  EATOM  =     26024.88362379
  Solvation  Ediel_sol  =         0.00000000
  ---------------------------------------------------
  free energy    TOTEN  =     -1091.06742849 eV

  energy without entropy =    -1091.06742849  energy(sigma->0) =    -1091.06742849


--------------------------------------------------------------------------------------------------------




--------------------------------------- Iteration      1(   3)  ---------------------------------------


     EDDAV:  cpu time   19.3837: real time   19.4503
       DOS:  cpu time    0.0004: real time    0.0004
    --------------------------------------------
      LOOP:  cpu time   19.3840: real time   19.4507

 eigenvalue-minimisations  :  4432
 total energy-change (2. order) :-0.3623200E+03  (-0.3603074E+03)
 number of electron     343.0000000 magnetization 
 augmentation part      343.0000000 magnetization 

 Free energy of the ion-electron system (eV)
  ---------------------------------------------------
  alpha Z        PSCENC =       835.99855037
  Ewald energy   TEWEN  =    -17497.76463597
  -Hartree energ DENC   =     -7636.26853412
  -exchange      EXHF   =         0.00000000
  -V(xc)+E(xc)   XCENC  =       905.09274714
  PAW double counting   =     21217.07306836   -22257.58625956
  entropy T*S    EENTRO =        -0.00000000
  eigenvalues    EBANDS =     -3044.81596065
  atomic energy  EATOM  =     26024.88362379
  Solvation  Ediel_sol  =         0.00000000
  ---------------------------------------------------
  free energy    TOTEN  =     -1453.38740065 eV

  energy without entropy =    -1453.38740065  energy(sigma->0) =    -1453.38740065


--------------------------------------------------------------------------------------------------------




--------------------------------------- Iteration      1(   4)  ---------------------------------------


     EDDAV:  cpu time   18.0968: real time   18.1172
       DOS:  cpu time    0.0006: real time    0.0006
    --------------------------------------------
      LOOP:  cpu time   18.0974: real time   18.1178

 eigenvalue-minimisations  :  3968
 total energy-change (2. order) :-0.1212563E+02  (-0.1209010E+02)
 number of electron     343.0000000 magnetization 
 augmentation part      343.0000000 magnetization 

 Free energy of the ion-electron system (eV)
  ---------------------------------------------------
  alpha Z        PSCENC =       835.99855037
  Ewald energy   TEWEN  =    -17497.76463597
  -Hartree energ DENC   =     -7636.26853412
  -exchange      EXHF   =         0.00000000
  -V(xc)+E(xc)   XCENC  =       905.09274714
  PAW double counting   =     21217.07306836   -22257.58625956
  entropy T*S    EENTRO =        -0.00000000
  eigenvalues    EBANDS =     -3056.94159114
  atomic energy  EATOM  =     26024.88362379
  Solvation  Ediel_sol  =         0.00000000
  ---------------------------------------------------
  free energy    TOTEN  =     -1465.51303113 eV

  energy without entropy =    -1465.51303113  energy(sigma->0) =    -1465.51303113


--------------------------------------------------------------------------------------------------------




--------------------------------------- Iteration      1(   5)  ---------------------------------------


     EDDAV:  cpu time   19.4542: real time   19.4934
       DOS:  cpu time    0.0006: real time    0.0006
    CHARGE:  cpu time    2.7223: real time    2.7227
    MIXING:  cpu time    0.0015: real time    0.0015
    --------------------------------------------
      LOOP:  cpu time   22.1786: real time   22.2182

 eigenvalue-minimisations  :  4456
 total energy-change (2. order) :-0.5123318E+00  (-0.5120644E+00)
 number of electron     343.9999998 magnetization 
 augmentation part       -4.5832970 magnetization 

 Broyden mixing:
  rms(total) = 0.10124E+01    rms(broyden)= 0.10118E+01
  rms(prec ) = 0.14115E+01
  weight for this iteration     100.00

 Free energy of the ion-electron system (eV)
  ---------------------------------------------------
  alpha Z        PSCENC =       835.99855037
  Ewald energy   TEWEN  =    -17497.76463597
  -Hartree energ DENC   =     -7636.26853412
  -exchange      EXHF   =         0.00000000
  -V(xc)+E(xc)   XCENC  =       905.09274714
  PAW double counting   =     21217.07306836   -22257.58625956
  entropy T*S    EENTRO =        -0.00000000
  eigenvalues    EBANDS =     -3057.45392291
  atomic energy  EATOM  =     26024.88362379
  Solvation  Ediel_sol  =         0.00000000
  ---------------------------------------------------
  free energy    TOTEN  =     -1466.02536291 eV

  energy without entropy =    -1466.02536291  energy(sigma->0) =    -1466.02536291


--------------------------------------------------------------------------------------------------------




--------------------------------------- Iteration      1(   6)  ---------------------------------------


    POTLOK:  cpu time    0.2725: real time    0.3140
    SETDIJ:  cpu time    1.2018: real time    1.2018
     EDDAV:  cpu time   19.1669: real time   19.1676
       DOS:  cpu time    0.0006: real time    0.0006
    CHARGE:  cpu time    2.7008: real time    2.7009
    MIXING:  cpu time    0.0017: real time    0.0017
    --------------------------------------------
      LOOP:  cpu time   23.3442: real time   23.3866

 eigenvalue-minimisations  :  4352
 total energy-change (2. order) : 0.7871113E+02  (-0.2326673E+01)
 number of electron     343.9999998 magnetization 
 augmentation part       -3.1400746 magnetization 

 Broyden mixing:
  rms(total) = 0.71396E+00    rms(broyden)= 0.71386E+00
  rms(prec ) = 0.89135E+00
  weight for this iteration     100.00

 eigenvalues of (default mixing * dielectric matrix)
  average eigenvalue GAMMA=   1.1809
  1.1809

 Free energy of the ion-electron system (eV)
  ---------------------------------------------------
  alpha Z        PSCENC =       835.99855037
  Ewald energy   TEWEN  =    -17497.76463597
  -Hartree energ DENC   =     -7619.57117330
  -exchange      EXHF   =         0.00000000
  -V(xc)+E(xc)   XCENC  =       938.98988712
  PAW double counting   =     21533.71022610   -22572.68146222
  entropy T*S    EENTRO =        -0.00000000
  eigenvalues    EBANDS =     -3030.87924637
  atomic energy  EATOM  =     26024.88362379
  Solvation  Ediel_sol  =         0.00000000
  ---------------------------------------------------
  free energy    TOTEN  =     -1387.31423050 eV

  energy without entropy =    -1387.31423050  energy(sigma->0) =    -1387.31423050


--------------------------------------------------------------------------------------------------------




--------------------------------------- Iteration      1(   7)  ---------------------------------------


    POTLOK:  cpu time    0.3027: real time    0.3107
    SETDIJ:  cpu time    1.2019: real time    1.2020
     EDDAV:  cpu time   18.3826: real time   18.3835
       DOS:  cpu time    0.0005: real time    0.0005
    CHARGE:  cpu time    2.7016: real time    2.7017
    MIXING:  cpu time    0.0015: real time    0.0015
    --------------------------------------------
      LOOP:  cpu time   22.5910: real time   22.6000

 eigenvalue-minimisations  :  4080
 total energy-change (2. order) : 0.4267111E+00  (-0.8959230E+00)
 number of electron     343.9999998 magnetization 
 augmentation part       -2.5430843 magnetization 

 Broyden mixing:
  rms(total) = 0.37547E+00    rms(broyden)= 0.37545E+00
  rms(prec ) = 0.41245E+00
  weight for this iteration     100.00

 eigenvalues of (default mixing * dielectric matrix)
  average eigenvalue GAMMA=   1.3002
  1.3002  1.3002

 Free energy of the ion-electron system (eV)
  ---------------------------------------------------
  alpha Z        PSCENC =       835.99855037
  Ewald energy   TEWEN  =    -17497.76463597
  -Hartree energ DENC   =     -7660.11934737
  -exchange      EXHF   =         0.00000000
  -V(xc)+E(xc)   XCENC  =       944.23541049
  PAW double counting   =     22196.73290832   -23233.90539854
  entropy T*S    EENTRO =        -0.00000000
  eigenvalues    EBANDS =     -2996.94863052
  atomic energy  EATOM  =     26024.88362379
  Solvation  Ediel_sol  =         0.00000000
  ---------------------------------------------------
  free energy    TOTEN  =     -1386.88751944 eV

  energy without entropy =    -1386.88751944  energy(sigma->0) =    -1386.88751944


--------------------------------------------------------------------------------------------------------




--------------------------------------- Iteration      1(   8)  ---------------------------------------


    POTLOK:  cpu time    0.2686: real time    0.3172
    SETDIJ:  cpu time    1.1976: real time    1.1977
     EDDAV:  cpu time   18.1961: real time   18.1971
       DOS:  cpu time    0.0006: real time    0.0006
    CHARGE:  cpu time    2.7033: real time    2.7035
    MIXING:  cpu time    0.0016: real time    0.0016
    --------------------------------------------
      LOOP:  cpu time   22.3679: real time   22.4176

 eigenvalue-minimisations  :  4016
 total energy-change (2. order) :-0.1838533E+00  (-0.4017481E-01)
 number of electron     343.9999998 magnetization 
 augmentation part       -2.6395175 magnetization 

 Broyden mixing:
  rms(total) = 0.21751E+00    rms(broyden)= 0.21751E+00
  rms(prec ) = 0.24278E+00
  weight for this iteration     100.00

 eigenvalues of (default mixing * dielectric matrix)
  average eigenvalue GAMMA=   1.6813
  1.1156  1.3183  2.6098

 Free energy of the ion-electron system (eV)
  ---------------------------------------------------
  alpha Z        PSCENC =       835.99855037
  Ewald energy   TEWEN  =    -17497.76463597
  -Hartree energ DENC   =     -7664.18595645
  -exchange      EXHF   =         0.00000000
  -V(xc)+E(xc)   XCENC  =       944.83343226
  PAW double counting   =     22435.17314339   -23472.75432795
  entropy T*S    EENTRO =        -0.00000000
  eigenvalues    EBANDS =     -2993.25520213
  atomic energy  EATOM  =     26024.88362379
  Solvation  Ediel_sol  =         0.00000000
  ---------------------------------------------------
  free energy    TOTEN  =     -1387.07137270 eV

  energy without entropy =    -1387.07137270  energy(sigma->0) =    -1387.07137270


--------------------------------------------------------------------------------------------------------




--------------------------------------- Iteration      1(   9)  ---------------------------------------


    POTLOK:  cpu time    0.2688: real time    0.3171
    SETDIJ:  cpu time    1.2019: real time    1.2019
     EDDAV:  cpu time   17.1603: real time   17.1611
       DOS:  cpu time    0.0005: real time    0.0005
    CHARGE:  cpu time    2.7001: real time    2.7002
    MIXING:  cpu time    0.0017: real time    0.0017
    --------------------------------------------
      LOOP:  cpu time   21.3334: real time   21.3825

 eigenvalue-minimisations  :  3656
 total energy-change (2. order) :-0.7993811E-01  (-0.1726392E-01)
 number of electron     343.9999998 magnetization 
 augmentation part       -2.6829187 magnetization 

 Broyden mixing:
  rms(total) = 0.43263E-01    rms(broyden)= 0.43260E-01
  rms(prec ) = 0.48885E-01
  weight for this iteration     100.00

 eigenvalues of (default mixing * dielectric matrix)
  average eigenvalue GAMMA=   1.4603
  2.5310  1.2402  1.2402  0.8300

 Free energy of the ion-electron system (eV)
  ---------------------------------------------------
  alpha Z        PSCENC =       835.99855037
  Ewald energy   TEWEN  =    -17497.76463597
  -Hartree energ DENC   =     -7669.90016611
  -exchange      EXHF   =         0.00000000
  -V(xc)+E(xc)   XCENC  =       946.79240294
  PAW double counting   =     22779.09847967   -23817.51310107
  entropy T*S    EENTRO =        -0.00000000
  eigenvalues    EBANDS =     -2988.74646443
  atomic energy  EATOM  =     26024.88362379
  Solvation  Ediel_sol  =         0.00000000
  ---------------------------------------------------
  free energy    TOTEN  =     -1387.15131081 eV

  energy without entropy =    -1387.15131081  energy(sigma->0) =    -1387.15131081


--------------------------------------------------------------------------------------------------------




--------------------------------------- Iteration      1(  10)  ---------------------------------------


    POTLOK:  cpu time    0.2976: real time    0.3075
    SETDIJ:  cpu time    1.2002: real time    1.2003
     EDDAV:  cpu time   20.1665: real time   20.1674
       DOS:  cpu time    0.0006: real time    0.0005
    CHARGE:  cpu time    2.7015: real time    2.7016
    MIXING:  cpu time    0.0019: real time    0.0019
    --------------------------------------------
      LOOP:  cpu time   24.3684: real time   24.3793

 eigenvalue-minimisations  :  4696
 total energy-change (2. order) :-0.2673676E-02  (-0.1470623E-02)
 number of electron     343.9999998 magnetization 
 augmentation part       -2.6693434 magnetization 

 Broyden mixing:
  rms(total) = 0.28403E-01    rms(broyden)= 0.28402E-01
  rms(prec ) = 0.33272E-01
  weight for this iteration     100.00

 eigenvalues of (default mixing * dielectric matrix)
  average eigenvalue GAMMA=   1.4986
  2.1946  2.1946  0.8657  1.1191  1.1191

 Free energy of the ion-electron system (eV)
  ---------------------------------------------------
  alpha Z        PSCENC =       835.99855037
  Ewald energy   TEWEN  =    -17497.76463597
  -Hartree energ DENC   =     -7668.28302869
  -exchange      EXHF   =         0.00000000
  -V(xc)+E(xc)   XCENC  =       946.64588223
  PAW double counting   =     22751.95343925   -23790.44663624
  entropy T*S    EENTRO =        -0.00000000
  eigenvalues    EBANDS =     -2990.14117922
  atomic energy  EATOM  =     26024.88362379
  Solvation  Ediel_sol  =         0.00000000
  ---------------------------------------------------
  free energy    TOTEN  =     -1387.15398448 eV

  energy without entropy =    -1387.15398448  energy(sigma->0) =    -1387.15398448


--------------------------------------------------------------------------------------------------------




--------------------------------------- Iteration      1(  11)  ---------------------------------------


    POTLOK:  cpu time    0.2943: real time    0.3138
    SETDIJ:  cpu time    1.2040: real time    1.2041
     EDDAV:  cpu time   17.1166: real time   17.1176
       DOS:  cpu time    0.0004: real time    0.0004
    CHARGE:  cpu time    2.6992: real time    2.6993
    MIXING:  cpu time    0.0018: real time    0.0018
    --------------------------------------------
      LOOP:  cpu time   21.3165: real time   21.3370

 eigenvalue-minimisations  :  3632
 total energy-change (2. order) :-0.3422824E-02  (-0.3953252E-03)
 number of electron     343.9999998 magnetization 
 augmentation part       -2.6666786 magnetization 

 Broyden mixing:
  rms(total) = 0.10161E-01    rms(broyden)= 0.10160E-01
  rms(prec ) = 0.14008E-01
  weight for this iteration     100.00

 eigenvalues of (default mixing * dielectric matrix)
  average eigenvalue GAMMA=   1.5878
  2.6944  2.6944  1.2025  1.2025  0.8663  0.8663

 Free energy of the ion-electron system (eV)
  ---------------------------------------------------
  alpha Z        PSCENC =       835.99855037
  Ewald energy   TEWEN  =    -17497.76463597
  -Hartree energ DENC   =     -7665.95906791
  -exchange      EXHF   =         0.00000000
  -V(xc)+E(xc)   XCENC  =       946.55919224
  PAW double counting   =     22724.43797316   -23763.22529198
  entropy T*S    EENTRO =        -0.00000000
  eigenvalues    EBANDS =     -2992.08775100
  atomic energy  EATOM  =     26024.88362379
  Solvation  Ediel_sol  =         0.00000000
  ---------------------------------------------------
  free energy    TOTEN  =     -1387.15740731 eV

  energy without entropy =    -1387.15740731  energy(sigma->0) =    -1387.15740731


--------------------------------------------------------------------------------------------------------




--------------------------------------- Iteration      1(  12)  ---------------------------------------


    POTLOK:  cpu time    0.2990: real time    0.3148
    SETDIJ:  cpu time    1.2047: real time    1.2047
     EDDAV:  cpu time   18.8294: real time   18.8302
       DOS:  cpu time    0.0013: real time    0.0013
    CHARGE:  cpu time    2.6947: real time    2.6948
    MIXING:  cpu time    0.0021: real time    0.0021
    --------------------------------------------
      LOOP:  cpu time   23.0311: real time   23.0479

 eigenvalue-minimisations  :  4224
 total energy-change (2. order) :-0.9323225E-03  (-0.1640758E-03)
 number of electron     343.9999998 magnetization 
 augmentation part       -2.6710111 magnetization 

 Broyden mixing:
  rms(total) = 0.63398E-02    rms(broyden)= 0.63390E-02
  rms(prec ) = 0.79866E-02
  weight for this iteration     100.00

 eigenvalues of (default mixing * dielectric matrix)
  average eigenvalue GAMMA=   1.5770
  2.7618  2.7618  1.3339  1.3339  0.9295  0.9590  0.9590

 Free energy of the ion-electron system (eV)
  ---------------------------------------------------
  alpha Z        PSCENC =       835.99855037
  Ewald energy   TEWEN  =    -17497.76463597
  -Hartree energ DENC   =     -7665.83837453
  -exchange      EXHF   =         0.00000000
  -V(xc)+E(xc)   XCENC  =       946.64857933
  PAW double counting   =     22728.83710645   -23767.78848825
  entropy T*S    EENTRO =        -0.00000000
  eigenvalues    EBANDS =     -2992.13470083
  atomic energy  EATOM  =     26024.88362379
  Solvation  Ediel_sol  =         0.00000000
  ---------------------------------------------------
  free energy    TOTEN  =     -1387.15833963 eV

  energy without entropy =    -1387.15833963  energy(sigma->0) =    -1387.15833963


--------------------------------------------------------------------------------------------------------




--------------------------------------- Iteration      1(  13)  ---------------------------------------


    POTLOK:  cpu time    0.2907: real time    0.3147
    SETDIJ:  cpu time    1.2059: real time    1.2060
     EDDAV:  cpu time   18.6276: real time   18.6284
       DOS:  cpu time    0.0006: real time    0.0006
    CHARGE:  cpu time    2.7040: real time    2.7041
    MIXING:  cpu time    0.0022: real time    0.0022
    --------------------------------------------
      LOOP:  cpu time   22.8310: real time   22.8561

 eigenvalue-minimisations  :  4152
 total energy-change (2. order) : 0.2939028E-03  (-0.4317412E-04)
 number of electron     343.9999998 magnetization 
 augmentation part       -2.6715893 magnetization 

 Broyden mixing:
  rms(total) = 0.23477E-02    rms(broyden)= 0.23469E-02
  rms(prec ) = 0.29162E-02
  weight for this iteration     100.00

 eigenvalues of (default mixing * dielectric matrix)
  average eigenvalue GAMMA=   1.5743
  3.0257  2.4280  1.4565  1.4565  1.1780  1.1780  0.9359  0.9359

 Free energy of the ion-electron system (eV)
  ---------------------------------------------------
  alpha Z        PSCENC =       835.99855037
  Ewald energy   TEWEN  =    -17497.76463597
  -Hartree energ DENC   =     -7666.56896460
  -exchange      EXHF   =         0.00000000
  -V(xc)+E(xc)   XCENC  =       946.69653723
  PAW double counting   =     22729.50074024   -23768.42923681
  entropy T*S    EENTRO =        -0.00000000
  eigenvalues    EBANDS =     -2991.47465997
  atomic energy  EATOM  =     26024.88362379
  Solvation  Ediel_sol  =         0.00000000
  ---------------------------------------------------
  free energy    TOTEN  =     -1387.15804573 eV

  energy without entropy =    -1387.15804573  energy(sigma->0) =    -1387.15804573


--------------------------------------------------------------------------------------------------------




--------------------------------------- Iteration      1(  14)  ---------------------------------------


    POTLOK:  cpu time    0.2725: real time    0.3064
    SETDIJ:  cpu time    1.2047: real time    1.2048
     EDDAV:  cpu time   18.5711: real time   18.5719
       DOS:  cpu time    0.0004: real time    0.0004
    CHARGE:  cpu time    2.6978: real time    2.6979
    MIXING:  cpu time    0.0021: real time    0.0021
    --------------------------------------------
      LOOP:  cpu time   22.7487: real time   22.7834

 eigenvalue-minimisations  :  4128
 total energy-change (2. order) : 0.1558770E-04  (-0.7437072E-05)
 number of electron     343.9999998 magnetization 
 augmentation part       -2.6712473 magnetization 

 Broyden mixing:
  rms(total) = 0.11700E-02    rms(broyden)= 0.11687E-02
  rms(prec ) = 0.16352E-02
  weight for this iteration     100.00

 eigenvalues of (default mixing * dielectric matrix)
  average eigenvalue GAMMA=   1.5540
  3.1271  2.1819  2.1819  1.2246  1.2246  1.1348  1.1348  0.8880  0.8880

 Free energy of the ion-electron system (eV)
  ---------------------------------------------------
  alpha Z        PSCENC =       835.99855037
  Ewald energy   TEWEN  =    -17497.76463597
  -Hartree energ DENC   =     -7666.69417965
  -exchange      EXHF   =         0.00000000
  -V(xc)+E(xc)   XCENC  =       946.70192135
  PAW double counting   =     22729.79793349   -23768.71553675
  entropy T*S    EENTRO =        -0.00000000
  eigenvalues    EBANDS =     -2991.36570676
  atomic energy  EATOM  =     26024.88362379
  Solvation  Ediel_sol  =         0.00000000
  ---------------------------------------------------
  free energy    TOTEN  =     -1387.15803014 eV

  energy without entropy =    -1387.15803014  energy(sigma->0) =    -1387.15803014


--------------------------------------------------------------------------------------------------------




--------------------------------------- Iteration      1(  15)  ---------------------------------------


    POTLOK:  cpu time    0.2835: real time    0.3129
    SETDIJ:  cpu time    1.2062: real time    1.2062
     EDDAV:  cpu time   17.0773: real time   17.0781
       DOS:  cpu time    0.0006: real time    0.0006
    CHARGE:  cpu time    2.7003: real time    2.7006
    MIXING:  cpu time    0.0019: real time    0.0019
    --------------------------------------------
      LOOP:  cpu time   21.2697: real time   21.3003

 eigenvalue-minimisations  :  3616
 total energy-change (2. order) : 0.2485232E-04  (-0.1403216E-05)
 number of electron     343.9999998 magnetization 
 augmentation part       -2.6711461 magnetization 

 Broyden mixing:
  rms(total) = 0.55464E-03    rms(broyden)= 0.55201E-03
  rms(prec ) = 0.86862E-03
  weight for this iteration     100.00

 eigenvalues of (default mixing * dielectric matrix)
  average eigenvalue GAMMA=   1.6253
  3.3363  2.5976  1.9976  1.9976  1.1004  1.1004  1.1494  1.1494  0.9124  0.9124

 Free energy of the ion-electron system (eV)
  ---------------------------------------------------
  alpha Z        PSCENC =       835.99855037
  Ewald energy   TEWEN  =    -17497.76463597
  -Hartree energ DENC   =     -7666.81618434
  -exchange      EXHF   =         0.00000000
  -V(xc)+E(xc)   XCENC  =       946.70693972
  PAW double counting   =     22729.77817646   -23768.68810045
  entropy T*S    EENTRO =        -0.00000000
  eigenvalues    EBANDS =     -2991.25637486
  atomic energy  EATOM  =     26024.88362379
  Solvation  Ediel_sol  =         0.00000000
  ---------------------------------------------------
  free energy    TOTEN  =     -1387.15800529 eV

  energy without entropy =    -1387.15800529  energy(sigma->0) =    -1387.15800529


--------------------------------------------------------------------------------------------------------




--------------------------------------- Iteration      1(  16)  ---------------------------------------


    POTLOK:  cpu time    0.2640: real time    0.3126
    SETDIJ:  cpu time    1.2022: real time    1.2022
     EDDAV:  cpu time   16.8984: real time   16.8990
       DOS:  cpu time    0.0004: real time    0.0004
    CHARGE:  cpu time    2.7002: real time    2.7003
    MIXING:  cpu time    0.0020: real time    0.0020
    --------------------------------------------
      LOOP:  cpu time   21.0672: real time   21.1166

 eigenvalue-minimisations  :  3544
 total energy-change (2. order) :-0.3480749E-04  (-0.7993021E-06)
 number of electron     343.9999998 magnetization 
 augmentation part       -2.6709373 magnetization 

 Broyden mixing:
  rms(total) = 0.35731E-03    rms(broyden)= 0.35324E-03
  rms(prec ) = 0.44272E-03
  weight for this iteration     100.00

 eigenvalues of (default mixing * dielectric matrix)
  average eigenvalue GAMMA=   1.6846
  3.7690  2.9413  2.4295  1.6475  1.2706  1.2706  1.2237  0.8912  0.9949  1.0461
  1.0461

 Free energy of the ion-electron system (eV)
  ---------------------------------------------------
  alpha Z        PSCENC =       835.99855037
  Ewald energy   TEWEN  =    -17497.76463597
  -Hartree energ DENC   =     -7666.79998416
  -exchange      EXHF   =         0.00000000
  -V(xc)+E(xc)   XCENC  =       946.70254662
  PAW double counting   =     22729.17080630   -23768.07934309
  entropy T*S    EENTRO =        -0.00000000
  eigenvalues    EBANDS =     -2991.26960395
  atomic energy  EATOM  =     26024.88362379
  Solvation  Ediel_sol  =         0.00000000
  ---------------------------------------------------
  free energy    TOTEN  =     -1387.15804009 eV

  energy without entropy =    -1387.15804009  energy(sigma->0) =    -1387.15804009


--------------------------------------------------------------------------------------------------------




--------------------------------------- Iteration      1(  17)  ---------------------------------------


    POTLOK:  cpu time    0.3077: real time    0.3151
    SETDIJ:  cpu time    1.2009: real time    1.2010
     EDDAV:  cpu time   14.8942: real time   14.8948
       DOS:  cpu time    0.0004: real time    0.0004
    CHARGE:  cpu time    2.7022: real time    2.7023
    MIXING:  cpu time    0.0020: real time    0.0020
    --------------------------------------------
      LOOP:  cpu time   19.1074: real time   19.1156

 eigenvalue-minimisations  :  2832
 total energy-change (2. order) : 0.1076382E-04  (-0.1965961E-06)
 number of electron     343.9999998 magnetization 
 augmentation part       -2.6709734 magnetization 

 Broyden mixing:
  rms(total) = 0.19269E-03    rms(broyden)= 0.18506E-03
  rms(prec ) = 0.21587E-03
  weight for this iteration     100.00

 eigenvalues of (default mixing * dielectric matrix)
  average eigenvalue GAMMA=   1.6355
  3.8950  2.9728  2.4279  1.6704  1.3655  1.3655  1.2572  1.0558  1.0558  0.9899
  0.8830  0.6874

 Free energy of the ion-electron system (eV)
  ---------------------------------------------------
  alpha Z        PSCENC =       835.99855037
  Ewald energy   TEWEN  =    -17497.76463597
  -Hartree energ DENC   =     -7666.81838122
  -exchange      EXHF   =         0.00000000
  -V(xc)+E(xc)   XCENC  =       946.70203976
  PAW double counting   =     22729.39317586   -23768.29938431
  entropy T*S    EENTRO =        -0.00000000
  eigenvalues    EBANDS =     -2991.25301760
  atomic energy  EATOM  =     26024.88362379
  Solvation  Ediel_sol  =         0.00000000
  ---------------------------------------------------
  free energy    TOTEN  =     -1387.15802933 eV

  energy without entropy =    -1387.15802933  energy(sigma->0) =    -1387.15802933


--------------------------------------------------------------------------------------------------------




--------------------------------------- Iteration      1(  18)  ---------------------------------------


    POTLOK:  cpu time    0.2959: real time    0.3105
    SETDIJ:  cpu time    1.2032: real time    1.2033
     EDDAV:  cpu time   13.5970: real time   13.5977
       DOS:  cpu time    0.0004: real time    0.0004
    --------------------------------------------
      LOOP:  cpu time   15.0965: real time   15.1118

 eigenvalue-minimisations  :  2376
 total energy-change (2. order) :-0.4054855E-06  (-0.1065717E-06)
 number of electron     343.9999998 magnetization 
 augmentation part       -2.6709734 magnetization 

 Free energy of the ion-electron system (eV)
  ---------------------------------------------------
  alpha Z        PSCENC =       835.99855037
  Ewald energy   TEWEN  =    -17497.76463597
  -Hartree energ DENC   =     -7666.81519703
  -exchange      EXHF   =         0.00000000
  -V(xc)+E(xc)   XCENC  =       946.70162007
  PAW double counting   =     22729.43617709   -23768.34096027
  entropy T*S    EENTRO =        -0.00000000
  eigenvalues    EBANDS =     -2991.25720778
  atomic energy  EATOM  =     26024.88362379
  Solvation  Ediel_sol  =         0.00000000
  ---------------------------------------------------
  free energy    TOTEN  =     -1387.15802973 eV

  energy without entropy =    -1387.15802973  energy(sigma->0) =    -1387.15802973


--------------------------------------------------------------------------------------------------------




 average (electrostatic) potential at core
  the test charge radii are     1.1312  1.1541  1.0178  1.1312
  (the norm of the test charge is              1.0000)
       1 -55.3893       2 -55.3693       3 -55.3859       4 -55.2842       5 -55.4867
       6 -55.4887       7-101.9040       8-101.8339       9-101.8879      10-101.8551
      11-101.8879      12-101.8551      13-101.9040      14-101.8339      15 -69.1435
      16 -69.2103      17 -69.2039      18 -69.1720      19 -69.2806      20 -68.9966
      21 -69.1475      22 -69.2238      23 -69.0755      24 -69.1197      25 -69.2242
      26 -68.9502      27 -69.0168      28 -69.1684      29 -69.2703      30 -69.1760
      31 -69.0755      32 -69.1196      33 -69.2241      34 -68.9499      35 -69.2703
      36 -69.1759      37 -69.0167      38 -69.1681      39 -56.0072



 E-fermi :   0.2492     XC(G=0):  -7.9322     alpha+bet : -6.8224


 k-point     1 :       0.0000    0.0000    0.0000
  band No.  band energies     occupation 
      1     -21.5140      2.00000
      2     -21.0231      2.00000
      3     -21.0213      2.00000
      4     -20.9288      2.00000
      5     -20.9145      2.00000
      6     -20.9052      2.00000
      7     -20.8259      2.00000
      8     -16.7148      2.00000
      9     -16.6881      2.00000
     10     -16.6875      2.00000
     11     -16.6798      2.00000
     12     -16.6685      2.00000
     13     -16.6558      2.00000
     14     -16.6508      2.00000
     15     -16.6477      2.00000
     16     -16.6303      2.00000
     17     -16.6261      2.00000
     18     -16.6173      2.00000
     19     -16.6153      2.00000
     20     -16.5935      2.00000
     21     -16.5819      2.00000
     22     -16.5808      2.00000
     23     -16.5699      2.00000
     24     -16.5684      2.00000
     25     -16.5653      2.00000
     26     -16.5622      2.00000
     27     -16.5616      2.00000
     28     -16.5563      2.00000
     29     -16.5559      2.00000
     30     -16.5526      2.00000
     31     -16.5520      2.00000
     32     -16.5481      2.00000
     33     -16.5469      2.00000
     34     -16.5401      2.00000
     35     -16.5393      2.00000
     36     -16.5257      2.00000
     37     -16.5235      2.00000
     38     -16.5176      2.00000
     39     -16.5167      2.00000
     40     -16.5101      2.00000
     41     -16.5100      2.00000
     42     -16.5039      2.00000
     43     -16.5020      2.00000
     44     -16.5008      2.00000
     45     -16.4986      2.00000
     46     -16.4859      2.00000
     47     -16.4852      2.00000
     48     -14.5362      2.00000
     49     -14.3949      2.00000
     50     -14.3643      2.00000
     51     -14.3636      2.00000
     52     -14.2862      2.00000
     53     -14.2665      2.00000
     54     -14.2448      2.00000
     55     -14.2173      2.00000
     56     -14.2149      2.00000
     57     -14.1852      2.00000
     58     -14.1778      2.00000
     59     -14.1665      2.00000
     60     -14.1577      2.00000
     61     -14.1452      2.00000
     62     -14.1186      2.00000
     63     -14.1029      2.00000
     64     -14.0723      2.00000
     65     -14.0628      2.00000
     66     -13.9638      2.00000
     67     -13.9234      2.00000
     68     -13.8892      2.00000
     69     -13.8401      2.00000
     70     -13.8354      2.00000
     71     -13.8145      2.00000
     72      -8.3583      2.00000
     73      -7.9199      2.00000
     74      -7.8950      2.00000
     75      -7.8950      2.00000
     76      -7.8722      2.00000
     77      -7.8358      2.00000
     78      -7.8291      2.00000
     79      -7.4552      2.00000
     80      -7.4317      2.00000
     81      -7.4311      2.00000
     82      -7.4264      2.00000
     83      -7.4201      2.00000
     84      -7.4154      2.00000
     85      -7.3859      2.00000
     86      -7.3678      2.00000
     87      -7.3579      2.00000
     88      -7.3512      2.00000
     89      -7.3332      2.00000
     90      -7.3292      2.00000
     91      -7.3212      2.00000
     92      -7.3107      2.00000
     93      -7.3041      2.00000
     94      -7.2953      2.00000
     95      -7.2820      2.00000
     96      -7.2594      2.00000
     97      -7.2465      2.00000
     98      -7.2203      2.00000
     99      -7.2179      2.00000
    100      -6.7543      2.00000
    101      -3.5117      2.00000
    102      -3.4775      2.00000
    103      -3.4326      2.00000
    104      -3.4315      2.00000
    105      -3.4015      2.00000
    106      -3.3336      2.00000
    107      -3.3180      2.00000
    108      -3.3018      2.00000
    109      -3.2681      2.00000
    110      -3.2621      2.00000
    111      -3.1606      2.00000
    112      -3.0863      2.00000
    113      -2.3650      2.00000
    114      -2.3367      2.00000
    115      -2.2783      2.00000
    116      -2.1880      2.00000
    117      -2.1271      2.00000
    118      -2.1067      2.00000
    119      -2.0771      2.00000
    120      -2.0429      2.00000
    121      -2.0190      2.00000
    122      -1.9058      2.00000
    123      -1.9002      2.00000
    124      -1.8680      2.00000
    125      -1.8376      2.00000
    126      -1.7984      2.00000
    127      -1.7963      2.00000
    128      -1.7152      2.00000
    129      -1.6901      2.00000
    130      -1.6827      2.00000
    131      -1.6749      2.00000
    132      -1.6640      2.00000
    133      -1.6525      2.00000
    134      -1.6354      2.00000
    135      -1.6013      2.00000
    136      -1.6011      2.00000
    137      -1.5948      2.00000
    138      -1.5877      2.00000
    139      -1.5671      2.00000
    140      -1.5534      2.00000
    141      -1.5456      2.00000
    142      -1.5408      2.00000
    143      -1.5103      2.00000
    144      -1.4987      2.00000
    145      -1.4960      2.00000
    146      -1.4675      2.00000
    147      -1.4623      2.00000
    148      -1.4394      2.00000
    149      -1.4257      2.00000
    150      -1.4155      2.00000
    151      -1.3995      2.00000
    152      -1.3741      2.00000
    153      -1.3733      2.00000
    154      -1.3371      2.00000
    155      -1.3070      2.00000
    156      -1.2631      2.00000
    157      -1.2282      2.00000
    158      -1.2051      2.00000
[...]


--------------------------------------------------------------------------------------------------------


 soft charge-density along one line, spin component           1
         0         1         2         3         4         5         6         7         8         9
 total charge-density along one line

 pseudopotential strength for first ion, spin component:           1
 18.025  -4.719  -0.000  -0.001  -0.002   0.000   0.001   0.002
 -4.719   1.244   0.000   0.000   0.000  -0.000  -0.000  -0.000
 -0.000   0.000   2.288   0.000   0.000  -2.742  -0.000  -0.000
 -0.001   0.000   0.000   2.290  -0.001  -0.000  -2.743   0.001
 -0.002   0.000   0.000  -0.001   2.289  -0.000   0.001  -2.743
  0.000  -0.000  -2.742  -0.000  -0.000   3.254   0.000   0.000
  0.001  -0.000  -0.000  -2.743   0.001   0.000   3.257  -0.001
  0.002  -0.000  -0.000   0.001  -2.743   0.000  -0.001   3.256
  0.000  -0.000  -0.000  -0.000  -0.000   0.000   0.000   0.000
  0.000  -0.000   0.000  -0.000  -0.000  -0.000   0.000   0.000
  0.001  -0.000   0.000  -0.002   0.000  -0.000   0.002  -0.001
 -0.001   0.000  -0.000  -0.001   0.000   0.000   0.001  -0.000
  0.001  -0.000  -0.000  -0.000  -0.002   0.000   0.000   0.002
 total augmentation occupancy for first ion, spin component:           1
  1.912  -0.141   0.000  -0.000  -0.000   0.000  -0.000  -0.001   0.000   0.000   0.001  -0.001   0.001
 -0.141   0.133   0.000  -0.003  -0.004   0.000   0.001   0.002  -0.000  -0.000  -0.003   0.005  -0.001
  0.000   0.000   2.015  -0.000   0.000   0.002   0.000   0.000   0.000   0.001   0.000  -0.000  -0.000
 -0.000  -0.003  -0.000   2.019  -0.003  -0.000   0.005  -0.002  -0.000  -0.000  -0.004  -0.001  -0.000
 -0.000  -0.004   0.000  -0.003   2.019   0.000  -0.002   0.005  -0.000  -0.000   0.001   0.001  -0.003
  0.000   0.000   0.002  -0.000   0.000   0.011  -0.000  -0.000  -0.001  -0.001  -0.000   0.000  -0.000
 -0.000   0.001   0.000   0.005  -0.002  -0.000   0.009   0.001   0.000   0.000   0.002  -0.000   0.000
 -0.001   0.002   0.000  -0.002   0.005  -0.000   0.001   0.010   0.000   0.000  -0.001  -0.001   0.002
  0.000  -0.000   0.000  -0.000  -0.000  -0.001   0.000   0.000   0.007   0.002   0.000  -0.000  -0.000
  0.000  -0.000   0.001  -0.000  -0.000  -0.001   0.000   0.000   0.002   0.006   0.000  -0.000   0.000
  0.001  -0.003   0.000  -0.004   0.001  -0.000   0.002  -0.001   0.000   0.000   0.005  -0.002  -0.001
 -0.001   0.005  -0.000  -0.001   0.001   0.000  -0.000  -0.001  -0.000  -0.000  -0.002   0.004   0.001
  0.001  -0.001  -0.000  -0.000  -0.003  -0.000   0.000   0.002  -0.000   0.000  -0.001   0.001   0.005


------------------------ aborting loop because EDIFF is reached ----------------------------------------





 total charge     

# of ion       s       p       d       tot
------------------------------------------
    1        1.787   4.722   0.022   6.530
    2        1.787   4.721   0.021   6.529
    3        1.786   4.721   0.019   6.526
    4        1.787   4.722   0.022   6.531
    5        1.787   4.721   0.021   6.528
    6        1.787   4.721   0.020   6.528
    7        1.555   0.417   9.833  11.805
    8        1.554   0.423   9.834  11.811
    9        1.555   0.417   9.833  11.805
   10        1.553   0.426   9.834  11.812
   11        1.555   0.417   9.833  11.805
   12        1.553   0.426   9.834  11.812
   13        1.555   0.417   9.833  11.805
   14        1.554   0.423   9.834  11.811
   15        1.615   3.284   0.006   4.906
   16        1.614   3.293   0.006   4.913
   17        1.614   3.291   0.006   4.910
   18        1.615   3.290   0.007   4.912
   19        1.615   3.293   0.007   4.915
   20        1.615   3.280   0.006   4.900
   21        1.614   3.291   0.006   4.911
   22        1.615   3.291   0.007   4.913
   23        1.613   3.288   0.005   4.907
   24        1.614   3.287   0.005   4.906
   25        1.614   3.292   0.006   4.912
   26        1.615   3.274   0.006   4.895
   27        1.614   3.286   0.006   4.907
   28        1.614   3.287   0.006   4.907
   29        1.615   3.288   0.006   4.909
   30        1.615   3.290   0.007   4.913
   31        1.613   3.288   0.005   4.907
   32        1.614   3.287   0.005   4.906
   33        1.614   3.292   0.006   4.912
   34        1.615   3.274   0.006   4.895
   35        1.615   3.288   0.006   4.909
   36        1.615   3.290   0.007   4.913
   37        1.614   3.286   0.006   4.907
   38        1.614   3.287   0.006   4.907
   39        1.783   4.721   0.014   6.517
--------------------------------------------------
tot         63.680 115.316  78.953 257.948

    CHARGE:  cpu time    0.3920: real time    0.3921
    FORLOC:  cpu time    0.0122: real time    0.0122
    FORNL :  cpu time    1.9049: real time    1.9050
    STRESS:  cpu time   49.7330: real time   49.7348
    FORCOR:  cpu time    0.2446: real time    0.2447
    FORHAR:  cpu time    0.0289: real time    0.0289
    MIXING:  cpu time    0.0019: real time    0.0019
    OFIELD:  cpu time    0.0000: real time    0.0000

  FORCE on cell =-STRESS in cart. coord.  units (eV):
  Direction    XX          YY          ZZ          XY          YZ          ZX
  --------------------------------------------------------------------------------------
  Alpha Z   835.99855   835.99855   835.99855
  Ewald   -5804.42430 -5759.74452 -5933.67342     0.00852    -0.01158  -115.65806
  Hartree  2597.90839  2565.67968  2503.23395     0.00593    -0.00495   -96.80767
  E(xc)   -1446.75982 -1446.50782 -1446.74557     0.00000    -0.00003    -0.06198
  Local   -3181.36197 -3193.19143 -2958.74196    -0.01428     0.01662   213.05655
  n-local  1793.35801  1794.42782  1792.73312    -0.00023    -0.00023    -0.44369
  augment   825.04750   824.74219   824.29081     0.00005    -0.00002    -0.13189
  Kinetic  4383.04016  4384.78036  4387.04630     0.00006    -0.00008     0.57640
  Fock        0.00000     0.00000     0.00000     0.00000     0.00000     0.00000
  -------------------------------------------------------------------------------------
  Total       2.80652     6.18483     4.14177     0.00005    -0.00027     0.52967
  in kB       2.80986     6.19220     4.14670     0.00005    -0.00027     0.53030
  external pressure =        4.38 kB  Pullay stress =        0.00 kB


 VOLUME and BASIS-vectors are now :
 -----------------------------------------------------------------------------
  energy-cutoff  :      300.00
  volume of cell :     1600.27
      direct lattice vectors                 reciprocal lattice vectors
     8.420018000  0.000000000  8.077981000     0.059382296 -0.000000000  0.061896655
     0.000000000 11.763808000  0.000000000     0.000000000  0.085006488 -0.000000000
    -8.420018000  0.000000000  8.077981000    -0.059382296  0.000000000  0.061896655

  length of vectors
    11.668353789 11.763808000 11.668353789     0.085775596  0.085006488  0.085775596


 FORCES acting on ions
    electron-ion (+dipol)            ewald-force                    non-local-force                 convergence-correction
 -----------------------------------------------------------------------------------------------
   0.283E+02 -.746E-03 -.919E+01   -.282E+02 0.805E-03 0.926E+01   -.124E+00 -.815E-04 -.772E-01   0.342E-03 0.299E-04 0.700E-04
   0.328E+02 0.487E-02 -.118E+02   -.326E+02 -.492E-02 0.117E+02   -.154E+00 0.996E-05 0.732E-01   -.556E-04 -.443E-06 -.160E-03
   -.199E+02 0.275E-03 -.128E+02   0.198E+02 -.222E-03 0.127E+02   0.796E-01 -.496E-04 0.116E-02   -.770E-04 -.395E-05 -.158E-03
   0.295E+02 -.502E-02 0.693E+01   -.293E+02 0.503E-02 -.697E+01   -.203E+00 0.556E-04 0.641E-02   0.160E-03 0.318E-06 0.259E-03
   0.285E+02 -.399E-02 0.953E+01   -.285E+02 0.401E-02 -.960E+01   -.430E-01 0.306E-04 0.879E-01   -.110E-04 0.705E-06 -.922E-05
   -.903E+01 0.421E-02 0.585E+01   0.902E+01 -.424E-02 -.586E+01   -.191E-01 0.332E-05 0.362E-01   -.290E-04 -.310E-05 0.797E-04
   0.212E+02 0.442E+02 0.662E+02   -.213E+02 -.437E+02 -.663E+02   0.222E+00 -.477E+00 0.335E-01   0.799E-04 -.383E-03 -.631E-03
   -.405E+02 0.719E+02 -.670E+02   0.413E+02 -.729E+02 0.675E+02   -.871E+00 0.929E+00 -.283E+00   -.153E-03 -.447E-03 0.707E-03
   -.755E+02 0.684E+02 -.187E+02   0.756E+02 -.681E+02 0.180E+02   -.550E-01 -.283E+00 0.486E+00   0.644E-03 -.244E-03 -.311E-03
   0.428E+02 0.449E+02 0.486E+02   -.432E+02 -.454E+02 -.508E+02   0.310E+00 0.549E+00 0.217E+01   -.620E-03 -.468E-03 -.368E-04
   -.755E+02 -.684E+02 -.187E+02   0.756E+02 0.681E+02 0.180E+02   -.544E-01 0.284E+00 0.487E+00   0.634E-03 0.250E-03 -.303E-03
   0.427E+02 -.449E+02 0.486E+02   -.432E+02 0.454E+02 -.508E+02   0.309E+00 -.549E+00 0.217E+01   -.614E-03 0.470E-03 -.304E-04
   0.212E+02 -.442E+02 0.662E+02   -.213E+02 0.437E+02 -.663E+02   0.224E+00 0.476E+00 0.332E-01   0.816E-04 0.384E-03 -.628E-03
   -.405E+02 -.719E+02 -.670E+02   0.413E+02 0.729E+02 0.675E+02   -.871E+00 -.929E+00 -.284E+00   -.152E-03 0.453E-03 0.700E-03
   -.441E+02 0.622E-03 0.151E+02   0.439E+02 -.620E-03 -.155E+02   0.978E-01 -.323E-04 0.475E+00   0.605E-03 -.740E-06 -.514E-05
   0.235E+02 -.524E-02 0.361E+02   -.233E+02 0.534E-02 -.360E+02   -.197E+00 0.636E-04 -.256E+00   -.554E-03 -.645E-06 0.131E-03
   -.841E+01 0.341E-02 0.401E+02   0.858E+01 -.346E-02 -.402E+02   -.181E+00 0.796E-04 0.126E+00   0.971E-04 0.174E-05 -.884E-04
   -.134E+02 0.192E-03 0.315E+02   0.134E+02 -.206E-03 -.320E+02   0.605E-01 0.309E-04 0.401E+00   -.922E-04 0.112E-06 0.224E-03
   0.213E+02 0.760E-02 0.115E+01   -.212E+02 -.774E-02 -.817E+00   -.144E+00 0.566E-04 -.280E+00   0.948E-04 -.198E-05 -.511E-03
   0.435E+01 0.461E-02 -.774E+02   -.479E+01 -.468E-02 0.776E+02   0.611E+00 0.164E-04 -.133E+00   -.195E-04 0.252E-09 0.772E-03
   -.228E+02 -.472E-02 -.361E+02   0.229E+02 0.476E-02 0.363E+02   -.869E-01 -.300E-04 -.137E+00   0.102E-03 0.109E-05 -.236E-03
   0.844E+01 0.561E-02 -.283E+02   -.847E+01 -.568E-02 0.287E+02   0.474E-01 -.472E-04 -.399E+00   -.194E-03 0.301E-06 0.521E-04
   -.229E+02 0.241E+01 0.226E+02   0.231E+02 -.251E+01 -.227E+02   -.221E+00 0.113E+00 0.148E+00   0.169E-03 0.586E-04 -.664E-04
   -.801E+01 -.139E+02 0.109E+02   0.815E+01 0.136E+02 -.110E+02   -.662E-01 0.385E+00 -.295E-01   -.331E-03 0.323E-03 0.269E-03
   0.593E+01 -.261E+02 0.604E+01   -.616E+01 0.262E+02 -.629E+01   0.282E+00 0.277E-01 0.247E+00   0.454E-04 0.267E-04 0.363E-04
   0.695E+02 -.711E+02 0.607E+02   -.699E+02 0.715E+02 -.612E+02   0.354E+00 -.483E+00 0.521E+00   -.381E-03 0.613E-03 -.392E-03
   -.401E+02 0.353E+02 -.565E+02   0.403E+02 -.351E+02 0.568E+02   -.250E+00 -.129E+00 -.249E+00   0.210E-03 -.455E-03 0.190E-03
   -.910E+01 -.536E+01 -.156E+02   0.931E+01 0.552E+01 0.157E+02   -.189E+00 -.174E+00 -.216E+00   -.130E-04 -.109E-03 -.647E-04
   0.879E+01 0.592E+02 -.684E+01   -.900E+01 -.593E+02 0.716E+01   0.120E+00 0.967E-01 -.244E+00   0.334E-03 -.330E-03 -.398E-03
   0.196E+02 0.247E+02 -.347E+02   -.198E+02 -.248E+02 0.352E+02   0.215E+00 0.142E+00 -.421E+00   -.912E-04 -.138E-03 0.225E-03
   -.229E+02 -.241E+01 0.226E+02   0.231E+02 0.251E+01 -.227E+02   -.221E+00 -.113E+00 0.148E+00   0.173E-03 -.596E-04 -.699E-04
   -.800E+01 0.139E+02 0.109E+02   0.814E+01 -.136E+02 -.110E+02   -.662E-01 -.385E+00 -.295E-01   -.331E-03 -.324E-03 0.270E-03
   0.593E+01 0.261E+02 0.603E+01   -.615E+01 -.262E+02 -.629E+01   0.282E+00 -.276E-01 0.247E+00   0.473E-04 -.302E-04 0.414E-04
   0.695E+02 0.711E+02 0.607E+02   -.699E+02 -.715E+02 -.612E+02   0.354E+00 0.483E+00 0.522E+00   -.382E-03 -.614E-03 -.394E-03
   0.879E+01 -.592E+02 -.685E+01   -.900E+01 0.593E+02 0.717E+01   0.120E+00 -.968E-01 -.244E+00   0.334E-03 0.330E-03 -.398E-03
   0.196E+02 -.246E+02 -.347E+02   -.198E+02 0.248E+02 0.352E+02   0.215E+00 -.142E+00 -.421E+00   -.916E-04 0.138E-03 0.224E-03
   -.401E+02 -.353E+02 -.565E+02   0.403E+02 0.351E+02 0.568E+02   -.250E+00 0.129E+00 -.249E+00   0.209E-03 0.455E-03 0.189E-03
   -.909E+01 0.535E+01 -.156E+02   0.930E+01 -.551E+01 0.158E+02   -.189E+00 0.174E+00 -.216E+00   -.687E-05 0.107E-03 -.615E-04
   -.163E+01 -.179E-02 -.652E+01   0.174E+01 0.178E-02 0.652E+01   -.171E+00 0.233E-04 -.241E-01   -.289E-03 0.138E-05 0.243E-03
 -----------------------------------------------------------------------------------------------
   0.739E+00 0.303E-03 -.422E+01   0.888E-14 0.285E-13 -.249E-13   -.722E+00 -.309E-03 0.422E+01   -.126E-03 0.320E-04 -.269E-03


 POSITION                                       TOTAL-FORCE (eV/Angst)
 -----------------------------------------------------------------------------------
      0.62039      2.94096      3.75969         0.003798     -0.000002      0.000129
      0.45752      2.94096     12.04846         0.016407     -0.000051     -0.016543
     -4.64840      8.82286      7.85764         0.000894     -0.000001     -0.039182
     -3.77376      2.94093      8.38203         0.027382      0.000079     -0.034297
      4.77891      2.94093      8.18657        -0.009185      0.000066      0.023713
     -0.16544      8.82287      4.16830        -0.023593     -0.000040      0.034706
     -0.00545     11.70708     16.08055         0.185879      0.037373     -0.083159
     -0.02188      0.05384      8.04797        -0.069750     -0.053704      0.180061
     -4.14940     11.70684     12.16457         0.049671      0.020270     -0.175273
     -4.16847      0.04455      4.08163        -0.135955     -0.006774      0.054559
     -4.14939      5.93895     12.16461         0.049766     -0.020335     -0.175370
     -4.16857      5.83733      4.08170        -0.135391      0.006684      0.054264
     -0.00537      5.93859     16.08050         0.185713     -0.037442     -0.082904
     -0.02182      5.82808      8.04796        -0.070212      0.053803      0.180329
     -4.38077      8.82288     11.52334        -0.048394     -0.000012      0.063648
     -3.77592      8.82281      3.90986        -0.055096      0.000119     -0.175762
      0.03117      2.94094     15.67739        -0.023339      0.000031      0.007567
     -0.17415      2.94096      7.39265         0.000903      0.000027     -0.020146
      0.16196      8.82287      0.58568        -0.059478     -0.000057      0.043306
     -0.33129      8.82288      8.14681         0.207982     -0.000033     -0.017435
      4.22176      2.94096      4.50091        -0.004245      0.000024      0.017202
     -4.36271      2.94095      4.68720         0.016085     -0.000113      0.010239
     -5.93598      5.54362      9.69169        -0.023319      0.009307      0.013190
      2.43304      5.28449      9.73394         0.062403      0.115899     -0.064796
      1.67014      6.07784      5.59125         0.079600      0.046699      0.001676
      1.69940      6.35588     13.63779        -0.024653     -0.045879      0.096518
     -1.71504      0.50140     10.46580        -0.066670      0.018192      0.019506
     -1.66143      0.43273      2.43549         0.014431     -0.024670     -0.035567
      5.78422     11.43055      6.61523        -0.083389     -0.047184      0.057713
     -2.63121     11.60287      6.57147         0.012413     -0.002337     -0.001340
     -5.93594      0.33832      9.69169        -0.023414     -0.009374      0.013185
      2.43307      0.59742      9.73394         0.062324     -0.115947     -0.064832
      1.67014     11.56787      5.59125         0.079619     -0.046668      0.001669
      1.69942     11.28980     13.63777        -0.024658      0.045944      0.096645
      5.78423      6.21517      6.61525        -0.083466      0.047157      0.057610
     -2.63116      6.04282      6.57146         0.012341      0.002356     -0.001371
     -1.71506      5.38051     10.46582        -0.066666     -0.018164      0.019461
     -1.66143      5.44913      2.43545         0.014312      0.024734     -0.035556
      3.71327      8.82284      8.30729        -0.051049      0.000021     -0.023363
 -----------------------------------------------------------------------------------
    total drift:                                0.016347      0.000026      0.003461


--------------------------------------------------------------------------------------------------------



  FREE ENERGIE OF THE ION-ELECTRON SYSTEM (eV)
  ---------------------------------------------------
  free  energy   TOTEN  =     -1387.15802973 eV

  energy  without entropy=    -1387.15802973  energy(sigma->0) =    -1387.15802973



--------------------------------------------------------------------------------------------------------


    POTLOK:  cpu time    1.4374: real time    1.4374


--------------------------------------------------------------------------------------------------------


 stress matrix after NEB project (eV)
      2.80652      0.00005      0.52967
      0.00005      6.18483     -0.00027
      0.52961     -0.00027      4.14177
  FORCES: max atom, RMS     0.208711    0.113497
  FORCE total and by dimension    0.708790    0.207982
  Stress total and by dimension    7.990243    6.184832
     LOOP+:  cpu time  431.6787: real time  432.2632
    4ORBIT:  cpu time    0.0000: real time    0.0000



 total charge     

# of ion       s       p       d       tot
------------------------------------------
    1        1.787   4.722   0.022   6.530
    2        1.787   4.721   0.021   6.529
    3        1.786   4.721   0.019   6.526
    4        1.787   4.722   0.022   6.531
    5        1.787   4.721   0.021   6.528
    6        1.787   4.721   0.020   6.528
    7        1.555   0.417   9.833  11.805
    8        1.554   0.423   9.834  11.811
    9        1.555   0.417   9.833  11.805
   10        1.553   0.426   9.834  11.812
   11        1.555   0.417   9.833  11.805
   12        1.553   0.426   9.834  11.812
   13        1.555   0.417   9.833  11.805
   14        1.554   0.423   9.834  11.811
   15        1.615   3.284   0.006   4.906
   16        1.614   3.293   0.006   4.913
   17        1.614   3.291   0.006   4.910
   18        1.615   3.290   0.007   4.912
   19        1.615   3.293   0.007   4.915
   20        1.615   3.280   0.006   4.900
   21        1.614   3.291   0.006   4.911
   22        1.615   3.291   0.007   4.913
   23        1.613   3.288   0.005   4.907
   24        1.614   3.287   0.005   4.906
   25        1.614   3.292   0.006   4.912
   26        1.615   3.274   0.006   4.895
   27        1.614   3.286   0.006   4.907
   28        1.614   3.287   0.006   4.907
   29        1.615   3.288   0.006   4.909
   30        1.615   3.290   0.007   4.913
   31        1.613   3.288   0.005   4.907
   32        1.614   3.287   0.005   4.906
   33        1.614   3.292   0.006   4.912
   34        1.615   3.274   0.006   4.895
   35        1.615   3.288   0.006   4.909
   36        1.615   3.290   0.007   4.913
   37        1.614   3.286   0.006   4.907
   38        1.614   3.287   0.006   4.907
   39        1.783   4.721   0.014   6.517
--------------------------------------------------
tot         63.680 115.316  78.953 257.948


 total amount of memory used by VASP MPI-rank0    61012. kBytes
=======================================================================

   base      :      30000. kBytes
   nonlr-proj:       6424. kBytes
   fftplans  :       8423. kBytes
   grid      :       7942. kBytes
   one-center:         77. kBytes
   wavefun   :       8146. kBytes

  
  
 General timing and accounting informations for this job:
 ========================================================
  
                  Total CPU time used (sec):      444.074
                            User time (sec):      442.826
                          System time (sec):        1.248
                         Elapsed time (sec):      445.365
  
                   Maximum memory used (kb):       78448.
                   Average memory used (kb):           0.
  
                          Minor page faults:        20984
                          Major page faults:            0
                 Voluntary context switches:         1702
