<?xml version="1.0" encoding="ISO-8859-1"?>
<modeling>
 <generator>
  <i name="program" type="string">vasp </i>
  <i name="version" type="string">5.4.4.18Apr17-6-g9f103f2a35  </i>
  <i name="subversion" type="string">(build Jun 22 2020 09:27:21) complex            parallel </i>
  <i name="platform" type="string">tx2_gcc-7.3_libsci-18.07_cray-fftw-3.3.8 </i>
  <i name="date" type="string">2021 10 12 </i>
  <i name="time" type="string">05:44:55 </i>
 </generator>
 <incar>
  <i type="string" name="SYSTEM"> CsPbBr3 cubic bulk</i>
  <i type="string" name="PREC">accurate</i>
  <i type="string" name="ALGO"> NORMAL   ! Electronic minimisation algo</i>
  <i type="logical" name="ADDGRID"> T  </i>
  <i type="int" name="ISPIN">     1</i>
  <i type="int" name="NELM">   200</i>
  <i type="int" name="IBRION">     2</i>
  <i name="EDIFF">      0.00000100</i>
  <i name="EDIFFG">     -0.01000000</i>
  <i type="int" name="NSW">     0</i>
  <i type="int" name="ISIF">     2</i>
  <i type="int" name="ISYM">     0</i>
  <i name="ENCUT">    300.00000000</i>
  <i name="POTIM">      0.50000000</i>
  <i name="NUPDOWN">      0.00000000</i>
  <i name="NELECT">    344.00000000</i>
  <i type="string" name="LREAL"> AUTO</i>
  <i type="int" name="ISMEAR">     0</i>
  <i name="SIGMA">      0.01000000</i>
  <i type="logical" name="LWAVE"> F  </i>
  <i type="logical" name="LCHARG"> F  </i>
  <i type="logical" name="LVHAR"> T  </i>
  <i type="int" name="LORBIT">    10</i>
  <i type="logical" name="LASPH"> T  </i>
  <v type="int" name="KPOINT_BSE">    -1     0     0     0</v>
  <i type="int" name="NELM">   200</i>
  <i type="string" name="METAGGA"> SCAN       ! PBE exchange-correlation</i>
  <i type="logical" name="LASPH"> T  </i>
 </incar>
 <structure name="primitive_cell" >
  <crystal>
   <varray name="basis" >
    <v>       8.42001800       0.00000000       8.07798100 </v>
    <v>       0.00000000      11.76380800       0.00000000 </v>
    <v>      -8.42001800       0.00000000       8.07798100 </v>
   </varray>
   <i name="volume">   1600.27186790 </i>
   <varray name="rec_basis" >
    <v>       0.05938230      -0.00000000       0.06189665 </v>
    <v>       0.00000000       0.08500649      -0.00000000 </v>
    <v>      -0.05938230       0.00000000       0.06189665 </v>
   </varray>
  </crystal>
  <varray name="positions" >
   <v>       0.26955200       0.25000100       0.19587200 </v>
   <v>       0.05208700       0.46321100       0.24940600 </v>
   <v>       0.05208900       0.03678500       0.24940800 </v>
   <v>      -0.47071100       0.25000100       0.02789300 </v>
   <v>       0.44723900       0.25000100       0.46792200 </v>
   <v>       0.44525600      -0.48334400       0.24690300 </v>
   <v>       0.44525600      -0.01665600       0.24690300 </v>
   <v>       0.24739100       0.47124400      -0.04762500 </v>
   <v>       0.24739300       0.02875900      -0.04762700 </v>
   <v>      -0.02777100       0.24999900      -0.03147300 </v>
   <v>      -0.49345500      -0.00484300      -0.00065300 </v>
   <v>      -0.49345200      -0.49515100      -0.00065100 </v>
   <v>      -0.00499000      -0.49518100      -0.00435200 </v>
   <v>      -0.00499100      -0.00482200      -0.00434400 </v>
   <v>       0.03105400       0.25000000      -0.45081000 </v>
   <v>       0.49684600       0.49542500       0.49943800 </v>
   <v>       0.49684300       0.00457700       0.49944200 </v>
   <v>       0.25050700      -0.48632100      -0.43700400 </v>
   <v>       0.25050500      -0.01368100      -0.43700100 </v>
   <v>       0.29472500       0.24999800      -0.25708600 </v>
   <v>       0.00510600       0.00378700      -0.49982700 </v>
   <v>       0.00510400       0.49621100      -0.49981700 </v>
   <v>      -0.20949600       0.24999800       0.22293900 </v>
   <v>       0.24818000      -0.24999900       0.26782800 </v>
   <v>      -0.25302200       0.44921600       0.45801900 </v>
   <v>      -0.25302000       0.05078500       0.45801700 </v>
   <v>      -0.45404500       0.45737800      -0.25035700 </v>
   <v>      -0.45404500       0.04262200      -0.25035900 </v>
   <v>       0.04586900      -0.24999900       0.02663400 </v>
   <v>      -0.24705900      -0.02832900       0.06598000 </v>
   <v>      -0.24705700      -0.47167000       0.06598100 </v>
   <v>       0.45311600      -0.24999800      -0.02660400 </v>
   <v>      -0.05495200      -0.45970900      -0.25678100 </v>
   <v>      -0.05495200      -0.04029400      -0.25678300 </v>
   <v>       0.01778400      -0.25000400       0.46623000 </v>
   <v>       0.48458700      -0.24999800      -0.47606700 </v>
   <v>       0.21032900      -0.25000000      -0.23760600 </v>
   <v>      -0.22707200       0.25000100      -0.28140900 </v>
   <v>      -0.26530400      -0.25000100       0.29369100 </v>
  </varray>
 </structure>
 <varray name="primitive_index" >
  <v type="int" >        1 </v>
  <v type="int" >       38 </v>
  <v type="int" >       28 </v>
  <v type="int" >       21 </v>
  <v type="int" >       18 </v>
  <v type="int" >       25 </v>
  <v type="int" >       33 </v>
  <v type="int" >       23 </v>
  <v type="int" >       31 </v>
  <v type="int" >       17 </v>
  <v type="int" >        9 </v>
  <v type="int" >       11 </v>
  <v type="int" >       13 </v>
  <v type="int" >        7 </v>
  <v type="int" >       22 </v>
  <v type="int" >       14 </v>
  <v type="int" >        8 </v>
  <v type="int" >       36 </v>
  <v type="int" >       30 </v>
  <v type="int" >        4 </v>
  <v type="int" >       10 </v>
  <v type="int" >       12 </v>
  <v type="int" >        5 </v>
  <v type="int" >        6 </v>
  <v type="int" >       24 </v>
  <v type="int" >       32 </v>
  <v type="int" >       37 </v>
  <v type="int" >       27 </v>
  <v type="int" >       19 </v>
  <v type="int" >       29 </v>
  <v type="int" >       35 </v>
  <v type="int" >       15 </v>
  <v type="int" >       26 </v>
  <v type="int" >       34 </v>
  <v type="int" >       16 </v>
  <v type="int" >       20 </v>
  <v type="int" >        3 </v>
  <v type="int" >        2 </v>
  <v type="int" >       39 </v>
 </varray>
 <kpoints>
  <generation param="Gamma">
   <v type="int" name="divisions">       2        2        2 </v>
   <v name="usershift">      0.00000000       0.00000000       0.00000000 </v>
   <v name="genvec1">      0.50000000       0.00000000       0.00000000 </v>
   <v name="genvec2">      0.00000000       0.50000000       0.00000000 </v>
   <v name="genvec3">      0.00000000       0.00000000       0.50000000 </v>
   <v name="shift">      0.00000000       0.00000000       0.00000000 </v>
  </generation>
  <varray name="kpointlist" >
   <v>       0.00000000       0.00000000       0.00000000 </v>
   <v>       0.50000000       0.00000000       0.00000000 </v>
   <v>       0.00000000       0.50000000       0.00000000 </v>
   <v>       0.50000000       0.50000000       0.00000000 </v>
   <v>       0.00000000       0.00000000       0.50000000 </v>
   <v>       0.50000000       0.00000000       0.50000000 </v>
   <v>       0.00000000       0.50000000       0.50000000 </v>
   <v>       0.50000000       0.50000000       0.50000000 </v>
  </varray>
  <varray name="weights" >
   <v>       0.12500000 </v>
   <v>       0.12500000 </v>
   <v>       0.12500000 </v>
   <v>       0.12500000 </v>
   <v>       0.12500000 </v>
   <v>       0.12500000 </v>
   <v>       0.12500000 </v>
   <v>       0.12500000 </v>
  </varray>
 </kpoints>
 <parameters>
  <separator name="general" >
   <i type="string" name="SYSTEM">CsPbBr3 cubic bulk</i>
   <i type="logical" name="LCOMPAT"> F  </i>
  </separator>
  <separator name="electronic" >
   <i type="string" name="PREC">accura</i>
   <i name="ENMAX">    300.00000000</i>
   <i name="ENAUG">    503.85200000</i>
   <i name="EDIFF">      0.00000100</i>
   <i type="int" name="IALGO">    38</i>
   <i type="int" name="IWAVPR">    10</i>
   <i type="int" name="NBANDS">   208</i>
   <i name="NELECT">    344.00000000</i>
   <i type="int" name="TURBO">     0</i>
   <i type="int" name="IRESTART">     0</i>
   <i type="int" name="NREBOOT">     0</i>
   <i type="int" name="NMIN">     0</i>
   <i name="EREF">      0.00000000</i>
   <separator name="electronic smearing" >
    <i type="int" name="ISMEAR">     0</i>
    <i name="SIGMA">      0.01000000</i>
    <i name="KSPACING">      0.50000000</i>
    <i type="logical" name="KGAMMA"> T  </i>
   </separator>
   <separator name="electronic projectors" >
    <i type="logical" name="LREAL"> T  </i>
    <v name="ROPT">     -0.00025000     -0.00025000     -0.00025000     -0.00025000</v>
    <i type="int" name="LMAXPAW">  -100</i>
    <i type="int" name="LMAXMIX">     2</i>
    <i type="logical" name="NLSPLINE"> F  </i>
   </separator>
   <separator name="electronic startup" >
    <i type="int" name="ISTART">     0</i>
    <i type="int" name="ICHARG">     2</i>
    <i type="int" name="INIWAV">     1</i>
   </separator>
   <separator name="electronic spin" >
    <i type="int" name="ISPIN">     1</i>
    <i type="logical" name="LNONCOLLINEAR"> F  </i>
    <v name="MAGMOM">      0.00000000      0.00000000      0.00000000      0.00000000      0.00000000      0.00000000      0.00000000      0.00000000      0.00000000      0.00000000      0.00000000      0.00000000      0.00000000      0.00000000      0.00000000      0.00000000      0.00000000      0.00000000      0.00000000      0.00000000
      0.00000000      0.00000000      0.00000000      0.00000000      0.00000000      0.00000000      0.00000000      0.00000000      0.00000000      0.00000000      0.00000000      0.00000000      0.00000000      0.00000000      0.00000000      0.00000000      0.00000000      0.00000000      0.00000000</v>
    <i name="NUPDOWN">      0.00000000</i>
    <i type="logical" name="LSORBIT"> F  </i>
    <v name="SAXIS">      0.00000000      0.00000000      1.00000000</v>
    <i type="logical" name="LSPIRAL"> F  </i>
    <v name="QSPIRAL">      0.00000000      0.00000000      0.00000000</v>
    <i type="logical" name="LZEROZ"> F  </i>
   </separator>
   <separator name="electronic exchange-correlation" >
    <i type="logical" name="LASPH"> T  </i>
    <i type="logical" name="LMETAGGA"> F  </i>
   </separator>
   <separator name="electronic convergence" >
    <i type="int" name="NELM">   200</i>
    <i type="int" name="NELMDL">    -5</i>
    <i type="int" name="NELMIN">     2</i>
    <i name="ENINI">    300.00000000</i>
    <separator name="electronic convergence detail" >
     <i type="logical" name="LDIAG"> T  </i>
     <i type="logical" name="LSUBROT"> F  </i>
     <i name="WEIMIN">      0.00000000</i>
     <i name="EBREAK">      0.00000000</i>
     <i name="DEPER">      0.30000000</i>
     <i type="int" name="NRMM">     4</i>
     <i name="TIME">      0.40000000</i>
    </separator>
   </separator>
   <separator name="electronic mixer" >
    <i name="AMIX">      0.40000000</i>
    <i name="BMIX">      1.00000000</i>
    <i name="AMIN">      0.10000000</i>
    <i name="AMIX_MAG">      1.60000000</i>
    <i name="BMIX_MAG">      1.00000000</i>
    <separator name="electronic mixer details" >
     <i type="int" name="IMIX">     4</i>
     <i type="logical" name="MIXFIRST"> F  </i>
     <i type="int" name="MAXMIX">   -45</i>
     <i name="WC">    100.00000000</i>
     <i type="int" name="INIMIX">     1</i>
     <i type="int" name="MIXPRE">     1</i>
     <i type="int" name="MREMOVE">     5</i>
    </separator>
   </separator>
   <separator name="electronic dipolcorrection" >
    <i type="logical" name="LDIPOL"> F  </i>
    <i type="logical" name="LMONO"> F  </i>
    <i type="int" name="IDIPOL">     0</i>
    <i name="EPSILON">      1.00000000</i>
    <v name="DIPOL">   -100.00000000   -100.00000000   -100.00000000</v>
    <i name="EFIELD">      0.00000000</i>
   </separator>
  </separator>
  <separator name="grids" >
   <i type="int" name="NGX">    70</i>
   <i type="int" name="NGY">    70</i>
   <i type="int" name="NGZ">    70</i>
   <i type="int" name="NGXF">   140</i>
   <i type="int" name="NGYF">   140</i>
   <i type="int" name="NGZF">   140</i>
   <i type="logical" name="ADDGRID"> T  </i>
  </separator>
  <separator name="ionic" >
   <i type="int" name="NSW">     0</i>
   <i type="int" name="IBRION">    -1</i>
   <i type="int" name="MDALGO">     0</i>
   <i type="int" name="ISIF">     2</i>
   <i name="PSTRESS">      0.00000000</i>
   <i name="EDIFFG">     -0.01000000</i>
   <i type="int" name="NFREE">     1</i>
   <i name="POTIM">      0.50000000</i>
   <i name="SMASS">     -3.00000000</i>
   <i name="SCALEE">      1.00000000</i>
  </separator>
  <separator name="ionic md" >
   <i name="TEBEG">      0.00010000</i>
   <i name="TEEND">      0.00010000</i>
   <i type="int" name="NBLOCK">     1</i>
   <i type="int" name="KBLOCK">     1</i>
   <i type="int" name="NPACO">   256</i>
   <i name="APACO">     16.00000000</i>
  </separator>
  <separator name="symmetry" >
   <i type="int" name="ISYM">     0</i>
   <i name="SYMPREC">      0.00001000</i>
  </separator>
  <separator name="dos" >
   <i type="int" name="LORBIT">    10</i>
   <v name="RWIGS">     -1.00000000     -1.00000000     -1.00000000     -1.00000000</v>
   <i type="int" name="NEDOS">   301</i>
   <i name="EMIN">     10.00000000</i>
   <i name="EMAX">    -10.00000000</i>
   <i name="EFERMI">      0.00000000</i>
  </separator>
  <separator name="writing" >
   <i type="int" name="NWRITE">     2</i>
   <i type="logical" name="LWAVE"> F  </i>
   <i type="logical" name="LDOWNSAMPLE"> F  </i>
   <i type="logical" name="LCHARG"> F  </i>
   <i type="logical" name="LPARD"> F  </i>
   <i type="logical" name="LVTOT"> F  </i>
   <i type="logical" name="LVHAR"> T  </i>
   <i type="logical" name="LELF"> F  </i>
   <i type="logical" name="LOPTICS"> F  </i>
   <v name="STM">      0.00000000      0.00000000      0.00000000      0.00000000      0.00000000      0.00000000      0.00000000</v>
  </separator>
  <separator name="performance" >
   <i type="int" name="NPAR">     8</i>
   <i type="int" name="NSIM">     4</i>
   <i type="int" name="NBLK">    -1</i>
   <i type="logical" name="LPLANE"> T  </i>
   <i type="logical" name="LSCALAPACK"> T  </i>
   <i type="logical" name="LSCAAWARE"> F  </i>
   <i type="logical" name="LSCALU"> F  </i>
   <i type="logical" name="LASYNC"> F  </i>
   <i type="logical" name="LORBITALREAL"> F  </i>
  </separator>
  <separator name="miscellaneous" >
   <i type="int" name="IDIOT">     3</i>
   <i type="int" name="ISPECIAL">     0</i>
   <i type="logical" name="LMUSIC"> F  </i>
   <v name="POMASS">    132.90000000    207.20000000     79.90400000    132.90000000</v>
   <v name="DARWINR">      0.00000000      0.00000000      0.00000000      0.00000000</v>
   <v name="DARWINV">      1.00000000      1.00000000      1.00000000      1.00000000</v>
   <i type="logical" name="LCORR"> T  </i>
  </separator>
  <i type="logical" name="GGA_COMPAT"> T  </i>
  <i type="logical" name="LBERRY"> F  </i>
  <i type="int" name="ICORELEVEL">     0</i>
  <i type="logical" name="LDAU"> F  </i>
  <i type="int" name="I_CONSTRAINED_M">     0</i>
  <separator name="electronic exchange-correlation" >
   <i type="string" name="GGA">--</i>
   <i type="int" name="VOSKOWN">     0</i>
   <i type="logical" name="LHFCALC"> F  </i>
   <i type="string" name="PRECFOCK"></i>
   <i type="logical" name="LSYMGRAD"> F  </i>
   <i type="logical" name="LHFONE"> F  </i>
   <i type="logical" name="LRHFCALC"> F  </i>
   <i type="logical" name="LTHOMAS"> F  </i>
   <i type="logical" name="LMODELHF"> F  </i>
   <i name="ENCUT4O">     -1.00000000</i>
   <i type="int" name="EXXOEP">     0</i>
   <i type="int" name="FOURORBIT">     0</i>
   <i name="AEXX">      0.00000000</i>
   <i name="HFALPHA">      0.00000000</i>
   <i name="MCALPHA">      0.00000000</i>
   <i name="ALDAX">      1.00000000</i>
   <i name="AGGAX">      1.00000000</i>
   <i name="ALDAC">      1.00000000</i>
   <i name="AGGAC">      1.00000000</i>
   <i type="int" name="NKREDX">     1</i>
   <i type="int" name="NKREDY">     1</i>
   <i type="int" name="NKREDZ">     1</i>
   <i type="logical" name="SHIFTRED"> F  </i>
   <i type="logical" name="ODDONLY"> F  </i>
   <i type="logical" name="EVENONLY"> F  </i>
   <i type="int" name="LMAXFOCK">     0</i>
   <i type="int" name="NMAXFOCKAE">     0</i>
   <i type="logical" name="LFOCKAEDFT"> F  </i>
   <i name="HFSCREEN">      0.00000000</i>
   <i name="HFSCREENC">      0.00000000</i>
   <i type="int" name="NBANDSGWLOW">     0</i>
  </separator>
  <separator name="vdW DFT" >
   <i type="logical" name="LUSE_VDW"> F  </i>
   <i name="Zab_VDW">     -0.84910000</i>
   <i name="PARAM1">      0.12340000</i>
   <i name="PARAM2">      1.00000000</i>
   <i name="PARAM3">      0.00000000</i>
  </separator>
  <separator name="model GW" >
   <i type="int" name="MODEL_GW">     0</i>
   <i name="MODEL_EPS0">     24.61956720</i>
   <i name="MODEL_ALPHA">      1.00000000</i>
  </separator>
  <separator name="linear response parameters" >
   <i type="logical" name="LEPSILON"> F  </i>
   <i type="logical" name="LRPA"> F  </i>
   <i type="logical" name="LNABLA"> F  </i>
   <i type="logical" name="LVEL"> F  </i>
   <i type="int" name="KINTER">     0</i>
   <i name="CSHIFT">      0.10000000</i>
   <i name="OMEGAMAX">     -1.00000000</i>
   <i name="DEG_THRESHOLD">      0.00200000</i>
   <i name="RTIME">     -0.10000000</i>
   <i name="WPLASMAI">      0.00000000</i>
   <v name="DFIELD">      0.00000000      0.00000000      0.00000000</v>
   <v name="WPLASMA">      0.00000000      0.00000000      0.00000000      0.00000000      0.00000000      0.00000000      0.00000000      0.00000000      0.00000000</v>
  </separator>
  <separator name="orbital magnetization" >
   <i type="logical" name="NUCIND"> F  </i>
   <v name="MAGPOS">      0.00000000      0.00000000      0.00000000</v>
   <i type="logical" name="LNICSALL"> T  </i>
   <i type="logical" name="ORBITALMAG"> F  </i>
   <i type="logical" name="LMAGBLOCH"> F  </i>
   <i type="logical" name="LCHIMAG"> F  </i>
   <i type="logical" name="LGAUGE"> T  </i>
   <i type="int" name="MAGATOM">     0</i>
   <v name="MAGDIPOL">      0.00000000      0.00000000      0.00000000</v>
   <v name="AVECCONST">      0.00000000      0.00000000      0.00000000</v>
  </separator>
  <separator name="response functions" >
   <i type="logical" name="LADDER"> F  </i>
   <i type="logical" name="LRPAFORCE"> F  </i>
   <i type="logical" name="LFXC"> F  </i>
   <i type="logical" name="LHARTREE"> T  </i>
   <i type="int" name="IBSE">     0</i>
   <v type="int" name="KPOINT">    -1     0     0     0</v>
   <i type="logical" name="LTCTE"> F  </i>
   <i type="logical" name="LTETE"> F  </i>
   <i type="logical" name="LTRIPLET"> F  </i>
   <i type="logical" name="LFXCEPS"> F  </i>
   <i type="logical" name="LFXHEG"> F  </i>
   <i type="int" name="NATURALO">     2</i>
   <i type="logical" name="L2ORDER"> F  </i>
   <i type="logical" name="LMP2LT"> F  </i>
   <i type="logical" name="LUSEW"> F  </i>
   <i name="ENCUTGW">     -2.00000000</i>
   <i name="ENCUTGWSOFT">     -2.00000000</i>
   <i name="ENCUTLF">     -1.00000000</i>
   <i type="int" name="LMAXMP2">    -1</i>
   <i name="SCISSOR">      0.00000000</i>
   <i type="int" name="NOMEGA">     0</i>
   <i type="int" name="NOMEGAR">     0</i>
   <i type="int" name="NBANDSGW">    -1</i>
   <i type="int" name="NBANDSO">    -1</i>
   <i type="int" name="NBANDSV">    -1</i>
   <i type="int" name="NELM">   200</i>
   <i type="int" name="NELMHF">     1</i>
   <i type="int" name="DIM">     3</i>
   <i type="int" name="ANTIRES">     0</i>
   <i name="OMEGAMAX">    -30.00000000</i>
   <i name="OMEGAMIN">    -30.00000000</i>
   <i name="OMEGATL">   -200.00000000</i>
   <i type="int" name="OMEGAGRID">   140</i>
   <i name="CSHIFT">     -0.10000000</i>
   <i type="logical" name="SELFENERGY"> F  </i>
   <i type="logical" name="LSPECTRAL"> F  </i>
   <i type="logical" name="LSPECTRALGW"> F  </i>
   <i type="logical" name="LSINGLES"> F  </i>
   <i type="logical" name="LFERMIGW"> F  </i>
   <i type="logical" name="ODDONLYGW"> F  </i>
   <i type="logical" name="EVENONLYGW"> F  </i>
   <i type="int" name="NKREDLFX">     1</i>
   <i type="int" name="NKREDLFY">     1</i>
   <i type="int" name="NKREDLFZ">     1</i>
   <i type="int" name="MAXMEM">  2800</i>
   <i type="int" name="TELESCOPE">     0</i>
   <i type="int" name="TAUPAR">     1</i>
   <i type="int" name="OMEGAPAR">    -1</i>
   <i name="LAMBDA">      1.00000000</i>
  </separator>
  <separator name="External order field" >
   <i name="OFIELD_KAPPA">      0.00000000</i>
   <v name="OFIELD_K">      0.00000000      0.00000000      0.00000000</v>
   <i name="OFIELD_Q6_NEAR">      0.00000000</i>
   <i name="OFIELD_Q6_FAR">      0.00000000</i>
   <i name="OFIELD_A">      0.00000000</i>
  </separator>
 </parameters>
 <atominfo>
  <atoms>      39 </atoms>
  <types>       4 </types>
  <array name="atoms" >
   <dimension dim="1">ion</dimension>
   <field type="string">element</field>
   <field type="int">atomtype</field>
   <set>
    <rc><c>Cs</c><c>   1</c></rc>
    <rc><c>Cs</c><c>   1</c></rc>
    <rc><c>Cs</c><c>   1</c></rc>
    <rc><c>Cs</c><c>   1</c></rc>
    <rc><c>Cs</c><c>   1</c></rc>
    <rc><c>Cs</c><c>   1</c></rc>
    <rc><c>Pb</c><c>   2</c></rc>
    <rc><c>Pb</c><c>   2</c></rc>
    <rc><c>Pb</c><c>   2</c></rc>
    <rc><c>Pb</c><c>   2</c></rc>
    <rc><c>Pb</c><c>   2</c></rc>
    <rc><c>Pb</c><c>   2</c></rc>
    <rc><c>Pb</c><c>   2</c></rc>
    <rc><c>Pb</c><c>   2</c></rc>
    <rc><c>Br</c><c>   3</c></rc>
    <rc><c>Br</c><c>   3</c></rc>
    <rc><c>Br</c><c>   3</c></rc>
    <rc><c>Br</c><c>   3</c></rc>
    <rc><c>Br</c><c>   3</c></rc>
    <rc><c>Br</c><c>   3</c></rc>
    <rc><c>Br</c><c>   3</c></rc>
    <rc><c>Br</c><c>   3</c></rc>
    <rc><c>Br</c><c>   3</c></rc>
    <rc><c>Br</c><c>   3</c></rc>
    <rc><c>Br</c><c>   3</c></rc>
    <rc><c>Br</c><c>   3</c></rc>
    <rc><c>Br</c><c>   3</c></rc>
    <rc><c>Br</c><c>   3</c></rc>
    <rc><c>Br</c><c>   3</c></rc>
    <rc><c>Br</c><c>   3</c></rc>
    <rc><c>Br</c><c>   3</c></rc>
    <rc><c>Br</c><c>   3</c></rc>
    <rc><c>Br</c><c>   3</c></rc>
    <rc><c>Br</c><c>   3</c></rc>
    <rc><c>Br</c><c>   3</c></rc>
    <rc><c>Br</c><c>   3</c></rc>
    <rc><c>Br</c><c>   3</c></rc>
    <rc><c>Br</c><c>   3</c></rc>
    <rc><c>Cs</c><c>   4</c></rc>
   </set>
  </array>
  <array name="atomtypes" >
   <dimension dim="1">type</dimension>
   <field type="int">atomspertype</field>
   <field type="string">element</field>
   <field>mass</field>
   <field>valence</field>
   <field type="string">pseudopotential</field>
   <set>
    <rc><c>   6</c><c>Cs</c><c>    132.90000000</c><c>      9.00000000</c><c>  PAW_PBE Cs_sv 08Apr2002               </c></rc>
    <rc><c>   8</c><c>Pb</c><c>    207.20000000</c><c>     14.00000000</c><c>  PAW_PBE Pb_d 06Sep2000                </c></rc>
    <rc><c>  24</c><c>Br</c><c>     79.90400000</c><c>      7.00000000</c><c>  PAW_PBE Br 06Sep2000                  </c></rc>
    <rc><c>   1</c><c>Cs</c><c>    132.90000000</c><c>      9.00000000</c><c>  PAW_PBE Cs_sv 08Apr2002               </c></rc>
   </set>
  </array>
 </atominfo>
 <structure name="initialpos" >
  <crystal>
   <varray name="basis" >
    <v>       8.42001800       0.00000000       8.07798100 </v>
    <v>       0.00000000      11.76380800       0.00000000 </v>
    <v>      -8.42001800       0.00000000       8.07798100 </v>
   </varray>
   <i name="volume">   1600.27186790 </i>
   <varray name="rec_basis" >
    <v>       0.05938230      -0.00000000       0.06189665 </v>
    <v>       0.00000000       0.08500649      -0.00000000 </v>
    <v>      -0.05938230       0.00000000       0.06189665 </v>
   </varray>
  </crystal>
  <varray name="positions" >
   <v>       0.26955200       0.25000100       0.19587200 </v>
   <v>       0.77292800       0.25000100       0.71859100 </v>
   <v>       0.21032900       0.75000000       0.76239400 </v>
   <v>       0.29472500       0.24999800       0.74291400 </v>
   <v>       0.79050400       0.24999800       0.22293900 </v>
   <v>       0.24818000       0.75000100       0.26782800 </v>
   <v>       0.99500900       0.99517800       0.99565600 </v>
   <v>       0.49684300       0.00457700       0.49944200 </v>
   <v>       0.50654500       0.99515700       0.99934700 </v>
   <v>       0.00510600       0.00378700       0.50017300 </v>
   <v>       0.50654800       0.50484900       0.99934900 </v>
   <v>       0.00510400       0.49621100       0.50018300 </v>
   <v>       0.99501000       0.50481900       0.99564800 </v>
   <v>       0.49684600       0.49542500       0.49943800 </v>
   <v>       0.45311600       0.75000200       0.97339600 </v>
   <v>       0.01778400       0.74999600       0.46623000 </v>
   <v>       0.97222900       0.24999900       0.96852700 </v>
   <v>       0.44723900       0.25000100       0.46792200 </v>
   <v>       0.04586900       0.75000100       0.02663400 </v>
   <v>       0.48458700       0.75000200       0.52393300 </v>
   <v>       0.52928900       0.25000100       0.02789300 </v>
   <v>       0.03105400       0.25000000       0.54919000 </v>
   <v>       0.24739100       0.47124400       0.95237500 </v>
   <v>       0.74697800       0.44921600       0.45801900 </v>
   <v>       0.44525600       0.51665600       0.24690300 </v>
   <v>       0.94504800       0.54029100       0.74321900 </v>
   <v>       0.54595500       0.04262200       0.74964100 </v>
   <v>       0.05208900       0.03678500       0.24940800 </v>
   <v>       0.75294100       0.97167100       0.06598000 </v>
   <v>       0.25050500       0.98631900       0.56299900 </v>
   <v>       0.24739300       0.02875900       0.95237300 </v>
   <v>       0.74698000       0.05078500       0.45801700 </v>
   <v>       0.44525600       0.98334400       0.24690300 </v>
   <v>       0.94504800       0.95970600       0.74321700 </v>
   <v>       0.75294300       0.52833000       0.06598100 </v>
   <v>       0.25050700       0.51367900       0.56299600 </v>
   <v>       0.54595500       0.45737800       0.74964300 </v>
   <v>       0.05208700       0.46321100       0.24940600 </v>
   <v>       0.73469600       0.74999900       0.29369100 </v>
  </varray>
 </structure>
 <calculation>
  <scstep>
   <time name="dav">   16.56   16.57</time>
   <time name="total">   18.03   18.06</time>
   <energy>
    <i name="alphaZ">    835.99855037 </i>
    <i name="ewald"> -17497.76463597 </i>
    <i name="hartreedc">  -7636.26853412 </i>
    <i name="XCdc">    905.09274714 </i>
    <i name="pawpsdc">  21217.07306836 </i>
    <i name="pawaedc"> -22257.58625956 </i>
    <i name="eentropy">     -0.00249147 </i>
    <i name="bandstr">   -241.06199260 </i>
    <i name="atom">  26024.88362379 </i>
    <i name="e_fr_energy">   1350.36407593 </i>
    <i name="e_wo_entrp">   1350.36656741 </i>
    <i name="e_0_energy">   1350.36532167 </i>
   </energy>
  </scstep>
  <scstep>
   <time name="dav">   18.46   18.47</time>
   <time name="total">   18.46   18.47</time>
   <energy>
    <i name="e_fr_energy">  -1091.06742849 </i>
    <i name="e_wo_entrp">  -1091.06742849 </i>
    <i name="e_0_energy">  -1091.06742849 </i>
   </energy>
  </scstep>
  <scstep>
   <time name="dav">   19.38   19.45</time>
   <time name="total">   19.38   19.45</time>
   <energy>
    <i name="e_fr_energy">  -1453.38740065 </i>
    <i name="e_wo_entrp">  -1453.38740065 </i>
    <i name="e_0_energy">  -1453.38740065 </i>
   </energy>
  </scstep>
  <scstep>
   <time name="dav">   18.10   18.12</time>
   <time name="total">   18.10   18.12</time>
   <energy>
    <i name="e_fr_energy">  -1465.51303113 </i>
    <i name="e_wo_entrp">  -1465.51303113 </i>
    <i name="e_0_energy">  -1465.51303113 </i>
   </energy>
  </scstep>
  <scstep>
   <time name="dav">   19.45   19.49</time>
   <time name="total">   22.18   22.22</time>
   <energy>
    <i name="e_fr_energy">  -1466.02536291 </i>
    <i name="e_wo_entrp">  -1466.02536291 </i>
    <i name="e_0_energy">  -1466.02536291 </i>
   </energy>
  </scstep>
  <scstep>
   <time name="dav">   19.17   19.17</time>
   <time name="total">   23.34   23.39</time>
   <energy>
    <i name="e_fr_energy">  -1387.31423050 </i>
    <i name="e_wo_entrp">  -1387.31423050 </i>
    <i name="e_0_energy">  -1387.31423050 </i>
   </energy>
  </scstep>
  <scstep>
   <time name="dav">   18.38   18.38</time>
   <time name="total">   22.59   22.60</time>
   <energy>
    <i name="e_fr_energy">  -1386.88751944 </i>
    <i name="e_wo_entrp">  -1386.88751944 </i>
    <i name="e_0_energy">  -1386.88751944 </i>
   </energy>
  </scstep>
  <scstep>
   <time name="dav">   18.20   18.20</time>
   <time name="total">   22.37   22.42</time>
   <energy>
    <i name="e_fr_energy">  -1387.07137270 </i>
    <i name="e_wo_entrp">  -1387.07137270 </i>
    <i name="e_0_energy">  -1387.07137270 </i>
   </energy>
  </scstep>
  <scstep>
   <time name="dav">   17.16   17.16</time>
   <time name="total">   21.33   21.38</time>
   <energy>
    <i name="e_fr_energy">  -1387.15131081 </i>
    <i name="e_wo_entrp">  -1387.15131081 </i>
    <i name="e_0_energy">  -1387.15131081 </i>
   </energy>
  </scstep>
  <scstep>
   <time name="dav">   20.17   20.17</time>
   <time name="total">   24.37   24.38</time>
   <energy>
    <i name="e_fr_energy">  -1387.15398448 </i>
    <i name="e_wo_entrp">  -1387.15398448 </i>
    <i name="e_0_energy">  -1387.15398448 </i>
   </energy>
  </scstep>
  <scstep>
   <time name="dav">   17.12   17.12</time>
   <time name="total">   21.32   21.34</time>
   <energy>
    <i name="e_fr_energy">  -1387.15740731 </i>
    <i name="e_wo_entrp">  -1387.15740731 </i>
    <i name="e_0_energy">  -1387.15740731 </i>
   </energy>
  </scstep>
  <scstep>
   <time name="dav">   18.83   18.83</time>
   <time name="total">   23.03   23.05</time>
   <energy>
    <i name="e_fr_energy">  -1387.15833963 </i>
    <i name="e_wo_entrp">  -1387.15833963 </i>
    <i name="e_0_energy">  -1387.15833963 </i>
   </energy>
  </scstep>
  <scstep>
   <time name="dav">   18.63   18.63</time>
   <time name="total">   22.83   22.86</time>
   <energy>
    <i name="e_fr_energy">  -1387.15804573 </i>
    <i name="e_wo_entrp">  -1387.15804573 </i>
    <i name="e_0_energy">  -1387.15804573 </i>
   </energy>
  </scstep>
  <scstep>
   <time name="dav">   18.57   18.57</time>
   <time name="total">   22.75   22.78</time>
   <energy>
    <i name="e_fr_energy">  -1387.15803014 </i>
    <i name="e_wo_entrp">  -1387.15803014 </i>
    <i name="e_0_energy">  -1387.15803014 </i>
   </energy>
  </scstep>
  <scstep>
   <time name="dav">   17.08   17.08</time>
   <time name="total">   21.27   21.30</time>
   <energy>
    <i name="e_fr_energy">  -1387.15800529 </i>
    <i name="e_wo_entrp">  -1387.15800529 </i>
    <i name="e_0_energy">  -1387.15800529 </i>
   </energy>
  </scstep>
  <scstep>
   <time name="dav">   16.90   16.90</time>
   <time name="total">   21.07   21.12</time>
   <energy>
    <i name="e_fr_energy">  -1387.15804009 </i>
    <i name="e_wo_entrp">  -1387.15804009 </i>
    <i name="e_0_energy">  -1387.15804009 </i>
   </energy>
  </scstep>
  <scstep>
   <time name="dav">   14.89   14.89</time>
   <time name="total">   19.11   19.12</time>
   <energy>
    <i name="e_fr_energy">  -1387.15802933 </i>
    <i name="e_wo_entrp">  -1387.15802933 </i>
    <i name="e_0_energy">  -1387.15802933 </i>
   </energy>
  </scstep>
  <scstep>
   <time name="dav">   13.60   13.60</time>
   <time name="total">   15.10   15.11</time>
   <energy>
    <i name="alphaZ">    835.99855037 </i>
    <i name="ewald"> -17497.76463597 </i>
    <i name="hartreedc">  -7666.81519703 </i>
    <i name="XCdc">    946.70162007 </i>
    <i name="pawpsdc">  22729.43617709 </i>
    <i name="pawaedc"> -23768.34096027 </i>
    <i name="eentropy">     -0.00000000 </i>
    <i name="bandstr">  -2991.25720778 </i>
    <i name="atom">  26024.88362379 </i>
    <i name="e_fr_energy">  -1387.15802973 </i>
    <i name="e_wo_entrp">  -1387.15802973 </i>
    <i name="e_0_energy">  -1387.15802973 </i>
   </energy>
  </scstep>
  <structure>
   <crystal>
    <varray name="basis" >
     <v>       8.42001800       0.00000000       8.07798100 </v>
     <v>       0.00000000      11.76380800       0.00000000 </v>
     <v>      -8.42001800       0.00000000       8.07798100 </v>
    </varray>
    <i name="volume">   1600.27186790 </i>
    <varray name="rec_basis" >
     <v>       0.05938230      -0.00000000       0.06189665 </v>
     <v>       0.00000000       0.08500649      -0.00000000 </v>
     <v>      -0.05938230       0.00000000       0.06189665 </v>
    </varray>
   </crystal>
   <varray name="positions" >
    <v>       0.26955200       0.25000100       0.19587200 </v>
    <v>       0.77292800       0.25000100       0.71859100 </v>
    <v>       0.21032900       0.75000000       0.76239400 </v>
    <v>       0.29472500       0.24999800       0.74291400 </v>
    <v>       0.79050400       0.24999800       0.22293900 </v>
    <v>       0.24818000       0.75000100       0.26782800 </v>
    <v>       0.99500900       0.99517800       0.99565600 </v>
    <v>       0.49684300       0.00457700       0.49944200 </v>
    <v>       0.50654500       0.99515700       0.99934700 </v>
    <v>       0.00510600       0.00378700       0.50017300 </v>
    <v>       0.50654800       0.50484900       0.99934900 </v>
    <v>       0.00510400       0.49621100       0.50018300 </v>
    <v>       0.99501000       0.50481900       0.99564800 </v>
    <v>       0.49684600       0.49542500       0.49943800 </v>
    <v>       0.45311600       0.75000200       0.97339600 </v>
    <v>       0.01778400       0.74999600       0.46623000 </v>
    <v>       0.97222900       0.24999900       0.96852700 </v>
    <v>       0.44723900       0.25000100       0.46792200 </v>
    <v>       0.04586900       0.75000100       0.02663400 </v>
    <v>       0.48458700       0.75000200       0.52393300 </v>
    <v>       0.52928900       0.25000100       0.02789300 </v>
    <v>       0.03105400       0.25000000       0.54919000 </v>
    <v>       0.24739100       0.47124400       0.95237500 </v>
    <v>       0.74697800       0.44921600       0.45801900 </v>
    <v>       0.44525600       0.51665600       0.24690300 </v>
    <v>       0.94504800       0.54029100       0.74321900 </v>
    <v>       0.54595500       0.04262200       0.74964100 </v>
    <v>       0.05208900       0.03678500       0.24940800 </v>
    <v>       0.75294100       0.97167100       0.06598000 </v>
    <v>       0.25050500       0.98631900       0.56299900 </v>
    <v>       0.24739300       0.02875900       0.95237300 </v>
    <v>       0.74698000       0.05078500       0.45801700 </v>
    <v>       0.44525600       0.98334400       0.24690300 </v>
    <v>       0.94504800       0.95970600       0.74321700 </v>
    <v>       0.75294300       0.52833000       0.06598100 </v>
    <v>       0.25050700       0.51367900       0.56299600 </v>
    <v>       0.54595500       0.45737800       0.74964300 </v>
    <v>       0.05208700       0.46321100       0.24940600 </v>
    <v>       0.73469600       0.74999900       0.29369100 </v>
   </varray>
  </structure>
  <varray name="forces" >
   <v>       0.00379792      -0.00000182       0.00012943 </v>
   <v>       0.01640673      -0.00005092      -0.01654326 </v>
   <v>       0.00089447      -0.00000062      -0.03918239 </v>
   <v>       0.02738203       0.00007932      -0.03429735 </v>
   <v>      -0.00918462       0.00006552       0.02371267 </v>
   <v>      -0.02359342      -0.00004015       0.03470618 </v>
   <v>       0.18587947       0.03737346      -0.08315852 </v>
   <v>      -0.06974994      -0.05370362       0.18006122 </v>
   <v>       0.04967141       0.02027022      -0.17527313 </v>
   <v>      -0.13595492      -0.00677396       0.05455939 </v>
   <v>       0.04976623      -0.02033495      -0.17537015 </v>
   <v>      -0.13539061       0.00668399       0.05426388 </v>
   <v>       0.18571280      -0.03744201      -0.08290430 </v>
   <v>      -0.07021237       0.05380252       0.18032917 </v>
   <v>      -0.04839370      -0.00001155       0.06364779 </v>
   <v>      -0.05509647       0.00011896      -0.17576228 </v>
   <v>      -0.02333868       0.00003118       0.00756734 </v>
   <v>       0.00090259       0.00002730      -0.02014556 </v>
   <v>      -0.05947843      -0.00005675       0.04330577 </v>
   <v>       0.20798153      -0.00003266      -0.01743490 </v>
   <v>      -0.00424531       0.00002373       0.01720208 </v>
   <v>       0.01608508      -0.00011305       0.01023938 </v>
   <v>      -0.02331919       0.00930734       0.01319039 </v>
   <v>       0.06240275       0.11589880      -0.06479641 </v>
   <v>       0.07959981       0.04669883       0.00167628 </v>
   <v>      -0.02465252      -0.04587891       0.09651806 </v>
   <v>      -0.06667043       0.01819200       0.01950644 </v>
   <v>       0.01443075      -0.02467039      -0.03556673 </v>
   <v>      -0.08338931      -0.04718413       0.05771284 </v>
   <v>       0.01241260      -0.00233674      -0.00134023 </v>
   <v>      -0.02341416      -0.00937382       0.01318454 </v>
   <v>       0.06232391      -0.11594723      -0.06483181 </v>
   <v>       0.07961945      -0.04666842       0.00166892 </v>
   <v>      -0.02465787       0.04594399       0.09664531 </v>
   <v>      -0.08346564       0.04715736       0.05760994 </v>
   <v>       0.01234090       0.00235572      -0.00137149 </v>
   <v>      -0.06666556      -0.01816369       0.01946064 </v>
   <v>       0.01431207       0.02473396      -0.03555584 </v>
   <v>      -0.05104936       0.00002120      -0.02336334 </v>
  </varray>
  <varray name="stress" >
   <v>       2.80986134       0.00004797       0.53030321 </v>
   <v>       0.00004798       6.19219648      -0.00027394 </v>
   <v>       0.53024366      -0.00027401       4.14669881 </v>
  </varray>
  <energy>
   <i name="e_fr_energy">  -1387.15802973 </i>
   <i name="e_wo_entrp">  -1387.15802973 </i>
   <i name="e_0_energy">     -0.00000000 </i>
  </energy>
  <time name="totalsc">  431.68  432.26</time>
  <eigenvalues>
   <array>
    <dimension dim="1">band</dimension>
    <dimension dim="2">kpoint</dimension>
    <dimension dim="3">spin</dimension>
    <field>eigene</field>
    <field>occ</field>
    <set>
     <set comment="spin 1">
      <set comment="kpoint 1">
       <r>  -21.5140    1.0000 </r>
       <r>  -21.0231    1.0000 </r>
       <r>  -21.0213    1.0000 </r>
       <r>  -20.9288    1.0000 </r>
       <r>  -20.9145    1.0000 </r>
       <r>  -20.9052    1.0000 </r>
       <r>  -20.8259    1.0000 </r>
       <r>  -16.7148    1.0000 </r>
       <r>  -16.6881    1.0000 </r>
       <r>  -16.6875    1.0000 </r>
       <r>  -16.6798    1.0000 </r>
       <r>  -16.6685    1.0000 </r>
       <r>  -16.6558    1.0000 </r>
       <r>  -16.6508    1.0000 </r>
       <r>  -16.6477    1.0000 </r>
       <r>  -16.6303    1.0000 </r>
       <r>  -16.6261    1.0000 </r>
       <r>  -16.6173    1.0000 </r>
       <r>  -16.6153    1.0000 </r>
       <r>  -16.5935    1.0000 </r>
       <r>  -16.5819    1.0000 </r>
       <r>  -16.5808    1.0000 </r>
       <r>  -16.5699    1.0000 </r>
       <r>  -16.5684    1.0000 </r>
       <r>  -16.5653    1.0000 </r>
       <r>  -16.5622    1.0000 </r>
       <r>  -16.5616    1.0000 </r>
       <r>  -16.5563    1.0000 </r>
       <r>  -16.5559    1.0000 </r>
       <r>  -16.5526    1.0000 </r>
       <r>  -16.5520    1.0000 </r>
       <r>  -16.5481    1.0000 </r>
       <r>  -16.5469    1.0000 </r>
       <r>  -16.5401    1.0000 </r>
       <r>  -16.5393    1.0000 </r>
       <r>  -16.5257    1.0000 </r>
       <r>  -16.5235    1.0000 </r>
       <r>  -16.5176    1.0000 </r>
       <r>  -16.5167    1.0000 </r>
       <r>  -16.5101    1.0000 </r>
       <r>  -16.5100    1.0000 </r>
       <r>  -16.5039    1.0000 </r>
       <r>  -16.5020    1.0000 </r>
       <r>  -16.5008    1.0000 </r>
       <r>  -16.4986    1.0000 </r>
       <r>  -16.4859    1.0000 </r>
       <r>  -16.4852    1.0000 </r>
       <r>  -14.5362    1.0000 </r>
       <r>  -14.3949    1.0000 </r>
       <r>  -14.3643    1.0000 </r>
       <r>  -14.3636    1.0000 </r>
       <r>  -14.2862    1.0000 </r>
       <r>  -14.2665    1.0000 </r>
       <r>  -14.2448    1.0000 </r>
       <r>  -14.2173    1.0000 </r>
       <r>  -14.2149    1.0000 </r>
       <r>  -14.1852    1.0000 </r>
       <r>  -14.1778    1.0000 </r>
       <r>  -14.1665    1.0000 </r>
       <r>  -14.1577    1.0000 </r>
       <r>  -14.1452    1.0000 </r>
       <r>  -14.1186    1.0000 </r>
       <r>  -14.1029    1.0000 </r>
       <r>  -14.0723    1.0000 </r>
       <r>  -14.0628    1.0000 </r>
       <r>  -13.9638    1.0000 </r>
       <r>  -13.9234    1.0000 </r>
       <r>  -13.8892    1.0000 </r>
       <r>  -13.8401    1.0000 </r>
       <r>  -13.8354    1.0000 </r>
       <r>  -13.8145    1.0000 </r>
       <r>   -8.3583    1.0000 </r>
       <r>   -7.9199    1.0000 </r>
       <r>   -7.8950    1.0000 </r>
       <r>   -7.8950    1.0000 </r>
       <r>   -7.8722    1.0000 </r>
       <r>   -7.8358    1.0000 </r>
       <r>   -7.8291    1.0000 </r>
       <r>   -7.4552    1.0000 </r>
       <r>   -7.4317    1.0000 </r>
       <r>   -7.4311    1.0000 </r>
       <r>   -7.4264    1.0000 </r>
       <r>   -7.4201    1.0000 </r>
       <r>   -7.4154    1.0000 </r>
       <r>   -7.3859    1.0000 </r>
       <r>   -7.3678    1.0000 </r>
       <r>   -7.3579    1.0000 </r>
       <r>   -7.3512    1.0000 </r>
       <r>   -7.3332    1.0000 </r>
       <r>   -7.3292    1.0000 </r>
       <r>   -7.3212    1.0000 </r>
       <r>   -7.3107    1.0000 </r>
       <r>   -7.3041    1.0000 </r>
       <r>   -7.2953    1.0000 </r>
       <r>   -7.2820    1.0000 </r>
       <r>   -7.2594    1.0000 </r>
       <r>   -7.2465    1.0000 </r>
       <r>   -7.2203    1.0000 </r>
       <r>   -7.2179    1.0000 </r>
       <r>   -6.7543    1.0000 </r>
       <r>   -3.5117    1.0000 </r>
       <r>   -3.4775    1.0000 </r>
       <r>   -3.4326    1.0000 </r>
       <r>   -3.4315    1.0000 </r>
       <r>   -3.4015    1.0000 </r>
       <r>   -3.3336    1.0000 </r>
       <r>   -3.3180    1.0000 </r>
       <r>   -3.3018    1.0000 </r>
       <r>   -3.2681    1.0000 </r>
       <r>   -3.2621    1.0000 </r>
       <r>   -3.1606    1.0000 </r>
       <r>   -3.0863    1.0000 </r>
       <r>   -2.3650    1.0000 </r>
       <r>   -2.3367    1.0000 </r>
       <r>   -2.2783    1.0000 </r>
       <r>   -2.1880    1.0000 </r>
       <r>   -2.1271    1.0000 </r>
       <r>   -2.1067    1.0000 </r>
       <r>   -2.0771    1.0000 </r>
       <r>   -2.0429    1.0000 </r>
       <r>   -2.0190    1.0000 </r>
       <r>   -1.9058    1.0000 </r>
       <r>   -1.9002    1.0000 </r>
       <r>   -1.8680    1.0000 </r>
       <r>   -1.8376    1.0000 </r>
       <r>   -1.7984    1.0000 </r>
       <r>   -1.7963    1.0000 </r>
       <r>   -1.7152    1.0000 </r>
       <r>   -1.6901    1.0000 </r>
       <r>   -1.6827    1.0000 </r>
       <r>   -1.6749    1.0000 </r>
       <r>   -1.6640    1.0000 </r>
       <r>   -1.6525    1.0000 </r>
       <r>   -1.6354    1.0000 </r>
       <r>   -1.6013    1.0000 </r>
       <r>   -1.6011    1.0000 </r>
       <r>   -1.5948    1.0000 </r>
       <r>   -1.5877    1.0000 </r>
       <r>   -1.5671    1.0000 </r>
       <r>   -1.5534    1.0000 </r>
       <r>   -1.5456    1.0000 </r>
       <r>   -1.5408    1.0000 </r>
       <r>   -1.5103    1.0000 </r>
       <r>   -1.4987    1.0000 </r>
       <r>   -1.4960    1.0000 </r>
       <r>   -1.4675    1.0000 </r>
       <r>   -1.4623    1.0000 </r>
       <r>   -1.4394    1.0000 </r>
       <r>   -1.4257    1.0000 </r>
       <r>   -1.4155    1.0000 </r>
       <r>   -1.3995    1.0000 </r>
       <r>   -1.3741    1.0000 </r>
       <r>   -1.3733    1.0000 </r>
       <r>   -1.3371    1.0000 </r>
       <r>   -1.3070    1.0000 </r>
       <r>   -1.2631    1.0000 </r>
       <r>   -1.2282    1.0000 </r>
       <r>   -1.2051    1.0000 </r>
       <r>   -1.1912    1.0000 </r>
       <r>   -1.1444    1.0000 </r>
       <r>   -1.1415    1.0000 </r>
       <r>   -1.1334    1.0000 </r>
       <r>   -1.0701    1.0000 </r>
       <r>   -1.0347    1.0000 </r>
       <r>   -0.9515    1.0000 </r>
       <r>   -0.8633    1.0000 </r>
       <r>   -0.8506    1.0000 </r>
       <r>   -0.7856    1.0000 </r>
       <r>   -0.3893    1.0000 </r>
       <r>   -0.3393    1.0000 </r>
       <r>   -0.3215    1.0000 </r>
       <r>    0.2052    1.0000 </r>
       <r>    2.6173    0.0000 </r>
       <r>    2.6258    0.0000 </r>
       <r>    2.7361    0.0000 </r>
       <r>    2.9336    0.0000 </r>
       <r>    2.9496    0.0000 </r>
       <r>    2.9666    0.0000 </r>
       <r>    2.9857    0.0000 </r>
       <r>    3.0658    0.0000 </r>
       <r>    3.1398    0.0000 </r>
       <r>    3.3099    0.0000 </r>
       <r>    3.3538    0.0000 </r>
       <r>    3.3872    0.0000 </r>
       <r>    4.7748    0.0000 </r>
       <r>    5.0294    0.0000 </r>
       <r>    5.2839    0.0000 </r>
       <r>    5.4779    0.0000 </r>
       <r>    5.5321    0.0000 </r>
       <r>    5.5977    0.0000 </r>
       <r>    5.6506    0.0000 </r>
       <r>    5.6913    0.0000 </r>
       <r>    5.7706    0.0000 </r>
       <r>    5.7893    0.0000 </r>
       <r>    5.8563    0.0000 </r>
       <r>    5.8961    0.0000 </r>
       <r>    5.9560    0.0000 </r>
       <r>    5.9947    0.0000 </r>
       <r>    6.0375    0.0000 </r>
       <r>    6.1192    0.0000 </r>
       <r>    6.1509    0.0000 </r>
       <r>    6.2633    0.0000 </r>
       <r>    6.3145    0.0000 </r>
       <r>    6.3469    0.0000 </r>
       <r>    6.3478    0.0000 </r>
       <r>    6.4422    0.0000 </r>
       <r>    6.4866    0.0000 </r>
       <r>    6.5344    0.0000 </r>
      </set>
      <set comment="kpoint 2">
       <r>  -21.5140    1.0000 </r>
       <r>  -21.0231    1.0000 </r>
       <r>  -21.0213    1.0000 </r>
       <r>  -20.9288    1.0000 </r>
       <r>  -20.9145    1.0000 </r>
       <r>  -20.9052    1.0000 </r>
       <r>  -20.8259    1.0000 </r>
       <r>  -16.7100    1.0000 </r>
       <r>  -16.6845    1.0000 </r>
       <r>  -16.6746    1.0000 </r>
       <r>  -16.6701    1.0000 </r>
       <r>  -16.6634    1.0000 </r>
       <r>  -16.6612    1.0000 </r>
       <r>  -16.6561    1.0000 </r>
       <r>  -16.6499    1.0000 </r>
       <r>  -16.6285    1.0000 </r>
       <r>  -16.6277    1.0000 </r>
       <r>  -16.6158    1.0000 </r>
       <r>  -16.6100    1.0000 </r>
       <r>  -16.5969    1.0000 </r>
       <r>  -16.5941    1.0000 </r>
       <r>  -16.5938    1.0000 </r>
       <r>  -16.5699    1.0000 </r>
       <r>  -16.5697    1.0000 </r>
       <r>  -16.5683    1.0000 </r>
       <r>  -16.5622    1.0000 </r>
       <r>  -16.5616    1.0000 </r>
       <r>  -16.5562    1.0000 </r>
       <r>  -16.5558    1.0000 </r>
       <r>  -16.5527    1.0000 </r>
       <r>  -16.5521    1.0000 </r>
       <r>  -16.5481    1.0000 </r>
       <r>  -16.5469    1.0000 </r>
       <r>  -16.5402    1.0000 </r>
       <r>  -16.5393    1.0000 </r>
       <r>  -16.5257    1.0000 </r>
       <r>  -16.5234    1.0000 </r>
       <r>  -16.5176    1.0000 </r>
       <r>  -16.5166    1.0000 </r>
       <r>  -16.5102    1.0000 </r>
       <r>  -16.5100    1.0000 </r>
       <r>  -16.5039    1.0000 </r>
       <r>  -16.5020    1.0000 </r>
       <r>  -16.5008    1.0000 </r>
       <r>  -16.4986    1.0000 </r>
       <r>  -16.4859    1.0000 </r>
       <r>  -16.4853    1.0000 </r>
       <r>  -14.4855    1.0000 </r>
       <r>  -14.4786    1.0000 </r>
       <r>  -14.3535    1.0000 </r>
       <r>  -14.3415    1.0000 </r>
       <r>  -14.3022    1.0000 </r>
       <r>  -14.2997    1.0000 </r>
       <r>  -14.2745    1.0000 </r>
       <r>  -14.2620    1.0000 </r>
       <r>  -14.1951    1.0000 </r>
       <r>  -14.1860    1.0000 </r>
       <r>  -14.1643    1.0000 </r>
       <r>  -14.1507    1.0000 </r>
       <r>  -14.1165    1.0000 </r>
       <r>  -14.1112    1.0000 </r>
       <r>  -14.1047    1.0000 </r>
       <r>  -14.0751    1.0000 </r>
       <r>  -14.0732    1.0000 </r>
       <r>  -14.0151    1.0000 </r>
       <r>  -13.9633    1.0000 </r>
       <r>  -13.9366    1.0000 </r>
       <r>  -13.9287    1.0000 </r>
       <r>  -13.8595    1.0000 </r>
       <r>  -13.8400    1.0000 </r>
       <r>  -13.8224    1.0000 </r>
       <r>   -8.1555    1.0000 </r>
       <r>   -8.1379    1.0000 </r>
       <r>   -7.8950    1.0000 </r>
       <r>   -7.8656    1.0000 </r>
       <r>   -7.8547    1.0000 </r>
       <r>   -7.6868    1.0000 </r>
       <r>   -7.6484    1.0000 </r>
       <r>   -7.6330    1.0000 </r>
       <r>   -7.6204    1.0000 </r>
       <r>   -7.4448    1.0000 </r>
       <r>   -7.4248    1.0000 </r>
       <r>   -7.4232    1.0000 </r>
       <r>   -7.4226    1.0000 </r>
       <r>   -7.4106    1.0000 </r>
       <r>   -7.4103    1.0000 </r>
       <r>   -7.3582    1.0000 </r>
       <r>   -7.3396    1.0000 </r>
       <r>   -7.3337    1.0000 </r>
       <r>   -7.3270    1.0000 </r>
       <r>   -7.3190    1.0000 </r>
       <r>   -7.3051    1.0000 </r>
       <r>   -7.3018    1.0000 </r>
       <r>   -7.2995    1.0000 </r>
       <r>   -7.2845    1.0000 </r>
       <r>   -7.2472    1.0000 </r>
       <r>   -7.2310    1.0000 </r>
       <r>   -7.2198    1.0000 </r>
       <r>   -7.0835    1.0000 </r>
       <r>   -7.0473    1.0000 </r>
       <r>   -3.4986    1.0000 </r>
       <r>   -3.4288    1.0000 </r>
       <r>   -3.4193    1.0000 </r>
       <r>   -3.3864    1.0000 </r>
       <r>   -3.3103    1.0000 </r>
       <r>   -3.3054    1.0000 </r>
       <r>   -3.2355    1.0000 </r>
       <r>   -3.1672    1.0000 </r>
       <r>   -2.7595    1.0000 </r>
       <r>   -2.7089    1.0000 </r>
       <r>   -2.6954    1.0000 </r>
       <r>   -2.6481    1.0000 </r>
       <r>   -2.6053    1.0000 </r>
       <r>   -2.5907    1.0000 </r>
       <r>   -2.5078    1.0000 </r>
       <r>   -2.4279    1.0000 </r>
       <r>   -2.2502    1.0000 </r>
       <r>   -2.2323    1.0000 </r>
       <r>   -2.2249    1.0000 </r>
       <r>   -2.1957    1.0000 </r>
       <r>   -2.1680    1.0000 </r>
       <r>   -2.0746    1.0000 </r>
       <r>   -1.9943    1.0000 </r>
       <r>   -1.9837    1.0000 </r>
       <r>   -1.9832    1.0000 </r>
       <r>   -1.8887    1.0000 </r>
       <r>   -1.8466    1.0000 </r>
       <r>   -1.7920    1.0000 </r>
       <r>   -1.7337    1.0000 </r>
       <r>   -1.6827    1.0000 </r>
       <r>   -1.6817    1.0000 </r>
       <r>   -1.6464    1.0000 </r>
       <r>   -1.6400    1.0000 </r>
       <r>   -1.6176    1.0000 </r>
       <r>   -1.6157    1.0000 </r>
       <r>   -1.5974    1.0000 </r>
       <r>   -1.5890    1.0000 </r>
       <r>   -1.5717    1.0000 </r>
       <r>   -1.5715    1.0000 </r>
       <r>   -1.5496    1.0000 </r>
       <r>   -1.5337    1.0000 </r>
       <r>   -1.5047    1.0000 </r>
       <r>   -1.5026    1.0000 </r>
       <r>   -1.4812    1.0000 </r>
       <r>   -1.4736    1.0000 </r>
       <r>   -1.4500    1.0000 </r>
       <r>   -1.4498    1.0000 </r>
       <r>   -1.4355    1.0000 </r>
       <r>   -1.4211    1.0000 </r>
       <r>   -1.4053    1.0000 </r>
       <r>   -1.3655    1.0000 </r>
       <r>   -1.3647    1.0000 </r>
       <r>   -1.3529    1.0000 </r>
       <r>   -1.3172    1.0000 </r>
       <r>   -1.3017    1.0000 </r>
       <r>   -1.2628    1.0000 </r>
       <r>   -1.2490    1.0000 </r>
       <r>   -1.2443    1.0000 </r>
       <r>   -1.2302    1.0000 </r>
       <r>   -1.2214    1.0000 </r>
       <r>   -1.1486    1.0000 </r>
       <r>   -1.1470    1.0000 </r>
       <r>   -1.1320    1.0000 </r>
       <r>   -1.0561    1.0000 </r>
       <r>   -0.9790    1.0000 </r>
       <r>   -0.9315    1.0000 </r>
       <r>   -0.7428    1.0000 </r>
       <r>   -0.7414    1.0000 </r>
       <r>   -0.6765    1.0000 </r>
       <r>   -0.6070    1.0000 </r>
       <r>   -0.2375    1.0000 </r>
       <r>   -0.0918    1.0000 </r>
       <r>    2.7432    0.0000 </r>
       <r>    2.7926    0.0000 </r>
       <r>    2.8173    0.0000 </r>
       <r>    2.8445    0.0000 </r>
       <r>    3.0792    0.0000 </r>
       <r>    3.1526    0.0000 </r>
       <r>    3.1947    0.0000 </r>
       <r>    3.2096    0.0000 </r>
       <r>    3.9081    0.0000 </r>
       <r>    4.1083    0.0000 </r>
       <r>    4.2459    0.0000 </r>
       <r>    4.3303    0.0000 </r>
       <r>    4.3906    0.0000 </r>
       <r>    4.4174    0.0000 </r>
       <r>    4.5040    0.0000 </r>
       <r>    4.6272    0.0000 </r>
       <r>    5.4197    0.0000 </r>
       <r>    5.4419    0.0000 </r>
       <r>    5.4702    0.0000 </r>
       <r>    5.4741    0.0000 </r>
       <r>    5.5337    0.0000 </r>
       <r>    5.6696    0.0000 </r>
       <r>    5.7443    0.0000 </r>
       <r>    5.7758    0.0000 </r>
       <r>    5.8479    0.0000 </r>
       <r>    5.9839    0.0000 </r>
       <r>    6.0315    0.0000 </r>
       <r>    6.0338    0.0000 </r>
       <r>    6.0971    0.0000 </r>
       <r>    6.1944    0.0000 </r>
       <r>    6.3287    0.0000 </r>
       <r>    6.3410    0.0000 </r>
       <r>    6.3613    0.0000 </r>
       <r>    6.4027    0.0000 </r>
       <r>    6.4777    0.0000 </r>
       <r>    6.5301    0.0000 </r>
      </set>
      <set comment="kpoint 3">
       <r>  -21.5140    1.0000 </r>
       <r>  -21.0231    1.0000 </r>
       <r>  -21.0212    1.0000 </r>
       <r>  -20.9288    1.0000 </r>
       <r>  -20.9145    1.0000 </r>
       <r>  -20.9052    1.0000 </r>
       <r>  -20.8259    1.0000 </r>
       <r>  -16.6966    1.0000 </r>
       <r>  -16.6918    1.0000 </r>
       <r>  -16.6773    1.0000 </r>
       <r>  -16.6717    1.0000 </r>
       <r>  -16.6651    1.0000 </r>
       <r>  -16.6609    1.0000 </r>
       <r>  -16.6473    1.0000 </r>
       <r>  -16.6424    1.0000 </r>
       <r>  -16.6394    1.0000 </r>
       <r>  -16.6364    1.0000 </r>
       <r>  -16.6152    1.0000 </r>
       <r>  -16.6118    1.0000 </r>
       <r>  -16.6000    1.0000 </r>
       <r>  -16.5906    1.0000 </r>
       <r>  -16.5809    1.0000 </r>
       <r>  -16.5799    1.0000 </r>
       <r>  -16.5692    1.0000 </r>
       <r>  -16.5689    1.0000 </r>
       <r>  -16.5620    1.0000 </r>
       <r>  -16.5618    1.0000 </r>
       <r>  -16.5562    1.0000 </r>
       <r>  -16.5561    1.0000 </r>
       <r>  -16.5525    1.0000 </r>
       <r>  -16.5521    1.0000 </r>
       <r>  -16.5474    1.0000 </r>
       <r>  -16.5473    1.0000 </r>
       <r>  -16.5399    1.0000 </r>
       <r>  -16.5395    1.0000 </r>
       <r>  -16.5249    1.0000 </r>
       <r>  -16.5240    1.0000 </r>
       <r>  -16.5172    1.0000 </r>
       <r>  -16.5170    1.0000 </r>
       <r>  -16.5101    1.0000 </r>
       <r>  -16.5100    1.0000 </r>
       <r>  -16.5031    1.0000 </r>
       <r>  -16.5022    1.0000 </r>
       <r>  -16.5002    1.0000 </r>
       <r>  -16.4992    1.0000 </r>
       <r>  -16.4856    1.0000 </r>
       <r>  -16.4855    1.0000 </r>
       <r>  -14.4863    1.0000 </r>
       <r>  -14.4779    1.0000 </r>
       <r>  -14.3516    1.0000 </r>
       <r>  -14.3483    1.0000 </r>
       <r>  -14.3253    1.0000 </r>
       <r>  -14.3205    1.0000 </r>
       <r>  -14.2312    1.0000 </r>
       <r>  -14.2155    1.0000 </r>
       <r>  -14.1874    1.0000 </r>
       <r>  -14.1789    1.0000 </r>
       <r>  -14.1687    1.0000 </r>
       <r>  -14.1590    1.0000 </r>
       <r>  -14.1497    1.0000 </r>
       <r>  -14.1264    1.0000 </r>
       <r>  -14.1191    1.0000 </r>
       <r>  -14.1164    1.0000 </r>
       <r>  -14.0103    1.0000 </r>
       <r>  -13.9860    1.0000 </r>
       <r>  -13.9805    1.0000 </r>
       <r>  -13.9433    1.0000 </r>
       <r>  -13.9120    1.0000 </r>
       <r>  -13.8843    1.0000 </r>
       <r>  -13.8308    1.0000 </r>
       <r>  -13.8300    1.0000 </r>
       <r>   -8.1229    1.0000 </r>
       <r>   -8.1228    1.0000 </r>
       <r>   -7.8958    1.0000 </r>
       <r>   -7.8686    1.0000 </r>
       <r>   -7.8640    1.0000 </r>
       <r>   -7.6562    1.0000 </r>
       <r>   -7.6516    1.0000 </r>
       <r>   -7.6457    1.0000 </r>
       <r>   -7.6427    1.0000 </r>
       <r>   -7.4436    1.0000 </r>
       <r>   -7.4250    1.0000 </r>
       <r>   -7.4199    1.0000 </r>
       <r>   -7.4177    1.0000 </r>
       <r>   -7.4124    1.0000 </r>
       <r>   -7.4110    1.0000 </r>
       <r>   -7.3576    1.0000 </r>
       <r>   -7.3390    1.0000 </r>
       <r>   -7.3275    1.0000 </r>
       <r>   -7.3270    1.0000 </r>
       <r>   -7.3158    1.0000 </r>
       <r>   -7.3076    1.0000 </r>
       <r>   -7.3041    1.0000 </r>
       <r>   -7.2975    1.0000 </r>
       <r>   -7.2808    1.0000 </r>
       <r>   -7.2487    1.0000 </r>
       <r>   -7.2372    1.0000 </r>
       <r>   -7.2261    1.0000 </r>
       <r>   -7.1108    1.0000 </r>
       <r>   -7.1012    1.0000 </r>
       <r>   -3.4282    1.0000 </r>
       <r>   -3.3871    1.0000 </r>
       <r>   -3.3669    1.0000 </r>
       <r>   -3.3471    1.0000 </r>
       <r>   -3.3069    1.0000 </r>
       <r>   -3.2619    1.0000 </r>
       <r>   -3.2093    1.0000 </r>
       <r>   -3.1984    1.0000 </r>
       <r>   -2.7108    1.0000 </r>
       <r>   -2.7007    1.0000 </r>
       <r>   -2.6540    1.0000 </r>
       <r>   -2.6402    1.0000 </r>
       <r>   -2.6168    1.0000 </r>
       <r>   -2.5586    1.0000 </r>
       <r>   -2.4722    1.0000 </r>
       <r>   -2.4350    1.0000 </r>
       <r>   -2.2397    1.0000 </r>
       <r>   -2.2335    1.0000 </r>
       <r>   -2.2187    1.0000 </r>
       <r>   -2.2051    1.0000 </r>
       <r>   -2.1949    1.0000 </r>
       <r>   -2.1005    1.0000 </r>
       <r>   -2.0421    1.0000 </r>
       <r>   -1.9893    1.0000 </r>
       <r>   -1.9729    1.0000 </r>
       <r>   -1.9364    1.0000 </r>
       <r>   -1.8911    1.0000 </r>
       <r>   -1.8565    1.0000 </r>
       <r>   -1.8286    1.0000 </r>
       <r>   -1.7588    1.0000 </r>
       <r>   -1.6876    1.0000 </r>
       <r>   -1.6566    1.0000 </r>
       <r>   -1.6536    1.0000 </r>
       <r>   -1.6204    1.0000 </r>
       <r>   -1.6042    1.0000 </r>
       <r>   -1.5864    1.0000 </r>
       <r>   -1.5733    1.0000 </r>
       <r>   -1.5636    1.0000 </r>
       <r>   -1.5445    1.0000 </r>
       <r>   -1.5426    1.0000 </r>
       <r>   -1.5301    1.0000 </r>
       <r>   -1.5159    1.0000 </r>
       <r>   -1.4960    1.0000 </r>
       <r>   -1.4816    1.0000 </r>
       <r>   -1.4695    1.0000 </r>
       <r>   -1.4682    1.0000 </r>
       <r>   -1.4472    1.0000 </r>
       <r>   -1.4031    1.0000 </r>
       <r>   -1.4008    1.0000 </r>
       <r>   -1.3987    1.0000 </r>
       <r>   -1.3901    1.0000 </r>
       <r>   -1.3570    1.0000 </r>
       <r>   -1.3378    1.0000 </r>
       <r>   -1.3375    1.0000 </r>
       <r>   -1.2768    1.0000 </r>
       <r>   -1.2678    1.0000 </r>
       <r>   -1.2477    1.0000 </r>
       <r>   -1.2190    1.0000 </r>
       <r>   -1.1949    1.0000 </r>
       <r>   -1.1886    1.0000 </r>
       <r>   -1.1800    1.0000 </r>
       <r>   -1.1602    1.0000 </r>
       <r>   -1.1308    1.0000 </r>
       <r>   -1.1125    1.0000 </r>
       <r>   -0.9371    1.0000 </r>
       <r>   -0.9233    1.0000 </r>
       <r>   -0.7801    1.0000 </r>
       <r>   -0.7687    1.0000 </r>
       <r>   -0.7384    1.0000 </r>
       <r>   -0.6733    1.0000 </r>
       <r>   -0.2466    1.0000 </r>
       <r>   -0.1780    1.0000 </r>
       <r>    2.7635    0.0000 </r>
       <r>    2.7664    0.0000 </r>
       <r>    2.9233    0.0000 </r>
       <r>    2.9241    0.0000 </r>
       <r>    3.1336    0.0000 </r>
       <r>    3.1486    0.0000 </r>
       <r>    3.1495    0.0000 </r>
       <r>    3.1798    0.0000 </r>
       <r>    4.0169    0.0000 </r>
       <r>    4.1591    0.0000 </r>
       <r>    4.2994    0.0000 </r>
       <r>    4.3856    0.0000 </r>
       <r>    4.4350    0.0000 </r>
       <r>    4.4469    0.0000 </r>
       <r>    4.6211    0.0000 </r>
       <r>    4.7081    0.0000 </r>
       <r>    5.4071    0.0000 </r>
       <r>    5.4203    0.0000 </r>
       <r>    5.4661    0.0000 </r>
       <r>    5.4825    0.0000 </r>
       <r>    5.5226    0.0000 </r>
       <r>    5.5412    0.0000 </r>
       <r>    5.7356    0.0000 </r>
       <r>    5.7840    0.0000 </r>
       <r>    5.7962    0.0000 </r>
       <r>    5.8455    0.0000 </r>
       <r>    5.9640    0.0000 </r>
       <r>    6.1145    0.0000 </r>
       <r>    6.2299    0.0000 </r>
       <r>    6.2711    0.0000 </r>
       <r>    6.3381    0.0000 </r>
       <r>    6.3675    0.0000 </r>
       <r>    6.4376    0.0000 </r>
       <r>    6.4857    0.0000 </r>
       <r>    6.5218    0.0000 </r>
       <r>    6.5259    0.0000 </r>
      </set>
      <set comment="kpoint 4">
       <r>  -21.5140    1.0000 </r>
       <r>  -21.0231    1.0000 </r>
       <r>  -21.0213    1.0000 </r>
       <r>  -20.9289    1.0000 </r>
       <r>  -20.9145    1.0000 </r>
       <r>  -20.9052    1.0000 </r>
       <r>  -20.8259    1.0000 </r>
       <r>  -16.6864    1.0000 </r>
       <r>  -16.6762    1.0000 </r>
       <r>  -16.6698    1.0000 </r>
       <r>  -16.6695    1.0000 </r>
       <r>  -16.6652    1.0000 </r>
       <r>  -16.6629    1.0000 </r>
       <r>  -16.6554    1.0000 </r>
       <r>  -16.6495    1.0000 </r>
       <r>  -16.6382    1.0000 </r>
       <r>  -16.6307    1.0000 </r>
       <r>  -16.6106    1.0000 </r>
       <r>  -16.6080    1.0000 </r>
       <r>  -16.6043    1.0000 </r>
       <r>  -16.5979    1.0000 </r>
       <r>  -16.5948    1.0000 </r>
       <r>  -16.5912    1.0000 </r>
       <r>  -16.5693    1.0000 </r>
       <r>  -16.5689    1.0000 </r>
       <r>  -16.5620    1.0000 </r>
       <r>  -16.5618    1.0000 </r>
       <r>  -16.5561    1.0000 </r>
       <r>  -16.5560    1.0000 </r>
       <r>  -16.5525    1.0000 </r>
       <r>  -16.5522    1.0000 </r>
       <r>  -16.5475    1.0000 </r>
       <r>  -16.5474    1.0000 </r>
       <r>  -16.5400    1.0000 </r>
       <r>  -16.5395    1.0000 </r>
       <r>  -16.5249    1.0000 </r>
       <r>  -16.5240    1.0000 </r>
       <r>  -16.5172    1.0000 </r>
       <r>  -16.5171    1.0000 </r>
       <r>  -16.5101    1.0000 </r>
       <r>  -16.5101    1.0000 </r>
       <r>  -16.5031    1.0000 </r>
       <r>  -16.5023    1.0000 </r>
       <r>  -16.5003    1.0000 </r>
       <r>  -16.4992    1.0000 </r>
       <r>  -16.4856    1.0000 </r>
       <r>  -16.4855    1.0000 </r>
       <r>  -14.4461    1.0000 </r>
       <r>  -14.4446    1.0000 </r>
       <r>  -14.4295    1.0000 </r>
       <r>  -14.4105    1.0000 </r>
       <r>  -14.3273    1.0000 </r>
       <r>  -14.3135    1.0000 </r>
       <r>  -14.2744    1.0000 </r>
       <r>  -14.2248    1.0000 </r>
       <r>  -14.1792    1.0000 </r>
       <r>  -14.1747    1.0000 </r>
       <r>  -14.1333    1.0000 </r>
       <r>  -14.1191    1.0000 </r>
       <r>  -14.1131    1.0000 </r>
       <r>  -14.1071    1.0000 </r>
       <r>  -14.0788    1.0000 </r>
       <r>  -14.0645    1.0000 </r>
       <r>  -14.0427    1.0000 </r>
       <r>  -14.0134    1.0000 </r>
       <r>  -14.0000    1.0000 </r>
       <r>  -13.9490    1.0000 </r>
       <r>  -13.9127    1.0000 </r>
       <r>  -13.8852    1.0000 </r>
       <r>  -13.8474    1.0000 </r>
       <r>  -13.8442    1.0000 </r>
       <r>   -7.9354    1.0000 </r>
       <r>   -7.9123    1.0000 </r>
       <r>   -7.9090    1.0000 </r>
       <r>   -7.9075    1.0000 </r>
       <r>   -7.8943    1.0000 </r>
       <r>   -7.8567    1.0000 </r>
       <r>   -7.8362    1.0000 </r>
       <r>   -7.4686    1.0000 </r>
       <r>   -7.4618    1.0000 </r>
       <r>   -7.4527    1.0000 </r>
       <r>   -7.4428    1.0000 </r>
       <r>   -7.4227    1.0000 </r>
       <r>   -7.4181    1.0000 </r>
       <r>   -7.4036    1.0000 </r>
       <r>   -7.3954    1.0000 </r>
       <r>   -7.3953    1.0000 </r>
       <r>   -7.3618    1.0000 </r>
       <r>   -7.3426    1.0000 </r>
       <r>   -7.3371    1.0000 </r>
       <r>   -7.3244    1.0000 </r>
       <r>   -7.3186    1.0000 </r>
       <r>   -7.3159    1.0000 </r>
       <r>   -7.3069    1.0000 </r>
       <r>   -7.3058    1.0000 </r>
       <r>   -7.2915    1.0000 </r>
       <r>   -7.2657    1.0000 </r>
       <r>   -7.2462    1.0000 </r>
       <r>   -7.2342    1.0000 </r>
       <r>   -7.2152    1.0000 </r>
       <r>   -3.3529    1.0000 </r>
       <r>   -3.3230    1.0000 </r>
       <r>   -3.2450    1.0000 </r>
       <r>   -3.2412    1.0000 </r>
       <r>   -2.9704    1.0000 </r>
       <r>   -2.8619    1.0000 </r>
       <r>   -2.8527    1.0000 </r>
       <r>   -2.7319    1.0000 </r>
       <r>   -2.7017    1.0000 </r>
       <r>   -2.6977    1.0000 </r>
       <r>   -2.6583    1.0000 </r>
       <r>   -2.6093    1.0000 </r>
       <r>   -2.6025    1.0000 </r>
       <r>   -2.5595    1.0000 </r>
       <r>   -2.5318    1.0000 </r>
       <r>   -2.5125    1.0000 </r>
       <r>   -2.4449    1.0000 </r>
       <r>   -2.4321    1.0000 </r>
       <r>   -2.3694    1.0000 </r>
       <r>   -2.3555    1.0000 </r>
       <r>   -2.1833    1.0000 </r>
       <r>   -2.1822    1.0000 </r>
       <r>   -2.1562    1.0000 </r>
       <r>   -2.0902    1.0000 </r>
       <r>   -1.9618    1.0000 </r>
       <r>   -1.9423    1.0000 </r>
       <r>   -1.9206    1.0000 </r>
       <r>   -1.8912    1.0000 </r>
       <r>   -1.8895    1.0000 </r>
       <r>   -1.8505    1.0000 </r>
       <r>   -1.8106    1.0000 </r>
       <r>   -1.7955    1.0000 </r>
       <r>   -1.7690    1.0000 </r>
       <r>   -1.7389    1.0000 </r>
       <r>   -1.7316    1.0000 </r>
       <r>   -1.6325    1.0000 </r>
       <r>   -1.6071    1.0000 </r>
       <r>   -1.5762    1.0000 </r>
       <r>   -1.5654    1.0000 </r>
       <r>   -1.5565    1.0000 </r>
       <r>   -1.5405    1.0000 </r>
       <r>   -1.5024    1.0000 </r>
       <r>   -1.4985    1.0000 </r>
       <r>   -1.4739    1.0000 </r>
       <r>   -1.4310    1.0000 </r>
       <r>   -1.4269    1.0000 </r>
       <r>   -1.3944    1.0000 </r>
       <r>   -1.3928    1.0000 </r>
       <r>   -1.3785    1.0000 </r>
       <r>   -1.3568    1.0000 </r>
       <r>   -1.3451    1.0000 </r>
       <r>   -1.3326    1.0000 </r>
       <r>   -1.3319    1.0000 </r>
       <r>   -1.2930    1.0000 </r>
       <r>   -1.2827    1.0000 </r>
       <r>   -1.2638    1.0000 </r>
       <r>   -1.2417    1.0000 </r>
       <r>   -1.2319    1.0000 </r>
       <r>   -1.2025    1.0000 </r>
       <r>   -1.2019    1.0000 </r>
       <r>   -1.1698    1.0000 </r>
       <r>   -1.1675    1.0000 </r>
       <r>   -1.1572    1.0000 </r>
       <r>   -1.0892    1.0000 </r>
       <r>   -1.0147    1.0000 </r>
       <r>   -0.9980    1.0000 </r>
       <r>   -0.9149    1.0000 </r>
       <r>   -0.8739    1.0000 </r>
       <r>   -0.6418    1.0000 </r>
       <r>   -0.6084    1.0000 </r>
       <r>   -0.6027    1.0000 </r>
       <r>   -0.5056    1.0000 </r>
       <r>    2.9769    0.0000 </r>
       <r>    2.9782    0.0000 </r>
       <r>    2.9869    0.0000 </r>
       <r>    2.9954    0.0000 </r>
       <r>    3.7270    0.0000 </r>
       <r>    4.0125    0.0000 </r>
       <r>    4.0163    0.0000 </r>
       <r>    4.1437    0.0000 </r>
       <r>    4.1866    0.0000 </r>
       <r>    4.2748    0.0000 </r>
       <r>    4.3065    0.0000 </r>
       <r>    4.3086    0.0000 </r>
       <r>    4.3826    0.0000 </r>
       <r>    4.4308    0.0000 </r>
       <r>    4.4963    0.0000 </r>
       <r>    4.5204    0.0000 </r>
       <r>    4.5576    0.0000 </r>
       <r>    4.6357    0.0000 </r>
       <r>    4.7042    0.0000 </r>
       <r>    4.9424    0.0000 </r>
       <r>    5.5885    0.0000 </r>
       <r>    5.5910    0.0000 </r>
       <r>    5.6537    0.0000 </r>
       <r>    5.7256    0.0000 </r>
       <r>    5.8222    0.0000 </r>
       <r>    5.9181    0.0000 </r>
       <r>    5.9313    0.0000 </r>
       <r>    5.9680    0.0000 </r>
       <r>    6.0757    0.0000 </r>
       <r>    6.1263    0.0000 </r>
       <r>    6.1710    0.0000 </r>
       <r>    6.2752    0.0000 </r>
       <r>    6.3173    0.0000 </r>
       <r>    6.3771    0.0000 </r>
       <r>    6.4041    0.0000 </r>
       <r>    6.4767    0.0000 </r>
      </set>
      <set comment="kpoint 5">
       <r>  -21.5140    1.0000 </r>
       <r>  -21.0231    1.0000 </r>
       <r>  -21.0213    1.0000 </r>
       <r>  -20.9288    1.0000 </r>
       <r>  -20.9145    1.0000 </r>
       <r>  -20.9052    1.0000 </r>
       <r>  -20.8259    1.0000 </r>
       <r>  -16.7144    1.0000 </r>
       <r>  -16.6841    1.0000 </r>
       <r>  -16.6839    1.0000 </r>
       <r>  -16.6690    1.0000 </r>
       <r>  -16.6680    1.0000 </r>
       <r>  -16.6429    1.0000 </r>
       <r>  -16.6406    1.0000 </r>
       <r>  -16.6387    1.0000 </r>
       <r>  -16.6357    1.0000 </r>
       <r>  -16.6332    1.0000 </r>
       <r>  -16.6265    1.0000 </r>
       <r>  -16.6167    1.0000 </r>
       <r>  -16.6039    1.0000 </r>
       <r>  -16.5928    1.0000 </r>
       <r>  -16.5895    1.0000 </r>
       <r>  -16.5699    1.0000 </r>
       <r>  -16.5684    1.0000 </r>
       <r>  -16.5663    1.0000 </r>
       <r>  -16.5623    1.0000 </r>
       <r>  -16.5617    1.0000 </r>
       <r>  -16.5564    1.0000 </r>
       <r>  -16.5560    1.0000 </r>
       <r>  -16.5525    1.0000 </r>
       <r>  -16.5517    1.0000 </r>
       <r>  -16.5480    1.0000 </r>
       <r>  -16.5468    1.0000 </r>
       <r>  -16.5401    1.0000 </r>
       <r>  -16.5392    1.0000 </r>
       <r>  -16.5257    1.0000 </r>
       <r>  -16.5235    1.0000 </r>
       <r>  -16.5176    1.0000 </r>
       <r>  -16.5167    1.0000 </r>
       <r>  -16.5102    1.0000 </r>
       <r>  -16.5099    1.0000 </r>
       <r>  -16.5039    1.0000 </r>
       <r>  -16.5021    1.0000 </r>
       <r>  -16.5008    1.0000 </r>
       <r>  -16.4987    1.0000 </r>
       <r>  -16.4859    1.0000 </r>
       <r>  -16.4852    1.0000 </r>
       <r>  -14.5044    1.0000 </r>
       <r>  -14.4575    1.0000 </r>
       <r>  -14.3522    1.0000 </r>
       <r>  -14.3491    1.0000 </r>
       <r>  -14.2918    1.0000 </r>
       <r>  -14.2666    1.0000 </r>
       <r>  -14.2663    1.0000 </r>
       <r>  -14.2475    1.0000 </r>
       <r>  -14.2128    1.0000 </r>
       <r>  -14.2118    1.0000 </r>
       <r>  -14.1737    1.0000 </r>
       <r>  -14.1721    1.0000 </r>
       <r>  -14.1636    1.0000 </r>
       <r>  -14.1462    1.0000 </r>
       <r>  -14.1045    1.0000 </r>
       <r>  -14.0508    1.0000 </r>
       <r>  -14.0085    1.0000 </r>
       <r>  -13.9977    1.0000 </r>
       <r>  -13.9734    1.0000 </r>
       <r>  -13.9245    1.0000 </r>
       <r>  -13.9058    1.0000 </r>
       <r>  -13.8647    1.0000 </r>
       <r>  -13.8572    1.0000 </r>
       <r>  -13.8370    1.0000 </r>
       <r>   -8.1523    1.0000 </r>
       <r>   -8.1355    1.0000 </r>
       <r>   -7.8956    1.0000 </r>
       <r>   -7.8693    1.0000 </r>
       <r>   -7.8656    1.0000 </r>
       <r>   -7.6697    1.0000 </r>
       <r>   -7.6519    1.0000 </r>
       <r>   -7.6418    1.0000 </r>
       <r>   -7.6104    1.0000 </r>
       <r>   -7.4424    1.0000 </r>
       <r>   -7.4296    1.0000 </r>
       <r>   -7.4260    1.0000 </r>
       <r>   -7.4150    1.0000 </r>
       <r>   -7.4109    1.0000 </r>
       <r>   -7.4070    1.0000 </r>
       <r>   -7.3575    1.0000 </r>
       <r>   -7.3347    1.0000 </r>
       <r>   -7.3287    1.0000 </r>
       <r>   -7.3217    1.0000 </r>
       <r>   -7.3193    1.0000 </r>
       <r>   -7.3114    1.0000 </r>
       <r>   -7.3090    1.0000 </r>
       <r>   -7.2937    1.0000 </r>
       <r>   -7.2850    1.0000 </r>
       <r>   -7.2470    1.0000 </r>
       <r>   -7.2374    1.0000 </r>
       <r>   -7.2217    1.0000 </r>
       <r>   -7.0855    1.0000 </r>
       <r>   -7.0579    1.0000 </r>
       <r>   -3.4851    1.0000 </r>
       <r>   -3.4706    1.0000 </r>
       <r>   -3.3916    1.0000 </r>
       <r>   -3.3897    1.0000 </r>
       <r>   -3.3798    1.0000 </r>
       <r>   -3.3779    1.0000 </r>
       <r>   -3.2560    1.0000 </r>
       <r>   -3.1858    1.0000 </r>
       <r>   -2.7304    1.0000 </r>
       <r>   -2.6504    1.0000 </r>
       <r>   -2.6227    1.0000 </r>
       <r>   -2.6127    1.0000 </r>
       <r>   -2.5542    1.0000 </r>
       <r>   -2.5388    1.0000 </r>
       <r>   -2.4711    1.0000 </r>
       <r>   -2.3652    1.0000 </r>
       <r>   -2.2692    1.0000 </r>
       <r>   -2.2457    1.0000 </r>
       <r>   -2.2283    1.0000 </r>
       <r>   -2.1828    1.0000 </r>
       <r>   -2.1262    1.0000 </r>
       <r>   -2.0676    1.0000 </r>
       <r>   -2.0007    1.0000 </r>
       <r>   -1.9992    1.0000 </r>
       <r>   -1.9111    1.0000 </r>
       <r>   -1.8854    1.0000 </r>
       <r>   -1.8746    1.0000 </r>
       <r>   -1.8231    1.0000 </r>
       <r>   -1.7593    1.0000 </r>
       <r>   -1.7379    1.0000 </r>
       <r>   -1.7233    1.0000 </r>
       <r>   -1.6801    1.0000 </r>
       <r>   -1.6796    1.0000 </r>
       <r>   -1.6361    1.0000 </r>
       <r>   -1.6131    1.0000 </r>
       <r>   -1.6120    1.0000 </r>
       <r>   -1.6048    1.0000 </r>
       <r>   -1.5967    1.0000 </r>
       <r>   -1.5874    1.0000 </r>
       <r>   -1.5618    1.0000 </r>
       <r>   -1.5394    1.0000 </r>
       <r>   -1.5142    1.0000 </r>
       <r>   -1.5001    1.0000 </r>
       <r>   -1.4906    1.0000 </r>
       <r>   -1.4475    1.0000 </r>
       <r>   -1.4439    1.0000 </r>
       <r>   -1.4323    1.0000 </r>
       <r>   -1.4226    1.0000 </r>
       <r>   -1.4124    1.0000 </r>
       <r>   -1.3841    1.0000 </r>
       <r>   -1.3786    1.0000 </r>
       <r>   -1.3511    1.0000 </r>
       <r>   -1.3296    1.0000 </r>
       <r>   -1.3198    1.0000 </r>
       <r>   -1.2926    1.0000 </r>
       <r>   -1.2611    1.0000 </r>
       <r>   -1.2394    1.0000 </r>
       <r>   -1.2128    1.0000 </r>
       <r>   -1.2118    1.0000 </r>
       <r>   -1.1870    1.0000 </r>
       <r>   -1.1544    1.0000 </r>
       <r>   -1.1448    1.0000 </r>
       <r>   -1.1293    1.0000 </r>
       <r>   -1.0498    1.0000 </r>
       <r>   -0.9942    1.0000 </r>
       <r>   -0.9702    1.0000 </r>
       <r>   -0.7690    1.0000 </r>
       <r>   -0.7136    1.0000 </r>
       <r>   -0.7004    1.0000 </r>
       <r>   -0.6369    1.0000 </r>
       <r>   -0.2518    1.0000 </r>
       <r>   -0.1995    1.0000 </r>
       <r>    2.7558    0.0000 </r>
       <r>    2.8074    0.0000 </r>
       <r>    2.8211    0.0000 </r>
       <r>    2.9060    0.0000 </r>
       <r>    3.0998    0.0000 </r>
       <r>    3.1383    0.0000 </r>
       <r>    3.1644    0.0000 </r>
       <r>    3.2015    0.0000 </r>
       <r>    3.9960    0.0000 </r>
       <r>    4.1046    0.0000 </r>
       <r>    4.2993    0.0000 </r>
       <r>    4.3662    0.0000 </r>
       <r>    4.3969    0.0000 </r>
       <r>    4.4833    0.0000 </r>
       <r>    4.5910    0.0000 </r>
       <r>    4.6963    0.0000 </r>
       <r>    5.0756    0.0000 </r>
       <r>    5.2974    0.0000 </r>
       <r>    5.3909    0.0000 </r>
       <r>    5.5727    0.0000 </r>
       <r>    5.5793    0.0000 </r>
       <r>    5.6824    0.0000 </r>
       <r>    5.7578    0.0000 </r>
       <r>    5.7826    0.0000 </r>
       <r>    5.8745    0.0000 </r>
       <r>    5.8796    0.0000 </r>
       <r>    6.0053    0.0000 </r>
       <r>    6.0084    0.0000 </r>
       <r>    6.1138    0.0000 </r>
       <r>    6.1382    0.0000 </r>
       <r>    6.3347    0.0000 </r>
       <r>    6.3912    0.0000 </r>
       <r>    6.4242    0.0000 </r>
       <r>    6.4564    0.0000 </r>
       <r>    6.5118    0.0000 </r>
       <r>    6.5220    0.0000 </r>
      </set>
      <set comment="kpoint 6">
       <r>  -21.5140    1.0000 </r>
       <r>  -21.0231    1.0000 </r>
       <r>  -21.0212    1.0000 </r>
       <r>  -20.9288    1.0000 </r>
       <r>  -20.9144    1.0000 </r>
       <r>  -20.9052    1.0000 </r>
       <r>  -20.8258    1.0000 </r>
       <r>  -16.7089    1.0000 </r>
       <r>  -16.6818    1.0000 </r>
       <r>  -16.6650    1.0000 </r>
       <r>  -16.6647    1.0000 </r>
       <r>  -16.6599    1.0000 </r>
       <r>  -16.6495    1.0000 </r>
       <r>  -16.6494    1.0000 </r>
       <r>  -16.6425    1.0000 </r>
       <r>  -16.6317    1.0000 </r>
       <r>  -16.6235    1.0000 </r>
       <r>  -16.6226    1.0000 </r>
       <r>  -16.6214    1.0000 </r>
       <r>  -16.6069    1.0000 </r>
       <r>  -16.6062    1.0000 </r>
       <r>  -16.6010    1.0000 </r>
       <r>  -16.5733    1.0000 </r>
       <r>  -16.5699    1.0000 </r>
       <r>  -16.5683    1.0000 </r>
       <r>  -16.5622    1.0000 </r>
       <r>  -16.5616    1.0000 </r>
       <r>  -16.5562    1.0000 </r>
       <r>  -16.5558    1.0000 </r>
       <r>  -16.5524    1.0000 </r>
       <r>  -16.5517    1.0000 </r>
       <r>  -16.5480    1.0000 </r>
       <r>  -16.5467    1.0000 </r>
       <r>  -16.5401    1.0000 </r>
       <r>  -16.5392    1.0000 </r>
       <r>  -16.5256    1.0000 </r>
       <r>  -16.5233    1.0000 </r>
       <r>  -16.5176    1.0000 </r>
       <r>  -16.5166    1.0000 </r>
       <r>  -16.5101    1.0000 </r>
       <r>  -16.5099    1.0000 </r>
       <r>  -16.5039    1.0000 </r>
       <r>  -16.5020    1.0000 </r>
       <r>  -16.5008    1.0000 </r>
       <r>  -16.4986    1.0000 </r>
       <r>  -16.4859    1.0000 </r>
       <r>  -16.4852    1.0000 </r>
       <r>  -14.4644    1.0000 </r>
       <r>  -14.4622    1.0000 </r>
       <r>  -14.3982    1.0000 </r>
       <r>  -14.3590    1.0000 </r>
       <r>  -14.3380    1.0000 </r>
       <r>  -14.2931    1.0000 </r>
       <r>  -14.2817    1.0000 </r>
       <r>  -14.2635    1.0000 </r>
       <r>  -14.2107    1.0000 </r>
       <r>  -14.1909    1.0000 </r>
       <r>  -14.1772    1.0000 </r>
       <r>  -14.1275    1.0000 </r>
       <r>  -14.1088    1.0000 </r>
       <r>  -14.0788    1.0000 </r>
       <r>  -14.0675    1.0000 </r>
       <r>  -14.0375    1.0000 </r>
       <r>  -14.0330    1.0000 </r>
       <r>  -14.0115    1.0000 </r>
       <r>  -13.9665    1.0000 </r>
       <r>  -13.9523    1.0000 </r>
       <r>  -13.9279    1.0000 </r>
       <r>  -13.8704    1.0000 </r>
       <r>  -13.8681    1.0000 </r>
       <r>  -13.8472    1.0000 </r>
       <r>   -7.9677    1.0000 </r>
       <r>   -7.9602    1.0000 </r>
       <r>   -7.9217    1.0000 </r>
       <r>   -7.8957    1.0000 </r>
       <r>   -7.8703    1.0000 </r>
       <r>   -7.8655    1.0000 </r>
       <r>   -7.8387    1.0000 </r>
       <r>   -7.4695    1.0000 </r>
       <r>   -7.4683    1.0000 </r>
       <r>   -7.4541    1.0000 </r>
       <r>   -7.4334    1.0000 </r>
       <r>   -7.4259    1.0000 </r>
       <r>   -7.4143    1.0000 </r>
       <r>   -7.4118    1.0000 </r>
       <r>   -7.4027    1.0000 </r>
       <r>   -7.3579    1.0000 </r>
       <r>   -7.3385    1.0000 </r>
       <r>   -7.3320    1.0000 </r>
       <r>   -7.3308    1.0000 </r>
       <r>   -7.3278    1.0000 </r>
       <r>   -7.3094    1.0000 </r>
       <r>   -7.3073    1.0000 </r>
       <r>   -7.3011    1.0000 </r>
       <r>   -7.2908    1.0000 </r>
       <r>   -7.2859    1.0000 </r>
       <r>   -7.2714    1.0000 </r>
       <r>   -7.2414    1.0000 </r>
       <r>   -7.2217    1.0000 </r>
       <r>   -7.2147    1.0000 </r>
       <r>   -3.4677    1.0000 </r>
       <r>   -3.4506    1.0000 </r>
       <r>   -3.3883    1.0000 </r>
       <r>   -3.3255    1.0000 </r>
       <r>   -2.9274    1.0000 </r>
       <r>   -2.8499    1.0000 </r>
       <r>   -2.8058    1.0000 </r>
       <r>   -2.7833    1.0000 </r>
       <r>   -2.7404    1.0000 </r>
[...]
        <r>  0.0003  0.0005  0.0008 </r>
        <r>  0.0012  0.0011  0.0014 </r>
        <r>  0.0007  0.0015  0.0011 </r>
        <r>  0.0000  0.0016  0.0002 </r>
        <r>  0.0002  0.0017  0.0011 </r>
        <r>  0.0003  0.0014  0.0003 </r>
        <r>  0.0002  0.0007  0.0005 </r>
        <r>  0.0014  0.0022  0.0016 </r>
        <r>  0.0000  0.0002  0.0057 </r>
       </set>
       <set comment="band 199">
        <r>  0.0000  0.0004  0.0004 </r>
        <r>  0.0000  0.0000  0.0008 </r>
        <r>  0.0067  0.0003  0.0051 </r>
        <r>  0.0000  0.0004  0.0046 </r>
        <r>  0.0000  0.0000  0.0006 </r>
        <r>  0.0008  0.0009  0.0458 </r>
        <r>  0.0000  0.0036  0.0001 </r>
        <r>  0.0001  0.0010  0.0002 </r>
        <r>  0.0000  0.0051  0.0004 </r>
        <r>  0.0000  0.0011  0.0001 </r>
        <r>  0.0000  0.0051  0.0004 </r>
        <r>  0.0000  0.0011  0.0001 </r>
        <r>  0.0000  0.0036  0.0001 </r>
        <r>  0.0001  0.0010  0.0002 </r>
        <r>  0.0004  0.0014  0.0038 </r>
        <r>  0.0006  0.0035  0.0054 </r>
        <r>  0.0000  0.0015  0.0000 </r>
        <r>  0.0000  0.0008  0.0005 </r>
        <r>  0.0008  0.0024  0.0043 </r>
        <r>  0.0006  0.0030  0.0019 </r>
        <r>  0.0000  0.0024  0.0002 </r>
        <r>  0.0000  0.0016  0.0001 </r>
        <r>  0.0000  0.0006  0.0006 </r>
        <r>  0.0000  0.0006  0.0002 </r>
        <r>  0.0001  0.0024  0.0018 </r>
        <r>  0.0002  0.0002  0.0002 </r>
        <r>  0.0002  0.0003  0.0001 </r>
        <r>  0.0001  0.0025  0.0006 </r>
        <r>  0.0001  0.0026  0.0005 </r>
        <r>  0.0025  0.0016  0.0011 </r>
        <r>  0.0000  0.0006  0.0006 </r>
        <r>  0.0000  0.0006  0.0002 </r>
        <r>  0.0001  0.0024  0.0018 </r>
        <r>  0.0002  0.0002  0.0002 </r>
        <r>  0.0001  0.0026  0.0005 </r>
        <r>  0.0025  0.0016  0.0011 </r>
        <r>  0.0002  0.0003  0.0001 </r>
        <r>  0.0001  0.0025  0.0006 </r>
        <r>  0.0002  0.0025  0.0557 </r>
       </set>
       <set comment="band 200">
        <r>  0.0174  0.0014  0.0051 </r>
        <r>  0.0004  0.0005  0.0056 </r>
        <r>  0.0000  0.0000  0.0063 </r>
        <r>  0.0005  0.0013  0.0018 </r>
        <r>  0.0002  0.0016  0.0035 </r>
        <r>  0.0000  0.0007  0.0001 </r>
        <r>  0.0000  0.0031  0.0001 </r>
        <r>  0.0003  0.0048  0.0003 </r>
        <r>  0.0000  0.0044  0.0003 </r>
        <r>  0.0001  0.0075  0.0003 </r>
        <r>  0.0000  0.0044  0.0003 </r>
        <r>  0.0001  0.0075  0.0003 </r>
        <r>  0.0000  0.0031  0.0001 </r>
        <r>  0.0003  0.0048  0.0003 </r>
        <r>  0.0000  0.0004  0.0002 </r>
        <r>  0.0000  0.0027  0.0003 </r>
        <r>  0.0004  0.0000  0.0012 </r>
        <r>  0.0046  0.0033  0.0019 </r>
        <r>  0.0000  0.0003  0.0000 </r>
        <r>  0.0000  0.0023  0.0001 </r>
        <r>  0.0010  0.0034  0.0003 </r>
        <r>  0.0014  0.0021  0.0012 </r>
        <r>  0.0005  0.0012  0.0014 </r>
        <r>  0.0003  0.0019  0.0006 </r>
        <r>  0.0012  0.0006  0.0027 </r>
        <r>  0.0001  0.0042  0.0002 </r>
        <r>  0.0001  0.0027  0.0002 </r>
        <r>  0.0016  0.0014  0.0029 </r>
        <r>  0.0002  0.0032  0.0006 </r>
        <r>  0.0016  0.0006  0.0004 </r>
        <r>  0.0005  0.0012  0.0014 </r>
        <r>  0.0003  0.0019  0.0006 </r>
        <r>  0.0012  0.0006  0.0027 </r>
        <r>  0.0001  0.0042  0.0002 </r>
        <r>  0.0002  0.0032  0.0006 </r>
        <r>  0.0016  0.0006  0.0004 </r>
        <r>  0.0001  0.0027  0.0002 </r>
        <r>  0.0016  0.0014  0.0029 </r>
        <r>  0.0000  0.0000  0.0470 </r>
       </set>
       <set comment="band 201">
        <r>  0.0000  0.0028  0.0097 </r>
        <r>  0.0104  0.0019  0.0093 </r>
        <r>  0.0000  0.0003  0.0028 </r>
        <r>  0.0018  0.0011  0.0106 </r>
        <r>  0.0092  0.0009  0.0071 </r>
        <r>  0.0000  0.0001  0.0065 </r>
        <r>  0.0000  0.0082  0.0002 </r>
        <r>  0.0000  0.0039  0.0000 </r>
        <r>  0.0000  0.0101  0.0001 </r>
        <r>  0.0000  0.0012  0.0002 </r>
        <r>  0.0000  0.0101  0.0001 </r>
        <r>  0.0000  0.0012  0.0002 </r>
        <r>  0.0000  0.0082  0.0002 </r>
        <r>  0.0000  0.0039  0.0000 </r>
        <r>  0.0000  0.0030  0.0003 </r>
        <r>  0.0000  0.0000  0.0003 </r>
        <r>  0.0044  0.0031  0.0060 </r>
        <r>  0.0004  0.0001  0.0024 </r>
        <r>  0.0000  0.0113  0.0002 </r>
        <r>  0.0000  0.0002  0.0000 </r>
        <r>  0.0039  0.0065  0.0039 </r>
        <r>  0.0004  0.0026  0.0004 </r>
        <r>  0.0011  0.0042  0.0013 </r>
        <r>  0.0001  0.0017  0.0011 </r>
        <r>  0.0003  0.0014  0.0007 </r>
        <r>  0.0002  0.0009  0.0003 </r>
        <r>  0.0003  0.0034  0.0008 </r>
        <r>  0.0002  0.0009  0.0008 </r>
        <r>  0.0007  0.0006  0.0015 </r>
        <r>  0.0000  0.0003  0.0001 </r>
        <r>  0.0011  0.0042  0.0013 </r>
        <r>  0.0001  0.0017  0.0011 </r>
        <r>  0.0003  0.0014  0.0007 </r>
        <r>  0.0002  0.0009  0.0003 </r>
        <r>  0.0007  0.0006  0.0015 </r>
        <r>  0.0000  0.0003  0.0001 </r>
        <r>  0.0003  0.0034  0.0008 </r>
        <r>  0.0002  0.0009  0.0008 </r>
        <r>  0.0000  0.0000  0.0101 </r>
       </set>
       <set comment="band 202">
        <r>  0.0000  0.0002  0.0031 </r>
        <r>  0.0000  0.0000  0.0000 </r>
        <r>  0.0008  0.0000  0.0024 </r>
        <r>  0.0000  0.0001  0.0011 </r>
        <r>  0.0000  0.0001  0.0022 </r>
        <r>  0.0030  0.0003  0.0060 </r>
        <r>  0.0000  0.0036  0.0002 </r>
        <r>  0.0000  0.0073  0.0003 </r>
        <r>  0.0000  0.0005  0.0003 </r>
        <r>  0.0000  0.0029  0.0001 </r>
        <r>  0.0000  0.0005  0.0003 </r>
        <r>  0.0000  0.0029  0.0001 </r>
        <r>  0.0000  0.0036  0.0002 </r>
        <r>  0.0000  0.0073  0.0003 </r>
        <r>  0.0003  0.0006  0.0010 </r>
        <r>  0.0009  0.0020  0.0034 </r>
        <r>  0.0000  0.0008  0.0002 </r>
        <r>  0.0000  0.0030  0.0002 </r>
        <r>  0.0006  0.0002  0.0007 </r>
        <r>  0.0012  0.0052  0.0036 </r>
        <r>  0.0000  0.0005  0.0005 </r>
        <r>  0.0000  0.0020  0.0001 </r>
        <r>  0.0001  0.0003  0.0002 </r>
        <r>  0.0000  0.0033  0.0012 </r>
        <r>  0.0010  0.0011  0.0010 </r>
        <r>  0.0001  0.0030  0.0006 </r>
        <r>  0.0001  0.0004  0.0005 </r>
        <r>  0.0000  0.0010  0.0004 </r>
        <r>  0.0001  0.0015  0.0024 </r>
        <r>  0.0001  0.0010  0.0003 </r>
        <r>  0.0001  0.0003  0.0002 </r>
        <r>  0.0000  0.0033  0.0012 </r>
        <r>  0.0010  0.0011  0.0010 </r>
        <r>  0.0001  0.0030  0.0006 </r>
        <r>  0.0001  0.0015  0.0024 </r>
        <r>  0.0001  0.0010  0.0003 </r>
        <r>  0.0001  0.0004  0.0005 </r>
        <r>  0.0000  0.0010  0.0004 </r>
        <r>  0.0034  0.0015  0.0809 </r>
       </set>
       <set comment="band 203">
        <r>  0.0000  0.0010  0.0038 </r>
        <r>  0.0000  0.0001  0.0006 </r>
        <r>  0.0002  0.0009  0.0028 </r>
        <r>  0.0000  0.0001  0.0040 </r>
        <r>  0.0000  0.0000  0.0303 </r>
        <r>  0.0201  0.0001  0.0057 </r>
        <r>  0.0000  0.0045  0.0002 </r>
        <r>  0.0000  0.0058  0.0001 </r>
        <r>  0.0000  0.0087  0.0002 </r>
        <r>  0.0000  0.0084  0.0002 </r>
        <r>  0.0000  0.0087  0.0002 </r>
        <r>  0.0000  0.0084  0.0002 </r>
        <r>  0.0000  0.0045  0.0002 </r>
        <r>  0.0000  0.0059  0.0001 </r>
        <r>  0.0006  0.0012  0.0009 </r>
        <r>  0.0004  0.0063  0.0005 </r>
        <r>  0.0000  0.0033  0.0002 </r>
        <r>  0.0000  0.0034  0.0001 </r>
        <r>  0.0019  0.0028  0.0016 </r>
        <r>  0.0005  0.0002  0.0018 </r>
        <r>  0.0000  0.0036  0.0003 </r>
        <r>  0.0000  0.0005  0.0001 </r>
        <r>  0.0004  0.0005  0.0004 </r>
        <r>  0.0006  0.0033  0.0007 </r>
        <r>  0.0020  0.0023  0.0035 </r>
        <r>  0.0003  0.0025  0.0004 </r>
        <r>  0.0000  0.0049  0.0003 </r>
        <r>  0.0023  0.0009  0.0035 </r>
        <r>  0.0000  0.0030  0.0008 </r>
        <r>  0.0007  0.0011  0.0010 </r>
        <r>  0.0004  0.0005  0.0004 </r>
        <r>  0.0006  0.0033  0.0007 </r>
        <r>  0.0020  0.0023  0.0035 </r>
        <r>  0.0003  0.0025  0.0005 </r>
        <r>  0.0000  0.0030  0.0008 </r>
        <r>  0.0007  0.0011  0.0010 </r>
        <r>  0.0000  0.0049  0.0003 </r>
        <r>  0.0023  0.0009  0.0035 </r>
        <r>  0.0010  0.0025  0.0095 </r>
       </set>
       <set comment="band 204">
        <r>  0.0013  0.0022  0.0103 </r>
        <r>  0.0000  0.0008  0.0009 </r>
        <r>  0.0000  0.0008  0.0025 </r>
        <r>  0.0169  0.0023  0.0051 </r>
        <r>  0.0065  0.0004  0.0200 </r>
        <r>  0.0000  0.0002  0.0159 </r>
        <r>  0.0000  0.0072  0.0001 </r>
        <r>  0.0001  0.0065  0.0001 </r>
        <r>  0.0000  0.0038  0.0000 </r>
        <r>  0.0000  0.0063  0.0001 </r>
        <r>  0.0000  0.0038  0.0000 </r>
        <r>  0.0000  0.0062  0.0001 </r>
        <r>  0.0000  0.0072  0.0001 </r>
        <r>  0.0001  0.0065  0.0001 </r>
        <r>  0.0000  0.0049  0.0001 </r>
        <r>  0.0000  0.0057  0.0003 </r>
        <r>  0.0005  0.0054  0.0014 </r>
        <r>  0.0003  0.0044  0.0002 </r>
        <r>  0.0000  0.0008  0.0001 </r>
        <r>  0.0000  0.0006  0.0001 </r>
        <r>  0.0039  0.0002  0.0041 </r>
        <r>  0.0021  0.0020  0.0037 </r>
        <r>  0.0031  0.0034  0.0027 </r>
        <r>  0.0000  0.0016  0.0002 </r>
        <r>  0.0004  0.0014  0.0003 </r>
        <r>  0.0004  0.0020  0.0002 </r>
        <r>  0.0006  0.0022  0.0007 </r>
        <r>  0.0006  0.0017  0.0020 </r>
        <r>  0.0002  0.0031  0.0004 </r>
        <r>  0.0004  0.0020  0.0010 </r>
        <r>  0.0030  0.0034  0.0027 </r>
        <r>  0.0000  0.0015  0.0002 </r>
        <r>  0.0004  0.0014  0.0003 </r>
        <r>  0.0004  0.0020  0.0002 </r>
        <r>  0.0002  0.0031  0.0004 </r>
        <r>  0.0004  0.0020  0.0010 </r>
        <r>  0.0006  0.0022  0.0007 </r>
        <r>  0.0006  0.0017  0.0020 </r>
        <r>  0.0000  0.0001  0.0015 </r>
       </set>
       <set comment="band 205">
        <r>  0.0002  0.0001  0.0200 </r>
        <r>  0.0022  0.0001  0.0067 </r>
        <r>  0.0000  0.0000  0.0019 </r>
        <r>  0.0012  0.0005  0.0138 </r>
        <r>  0.0023  0.0004  0.0038 </r>
        <r>  0.0000  0.0001  0.0552 </r>
        <r>  0.0001  0.0040  0.0005 </r>
        <r>  0.0001  0.0019  0.0013 </r>
        <r>  0.0000  0.0038  0.0002 </r>
        <r>  0.0000  0.0135  0.0007 </r>
        <r>  0.0000  0.0031  0.0002 </r>
        <r>  0.0000  0.0123  0.0008 </r>
        <r>  0.0001  0.0045  0.0004 </r>
        <r>  0.0001  0.0021  0.0012 </r>
        <r>  0.0000  0.0002  0.0005 </r>
        <r>  0.0000  0.0000  0.0004 </r>
        <r>  0.0008  0.0003  0.0015 </r>
        <r>  0.0007  0.0002  0.0012 </r>
        <r>  0.0000  0.0006  0.0017 </r>
        <r>  0.0000  0.0014  0.0008 </r>
        <r>  0.0003  0.0003  0.0012 </r>
        <r>  0.0000  0.0002  0.0002 </r>
        <r>  0.0001  0.0014  0.0030 </r>
        <r>  0.0004  0.0012  0.0018 </r>
        <r>  0.0003  0.0050  0.0021 </r>
        <r>  0.0000  0.0004  0.0005 </r>
        <r>  0.0001  0.0006  0.0005 </r>
        <r>  0.0006  0.0005  0.0022 </r>
        <r>  0.0001  0.0024  0.0003 </r>
        <r>  0.0005  0.0020  0.0036 </r>
        <r>  0.0002  0.0015  0.0031 </r>
        <r>  0.0005  0.0013  0.0019 </r>
        <r>  0.0003  0.0051  0.0021 </r>
        <r>  0.0000  0.0004  0.0004 </r>
        <r>  0.0001  0.0023  0.0002 </r>
        <r>  0.0005  0.0019  0.0036 </r>
        <r>  0.0001  0.0006  0.0004 </r>
        <r>  0.0006  0.0004  0.0022 </r>
        <r>  0.0000  0.0003  0.0161 </r>
       </set>
       <set comment="band 206">
        <r>  0.0000  0.0001  0.0167 </r>
        <r>  0.0000  0.0004  0.0195 </r>
        <r>  0.0095  0.0004  0.0116 </r>
        <r>  0.0000  0.0004  0.0048 </r>
        <r>  0.0000  0.0004  0.0035 </r>
        <r>  0.0013  0.0005  0.0034 </r>
        <r>  0.0000  0.0044  0.0003 </r>
        <r>  0.0000  0.0077  0.0002 </r>
        <r>  0.0000  0.0012  0.0005 </r>
        <r>  0.0000  0.0013  0.0004 </r>
        <r>  0.0000  0.0011  0.0005 </r>
        <r>  0.0000  0.0012  0.0003 </r>
        <r>  0.0000  0.0044  0.0003 </r>
        <r>  0.0000  0.0075  0.0002 </r>
        <r>  0.0000  0.0063  0.0002 </r>
        <r>  0.0005  0.0007  0.0005 </r>
        <r>  0.0000  0.0000  0.0004 </r>
        <r>  0.0000  0.0017  0.0005 </r>
        <r>  0.0002  0.0033  0.0002 </r>
        <r>  0.0010  0.0010  0.0019 </r>
        <r>  0.0000  0.0001  0.0002 </r>
        <r>  0.0000  0.0048  0.0002 </r>
        <r>  0.0007  0.0005  0.0021 </r>
        <r>  0.0014  0.0023  0.0025 </r>
        <r>  0.0001  0.0016  0.0013 </r>
        <r>  0.0016  0.0014  0.0013 </r>
        <r>  0.0002  0.0004  0.0011 </r>
        <r>  0.0004  0.0026  0.0004 </r>
        <r>  0.0002  0.0027  0.0020 </r>
        <r>  0.0017  0.0023  0.0020 </r>
        <r>  0.0007  0.0005  0.0021 </r>
        <r>  0.0014  0.0023  0.0025 </r>
        <r>  0.0001  0.0017  0.0013 </r>
        <r>  0.0015  0.0013  0.0013 </r>
        <r>  0.0002  0.0027  0.0019 </r>
        <r>  0.0017  0.0023  0.0019 </r>
        <r>  0.0001  0.0004  0.0010 </r>
        <r>  0.0004  0.0026  0.0004 </r>
        <r>  0.0012  0.0032  0.0306 </r>
       </set>
       <set comment="band 207">
        <r>  0.0002  0.0001  0.0125 </r>
        <r>  0.0002  0.0003  0.0253 </r>
        <r>  0.0084  0.0001  0.0108 </r>
        <r>  0.0001  0.0002  0.0072 </r>
        <r>  0.0000  0.0005  0.0064 </r>
        <r>  0.0011  0.0007  0.0182 </r>
        <r>  0.0000  0.0065  0.0006 </r>
        <r>  0.0001  0.0019  0.0002 </r>
        <r>  0.0001  0.0071  0.0004 </r>
        <r>  0.0000  0.0067  0.0005 </r>
        <r>  0.0001  0.0084  0.0003 </r>
        <r>  0.0000  0.0076  0.0004 </r>
        <r>  0.0000  0.0037  0.0007 </r>
        <r>  0.0001  0.0025  0.0002 </r>
        <r>  0.0019  0.0026  0.0029 </r>
        <r>  0.0003  0.0013  0.0021 </r>
        <r>  0.0002  0.0025  0.0007 </r>
        <r>  0.0001  0.0017  0.0005 </r>
        <r>  0.0002  0.0035  0.0011 </r>
        <r>  0.0000  0.0017  0.0005 </r>
        <r>  0.0000  0.0014  0.0006 </r>
        <r>  0.0004  0.0004  0.0013 </r>
        <r>  0.0024  0.0007  0.0018 </r>
        <r>  0.0008  0.0012  0.0019 </r>
        <r>  0.0000  0.0013  0.0005 </r>
        <r>  0.0005  0.0002  0.0018 </r>
        <r>  0.0001  0.0016  0.0008 </r>
        <r>  0.0001  0.0028  0.0007 </r>
        <r>  0.0004  0.0012  0.0018 </r>
        <r>  0.0000  0.0014  0.0016 </r>
        <r>  0.0019  0.0004  0.0016 </r>
        <r>  0.0009  0.0014  0.0022 </r>
        <r>  0.0000  0.0011  0.0004 </r>
        <r>  0.0005  0.0005  0.0023 </r>
        <r>  0.0003  0.0011  0.0018 </r>
        <r>  0.0000  0.0023  0.0019 </r>
        <r>  0.0003  0.0011  0.0005 </r>
        <r>  0.0000  0.0038  0.0004 </r>
        <r>  0.0018  0.0002  0.0215 </r>
       </set>
       <set comment="band 208">
        <r>  0.0018  0.0003  0.0307 </r>
        <r>  0.0008  0.0007  0.0294 </r>
        <r>  0.0001  0.0001  0.0136 </r>
        <r>  0.0006  0.0009  0.0144 </r>
        <r>  0.0006  0.0013  0.0139 </r>
        <r>  0.0000  0.0001  0.0039 </r>
        <r>  0.0000  0.0048  0.0005 </r>
        <r>  0.0000  0.0053  0.0004 </r>
        <r>  0.0000  0.0013  0.0003 </r>
        <r>  0.0001  0.0045  0.0009 </r>
        <r>  0.0000  0.0014  0.0003 </r>
        <r>  0.0001  0.0046  0.0010 </r>
        <r>  0.0000  0.0042  0.0004 </r>
        <r>  0.0000  0.0042  0.0004 </r>
        <r>  0.0000  0.0010  0.0004 </r>
        <r>  0.0000  0.0009  0.0012 </r>
        <r>  0.0023  0.0021  0.0043 </r>
        <r>  0.0008  0.0017  0.0026 </r>
        <r>  0.0000  0.0010  0.0006 </r>
        <r>  0.0000  0.0012  0.0003 </r>
        <r>  0.0000  0.0011  0.0020 </r>
        <r>  0.0015  0.0020  0.0037 </r>
        <r>  0.0002  0.0009  0.0013 </r>
        <r>  0.0000  0.0006  0.0014 </r>
        <r>  0.0001  0.0006  0.0007 </r>
        <r>  0.0000  0.0008  0.0010 </r>
        <r>  0.0003  0.0008  0.0014 </r>
        <r>  0.0004  0.0035  0.0021 </r>
        <r>  0.0001  0.0008  0.0006 </r>
        <r>  0.0002  0.0009  0.0010 </r>
        <r>  0.0004  0.0011  0.0013 </r>
        <r>  0.0000  0.0004  0.0014 </r>
        <r>  0.0001  0.0011  0.0008 </r>
        <r>  0.0000  0.0007  0.0010 </r>
        <r>  0.0000  0.0011  0.0006 </r>
        <r>  0.0002  0.0009  0.0012 </r>
        <r>  0.0003  0.0007  0.0013 </r>
        <r>  0.0004  0.0038  0.0021 </r>
        <r>  0.0000  0.0002  0.0146 </r>
       </set>
      </set>
     </set>
    </set>
   </array>
  </projected>
 </calculation>
 <structure name="finalpos" >
  <crystal>
   <varray name="basis" >
    <v>       8.42001800       0.00000000       8.07798100 </v>
    <v>       0.00000000      11.76380800       0.00000000 </v>
    <v>      -8.42001800       0.00000000       8.07798100 </v>
   </varray>
   <i name="volume">   1600.27186790 </i>
   <varray name="rec_basis" >
    <v>       0.05938230      -0.00000000       0.06189665 </v>
    <v>       0.00000000       0.08500649      -0.00000000 </v>
    <v>      -0.05938230       0.00000000       0.06189665 </v>
   </varray>
  </crystal>
  <varray name="positions" >
   <v>       0.26955200       0.25000100       0.19587200 </v>
   <v>       0.77292800       0.25000100       0.71859100 </v>
   <v>       0.21032900       0.75000000       0.76239400 </v>
   <v>       0.29472500       0.24999800       0.74291400 </v>
   <v>       0.79050400       0.24999800       0.22293900 </v>
   <v>       0.24818000       0.75000100       0.26782800 </v>
   <v>       0.99500900       0.99517800       0.99565600 </v>
   <v>       0.49684300       0.00457700       0.49944200 </v>
   <v>       0.50654500       0.99515700       0.99934700 </v>
   <v>       0.00510600       0.00378700       0.50017300 </v>
   <v>       0.50654800       0.50484900       0.99934900 </v>
   <v>       0.00510400       0.49621100       0.50018300 </v>
   <v>       0.99501000       0.50481900       0.99564800 </v>
   <v>       0.49684600       0.49542500       0.49943800 </v>
   <v>       0.45311600       0.75000200       0.97339600 </v>
   <v>       0.01778400       0.74999600       0.46623000 </v>
   <v>       0.97222900       0.24999900       0.96852700 </v>
   <v>       0.44723900       0.25000100       0.46792200 </v>
   <v>       0.04586900       0.75000100       0.02663400 </v>
   <v>       0.48458700       0.75000200       0.52393300 </v>
   <v>       0.52928900       0.25000100       0.02789300 </v>
   <v>       0.03105400       0.25000000       0.54919000 </v>
   <v>       0.24739100       0.47124400       0.95237500 </v>
   <v>       0.74697800       0.44921600       0.45801900 </v>
   <v>       0.44525600       0.51665600       0.24690300 </v>
   <v>       0.94504800       0.54029100       0.74321900 </v>
   <v>       0.54595500       0.04262200       0.74964100 </v>
   <v>       0.05208900       0.03678500       0.24940800 </v>
   <v>       0.75294100       0.97167100       0.06598000 </v>
   <v>       0.25050500       0.98631900       0.56299900 </v>
   <v>       0.24739300       0.02875900       0.95237300 </v>
   <v>       0.74698000       0.05078500       0.45801700 </v>
   <v>       0.44525600       0.98334400       0.24690300 </v>
   <v>       0.94504800       0.95970600       0.74321700 </v>
   <v>       0.75294300       0.52833000       0.06598100 </v>
   <v>       0.25050700       0.51367900       0.56299600 </v>
   <v>       0.54595500       0.45737800       0.74964300 </v>
   <v>       0.05208700       0.46321100       0.24940600 </v>
   <v>       0.73469600       0.74999900       0.29369100 </v>
  </varray>
 </structure>
</modeling>
