CsPbBr3 cubic bulk                      
           1
     8.420018    0.000000    8.077981
     0.000000   11.763808    0.000000
    -8.420018    0.000000    8.077981
   Cs   Pb   Br   Cs
   6   8  24   1
Direct configuration=     1
   0.26955200  0.25000100  0.19587200
   0.77292800  0.25000100  0.71859100
   0.21032900  0.75000000  0.76239400
   0.29472500  0.24999800  0.74291400
   0.79050400  0.24999800  0.22293900
   0.24818000  0.75000100  0.26782800
   0.99500900  0.99517800  0.99565600
   0.49684300  0.00457700  0.49944200
   0.50654500  0.99515700  0.99934700
   0.00510600  0.00378700  0.50017300
   0.50654800  0.50484900  0.99934900
   0.00510400  0.49621100  0.50018300
   0.99501000  0.50481900  0.99564800
   0.49684600  0.49542500  0.49943800
   0.45311600  0.75000200  0.97339600
   0.01778400  0.74999600  0.46623000
   0.97222900  0.24999900  0.96852700
   0.44723900  0.25000100  0.46792200
   0.04586900  0.75000100  0.02663400
   0.48458700  0.75000200  0.52393300
   0.52928900  0.25000100  0.02789300
   0.03105400  0.25000000  0.54919000
   0.24739100  0.47124400  0.95237500
   0.74697800  0.44921600  0.45801900
   0.44525600  0.51665600  0.24690300
   0.94504800  0.54029100  0.74321900
   0.54595500  0.04262200  0.74964100
   0.05208900  0.03678500  0.24940800
   0.75294100  0.97167100  0.06598000
   0.25050500  0.98631900  0.56299900
   0.24739300  0.02875900  0.95237300
   0.74698000  0.05078500  0.45801700
   0.44525600  0.98334400  0.24690300
   0.94504800  0.95970600  0.74321700
   0.75294300  0.52833000  0.06598100
   0.25050700  0.51367900  0.56299600
   0.54595500  0.45737800  0.74964300
   0.05208700  0.46321100  0.24940600
   0.73469600  0.74999900  0.29369100
