  39  39   1   0
  0.4103261E+02  0.1166835E-08  0.1176381E-08  0.1166835E-08  0.5000000E-15
   1.0000000000000000E-004
  CAR 
 CsPbBr3 cubic bulk                      
      7.96073709    -22.43258825  301      0.31175022      1.00000000
    -22.433  0.0000E+00  0.0000E+00
    -22.331  0.0000E+00  0.0000E+00
    -22.230  0.0000E+00  0.0000E+00
    -22.129  0.0000E+00  0.0000E+00
    -22.027  0.0000E+00  0.0000E+00
    -21.926  0.0000E+00  0.0000E+00
    -21.825  0.0000E+00  0.0000E+00
    -21.723  0.0000E+00  0.0000E+00
    -21.622  0.0000E+00  0.0000E+00
    -21.521  0.0000E+00  0.0000E+00
    -21.419  0.0000E+00  0.0000E+00
    -21.318  0.0000E+00  0.0000E+00
    -21.217  0.0000E+00  0.0000E+00
    -21.116  0.0000E+00  0.0000E+00
    -21.014  0.1997E+02  0.2023E+01
    -20.913  0.9756E+02  0.1389E+02
    -20.812  0.0000E+00  0.1400E+02
    -20.710  0.0000E+00  0.1400E+02
    -20.609  0.0000E+00  0.1400E+02
    -20.508  0.0000E+00  0.1400E+02
    -20.406  0.0000E+00  0.1400E+02
    -20.305  0.0000E+00  0.1400E+02
    -20.204  0.0000E+00  0.1400E+02
    -20.102  0.0000E+00  0.1400E+02
    -20.001  0.0000E+00  0.1400E+02
    -19.900  0.0000E+00  0.1400E+02
    -19.799  0.0000E+00  0.1400E+02
    -19.697  0.0000E+00  0.1400E+02
    -19.596  0.0000E+00  0.1400E+02
    -19.495  0.0000E+00  0.1400E+02
    -19.393  0.0000E+00  0.1400E+02
    -19.292  0.0000E+00  0.1400E+02
    -19.191  0.0000E+00  0.1400E+02
    -19.089  0.0000E+00  0.1400E+02
    -18.988  0.0000E+00  0.1400E+02
    -18.887  0.0000E+00  0.1400E+02
    -18.785  0.0000E+00  0.1400E+02
    -18.684  0.0000E+00  0.1400E+02
    -18.583  0.0000E+00  0.1400E+02
    -18.481  0.0000E+00  0.1400E+02
    -18.380  0.0000E+00  0.1400E+02
    -18.279  0.0000E+00  0.1400E+02
    -18.178  0.0000E+00  0.1400E+02
    -18.076  0.0000E+00  0.1400E+02
    -17.975  0.0000E+00  0.1400E+02
    -17.874  0.0000E+00  0.1400E+02
    -17.772  0.0000E+00  0.1400E+02
    -17.671  0.0000E+00  0.1400E+02
    -17.570  0.0000E+00  0.1400E+02
    -17.468  0.0000E+00  0.1400E+02
    -17.367  0.0000E+00  0.1400E+02
    -17.266  0.0000E+00  0.1400E+02
    -17.164  0.0000E+00  0.1400E+02
    -17.063  0.0000E+00  0.1400E+02
    -16.962  0.5413E+01  0.1455E+02
    -16.860  0.6754E+02  0.2284E+02
    -16.759  0.1703E+03  0.4200E+02
    -16.658  0.7896E+02  0.5400E+02
    -16.557  0.1352E+02  0.5537E+02
    -16.455  0.9395E+02  0.6952E+02
    -16.354  0.2368E+03  0.9399E+02
    -16.253  0.0000E+00  0.9400E+02
    -16.151  0.0000E+00  0.9400E+02
    -16.050  0.0000E+00  0.9400E+02
    -15.949  0.0000E+00  0.9400E+02
    -15.847  0.0000E+00  0.9400E+02
    -15.746  0.0000E+00  0.9400E+02
    -15.645  0.0000E+00  0.9400E+02
    -15.543  0.0000E+00  0.9400E+02
    -15.442  0.0000E+00  0.9400E+02
    -15.341  0.0000E+00  0.9400E+02
    -15.240  0.0000E+00  0.9400E+02
    -15.138  0.3021E+00  0.9403E+02
    -15.037  0.9868E+01  0.9600E+02
    -14.936  0.0000E+00  0.9600E+02
    -14.834  0.0000E+00  0.9600E+02
    -14.733  0.2272E+02  0.9830E+02
    -14.632  0.2465E+01  0.1000E+03
    -14.530  0.1583E+02  0.1016E+03
    -14.429  0.1570E+02  0.1036E+03
    -14.328  0.3121E+02  0.1072E+03
    -14.226  0.3425E+02  0.1112E+03
    -14.125  0.7557E+02  0.1204E+03
    -14.024  0.7169E+02  0.1285E+03
    -13.922  0.4620E+02  0.1337E+03
    -13.821  0.3482E+02  0.1383E+03
    -13.720  0.9871E+01  0.1400E+03
    -13.619  0.3364E+01  0.1403E+03
    -13.517  0.0000E+00  0.1420E+03
    -13.416  0.0000E+00  0.1420E+03
    -13.315  0.0000E+00  0.1420E+03
    -13.213  0.0000E+00  0.1420E+03
    -13.112  0.0000E+00  0.1420E+03
    -13.011  0.0000E+00  0.1420E+03
    -12.909  0.0000E+00  0.1420E+03
    -12.808  0.0000E+00  0.1420E+03
    -12.707  0.0000E+00  0.1420E+03
    -12.605  0.0000E+00  0.1420E+03
    -12.504  0.0000E+00  0.1420E+03
    -12.403  0.0000E+00  0.1420E+03
    -12.301  0.0000E+00  0.1420E+03
    -12.200  0.0000E+00  0.1420E+03
    -12.099  0.0000E+00  0.1420E+03
    -11.998  0.0000E+00  0.1420E+03
    -11.896  0.0000E+00  0.1420E+03
    -11.795  0.0000E+00  0.1420E+03
    -11.694  0.0000E+00  0.1420E+03
    -11.592  0.0000E+00  0.1420E+03
    -11.491  0.0000E+00  0.1420E+03
    -11.390  0.0000E+00  0.1420E+03
    -11.288  0.0000E+00  0.1420E+03
    -11.187  0.0000E+00  0.1420E+03
    -11.086  0.0000E+00  0.1420E+03
    -10.984  0.0000E+00  0.1420E+03
    -10.883  0.0000E+00  0.1420E+03
    -10.782  0.0000E+00  0.1420E+03
    -10.681  0.0000E+00  0.1420E+03
    -10.579  0.0000E+00  0.1420E+03
    -10.478  0.0000E+00  0.1420E+03
    -10.377  0.0000E+00  0.1420E+03
    -10.275  0.0000E+00  0.1420E+03
    -10.174  0.0000E+00  0.1420E+03
    -10.073  0.0000E+00  0.1420E+03
     -9.971  0.0000E+00  0.1420E+03
     -9.870  0.0000E+00  0.1420E+03
     -9.769  0.0000E+00  0.1420E+03
     -9.667  0.0000E+00  0.1420E+03
     -9.566  0.0000E+00  0.1420E+03
     -9.465  0.0000E+00  0.1420E+03
     -9.363  0.0000E+00  0.1420E+03
     -9.262  0.0000E+00  0.1420E+03
     -9.161  0.0000E+00  0.1420E+03
     -9.060  0.0000E+00  0.1420E+03
     -8.958  0.0000E+00  0.1420E+03
     -8.857  0.0000E+00  0.1420E+03
     -8.756  0.0000E+00  0.1420E+03
     -8.654  0.0000E+00  0.1420E+03
     -8.553  0.4372E+00  0.1420E+03
     -8.452  0.2467E+01  0.1425E+03
     -8.350  0.4929E+01  0.1430E+03
     -8.249  0.7435E+01  0.1440E+03
     -8.148  0.8103E+01  0.1451E+03
     -8.046  0.7515E+01  0.1460E+03
     -7.945  0.1561E+02  0.1478E+03
     -7.844  0.1086E+02  0.1491E+03
     -7.742  0.2222E+02  0.1518E+03
     -7.641  0.1215E+02  0.1532E+03
     -7.540  0.2041E+02  0.1558E+03
     -7.439  0.5428E+02  0.1620E+03
     -7.337  0.2017E+03  0.1862E+03
     -7.236  0.4767E+02  0.1978E+03
     -7.135  0.2533E+01  0.1985E+03
     -7.033  0.5408E+01  0.1993E+03
     -6.932  0.2456E+01  0.1997E+03
     -6.831  0.0000E+00  0.1998E+03
     -6.729  0.2460E+01  0.2000E+03
     -6.628  0.0000E+00  0.2000E+03
     -6.527  0.0000E+00  0.2000E+03
     -6.425  0.0000E+00  0.2000E+03
     -6.324  0.0000E+00  0.2000E+03
     -6.223  0.0000E+00  0.2000E+03
     -6.122  0.0000E+00  0.2000E+03
     -6.020  0.0000E+00  0.2000E+03
     -5.919  0.0000E+00  0.2000E+03
     -5.818  0.0000E+00  0.2000E+03
     -5.716  0.0000E+00  0.2000E+03
     -5.615  0.0000E+00  0.2000E+03
     -5.514  0.0000E+00  0.2000E+03
     -5.412  0.0000E+00  0.2000E+03
     -5.311  0.0000E+00  0.2000E+03
     -5.210  0.0000E+00  0.2000E+03
     -5.108  0.0000E+00  0.2000E+03
     -5.007  0.0000E+00  0.2000E+03
     -4.906  0.0000E+00  0.2000E+03
     -4.804  0.0000E+00  0.2000E+03
     -4.703  0.0000E+00  0.2000E+03
     -4.602  0.0000E+00  0.2000E+03
     -4.501  0.0000E+00  0.2000E+03
     -4.399  0.0000E+00  0.2000E+03
     -4.298  0.0000E+00  0.2000E+03
     -4.197  0.0000E+00  0.2000E+03
     -4.095  0.0000E+00  0.2000E+03
     -3.994  0.0000E+00  0.2000E+03
     -3.893  0.0000E+00  0.2000E+03
     -3.791  0.1918E-14  0.2000E+03
     -3.690  0.1335E+02  0.2014E+03
     -3.589  0.1458E+02  0.2030E+03
     -3.487  0.2467E+01  0.2040E+03
     -3.386  0.6540E+01  0.2047E+03
     -3.285  0.1536E+02  0.2068E+03
     -3.183  0.3129E+02  0.2109E+03
     -3.082  0.1614E+02  0.2129E+03
     -2.981  0.1446E+02  0.2147E+03
     -2.880  0.2169E+02  0.2169E+03
     -2.778  0.2363E+02  0.2194E+03
     -2.677  0.2715E+02  0.2225E+03
     -2.576  0.2094E+02  0.2251E+03
     -2.474  0.3921E+02  0.2302E+03
     -2.373  0.3300E+02  0.2346E+03
     -2.272  0.2534E+02  0.2391E+03
     -2.170  0.3933E+02  0.2445E+03
     -2.069  0.1885E+02  0.2474E+03
     -1.968  0.3544E+02  0.2518E+03
     -1.866  0.4618E+02  0.2577E+03
     -1.765  0.3926E+02  0.2632E+03
     -1.664  0.6798E+02  0.2711E+03
     -1.563  0.7672E+02  0.2805E+03
     -1.461  0.7358E+02  0.2905E+03
     -1.360  0.8747E+02  0.3014E+03
     -1.259  0.6021E+02  0.3099E+03
     -1.157  0.5592E+02  0.3174E+03
     -1.056  0.5390E+02  0.3240E+03
     -0.955  0.3243E+02  0.3280E+03
     -0.853  0.3800E+02  0.3324E+03
     -0.752  0.3078E+02  0.3361E+03
     -0.651  0.7656E+01  0.3373E+03
     -0.549  0.1143E+02  0.3387E+03
     -0.448  0.5611E+01  0.3396E+03
     -0.347  0.9630E+01  0.3407E+03
     -0.245  0.1289E+02  0.3426E+03
     -0.144  0.2617E+01  0.3430E+03
     -0.043  0.2467E+01  0.3435E+03
      0.058  0.2468E+01  0.3438E+03
      0.160  0.0000E+00  0.3438E+03
      0.261  0.8283E+00  0.3438E+03
      0.362  0.0000E+00  0.3440E+03
      0.464  0.0000E+00  0.3440E+03
      0.565  0.0000E+00  0.3440E+03
      0.666  0.0000E+00  0.3440E+03
      0.768  0.0000E+00  0.3440E+03
      0.869  0.0000E+00  0.3440E+03
      0.970  0.0000E+00  0.3440E+03
      1.072  0.0000E+00  0.3440E+03
      1.173  0.0000E+00  0.3440E+03
      1.274  0.0000E+00  0.3440E+03
      1.376  0.0000E+00  0.3440E+03
      1.477  0.0000E+00  0.3440E+03
      1.578  0.0000E+00  0.3440E+03
      1.679  0.0000E+00  0.3440E+03
      1.781  0.0000E+00  0.3440E+03
      1.882  0.0000E+00  0.3440E+03
      1.983  0.0000E+00  0.3440E+03
      2.085  0.0000E+00  0.3440E+03
      2.186  0.0000E+00  0.3440E+03
      2.287  0.0000E+00  0.3440E+03
      2.389  0.4277E-05  0.3440E+03
      2.490  0.5049E+01  0.3445E+03
      2.591  0.4023E+01  0.3454E+03
      2.693  0.1228E+02  0.3470E+03
      2.794  0.1026E+02  0.3480E+03
      2.895  0.2909E+01  0.3490E+03
      2.996  0.1977E+02  0.3513E+03
      3.098  0.5571E+01  0.3521E+03
      3.199  0.1779E+02  0.3546E+03
      3.300  0.2479E+01  0.3550E+03
      3.402  0.4935E+01  0.3558E+03
      3.503  0.2467E+01  0.3560E+03
      3.604  0.6145E+00  0.3561E+03
      3.706  0.6617E-01  0.3565E+03
      3.807  0.4935E+01  0.3572E+03
      3.908  0.1614E+02  0.3589E+03
      4.010  0.1467E+02  0.3607E+03
      4.111  0.1178E+02  0.3624E+03
      4.212  0.2322E+02  0.3656E+03
      4.314  0.1945E+02  0.3685E+03
      4.415  0.2502E+02  0.3713E+03
      4.516  0.2164E+02  0.3739E+03
      4.617  0.1343E+02  0.3761E+03
      4.719  0.1613E+02  0.3784E+03
      4.820  0.5996E+01  0.3796E+03
      4.921  0.5248E+01  0.3803E+03
      5.023  0.2465E+01  0.3807E+03
      5.124  0.0000E+00  0.3808E+03
      5.225  0.5356E+01  0.3813E+03
      5.327  0.1040E+02  0.3831E+03
      5.428  0.8600E+01  0.3844E+03
      5.529  0.1302E+02  0.3863E+03
      5.631  0.1431E+02  0.3889E+03
      5.732  0.9137E+01  0.3904E+03
      5.833  0.8185E+01  0.3913E+03
      5.935  0.2411E+02  0.3944E+03
      6.036  0.3146E+02  0.3977E+03
      6.137  0.2791E+02  0.4008E+03
      6.238  0.2641E+02  0.4042E+03
      6.340  0.2704E+02  0.4077E+03
      6.441  0.3306E+02  0.4116E+03
      6.542  0.2660E+02  0.4152E+03
      6.644  0.4935E+01  0.4160E+03
      6.745  0.0000E+00  0.4160E+03
      6.846  0.0000E+00  0.4160E+03
      6.948  0.0000E+00  0.4160E+03
      7.049  0.0000E+00  0.4160E+03
      7.150  0.0000E+00  0.4160E+03
      7.252  0.0000E+00  0.4160E+03
      7.353  0.0000E+00  0.4160E+03
      7.454  0.0000E+00  0.4160E+03
      7.555  0.0000E+00  0.4160E+03
      7.657  0.0000E+00  0.4160E+03
      7.758  0.0000E+00  0.4160E+03
      7.859  0.0000E+00  0.4160E+03
      7.961  0.0000E+00  0.4160E+03
      7.96073709    -22.43258825  301      0.31175022      1.00000000
    -22.433  0.0000E+00  0.0000E+00  0.0000E+00
    -22.331  0.0000E+00  0.0000E+00  0.0000E+00
    -22.230  0.0000E+00  0.0000E+00  0.0000E+00
    -22.129  0.0000E+00  0.0000E+00  0.0000E+00
    -22.027  0.0000E+00  0.0000E+00  0.0000E+00
    -21.926  0.0000E+00  0.0000E+00  0.0000E+00
    -21.825  0.0000E+00  0.0000E+00  0.0000E+00
    -21.723  0.0000E+00  0.0000E+00  0.0000E+00
    -21.622  0.0000E+00  0.0000E+00  0.0000E+00
    -21.521  0.0000E+00  0.0000E+00  0.0000E+00
    -21.419  0.0000E+00  0.0000E+00  0.0000E+00
    -21.318  0.0000E+00  0.0000E+00  0.0000E+00
    -21.217  0.0000E+00  0.0000E+00  0.0000E+00
    -21.116  0.0000E+00  0.0000E+00  0.0000E+00
    -21.014  0.1654E+00  0.1033E-06  0.6062E-07
    -20.913  0.1700E+01  0.1320E-05  0.1199E-05
    -20.812  0.0000E+00  0.0000E+00  0.0000E+00
    -20.710  0.0000E+00  0.0000E+00  0.0000E+00
    -20.609  0.0000E+00  0.0000E+00  0.0000E+00
    -20.508  0.0000E+00  0.0000E+00  0.0000E+00
    -20.406  0.0000E+00  0.0000E+00  0.0000E+00
    -20.305  0.0000E+00  0.0000E+00  0.0000E+00
    -20.204  0.0000E+00  0.0000E+00  0.0000E+00
    -20.102  0.0000E+00  0.0000E+00  0.0000E+00
    -20.001  0.0000E+00  0.0000E+00  0.0000E+00
    -19.900  0.0000E+00  0.0000E+00  0.0000E+00
    -19.799  0.0000E+00  0.0000E+00  0.0000E+00
    -19.697  0.0000E+00  0.0000E+00  0.0000E+00
    -19.596  0.0000E+00  0.0000E+00  0.0000E+00
    -19.495  0.0000E+00  0.0000E+00  0.0000E+00
    -19.393  0.0000E+00  0.0000E+00  0.0000E+00
    -19.292  0.0000E+00  0.0000E+00  0.0000E+00
    -19.191  0.0000E+00  0.0000E+00  0.0000E+00
    -19.089  0.0000E+00  0.0000E+00  0.0000E+00
    -18.988  0.0000E+00  0.0000E+00  0.0000E+00
    -18.887  0.0000E+00  0.0000E+00  0.0000E+00
    -18.785  0.0000E+00  0.0000E+00  0.0000E+00
    -18.684  0.0000E+00  0.0000E+00  0.0000E+00
    -18.583  0.0000E+00  0.0000E+00  0.0000E+00
    -18.481  0.0000E+00  0.0000E+00  0.0000E+00
    -18.380  0.0000E+00  0.0000E+00  0.0000E+00
    -18.279  0.0000E+00  0.0000E+00  0.0000E+00
    -18.178  0.0000E+00  0.0000E+00  0.0000E+00
    -18.076  0.0000E+00  0.0000E+00  0.0000E+00
    -17.975  0.0000E+00  0.0000E+00  0.0000E+00
    -17.874  0.0000E+00  0.0000E+00  0.0000E+00
    -17.772  0.0000E+00  0.0000E+00  0.0000E+00
    -17.671  0.0000E+00  0.0000E+00  0.0000E+00
    -17.570  0.0000E+00  0.0000E+00  0.0000E+00
    -17.468  0.0000E+00  0.0000E+00  0.0000E+00
    -17.367  0.0000E+00  0.0000E+00  0.0000E+00
    -17.266  0.0000E+00  0.0000E+00  0.0000E+00
    -17.164  0.0000E+00  0.0000E+00  0.0000E+00
    -17.063  0.0000E+00  0.0000E+00  0.0000E+00
    -16.962  0.7188E-06  0.1973E-05  0.1035E-05
    -16.860  0.4618E-04  0.3664E-04  0.6341E-05
    -16.759  0.2648E-04  0.2554E-04  0.4757E-05
    -16.658  0.4497E-04  0.2126E-04  0.2488E-05
    -16.557  0.1657E-04  0.5196E-05  0.8166E-06
    -16.455  0.3875E-04  0.3193E-04  0.4141E-05
    -16.354  0.1927E-04  0.1248E-04  0.1534E-05
    -16.253  0.0000E+00  0.0000E+00  0.0000E+00
    -16.151  0.0000E+00  0.0000E+00  0.0000E+00
    -16.050  0.0000E+00  0.0000E+00  0.0000E+00
    -15.949  0.0000E+00  0.0000E+00  0.0000E+00
    -15.847  0.0000E+00  0.0000E+00  0.0000E+00
    -15.746  0.0000E+00  0.0000E+00  0.0000E+00
    -15.645  0.0000E+00  0.0000E+00  0.0000E+00
    -15.543  0.0000E+00  0.0000E+00  0.0000E+00
    -15.442  0.0000E+00  0.0000E+00  0.0000E+00
    -15.341  0.0000E+00  0.0000E+00  0.0000E+00
    -15.240  0.0000E+00  0.0000E+00  0.0000E+00
    -15.138  0.5527E-04  0.1865E-04  0.1167E-05
    -15.037  0.7443E-10  0.1169E-02  0.7884E-04
    -14.936  0.0000E+00  0.0000E+00  0.0000E+00
    -14.834  0.0000E+00  0.0000E+00  0.0000E+00
    -14.733  0.1964E-02  0.1133E-02  0.4175E-04
    -14.632  0.1184E-10  0.2777E-03  0.1228E-04
    -14.530  0.1578E-03  0.4799E-03  0.2495E-04
    -14.429  0.9909E-03  0.1972E-02  0.1605E-03
    -14.328  0.2531E-02  0.3816E-02  0.3094E-03
    -14.226  0.5822E-03  0.2478E-02  0.8664E-04
    -14.125  0.9823E-03  0.3695E-02  0.4007E-03
    -14.024  0.1372E-02  0.3370E-02  0.3519E-03
    -13.922  0.2669E-03  0.6046E-03  0.3384E-04
    -13.821  0.2107E-02  0.4984E-02  0.4640E-03
    -13.720  0.4068E-03  0.4630E-03  0.1258E-04
    -13.619  0.1425E-05  0.2958E-04  0.3710E-05
    -13.517  0.0000E+00  0.0000E+00  0.0000E+00
    -13.416  0.0000E+00  0.0000E+00  0.0000E+00
    -13.315  0.0000E+00  0.0000E+00  0.0000E+00
    -13.213  0.0000E+00  0.0000E+00  0.0000E+00
    -13.112  0.0000E+00  0.0000E+00  0.0000E+00
    -13.011  0.0000E+00  0.0000E+00  0.0000E+00
    -12.909  0.0000E+00  0.0000E+00  0.0000E+00
    -12.808  0.0000E+00  0.0000E+00  0.0000E+00
    -12.707  0.0000E+00  0.0000E+00  0.0000E+00
    -12.605  0.0000E+00  0.0000E+00  0.0000E+00
    -12.504  0.0000E+00  0.0000E+00  0.0000E+00
    -12.403  0.0000E+00  0.0000E+00  0.0000E+00
    -12.301  0.0000E+00  0.0000E+00  0.0000E+00
    -12.200  0.0000E+00  0.0000E+00  0.0000E+00
    -12.099  0.0000E+00  0.0000E+00  0.0000E+00
    -11.998  0.0000E+00  0.0000E+00  0.0000E+00
    -11.896  0.0000E+00  0.0000E+00  0.0000E+00
    -11.795  0.0000E+00  0.0000E+00  0.0000E+00
    -11.694  0.0000E+00  0.0000E+00  0.0000E+00
    -11.592  0.0000E+00  0.0000E+00  0.0000E+00
    -11.491  0.0000E+00  0.0000E+00  0.0000E+00
    -11.390  0.0000E+00  0.0000E+00  0.0000E+00
    -11.288  0.0000E+00  0.0000E+00  0.0000E+00
    -11.187  0.0000E+00  0.0000E+00  0.0000E+00
    -11.086  0.0000E+00  0.0000E+00  0.0000E+00
    -10.984  0.0000E+00  0.0000E+00  0.0000E+00
    -10.883  0.0000E+00  0.0000E+00  0.0000E+00
    -10.782  0.0000E+00  0.0000E+00  0.0000E+00
    -10.681  0.0000E+00  0.0000E+00  0.0000E+00
    -10.579  0.0000E+00  0.0000E+00  0.0000E+00
    -10.478  0.0000E+00  0.0000E+00  0.0000E+00
    -10.377  0.0000E+00  0.0000E+00  0.0000E+00
    -10.275  0.0000E+00  0.0000E+00  0.0000E+00
    -10.174  0.0000E+00  0.0000E+00  0.0000E+00
    -10.073  0.0000E+00  0.0000E+00  0.0000E+00
     -9.971  0.0000E+00  0.0000E+00  0.0000E+00
     -9.870  0.0000E+00  0.0000E+00  0.0000E+00
     -9.769  0.0000E+00  0.0000E+00  0.0000E+00
     -9.667  0.0000E+00  0.0000E+00  0.0000E+00
     -9.566  0.0000E+00  0.0000E+00  0.0000E+00
     -9.465  0.0000E+00  0.0000E+00  0.0000E+00
     -9.363  0.0000E+00  0.0000E+00  0.0000E+00
     -9.262  0.0000E+00  0.0000E+00  0.0000E+00
     -9.161  0.0000E+00  0.0000E+00  0.0000E+00
     -9.060  0.0000E+00  0.0000E+00  0.0000E+00
     -8.958  0.0000E+00  0.0000E+00  0.0000E+00
     -8.857  0.0000E+00  0.0000E+00  0.0000E+00
     -8.756  0.0000E+00  0.0000E+00  0.0000E+00
     -8.654  0.0000E+00  0.0000E+00  0.0000E+00
     -8.553  0.8792E-15  0.5494E-03  0.4346E-05
     -8.452  0.1660E-13  0.5799E-02  0.2754E-04
     -8.350  0.5124E-04  0.1547E-01  0.4582E-04
     -8.249  0.8147E-04  0.1393E-01  0.2807E-04
     -8.148  0.1220E-03  0.2049E-01  0.5125E-04
     -8.046  0.4290E-06  0.3973E-01  0.3641E-04
     -7.945  0.9071E-06  0.7629E-01  0.7697E-04
     -7.844  0.1808E-03  0.1295E+00  0.1165E-03
     -7.742  0.1396E-03  0.3293E+00  0.1959E-03
     -7.641  0.1558E-03  0.1718E+00  0.6130E-04
     -7.540  0.5178E-04  0.2657E+00  0.4819E-04
     -7.439  0.2988E-04  0.3297E+01  0.1786E-04
     -7.337  0.7986E-04  0.2319E+02  0.1171E-03
     -7.236  0.4882E-04  0.1404E+01  0.4531E-04
     -7.135  0.2007E-04  0.7171E-01  0.6088E-05
     -7.033  0.9245E-05  0.2119E-01  0.1854E-04
     -6.932  0.2656E-04  0.9941E-02  0.8888E-05
     -6.831  0.0000E+00  0.0000E+00  0.0000E+00
     -6.729  0.2969E-04  0.4311E-02  0.3851E-05
     -6.628  0.0000E+00  0.0000E+00  0.0000E+00
     -6.527  0.0000E+00  0.0000E+00  0.0000E+00
     -6.425  0.0000E+00  0.0000E+00  0.0000E+00
     -6.324  0.0000E+00  0.0000E+00  0.0000E+00
     -6.223  0.0000E+00  0.0000E+00  0.0000E+00
     -6.122  0.0000E+00  0.0000E+00  0.0000E+00
     -6.020  0.0000E+00  0.0000E+00  0.0000E+00
     -5.919  0.0000E+00  0.0000E+00  0.0000E+00
     -5.818  0.0000E+00  0.0000E+00  0.0000E+00
     -5.716  0.0000E+00  0.0000E+00  0.0000E+00
     -5.615  0.0000E+00  0.0000E+00  0.0000E+00
     -5.514  0.0000E+00  0.0000E+00  0.0000E+00
     -5.412  0.0000E+00  0.0000E+00  0.0000E+00
     -5.311  0.0000E+00  0.0000E+00  0.0000E+00
     -5.210  0.0000E+00  0.0000E+00  0.0000E+00
     -5.108  0.0000E+00  0.0000E+00  0.0000E+00
     -5.007  0.0000E+00  0.0000E+00  0.0000E+00
     -4.906  0.0000E+00  0.0000E+00  0.0000E+00
     -4.804  0.0000E+00  0.0000E+00  0.0000E+00
     -4.703  0.0000E+00  0.0000E+00  0.0000E+00
     -4.602  0.0000E+00  0.0000E+00  0.0000E+00
     -4.501  0.0000E+00  0.0000E+00  0.0000E+00
     -4.399  0.0000E+00  0.0000E+00  0.0000E+00
     -4.298  0.0000E+00  0.0000E+00  0.0000E+00
     -4.197  0.0000E+00  0.0000E+00  0.0000E+00
     -4.095  0.0000E+00  0.0000E+00  0.0000E+00
     -3.994  0.0000E+00  0.0000E+00  0.0000E+00
     -3.893  0.0000E+00  0.0000E+00  0.0000E+00
     -3.791  0.1235E-26  0.2224E-18  0.1014E-18
     -3.690  0.1931E-05  0.7794E-02  0.7153E-03
     -3.589  0.1930E-03  0.1063E-01  0.7179E-03
     -3.487  0.3908E-11  0.1019E-02  0.2184E-03
     -3.386  0.2299E-04  0.5612E-02  0.2014E-03
     -3.285  0.2098E-04  0.4439E-02  0.7391E-03
     -3.183  0.4770E-03  0.1408E-01  0.1352E-02
     -3.082  0.3623E-03  0.8283E-02  0.7486E-03
     -2.981  0.9944E-03  0.1302E-01  0.7256E-03
     -2.880  0.2014E-03  0.4528E-01  0.3009E-02
     -2.778  0.1681E-02  0.1767E-01  0.1139E-02
     -2.677  0.4618E-03  0.2032E-01  0.2126E-02
     -2.576  0.1704E-02  0.8227E-02  0.1270E-02
     -2.474  0.1331E-01  0.5170E-01  0.3778E-02
     -2.373  0.4148E-02  0.1336E-01  0.3916E-02
     -2.272  0.7667E-02  0.1246E-01  0.2612E-02
     -2.170  0.9891E-02  0.8429E-01  0.4481E-02
     -2.069  0.5070E-03  0.3366E-01  0.3205E-02
     -1.968  0.1935E-02  0.4051E-01  0.5111E-02
     -1.866  0.1641E-02  0.6905E-01  0.6918E-02
     -1.765  0.3295E-02  0.5223E-01  0.5746E-02
     -1.664  0.4301E-02  0.1043E+00  0.1828E-01
     -1.563  0.6224E-02  0.6159E-01  0.1707E-01
     -1.461  0.4001E-02  0.6168E-01  0.8989E-02
     -1.360  0.2211E-02  0.8348E-01  0.1316E-01
     -1.259  0.1492E-02  0.4765E-01  0.9272E-02
     -1.157  0.2273E-02  0.3542E-01  0.7018E-02
     -1.056  0.8417E-03  0.1867E-01  0.4759E-02
     -0.955  0.9198E-03  0.1760E-01  0.4106E-02
     -0.853  0.6889E-03  0.2106E-01  0.4469E-02
     -0.752  0.4982E-03  0.1141E-01  0.4175E-02
     -0.651  0.4100E-05  0.1779E-02  0.7537E-03
     -0.549  0.5719E-05  0.8710E-02  0.2907E-02
     -0.448  0.4609E-05  0.1486E-02  0.5576E-03
     -0.347  0.2537E-02  0.1719E-01  0.6264E-02
     -0.245  0.1349E-02  0.2115E-01  0.4647E-02
     -0.144  0.8456E-05  0.9280E-03  0.3581E-04
     -0.043  0.1438E-13  0.2199E-03  0.4102E-03
      0.058  0.9357E-13  0.5385E-03  0.1106E-03
      0.160  0.0000E+00  0.0000E+00  0.0000E+00
      0.261  0.1914E-13  0.7462E-05  0.1223E-03
      0.362  0.0000E+00  0.0000E+00  0.0000E+00
      0.464  0.0000E+00  0.0000E+00  0.0000E+00
      0.565  0.0000E+00  0.0000E+00  0.0000E+00
      0.666  0.0000E+00  0.0000E+00  0.0000E+00
      0.768  0.0000E+00  0.0000E+00  0.0000E+00
      0.869  0.0000E+00  0.0000E+00  0.0000E+00
      0.970  0.0000E+00  0.0000E+00  0.0000E+00
      1.072  0.0000E+00  0.0000E+00  0.0000E+00
      1.173  0.0000E+00  0.0000E+00  0.0000E+00
      1.274  0.0000E+00  0.0000E+00  0.0000E+00
      1.376  0.0000E+00  0.0000E+00  0.0000E+00
      1.477  0.0000E+00  0.0000E+00  0.0000E+00
      1.578  0.0000E+00  0.0000E+00  0.0000E+00
      1.679  0.0000E+00  0.0000E+00  0.0000E+00
      1.781  0.0000E+00  0.0000E+00  0.0000E+00
      1.882  0.0000E+00  0.0000E+00  0.0000E+00
      1.983  0.0000E+00  0.0000E+00  0.0000E+00
      2.085  0.0000E+00  0.0000E+00  0.0000E+00
      2.186  0.0000E+00  0.0000E+00  0.0000E+00
      2.287  0.0000E+00  0.0000E+00  0.0000E+00
      2.389  0.6871E-20  0.5906E-11  0.7518E-09
      2.490  0.1511E-04  0.3624E-03  0.1117E-02
      2.591  0.4373E-03  0.2450E-03  0.9170E-03
      2.693  0.1253E-03  0.1961E-02  0.2492E-02
      2.794  0.1314E-03  0.7557E-03  0.2122E-02
      2.895  0.5585E-06  0.1834E-03  0.9353E-03
      2.996  0.3346E-03  0.2082E-02  0.4192E-02
      3.098  0.1318E-03  0.4225E-03  0.5049E-03
      3.199  0.8801E-03  0.3289E-02  0.3339E-02
      3.300  0.2781E-04  0.6955E-04  0.2819E-03
      3.402  0.8722E-03  0.1209E-02  0.6832E-03
      3.503  0.6017E-03  0.1079E-02  0.2115E-03
      3.604  0.1912E-04  0.2154E-03  0.4368E-03
      3.706  0.8460E-13  0.9737E-05  0.3699E-06
      3.807  0.3589E-04  0.1212E-02  0.1332E-02
      3.908  0.1515E-03  0.2169E-02  0.7315E-02
      4.010  0.1713E-04  0.7440E-03  0.3902E-02
      4.111  0.1338E-03  0.6706E-03  0.4704E-02
      4.212  0.6865E-03  0.2703E-02  0.6815E-02
      4.314  0.2227E-02  0.1469E-02  0.4625E-02
      4.415  0.1227E-02  0.6366E-02  0.1777E-01
      4.516  0.1989E-02  0.4638E-02  0.8929E-02
      4.617  0.1452E-02  0.3528E-02  0.4544E-02
      4.719  0.1540E-02  0.3228E-02  0.8000E-02
      4.820  0.8947E-02  0.2050E-03  0.3275E-02
      4.921  0.1056E-02  0.2132E-03  0.9529E-03
      5.023  0.4424E-12  0.4685E-04  0.4004E-03
      5.124  0.0000E+00  0.0000E+00  0.0000E+00
      5.225  0.1384E-05  0.2270E-03  0.1347E-01
      5.327  0.4190E-02  0.1190E-02  0.1008E-01
      5.428  0.1244E-01  0.2379E-02  0.1114E-01
      5.529  0.6080E-02  0.1626E-02  0.1301E-01
      5.631  0.2313E-02  0.3428E-02  0.8543E-02
      5.732  0.9013E-02  0.1051E-02  0.1596E-01
      5.833  0.3988E-02  0.1560E-02  0.1036E-01
      5.935  0.5453E-01  0.7393E-02  0.1378E+00
      6.036  0.7320E-01  0.3186E-01  0.4888E+00
      6.137  0.5238E-01  0.6244E-02  0.2185E+00
      6.238  0.5881E-01  0.9840E-02  0.2574E+00
      6.340  0.2136E-01  0.1250E-01  0.2804E+00
      6.441  0.2635E-01  0.2602E-01  0.4385E+00
      6.542  0.1051E-01  0.2954E-01  0.4007E+00
      6.644  0.1467E-03  0.5775E-02  0.1086E+00
      6.745  0.0000E+00  0.0000E+00  0.0000E+00
      6.846  0.0000E+00  0.0000E+00  0.0000E+00
      6.948  0.0000E+00  0.0000E+00  0.0000E+00
      7.049  0.0000E+00  0.0000E+00  0.0000E+00
      7.150  0.0000E+00  0.0000E+00  0.0000E+00
      7.252  0.0000E+00  0.0000E+00  0.0000E+00
      7.353  0.0000E+00  0.0000E+00  0.0000E+00
      7.454  0.0000E+00  0.0000E+00  0.0000E+00
      7.555  0.0000E+00  0.0000E+00  0.0000E+00
      7.657  0.0000E+00  0.0000E+00  0.0000E+00
      7.758  0.0000E+00  0.0000E+00  0.0000E+00
      7.859  0.0000E+00  0.0000E+00  0.0000E+00
      7.961  0.0000E+00  0.0000E+00  0.0000E+00
      7.96073709    -22.43258825  301      0.31175022      1.00000000
    -22.433  0.0000E+00  0.0000E+00  0.0000E+00
    -22.331  0.0000E+00  0.0000E+00  0.0000E+00
    -22.230  0.0000E+00  0.0000E+00  0.0000E+00
    -22.129  0.0000E+00  0.0000E+00  0.0000E+00
    -22.027  0.0000E+00  0.0000E+00  0.0000E+00
    -21.926  0.0000E+00  0.0000E+00  0.0000E+00
    -21.825  0.0000E+00  0.0000E+00  0.0000E+00
    -21.723  0.0000E+00  0.0000E+00  0.0000E+00
    -21.622  0.0000E+00  0.0000E+00  0.0000E+00
    -21.521  0.0000E+00  0.0000E+00  0.0000E+00
    -21.419  0.0000E+00  0.0000E+00  0.0000E+00
    -21.318  0.0000E+00  0.0000E+00  0.0000E+00
    -21.217  0.0000E+00  0.0000E+00  0.0000E+00
    -21.116  0.0000E+00  0.0000E+00  0.0000E+00
    -21.014  0.2735E-03  0.4299E-07  0.3171E-08
    -20.913  0.1654E+02  0.6242E-04  0.8788E-06
    -20.812  0.0000E+00  0.0000E+00  0.0000E+00
    -20.710  0.0000E+00  0.0000E+00  0.0000E+00
    -20.609  0.0000E+00  0.0000E+00  0.0000E+00
    -20.508  0.0000E+00  0.0000E+00  0.0000E+00
    -20.406  0.0000E+00  0.0000E+00  0.0000E+00
    -20.305  0.0000E+00  0.0000E+00  0.0000E+00
    -20.204  0.0000E+00  0.0000E+00  0.0000E+00
    -20.102  0.0000E+00  0.0000E+00  0.0000E+00
    -20.001  0.0000E+00  0.0000E+00  0.0000E+00
    -19.900  0.0000E+00  0.0000E+00  0.0000E+00
    -19.799  0.0000E+00  0.0000E+00  0.0000E+00
    -19.697  0.0000E+00  0.0000E+00  0.0000E+00
    -19.596  0.0000E+00  0.0000E+00  0.0000E+00
    -19.495  0.0000E+00  0.0000E+00  0.0000E+00
    -19.393  0.0000E+00  0.0000E+00  0.0000E+00
    -19.292  0.0000E+00  0.0000E+00  0.0000E+00
    -19.191  0.0000E+00  0.0000E+00  0.0000E+00
    -19.089  0.0000E+00  0.0000E+00  0.0000E+00
    -18.988  0.0000E+00  0.0000E+00  0.0000E+00
    -18.887  0.0000E+00  0.0000E+00  0.0000E+00
    -18.785  0.0000E+00  0.0000E+00  0.0000E+00
    -18.684  0.0000E+00  0.0000E+00  0.0000E+00
    -18.583  0.0000E+00  0.0000E+00  0.0000E+00
    -18.481  0.0000E+00  0.0000E+00  0.0000E+00
    -18.380  0.0000E+00  0.0000E+00  0.0000E+00
    -18.279  0.0000E+00  0.0000E+00  0.0000E+00
    -18.178  0.0000E+00  0.0000E+00  0.0000E+00
    -18.076  0.0000E+00  0.0000E+00  0.0000E+00
    -17.975  0.0000E+00  0.0000E+00  0.0000E+00
    -17.874  0.0000E+00  0.0000E+00  0.0000E+00
    -17.772  0.0000E+00  0.0000E+00  0.0000E+00
    -17.671  0.0000E+00  0.0000E+00  0.0000E+00
    -17.570  0.0000E+00  0.0000E+00  0.0000E+00
    -17.468  0.0000E+00  0.0000E+00  0.0000E+00
    -17.367  0.0000E+00  0.0000E+00  0.0000E+00
    -17.266  0.0000E+00  0.0000E+00  0.0000E+00
    -17.164  0.0000E+00  0.0000E+00  0.0000E+00
    -17.063  0.0000E+00  0.0000E+00  0.0000E+00
    -16.962  0.9486E-05  0.1440E-05  0.1820E-06
    -16.860  0.1559E-04  0.2290E-04  0.5141E-05
    -16.759  0.3957E-04  0.1749E-04  0.2287E-05
    -16.658  0.4631E-06  0.3354E-06  0.5387E-07
    -16.557  0.1793E-04  0.1218E-04  0.2217E-05
    -16.455  0.1295E-04  0.4648E-04  0.9762E-05
    -16.354  0.6025E-04  0.3387E-04  0.3745E-05
    -16.253  0.0000E+00  0.0000E+00  0.0000E+00
    -16.151  0.0000E+00  0.0000E+00  0.0000E+00
    -16.050  0.0000E+00  0.0000E+00  0.0000E+00
    -15.949  0.0000E+00  0.0000E+00  0.0000E+00
    -15.847  0.0000E+00  0.0000E+00  0.0000E+00
    -15.746  0.0000E+00  0.0000E+00  0.0000E+00
    -15.645  0.0000E+00  0.0000E+00  0.0000E+00
    -15.543  0.0000E+00  0.0000E+00  0.0000E+00
    -15.442  0.0000E+00  0.0000E+00  0.0000E+00
    -15.341  0.0000E+00  0.0000E+00  0.0000E+00
    -15.240  0.0000E+00  0.0000E+00  0.0000E+00
    -15.138  0.1529E-06  0.1994E-06  0.9792E-08
    -15.037  0.3785E-12  0.9473E-06  0.6289E-06
    -14.936  0.0000E+00  0.0000E+00  0.0000E+00
    -14.834  0.0000E+00  0.0000E+00  0.0000E+00
    -14.733  0.1704E-03  0.1839E-03  0.1278E-04
    -14.632  0.7178E-12  0.1269E-04  0.8460E-06
    -14.530  0.3960E-03  0.3612E-03  0.2393E-04
    -14.429  0.3447E-02  0.1390E-02  0.3092E-04
    -14.328  0.1043E-02  0.3849E-02  0.2476E-03
    -14.226  0.2103E-02  0.7289E-02  0.2602E-03
    -14.125  0.3709E-02  0.6582E-02  0.4786E-03
    -14.024  0.8898E-03  0.3701E-02  0.5295E-03
    -13.922  0.9583E-03  0.3406E-02  0.5433E-03
    -13.821  0.2021E-03  0.9010E-03  0.1119E-03
    -13.720  0.8311E-04  0.1562E-03  0.3793E-04
    -13.619  0.2511E-06  0.3646E-04  0.1737E-05
    -13.517  0.0000E+00  0.0000E+00  0.0000E+00
    -13.416  0.0000E+00  0.0000E+00  0.0000E+00