<?xml version="1.0" encoding="ISO-8859-1"?>
<modeling>
 <generator>
  <i name="program" type="string">vasp </i>
  <i name="version" type="string">5.4.4.18Apr17-6-g9f103f2a35  </i>
  <i name="subversion" type="string">(build Jun 22 2020 09:27:21) complex            parallel </i>
  <i name="platform" type="string">tx2_gcc-7.3_libsci-18.07_cray-fftw-3.3.8 </i>
  <i name="date" type="string">2021 10 12 </i>
  <i name="time" type="string">05:51:19 </i>
 </generator>
 <incar>
  <i type="string" name="SYSTEM"> CsPbBr3 cubic bulk</i>
  <i type="string" name="PREC">accurate</i>
  <i type="string" name="ALGO"> NORMAL   ! Electronic minimisation algo</i>
  <i type="logical" name="ADDGRID"> T  </i>
  <i type="int" name="ISPIN">     1</i>
  <i type="int" name="NELM">   200</i>
  <i type="int" name="IBRION">     2</i>
  <i name="EDIFF">      0.00000100</i>
  <i name="EDIFFG">     -0.01000000</i>
  <i type="int" name="NSW">     0</i>
  <i type="int" name="ISIF">     2</i>
  <i type="int" name="ISYM">     0</i>
  <i name="ENCUT">    300.00000000</i>
  <i name="POTIM">      0.50000000</i>
  <i name="NUPDOWN">      0.00000000</i>
  <i name="NELECT">    344.00000000</i>
  <i type="string" name="LREAL"> AUTO</i>
  <i type="int" name="ISMEAR">     0</i>
  <i name="SIGMA">      0.01000000</i>
  <i type="logical" name="LWAVE"> F  </i>
  <i type="logical" name="LCHARG"> F  </i>
  <i type="logical" name="LVHAR"> T  </i>
  <i type="int" name="LORBIT">    10</i>
  <i type="logical" name="LASPH"> T  </i>
  <v type="int" name="KPOINT_BSE">    -1     0     0     0</v>
  <i type="int" name="NELM">   200</i>
  <i type="string" name="METAGGA"> SCAN       ! PBE exchange-correlation</i>
  <i type="logical" name="LASPH"> T  </i>
 </incar>
 <structure name="primitive_cell" >
  <crystal>
   <varray name="basis" >
    <v>       8.42001800       0.00000000       8.07798100 </v>
    <v>       0.00000000      11.76380800       0.00000000 </v>
    <v>      -8.42001800       0.00000000       8.07798100 </v>
   </varray>
   <i name="volume">   1600.27186790 </i>
   <varray name="rec_basis" >
    <v>       0.05938230      -0.00000000       0.06189665 </v>
    <v>       0.00000000       0.08500649      -0.00000000 </v>
    <v>      -0.05938230       0.00000000       0.06189665 </v>
   </varray>
  </crystal>
  <varray name="positions" >
   <v>       0.27512300       0.25000000       0.20868500 </v>
   <v>       0.04515800       0.04768900       0.25074200 </v>
   <v>       0.04515500       0.45231000       0.25074300 </v>
   <v>      -0.47130500       0.24999900       0.02999300 </v>
   <v>       0.46537800       0.25000000       0.46974600 </v>
   <v>       0.44382800      -0.47176400       0.24653300 </v>
   <v>       0.44382800      -0.02823700       0.24653300 </v>
   <v>       0.24770700       0.03724900      -0.05148900 </v>
   <v>       0.24770800       0.46275100      -0.05149000 </v>
   <v>      -0.04143900       0.25000000      -0.03269900 </v>
   <v>       0.49990900      -0.00312500       0.00081600 </v>
   <v>       0.49991500      -0.49687300       0.00082100 </v>
   <v>      -0.00050700      -0.49944000       0.00039700 </v>
   <v>      -0.00050900      -0.00056300       0.00039400 </v>
   <v>       0.03440800       0.24999900      -0.45405100 </v>
   <v>      -0.49734900      -0.49767700       0.49659700 </v>
   <v>      -0.49734800      -0.00231900       0.49660000 </v>
   <v>       0.25423300      -0.47505000      -0.44344100 </v>
   <v>       0.25423200      -0.02495000      -0.44344000 </v>
   <v>       0.00303300       0.00032400       0.49699200 </v>
   <v>       0.00303200       0.49967600       0.49699200 </v>
   <v>       0.29763100       0.24999900      -0.27087200 </v>
   <v>      -0.21496200       0.25000000       0.22442100 </v>
   <v>       0.46916800      -0.25000100       0.28739600 </v>
   <v>      -0.24947800       0.45440100       0.45507400 </v>
   <v>      -0.24947800       0.04559900       0.45507400 </v>
   <v>      -0.24841000      -0.03546200       0.05013400 </v>
   <v>      -0.24841000      -0.46453800       0.05013300 </v>
   <v>       0.03759600      -0.24999900       0.02225900 </v>
   <v>      -0.44884300       0.03524100      -0.24900700 </v>
   <v>      -0.44884400       0.46476100      -0.24900700 </v>
   <v>       0.46548700      -0.25000000      -0.05017200 </v>
   <v>      -0.05060200      -0.03212900      -0.25232100 </v>
   <v>      -0.05060400      -0.46787000      -0.25232000 </v>
   <v>      -0.02675700      -0.25000100       0.47645600 </v>
   <v>      -0.46374500      -0.24999900      -0.46097000 </v>
   <v>       0.20431200      -0.24999900      -0.23622700 </v>
   <v>      -0.22866300       0.25000000      -0.29140800 </v>
   <v>      -0.26764300      -0.25000000      -0.20656500 </v>
  </varray>
 </structure>
 <varray name="primitive_index" >
  <v type="int" >        1 </v>
  <v type="int" >       28 </v>
  <v type="int" >       38 </v>
  <v type="int" >       21 </v>
  <v type="int" >       18 </v>
  <v type="int" >       25 </v>
  <v type="int" >       33 </v>
  <v type="int" >       31 </v>
  <v type="int" >       23 </v>
  <v type="int" >       17 </v>
  <v type="int" >        9 </v>
  <v type="int" >       11 </v>
  <v type="int" >       13 </v>
  <v type="int" >        7 </v>
  <v type="int" >       22 </v>
  <v type="int" >       14 </v>
  <v type="int" >        8 </v>
  <v type="int" >       36 </v>
  <v type="int" >       30 </v>
  <v type="int" >       10 </v>
  <v type="int" >       12 </v>
  <v type="int" >        4 </v>
  <v type="int" >        5 </v>
  <v type="int" >       39 </v>
  <v type="int" >       24 </v>
  <v type="int" >       32 </v>
  <v type="int" >       29 </v>
  <v type="int" >       35 </v>
  <v type="int" >       19 </v>
  <v type="int" >       27 </v>
  <v type="int" >       37 </v>
  <v type="int" >       15 </v>
  <v type="int" >       34 </v>
  <v type="int" >       26 </v>
  <v type="int" >       16 </v>
  <v type="int" >       20 </v>
  <v type="int" >        3 </v>
  <v type="int" >        2 </v>
  <v type="int" >        6 </v>
 </varray>
 <kpoints>
  <generation param="Gamma">
   <v type="int" name="divisions">       2        2        2 </v>
   <v name="usershift">      0.00000000       0.00000000       0.00000000 </v>
   <v name="genvec1">      0.50000000       0.00000000       0.00000000 </v>
   <v name="genvec2">      0.00000000       0.50000000       0.00000000 </v>
   <v name="genvec3">      0.00000000       0.00000000       0.50000000 </v>
   <v name="shift">      0.00000000       0.00000000       0.00000000 </v>
  </generation>
  <varray name="kpointlist" >
   <v>       0.00000000       0.00000000       0.00000000 </v>
   <v>       0.50000000       0.00000000       0.00000000 </v>
   <v>       0.00000000       0.50000000       0.00000000 </v>
   <v>       0.50000000       0.50000000       0.00000000 </v>
   <v>       0.00000000       0.00000000       0.50000000 </v>
   <v>       0.50000000       0.00000000       0.50000000 </v>
   <v>       0.00000000       0.50000000       0.50000000 </v>
   <v>       0.50000000       0.50000000       0.50000000 </v>
  </varray>
  <varray name="weights" >
   <v>       0.12500000 </v>
   <v>       0.12500000 </v>
   <v>       0.12500000 </v>
   <v>       0.12500000 </v>
   <v>       0.12500000 </v>
   <v>       0.12500000 </v>
   <v>       0.12500000 </v>
   <v>       0.12500000 </v>
  </varray>
 </kpoints>
 <parameters>
  <separator name="general" >
   <i type="string" name="SYSTEM">CsPbBr3 cubic bulk</i>
   <i type="logical" name="LCOMPAT"> F  </i>
  </separator>
  <separator name="electronic" >
   <i type="string" name="PREC">accura</i>
   <i name="ENMAX">    300.00000000</i>
   <i name="ENAUG">    503.85200000</i>
   <i name="EDIFF">      0.00000100</i>
   <i type="int" name="IALGO">    38</i>
   <i type="int" name="IWAVPR">    10</i>
   <i type="int" name="NBANDS">   208</i>
   <i name="NELECT">    344.00000000</i>
   <i type="int" name="TURBO">     0</i>
   <i type="int" name="IRESTART">     0</i>
   <i type="int" name="NREBOOT">     0</i>
   <i type="int" name="NMIN">     0</i>
   <i name="EREF">      0.00000000</i>
   <separator name="electronic smearing" >
    <i type="int" name="ISMEAR">     0</i>
    <i name="SIGMA">      0.01000000</i>
    <i name="KSPACING">      0.50000000</i>
    <i type="logical" name="KGAMMA"> T  </i>
   </separator>
   <separator name="electronic projectors" >
    <i type="logical" name="LREAL"> T  </i>
    <v name="ROPT">     -0.00025000     -0.00025000     -0.00025000     -0.00025000</v>
    <i type="int" name="LMAXPAW">  -100</i>
    <i type="int" name="LMAXMIX">     2</i>
    <i type="logical" name="NLSPLINE"> F  </i>
   </separator>
   <separator name="electronic startup" >
    <i type="int" name="ISTART">     0</i>
    <i type="int" name="ICHARG">     2</i>
    <i type="int" name="INIWAV">     1</i>
   </separator>
   <separator name="electronic spin" >
    <i type="int" name="ISPIN">     1</i>
    <i type="logical" name="LNONCOLLINEAR"> F  </i>
    <v name="MAGMOM">      0.00000000      0.00000000      0.00000000      0.00000000      0.00000000      0.00000000      0.00000000      0.00000000      0.00000000      0.00000000      0.00000000      0.00000000      0.00000000      0.00000000      0.00000000      0.00000000      0.00000000      0.00000000      0.00000000      0.00000000
      0.00000000      0.00000000      0.00000000      0.00000000      0.00000000      0.00000000      0.00000000      0.00000000      0.00000000      0.00000000      0.00000000      0.00000000      0.00000000      0.00000000      0.00000000      0.00000000      0.00000000      0.00000000      0.00000000</v>
    <i name="NUPDOWN">      0.00000000</i>
    <i type="logical" name="LSORBIT"> F  </i>
    <v name="SAXIS">      0.00000000      0.00000000      1.00000000</v>
    <i type="logical" name="LSPIRAL"> F  </i>
    <v name="QSPIRAL">      0.00000000      0.00000000      0.00000000</v>
    <i type="logical" name="LZEROZ"> F  </i>
   </separator>
   <separator name="electronic exchange-correlation" >
    <i type="logical" name="LASPH"> T  </i>
    <i type="logical" name="LMETAGGA"> F  </i>
   </separator>
   <separator name="electronic convergence" >
    <i type="int" name="NELM">   200</i>
    <i type="int" name="NELMDL">    -5</i>
    <i type="int" name="NELMIN">     2</i>
    <i name="ENINI">    300.00000000</i>
    <separator name="electronic convergence detail" >
     <i type="logical" name="LDIAG"> T  </i>
     <i type="logical" name="LSUBROT"> F  </i>
     <i name="WEIMIN">      0.00000000</i>
     <i name="EBREAK">      0.00000000</i>
     <i name="DEPER">      0.30000000</i>
     <i type="int" name="NRMM">     4</i>
     <i name="TIME">      0.40000000</i>
    </separator>
   </separator>
   <separator name="electronic mixer" >
    <i name="AMIX">      0.40000000</i>
    <i name="BMIX">      1.00000000</i>
    <i name="AMIN">      0.10000000</i>
    <i name="AMIX_MAG">      1.60000000</i>
    <i name="BMIX_MAG">      1.00000000</i>
    <separator name="electronic mixer details" >
     <i type="int" name="IMIX">     4</i>
     <i type="logical" name="MIXFIRST"> F  </i>
     <i type="int" name="MAXMIX">   -45</i>
     <i name="WC">    100.00000000</i>
     <i type="int" name="INIMIX">     1</i>
     <i type="int" name="MIXPRE">     1</i>
     <i type="int" name="MREMOVE">     5</i>
    </separator>
   </separator>
   <separator name="electronic dipolcorrection" >
    <i type="logical" name="LDIPOL"> F  </i>
    <i type="logical" name="LMONO"> F  </i>
    <i type="int" name="IDIPOL">     0</i>
    <i name="EPSILON">      1.00000000</i>
    <v name="DIPOL">   -100.00000000   -100.00000000   -100.00000000</v>
    <i name="EFIELD">      0.00000000</i>
   </separator>
  </separator>
  <separator name="grids" >
   <i type="int" name="NGX">    70</i>
   <i type="int" name="NGY">    70</i>
   <i type="int" name="NGZ">    70</i>
   <i type="int" name="NGXF">   140</i>
   <i type="int" name="NGYF">   140</i>
   <i type="int" name="NGZF">   140</i>
   <i type="logical" name="ADDGRID"> T  </i>
  </separator>
  <separator name="ionic" >
   <i type="int" name="NSW">     0</i>
   <i type="int" name="IBRION">    -1</i>
   <i type="int" name="MDALGO">     0</i>
   <i type="int" name="ISIF">     2</i>
   <i name="PSTRESS">      0.00000000</i>
   <i name="EDIFFG">     -0.01000000</i>
   <i type="int" name="NFREE">     1</i>
   <i name="POTIM">      0.50000000</i>
   <i name="SMASS">     -3.00000000</i>
   <i name="SCALEE">      1.00000000</i>
  </separator>
  <separator name="ionic md" >
   <i name="TEBEG">      0.00010000</i>
   <i name="TEEND">      0.00010000</i>
   <i type="int" name="NBLOCK">     1</i>
   <i type="int" name="KBLOCK">     1</i>
   <i type="int" name="NPACO">   256</i>
   <i name="APACO">     16.00000000</i>
  </separator>
  <separator name="symmetry" >
   <i type="int" name="ISYM">     0</i>
   <i name="SYMPREC">      0.00001000</i>
  </separator>
  <separator name="dos" >
   <i type="int" name="LORBIT">    10</i>
   <v name="RWIGS">     -1.00000000     -1.00000000     -1.00000000     -1.00000000</v>
   <i type="int" name="NEDOS">   301</i>
   <i name="EMIN">     10.00000000</i>
   <i name="EMAX">    -10.00000000</i>
   <i name="EFERMI">      0.00000000</i>
  </separator>
  <separator name="writing" >
   <i type="int" name="NWRITE">     2</i>
   <i type="logical" name="LWAVE"> F  </i>
   <i type="logical" name="LDOWNSAMPLE"> F  </i>
   <i type="logical" name="LCHARG"> F  </i>
   <i type="logical" name="LPARD"> F  </i>
   <i type="logical" name="LVTOT"> F  </i>
   <i type="logical" name="LVHAR"> T  </i>
   <i type="logical" name="LELF"> F  </i>
   <i type="logical" name="LOPTICS"> F  </i>
   <v name="STM">      0.00000000      0.00000000      0.00000000      0.00000000      0.00000000      0.00000000      0.00000000</v>
  </separator>
  <separator name="performance" >
   <i type="int" name="NPAR">     8</i>
   <i type="int" name="NSIM">     4</i>
   <i type="int" name="NBLK">    -1</i>
   <i type="logical" name="LPLANE"> T  </i>
   <i type="logical" name="LSCALAPACK"> T  </i>
   <i type="logical" name="LSCAAWARE"> F  </i>
   <i type="logical" name="LSCALU"> F  </i>
   <i type="logical" name="LASYNC"> F  </i>
   <i type="logical" name="LORBITALREAL"> F  </i>
  </separator>
  <separator name="miscellaneous" >
   <i type="int" name="IDIOT">     3</i>
   <i type="int" name="ISPECIAL">     0</i>
   <i type="logical" name="LMUSIC"> F  </i>
   <v name="POMASS">    132.90000000    207.20000000     79.90400000    132.90000000</v>
   <v name="DARWINR">      0.00000000      0.00000000      0.00000000      0.00000000</v>
   <v name="DARWINV">      1.00000000      1.00000000      1.00000000      1.00000000</v>
   <i type="logical" name="LCORR"> T  </i>
  </separator>
  <i type="logical" name="GGA_COMPAT"> T  </i>
  <i type="logical" name="LBERRY"> F  </i>
  <i type="int" name="ICORELEVEL">     0</i>
  <i type="logical" name="LDAU"> F  </i>
  <i type="int" name="I_CONSTRAINED_M">     0</i>
  <separator name="electronic exchange-correlation" >
   <i type="string" name="GGA">--</i>
   <i type="int" name="VOSKOWN">     0</i>
   <i type="logical" name="LHFCALC"> F  </i>
   <i type="string" name="PRECFOCK"></i>
   <i type="logical" name="LSYMGRAD"> F  </i>
   <i type="logical" name="LHFONE"> F  </i>
   <i type="logical" name="LRHFCALC"> F  </i>
   <i type="logical" name="LTHOMAS"> F  </i>
   <i type="logical" name="LMODELHF"> F  </i>
   <i name="ENCUT4O">     -1.00000000</i>
   <i type="int" name="EXXOEP">     0</i>
   <i type="int" name="FOURORBIT">     0</i>
   <i name="AEXX">      0.00000000</i>
   <i name="HFALPHA">      0.00000000</i>
   <i name="MCALPHA">      0.00000000</i>
   <i name="ALDAX">      1.00000000</i>
   <i name="AGGAX">      1.00000000</i>
   <i name="ALDAC">      1.00000000</i>
   <i name="AGGAC">      1.00000000</i>
   <i type="int" name="NKREDX">     1</i>
   <i type="int" name="NKREDY">     1</i>
   <i type="int" name="NKREDZ">     1</i>
   <i type="logical" name="SHIFTRED"> F  </i>
   <i type="logical" name="ODDONLY"> F  </i>
   <i type="logical" name="EVENONLY"> F  </i>
   <i type="int" name="LMAXFOCK">     0</i>
   <i type="int" name="NMAXFOCKAE">     0</i>
   <i type="logical" name="LFOCKAEDFT"> F  </i>
   <i name="HFSCREEN">      0.00000000</i>
   <i name="HFSCREENC">      0.00000000</i>
   <i type="int" name="NBANDSGWLOW">     0</i>
  </separator>
  <separator name="vdW DFT" >
   <i type="logical" name="LUSE_VDW"> F  </i>
   <i name="Zab_VDW">     -0.84910000</i>
   <i name="PARAM1">      0.12340000</i>
   <i name="PARAM2">      1.00000000</i>
   <i name="PARAM3">      0.00000000</i>
  </separator>
  <separator name="model GW" >
   <i type="int" name="MODEL_GW">     0</i>
   <i name="MODEL_EPS0">     24.61956720</i>
   <i name="MODEL_ALPHA">      1.00000000</i>
  </separator>
  <separator name="linear response parameters" >
   <i type="logical" name="LEPSILON"> F  </i>
   <i type="logical" name="LRPA"> F  </i>
   <i type="logical" name="LNABLA"> F  </i>
   <i type="logical" name="LVEL"> F  </i>
   <i type="int" name="KINTER">     0</i>
   <i name="CSHIFT">      0.10000000</i>
   <i name="OMEGAMAX">     -1.00000000</i>
   <i name="DEG_THRESHOLD">      0.00200000</i>
   <i name="RTIME">     -0.10000000</i>
   <i name="WPLASMAI">      0.00000000</i>
   <v name="DFIELD">      0.00000000      0.00000000      0.00000000</v>
   <v name="WPLASMA">      0.00000000      0.00000000      0.00000000      0.00000000      0.00000000      0.00000000      0.00000000      0.00000000      0.00000000</v>
  </separator>
  <separator name="orbital magnetization" >
   <i type="logical" name="NUCIND"> F  </i>
   <v name="MAGPOS">      0.00000000      0.00000000      0.00000000</v>
   <i type="logical" name="LNICSALL"> T  </i>
   <i type="logical" name="ORBITALMAG"> F  </i>
   <i type="logical" name="LMAGBLOCH"> F  </i>
   <i type="logical" name="LCHIMAG"> F  </i>
   <i type="logical" name="LGAUGE"> T  </i>
   <i type="int" name="MAGATOM">     0</i>
   <v name="MAGDIPOL">      0.00000000      0.00000000      0.00000000</v>
   <v name="AVECCONST">      0.00000000      0.00000000      0.00000000</v>
  </separator>
  <separator name="response functions" >
   <i type="logical" name="LADDER"> F  </i>
   <i type="logical" name="LRPAFORCE"> F  </i>
   <i type="logical" name="LFXC"> F  </i>
   <i type="logical" name="LHARTREE"> T  </i>
   <i type="int" name="IBSE">     0</i>
   <v type="int" name="KPOINT">    -1     0     0     0</v>
   <i type="logical" name="LTCTE"> F  </i>
   <i type="logical" name="LTETE"> F  </i>
   <i type="logical" name="LTRIPLET"> F  </i>
   <i type="logical" name="LFXCEPS"> F  </i>
   <i type="logical" name="LFXHEG"> F  </i>
   <i type="int" name="NATURALO">     2</i>
   <i type="logical" name="L2ORDER"> F  </i>
   <i type="logical" name="LMP2LT"> F  </i>
   <i type="logical" name="LUSEW"> F  </i>
   <i name="ENCUTGW">     -2.00000000</i>
   <i name="ENCUTGWSOFT">     -2.00000000</i>
   <i name="ENCUTLF">     -1.00000000</i>
   <i type="int" name="LMAXMP2">    -1</i>
   <i name="SCISSOR">      0.00000000</i>
   <i type="int" name="NOMEGA">     0</i>
   <i type="int" name="NOMEGAR">     0</i>
   <i type="int" name="NBANDSGW">    -1</i>
   <i type="int" name="NBANDSO">    -1</i>
   <i type="int" name="NBANDSV">    -1</i>
   <i type="int" name="NELM">   200</i>
   <i type="int" name="NELMHF">     1</i>
   <i type="int" name="DIM">     3</i>
   <i type="int" name="ANTIRES">     0</i>
   <i name="OMEGAMAX">    -30.00000000</i>
   <i name="OMEGAMIN">    -30.00000000</i>
   <i name="OMEGATL">   -200.00000000</i>
   <i type="int" name="OMEGAGRID">   140</i>
   <i name="CSHIFT">     -0.10000000</i>
   <i type="logical" name="SELFENERGY"> F  </i>
   <i type="logical" name="LSPECTRAL"> F  </i>
   <i type="logical" name="LSPECTRALGW"> F  </i>
   <i type="logical" name="LSINGLES"> F  </i>
   <i type="logical" name="LFERMIGW"> F  </i>
   <i type="logical" name="ODDONLYGW"> F  </i>
   <i type="logical" name="EVENONLYGW"> F  </i>
   <i type="int" name="NKREDLFX">     1</i>
   <i type="int" name="NKREDLFY">     1</i>
   <i type="int" name="NKREDLFZ">     1</i>
   <i type="int" name="MAXMEM">  2800</i>
   <i type="int" name="TELESCOPE">     0</i>
   <i type="int" name="TAUPAR">     1</i>
   <i type="int" name="OMEGAPAR">    -1</i>
   <i name="LAMBDA">      1.00000000</i>
  </separator>
  <separator name="External order field" >
   <i name="OFIELD_KAPPA">      0.00000000</i>
   <v name="OFIELD_K">      0.00000000      0.00000000      0.00000000</v>
   <i name="OFIELD_Q6_NEAR">      0.00000000</i>
   <i name="OFIELD_Q6_FAR">      0.00000000</i>
   <i name="OFIELD_A">      0.00000000</i>
  </separator>
 </parameters>
 <atominfo>
  <atoms>      39 </atoms>
  <types>       4 </types>
  <array name="atoms" >
   <dimension dim="1">ion</dimension>
   <field type="string">element</field>
   <field type="int">atomtype</field>
   <set>
    <rc><c>Cs</c><c>   1</c></rc>
    <rc><c>Cs</c><c>   1</c></rc>
    <rc><c>Cs</c><c>   1</c></rc>
    <rc><c>Cs</c><c>   1</c></rc>
    <rc><c>Cs</c><c>   1</c></rc>
    <rc><c>Cs</c><c>   1</c></rc>
    <rc><c>Pb</c><c>   2</c></rc>
    <rc><c>Pb</c><c>   2</c></rc>
    <rc><c>Pb</c><c>   2</c></rc>
    <rc><c>Pb</c><c>   2</c></rc>
    <rc><c>Pb</c><c>   2</c></rc>
    <rc><c>Pb</c><c>   2</c></rc>
    <rc><c>Pb</c><c>   2</c></rc>
    <rc><c>Pb</c><c>   2</c></rc>
    <rc><c>Br</c><c>   3</c></rc>
    <rc><c>Br</c><c>   3</c></rc>
    <rc><c>Br</c><c>   3</c></rc>
    <rc><c>Br</c><c>   3</c></rc>
    <rc><c>Br</c><c>   3</c></rc>
    <rc><c>Br</c><c>   3</c></rc>
    <rc><c>Br</c><c>   3</c></rc>
    <rc><c>Br</c><c>   3</c></rc>
    <rc><c>Br</c><c>   3</c></rc>
    <rc><c>Br</c><c>   3</c></rc>
    <rc><c>Br</c><c>   3</c></rc>
    <rc><c>Br</c><c>   3</c></rc>
    <rc><c>Br</c><c>   3</c></rc>
    <rc><c>Br</c><c>   3</c></rc>
    <rc><c>Br</c><c>   3</c></rc>
    <rc><c>Br</c><c>   3</c></rc>
    <rc><c>Br</c><c>   3</c></rc>
    <rc><c>Br</c><c>   3</c></rc>
    <rc><c>Br</c><c>   3</c></rc>
    <rc><c>Br</c><c>   3</c></rc>
    <rc><c>Br</c><c>   3</c></rc>
    <rc><c>Br</c><c>   3</c></rc>
    <rc><c>Br</c><c>   3</c></rc>
    <rc><c>Br</c><c>   3</c></rc>
    <rc><c>Cs</c><c>   4</c></rc>
   </set>
  </array>
  <array name="atomtypes" >
   <dimension dim="1">type</dimension>
   <field type="int">atomspertype</field>
   <field type="string">element</field>
   <field>mass</field>
   <field>valence</field>
   <field type="string">pseudopotential</field>
   <set>
    <rc><c>   6</c><c>Cs</c><c>    132.90000000</c><c>      9.00000000</c><c>  PAW_PBE Cs_sv 08Apr2002               </c></rc>
    <rc><c>   8</c><c>Pb</c><c>    207.20000000</c><c>     14.00000000</c><c>  PAW_PBE Pb_d 06Sep2000                </c></rc>
    <rc><c>  24</c><c>Br</c><c>     79.90400000</c><c>      7.00000000</c><c>  PAW_PBE Br 06Sep2000                  </c></rc>
    <rc><c>   1</c><c>Cs</c><c>    132.90000000</c><c>      9.00000000</c><c>  PAW_PBE Cs_sv 08Apr2002               </c></rc>
   </set>
  </array>
 </atominfo>
 <structure name="initialpos" >
  <crystal>
   <varray name="basis" >
    <v>       8.42001800       0.00000000       8.07798100 </v>
    <v>       0.00000000      11.76380800       0.00000000 </v>
    <v>      -8.42001800       0.00000000       8.07798100 </v>
   </varray>
   <i name="volume">   1600.27186790 </i>
   <varray name="rec_basis" >
    <v>       0.05938230      -0.00000000       0.06189665 </v>
    <v>       0.00000000       0.08500649      -0.00000000 </v>
    <v>      -0.05938230       0.00000000       0.06189665 </v>
   </varray>
  </crystal>
  <varray name="positions" >
   <v>       0.27512300       0.25000000       0.20868500 </v>
   <v>       0.77133700       0.25000000       0.70859200 </v>
   <v>       0.20431200       0.75000100       0.76377300 </v>
   <v>       0.29763100       0.24999900       0.72912800 </v>
   <v>       0.78503800       0.25000000       0.22442100 </v>
   <v>       0.73235700       0.75000000       0.79343500 </v>
   <v>       0.99949100       0.99943700       0.00039400 </v>
   <v>       0.50265200       0.99768100       0.49660000 </v>
   <v>       0.49990900       0.99687500       0.00081600 </v>
   <v>       0.00303300       0.00032400       0.49699200 </v>
   <v>       0.49991500       0.50312700       0.00082100 </v>
   <v>       0.00303200       0.49967600       0.49699200 </v>
   <v>       0.99949300       0.50056000       0.00039700 </v>
   <v>       0.50265100       0.50232300       0.49659700 </v>
   <v>       0.46548700       0.75000000       0.94982800 </v>
   <v>       0.97324300       0.74999900       0.47645600 </v>
   <v>       0.95856100       0.25000000       0.96730100 </v>
   <v>       0.46537800       0.25000000       0.46974600 </v>
   <v>       0.03759600       0.75000100       0.02225900 </v>
   <v>       0.53625500       0.75000100       0.53903000 </v>
   <v>       0.52869500       0.24999900       0.02999300 </v>
   <v>       0.03440800       0.24999900       0.54594900 </v>
   <v>       0.24770800       0.46275100       0.94851000 </v>
   <v>       0.75052200       0.45440100       0.45507400 </v>
   <v>       0.44382800       0.52823600       0.24653300 </v>
   <v>       0.94939600       0.53213000       0.74768000 </v>
   <v>       0.55115700       0.03524100       0.75099300 </v>
   <v>       0.04515800       0.04768900       0.25074200 </v>
   <v>       0.75159000       0.96453800       0.05013400 </v>
   <v>       0.25423200       0.97505000       0.55656000 </v>
   <v>       0.24770700       0.03724900       0.94851100 </v>
   <v>       0.75052200       0.04559900       0.45507400 </v>
   <v>       0.44382800       0.97176300       0.24653300 </v>
   <v>       0.94939800       0.96787100       0.74767900 </v>
   <v>       0.75159000       0.53546200       0.05013300 </v>
   <v>       0.25423300       0.52495000       0.55655900 </v>
   <v>       0.55115600       0.46476100       0.75099300 </v>
   <v>       0.04515500       0.45231000       0.25074300 </v>
   <v>       0.46916800       0.74999900       0.28739600 </v>
  </varray>
 </structure>
 <calculation>
  <scstep>
   <time name="dav">   16.75   16.76</time>
   <time name="total">   18.22   18.25</time>
   <energy>
    <i name="alphaZ">    835.99855037 </i>
    <i name="ewald"> -17372.75432769 </i>
    <i name="hartreedc">  -7744.24578091 </i>
    <i name="XCdc">    906.18780234 </i>
    <i name="pawpsdc">  21217.07306836 </i>
    <i name="pawaedc"> -22257.58625956 </i>
    <i name="eentropy">     -0.00188562 </i>
    <i name="bandstr">   -244.30370318 </i>
    <i name="atom">  26024.88362379 </i>
    <i name="e_fr_energy">   1365.25108790 </i>
    <i name="e_wo_entrp">   1365.25297352 </i>
    <i name="e_0_energy">   1365.25203071 </i>
   </energy>
  </scstep>
  <scstep>
   <time name="dav">   18.75   18.78</time>
   <time name="total">   18.75   18.78</time>
   <energy>
    <i name="e_fr_energy">  -1089.51599800 </i>
    <i name="e_wo_entrp">  -1089.51599800 </i>
    <i name="e_0_energy">  -1089.51599800 </i>
   </energy>
  </scstep>
  <scstep>
   <time name="dav">   19.48   19.54</time>
   <time name="total">   19.48   19.54</time>
   <energy>
    <i name="e_fr_energy">  -1450.19874583 </i>
    <i name="e_wo_entrp">  -1450.19874583 </i>
    <i name="e_0_energy">  -1450.19874583 </i>
   </energy>
  </scstep>
  <scstep>
   <time name="dav">   18.14   18.20</time>
   <time name="total">   18.14   18.20</time>
   <energy>
    <i name="e_fr_energy">  -1462.37552078 </i>
    <i name="e_wo_entrp">  -1462.37552078 </i>
    <i name="e_0_energy">  -1462.37552078 </i>
   </energy>
  </scstep>
  <scstep>
   <time name="dav">   19.57   19.59</time>
   <time name="total">   22.30   22.32</time>
   <energy>
    <i name="e_fr_energy">  -1462.92074388 </i>
    <i name="e_wo_entrp">  -1462.92074388 </i>
    <i name="e_0_energy">  -1462.92074388 </i>
   </energy>
  </scstep>
  <scstep>
   <time name="dav">   19.36   19.36</time>
   <time name="total">   23.55   23.58</time>
   <energy>
    <i name="e_fr_energy">  -1383.65468869 </i>
    <i name="e_wo_entrp">  -1383.65468869 </i>
    <i name="e_0_energy">  -1383.65468869 </i>
   </energy>
  </scstep>
  <scstep>
   <time name="dav">   18.70   18.70</time>
   <time name="total">   22.88   22.91</time>
   <energy>
    <i name="e_fr_energy">  -1383.26378055 </i>
    <i name="e_wo_entrp">  -1383.26378055 </i>
    <i name="e_0_energy">  -1383.26378055 </i>
   </energy>
  </scstep>
  <scstep>
   <time name="dav">   17.81   17.81</time>
   <time name="total">   22.02   22.04</time>
   <energy>
    <i name="e_fr_energy">  -1383.44737313 </i>
    <i name="e_wo_entrp">  -1383.44737313 </i>
    <i name="e_0_energy">  -1383.44737313 </i>
   </energy>
  </scstep>
  <scstep>
   <time name="dav">   17.20   17.21</time>
   <time name="total">   21.36   21.41</time>
   <energy>
    <i name="e_fr_energy">  -1383.53054925 </i>
    <i name="e_wo_entrp">  -1383.53054925 </i>
    <i name="e_0_energy">  -1383.53054925 </i>
   </energy>
  </scstep>
  <scstep>
   <time name="dav">   20.30   20.30</time>
   <time name="total">   24.49   24.51</time>
   <energy>
    <i name="e_fr_energy">  -1383.53344947 </i>
    <i name="e_wo_entrp">  -1383.53344947 </i>
    <i name="e_0_energy">  -1383.53344947 </i>
   </energy>
  </scstep>
  <scstep>
   <time name="dav">   17.42   17.42</time>
   <time name="total">   21.66   21.66</time>
   <energy>
    <i name="e_fr_energy">  -1383.53631039 </i>
    <i name="e_wo_entrp">  -1383.53631039 </i>
    <i name="e_0_energy">  -1383.53631039 </i>
   </energy>
  </scstep>
  <scstep>
   <time name="dav">   17.24   17.24</time>
   <time name="total">   21.43   21.49</time>
   <energy>
    <i name="e_fr_energy">  -1383.53833399 </i>
    <i name="e_wo_entrp">  -1383.53833399 </i>
    <i name="e_0_energy">  -1383.53833399 </i>
   </energy>
  </scstep>
  <scstep>
   <time name="dav">   19.99   19.99</time>
   <time name="total">   24.16   24.22</time>
   <energy>
    <i name="e_fr_energy">  -1383.53817749 </i>
    <i name="e_wo_entrp">  -1383.53817749 </i>
    <i name="e_0_energy">  -1383.53817749 </i>
   </energy>
  </scstep>
  <scstep>
   <time name="dav">   17.73   17.74</time>
   <time name="total">   21.94   21.94</time>
   <energy>
    <i name="e_fr_energy">  -1383.53818159 </i>
    <i name="e_wo_entrp">  -1383.53818159 </i>
    <i name="e_0_energy">  -1383.53818159 </i>
   </energy>
  </scstep>
  <scstep>
   <time name="dav">   17.19   17.20</time>
   <time name="total">   21.42   21.43</time>
   <energy>
    <i name="e_fr_energy">  -1383.53817160 </i>
    <i name="e_wo_entrp">  -1383.53817160 </i>
    <i name="e_0_energy">  -1383.53817160 </i>
   </energy>
  </scstep>
  <scstep>
   <time name="dav">   17.56   17.56</time>
   <time name="total">   21.76   21.80</time>
   <energy>
    <i name="e_fr_energy">  -1383.53823244 </i>
    <i name="e_wo_entrp">  -1383.53823244 </i>
    <i name="e_0_energy">  -1383.53823244 </i>
   </energy>
  </scstep>
  <scstep>
   <time name="dav">   16.33   16.33</time>
   <time name="total">   20.56   20.56</time>
   <energy>
    <i name="e_fr_energy">  -1383.53822849 </i>
    <i name="e_wo_entrp">  -1383.53822849 </i>
    <i name="e_0_energy">  -1383.53822849 </i>
   </energy>
  </scstep>
  <scstep>
   <time name="dav">   13.34   13.34</time>
   <time name="total">   14.87   14.87</time>
   <energy>
    <i name="alphaZ">    835.99855037 </i>
    <i name="ewald"> -17372.75432769 </i>
    <i name="hartreedc">  -7779.31494542 </i>
    <i name="XCdc">    948.14935610 </i>
    <i name="pawpsdc">  22898.36857489 </i>
    <i name="pawaedc"> -23937.83101918 </i>
    <i name="eentropy">     -0.00000000 </i>
    <i name="bandstr">  -3001.03804045 </i>
    <i name="atom">  26024.88362379 </i>
    <i name="e_fr_energy">  -1383.53822760 </i>
    <i name="e_wo_entrp">  -1383.53822760 </i>
    <i name="e_0_energy">  -1383.53822760 </i>
   </energy>
  </scstep>
  <structure>
   <crystal>
    <varray name="basis" >
     <v>       8.42001800       0.00000000       8.07798100 </v>
     <v>       0.00000000      11.76380800       0.00000000 </v>
     <v>      -8.42001800       0.00000000       8.07798100 </v>
    </varray>
    <i name="volume">   1600.27186790 </i>
    <varray name="rec_basis" >
     <v>       0.05938230      -0.00000000       0.06189665 </v>
     <v>       0.00000000       0.08500649      -0.00000000 </v>
     <v>      -0.05938230       0.00000000       0.06189665 </v>
    </varray>
   </crystal>
   <varray name="positions" >
    <v>       0.27512300       0.25000000       0.20868500 </v>
    <v>       0.77133700       0.25000000       0.70859200 </v>
    <v>       0.20431200       0.75000100       0.76377300 </v>
    <v>       0.29763100       0.24999900       0.72912800 </v>
    <v>       0.78503800       0.25000000       0.22442100 </v>
    <v>       0.73235700       0.75000000       0.79343500 </v>
    <v>       0.99949100       0.99943700       0.00039400 </v>
    <v>       0.50265200       0.99768100       0.49660000 </v>
    <v>       0.49990900       0.99687500       0.00081600 </v>
    <v>       0.00303300       0.00032400       0.49699200 </v>
    <v>       0.49991500       0.50312700       0.00082100 </v>
    <v>       0.00303200       0.49967600       0.49699200 </v>
    <v>       0.99949300       0.50056000       0.00039700 </v>
    <v>       0.50265100       0.50232300       0.49659700 </v>
    <v>       0.46548700       0.75000000       0.94982800 </v>
    <v>       0.97324300       0.74999900       0.47645600 </v>
    <v>       0.95856100       0.25000000       0.96730100 </v>
    <v>       0.46537800       0.25000000       0.46974600 </v>
    <v>       0.03759600       0.75000100       0.02225900 </v>
    <v>       0.53625500       0.75000100       0.53903000 </v>
    <v>       0.52869500       0.24999900       0.02999300 </v>
    <v>       0.03440800       0.24999900       0.54594900 </v>
    <v>       0.24770800       0.46275100       0.94851000 </v>
    <v>       0.75052200       0.45440100       0.45507400 </v>
    <v>       0.44382800       0.52823600       0.24653300 </v>
    <v>       0.94939600       0.53213000       0.74768000 </v>
    <v>       0.55115700       0.03524100       0.75099300 </v>
    <v>       0.04515800       0.04768900       0.25074200 </v>
    <v>       0.75159000       0.96453800       0.05013400 </v>
    <v>       0.25423200       0.97505000       0.55656000 </v>
    <v>       0.24770700       0.03724900       0.94851100 </v>
    <v>       0.75052200       0.04559900       0.45507400 </v>
    <v>       0.44382800       0.97176300       0.24653300 </v>
    <v>       0.94939800       0.96787100       0.74767900 </v>
    <v>       0.75159000       0.53546200       0.05013300 </v>
    <v>       0.25423300       0.52495000       0.55655900 </v>
    <v>       0.55115600       0.46476100       0.75099300 </v>
    <v>       0.04515500       0.45231000       0.25074300 </v>
    <v>       0.46916800       0.74999900       0.28739600 </v>
   </varray>
  </structure>
  <varray name="forces" >
   <v>      -0.04146796      -0.00000830      -0.07387654 </v>
   <v>       0.05434575       0.00002592       0.03119711 </v>
   <v>      -0.04686507      -0.00003539      -0.08407069 </v>
   <v>      -0.01598015       0.00006593      -0.02572293 </v>
   <v>       0.06079734      -0.00007464       0.04486778 </v>
   <v>       0.05920829       0.00000294       0.10225523 </v>
   <v>      -0.07367974      -0.10703292       0.03798601 </v>
   <v>      -0.27139587       0.47663272       0.34567983 </v>
   <v>       0.26300295       0.22312441      -0.07483969 </v>
   <v>       0.04143012      -0.21119115      -0.08218438 </v>
   <v>       0.26308054      -0.22320571      -0.07519429 </v>
   <v>       0.04133157       0.21121388      -0.08213263 </v>
   <v>      -0.07347341       0.10704919       0.03791229 </v>
   <v>      -0.27150550      -0.47668921       0.34581934 </v>
   <v>      -0.07656000      -0.00001874       0.04221358 </v>
   <v>      -0.02460263      -0.00000804       0.06532262 </v>
   <v>       0.01347061       0.00002839      -0.01751703 </v>
   <v>       0.01038727       0.00004424       0.00777209 </v>
   <v>       0.05238655      -0.00004147      -0.01667111 </v>
   <v>      -0.72071751       0.00001145       1.24519033 </v>
   <v>       0.01358786       0.00004895      -0.01921359 </v>
   <v>      -0.01152963       0.00000532       0.02689342 </v>
   <v>       0.06431336       0.00468113       0.05681967 </v>
   <v>      -0.13175374       0.00408929      -0.09123771 </v>
   <v>       0.24360617      -4.70599005      -1.13906434 </v>
   <v>      -0.01711500      -0.01325445      -0.00484577 </v>
   <v>       0.00669193      -0.02647551      -0.04041346 </v>
   <v>      -0.00295148       0.06910142       0.00078265 </v>
   <v>      -0.09746996      -0.01303287      -0.08918983 </v>
   <v>       0.12088348       0.01551235       0.09841371 </v>
   <v>       0.06437725      -0.00467171       0.05681292 </v>
   <v>      -0.13176631      -0.00408606      -0.09123073 </v>
   <v>       0.24361080       4.70580253      -1.13898479 </v>
   <v>      -0.01712887       0.01323466      -0.00487281 </v>
   <v>      -0.09748854       0.01305260      -0.08912765 </v>
   <v>       0.12086888      -0.01550411       0.09837549 </v>
   <v>       0.00670240       0.02645720      -0.04041211 </v>
   <v>      -0.00292609      -0.06912132       0.00080652 </v>
   <v>       0.38229433       0.00025713       0.63568151 </v>
  </varray>
  <varray name="stress" >
   <v>       4.79367339       0.00004828      -3.70615727 </v>
   <v>       0.00004814      31.50618478      -0.00002299 </v>
   <v>      -3.70609212      -0.00002308       9.15826140 </v>
  </varray>
  <energy>
   <i name="e_fr_energy">  -1383.53822760 </i>
   <i name="e_wo_entrp">  -1383.53822760 </i>
   <i name="e_0_energy">     -0.00000000 </i>
  </energy>
  <time name="totalsc">  434.33  434.89</time>
  <eigenvalues>
   <array>
    <dimension dim="1">band</dimension>
    <dimension dim="2">kpoint</dimension>
    <dimension dim="3">spin</dimension>
    <field>eigene</field>
    <field>occ</field>
    <set>
     <set comment="spin 1">
      <set comment="kpoint 1">
       <r>  -21.0511    1.0000 </r>
       <r>  -20.9986    1.0000 </r>
       <r>  -20.9911    1.0000 </r>
       <r>  -20.9776    1.0000 </r>
       <r>  -20.9591    1.0000 </r>
       <r>  -20.9348    1.0000 </r>
       <r>  -20.9241    1.0000 </r>
       <r>  -16.9646    1.0000 </r>
       <r>  -16.9320    1.0000 </r>
       <r>  -16.8986    1.0000 </r>
       <r>  -16.8752    1.0000 </r>
       <r>  -16.8633    1.0000 </r>
       <r>  -16.8279    1.0000 </r>
       <r>  -16.8232    1.0000 </r>
       <r>  -16.8192    1.0000 </r>
       <r>  -16.8157    1.0000 </r>
       <r>  -16.8000    1.0000 </r>
       <r>  -16.7993    1.0000 </r>
       <r>  -16.7973    1.0000 </r>
       <r>  -16.7797    1.0000 </r>
       <r>  -16.7792    1.0000 </r>
       <r>  -16.7398    1.0000 </r>
       <r>  -16.7387    1.0000 </r>
       <r>  -16.7148    1.0000 </r>
       <r>  -16.7147    1.0000 </r>
       <r>  -16.7104    1.0000 </r>
       <r>  -16.7095    1.0000 </r>
       <r>  -16.5690    1.0000 </r>
       <r>  -16.5495    1.0000 </r>
       <r>  -16.5480    1.0000 </r>
       <r>  -16.5159    1.0000 </r>
       <r>  -16.5124    1.0000 </r>
       <r>  -16.4868    1.0000 </r>
       <r>  -16.4850    1.0000 </r>
       <r>  -16.4530    1.0000 </r>
       <r>  -16.4313    1.0000 </r>
       <r>  -16.4309    1.0000 </r>
       <r>  -16.4299    1.0000 </r>
       <r>  -16.4292    1.0000 </r>
       <r>  -16.4183    1.0000 </r>
       <r>  -16.4173    1.0000 </r>
       <r>  -16.3948    1.0000 </r>
       <r>  -16.3947    1.0000 </r>
       <r>  -16.3832    1.0000 </r>
       <r>  -16.3819    1.0000 </r>
       <r>  -16.3759    1.0000 </r>
       <r>  -16.3747    1.0000 </r>
       <r>  -15.1141    1.0000 </r>
       <r>  -14.7559    1.0000 </r>
       <r>  -14.7345    1.0000 </r>
       <r>  -14.5385    1.0000 </r>
       <r>  -14.4271    1.0000 </r>
       <r>  -14.3799    1.0000 </r>
       <r>  -14.3498    1.0000 </r>
       <r>  -14.2954    1.0000 </r>
       <r>  -14.1899    1.0000 </r>
       <r>  -14.1722    1.0000 </r>
       <r>  -14.1553    1.0000 </r>
       <r>  -14.1370    1.0000 </r>
       <r>  -14.1336    1.0000 </r>
       <r>  -14.1252    1.0000 </r>
       <r>  -14.1222    1.0000 </r>
       <r>  -14.0581    1.0000 </r>
       <r>  -14.0498    1.0000 </r>
       <r>  -14.0368    1.0000 </r>
       <r>  -14.0168    1.0000 </r>
       <r>  -13.9404    1.0000 </r>
       <r>  -13.8615    1.0000 </r>
       <r>  -13.8563    1.0000 </r>
       <r>  -13.7769    1.0000 </r>
       <r>  -13.5977    1.0000 </r>
       <r>   -8.5464    1.0000 </r>
       <r>   -8.0691    1.0000 </r>
       <r>   -8.0621    1.0000 </r>
       <r>   -7.9654    1.0000 </r>
       <r>   -7.7751    1.0000 </r>
       <r>   -7.6378    1.0000 </r>
       <r>   -7.4722    1.0000 </r>
       <r>   -7.4523    1.0000 </r>
       <r>   -7.4451    1.0000 </r>
       <r>   -7.4445    1.0000 </r>
       <r>   -7.4236    1.0000 </r>
       <r>   -7.4035    1.0000 </r>
       <r>   -7.3997    1.0000 </r>
       <r>   -7.3917    1.0000 </r>
       <r>   -7.3813    1.0000 </r>
       <r>   -7.3741    1.0000 </r>
       <r>   -7.3728    1.0000 </r>
       <r>   -7.3619    1.0000 </r>
       <r>   -7.3515    1.0000 </r>
       <r>   -7.3500    1.0000 </r>
       <r>   -7.3429    1.0000 </r>
       <r>   -7.3304    1.0000 </r>
       <r>   -7.3281    1.0000 </r>
       <r>   -7.3266    1.0000 </r>
       <r>   -7.3224    1.0000 </r>
       <r>   -7.3010    1.0000 </r>
       <r>   -7.2965    1.0000 </r>
       <r>   -7.2482    1.0000 </r>
       <r>   -6.7487    1.0000 </r>
       <r>   -3.7350    1.0000 </r>
       <r>   -3.6453    1.0000 </r>
       <r>   -3.6176    1.0000 </r>
       <r>   -3.5704    1.0000 </r>
       <r>   -3.4272    1.0000 </r>
       <r>   -3.3327    1.0000 </r>
       <r>   -3.3300    1.0000 </r>
       <r>   -3.2591    1.0000 </r>
       <r>   -3.2422    1.0000 </r>
       <r>   -3.1997    1.0000 </r>
       <r>   -3.1509    1.0000 </r>
       <r>   -3.0342    1.0000 </r>
       <r>   -2.5418    1.0000 </r>
       <r>   -2.3961    1.0000 </r>
       <r>   -2.3546    1.0000 </r>
       <r>   -2.3341    1.0000 </r>
       <r>   -2.2553    1.0000 </r>
       <r>   -2.2465    1.0000 </r>
       <r>   -2.1659    1.0000 </r>
       <r>   -2.1395    1.0000 </r>
       <r>   -2.0087    1.0000 </r>
       <r>   -1.9965    1.0000 </r>
       <r>   -1.9785    1.0000 </r>
       <r>   -1.9549    1.0000 </r>
       <r>   -1.9514    1.0000 </r>
       <r>   -1.9178    1.0000 </r>
       <r>   -1.8503    1.0000 </r>
       <r>   -1.8326    1.0000 </r>
       <r>   -1.8237    1.0000 </r>
       <r>   -1.7403    1.0000 </r>
       <r>   -1.7129    1.0000 </r>
       <r>   -1.6988    1.0000 </r>
       <r>   -1.6701    1.0000 </r>
       <r>   -1.6505    1.0000 </r>
       <r>   -1.6492    1.0000 </r>
       <r>   -1.6082    1.0000 </r>
       <r>   -1.5966    1.0000 </r>
       <r>   -1.5650    1.0000 </r>
       <r>   -1.5603    1.0000 </r>
       <r>   -1.5397    1.0000 </r>
       <r>   -1.5394    1.0000 </r>
       <r>   -1.5262    1.0000 </r>
       <r>   -1.5054    1.0000 </r>
       <r>   -1.4991    1.0000 </r>
       <r>   -1.4905    1.0000 </r>
       <r>   -1.4454    1.0000 </r>
       <r>   -1.4340    1.0000 </r>
       <r>   -1.4230    1.0000 </r>
       <r>   -1.4077    1.0000 </r>
       <r>   -1.3713    1.0000 </r>
       <r>   -1.3507    1.0000 </r>
       <r>   -1.3454    1.0000 </r>
       <r>   -1.3046    1.0000 </r>
       <r>   -1.2989    1.0000 </r>
       <r>   -1.2954    1.0000 </r>
       <r>   -1.2637    1.0000 </r>
       <r>   -1.2193    1.0000 </r>
       <r>   -1.2075    1.0000 </r>
       <r>   -1.1894    1.0000 </r>
       <r>   -1.1241    1.0000 </r>
       <r>   -1.0749    1.0000 </r>
       <r>   -1.0224    1.0000 </r>
       <r>   -0.9835    1.0000 </r>
       <r>   -0.9333    1.0000 </r>
       <r>   -0.8666    1.0000 </r>
       <r>   -0.8297    1.0000 </r>
       <r>   -0.7558    1.0000 </r>
       <r>   -0.6048    1.0000 </r>
       <r>   -0.3583    1.0000 </r>
       <r>   -0.2889    1.0000 </r>
       <r>   -0.2576    1.0000 </r>
       <r>    0.2641    1.0000 </r>
       <r>    2.4214    0.0000 </r>
       <r>    2.4626    0.0000 </r>
       <r>    2.6368    0.0000 </r>
       <r>    2.7472    0.0000 </r>
       <r>    2.8015    0.0000 </r>
       <r>    2.9391    0.0000 </r>
       <r>    2.9817    0.0000 </r>
       <r>    3.0097    0.0000 </r>
       <r>    3.0381    0.0000 </r>
       <r>    3.3189    0.0000 </r>
       <r>    3.3384    0.0000 </r>
       <r>    3.4289    0.0000 </r>
       <r>    4.7594    0.0000 </r>
       <r>    4.9295    0.0000 </r>
       <r>    5.2022    0.0000 </r>
       <r>    5.2872    0.0000 </r>
       <r>    5.4848    0.0000 </r>
       <r>    5.5500    0.0000 </r>
       <r>    5.6165    0.0000 </r>
       <r>    5.6488    0.0000 </r>
       <r>    5.7160    0.0000 </r>
       <r>    5.7685    0.0000 </r>
       <r>    5.9283    0.0000 </r>
       <r>    5.9578    0.0000 </r>
       <r>    6.0094    0.0000 </r>
       <r>    6.0636    0.0000 </r>
       <r>    6.1169    0.0000 </r>
       <r>    6.1492    0.0000 </r>
       <r>    6.2514    0.0000 </r>
       <r>    6.2579    0.0000 </r>
       <r>    6.3061    0.0000 </r>
       <r>    6.3147    0.0000 </r>
       <r>    6.3420    0.0000 </r>
       <r>    6.3945    0.0000 </r>
       <r>    6.4572    0.0000 </r>
       <r>    6.5294    0.0000 </r>
      </set>
      <set comment="kpoint 2">
       <r>  -21.0511    1.0000 </r>
       <r>  -20.9986    1.0000 </r>
       <r>  -20.9911    1.0000 </r>
       <r>  -20.9776    1.0000 </r>
       <r>  -20.9590    1.0000 </r>
       <r>  -20.9348    1.0000 </r>
       <r>  -20.9241    1.0000 </r>
       <r>  -16.9646    1.0000 </r>
       <r>  -16.9319    1.0000 </r>
       <r>  -16.8975    1.0000 </r>
       <r>  -16.8739    1.0000 </r>
       <r>  -16.8629    1.0000 </r>
       <r>  -16.8275    1.0000 </r>
       <r>  -16.8227    1.0000 </r>
       <r>  -16.8191    1.0000 </r>
       <r>  -16.8140    1.0000 </r>
       <r>  -16.8000    1.0000 </r>
       <r>  -16.7993    1.0000 </r>
       <r>  -16.7954    1.0000 </r>
       <r>  -16.7797    1.0000 </r>
       <r>  -16.7791    1.0000 </r>
       <r>  -16.7399    1.0000 </r>
       <r>  -16.7387    1.0000 </r>
       <r>  -16.7148    1.0000 </r>
       <r>  -16.7147    1.0000 </r>
       <r>  -16.7104    1.0000 </r>
       <r>  -16.7095    1.0000 </r>
       <r>  -16.5698    1.0000 </r>
       <r>  -16.5512    1.0000 </r>
       <r>  -16.5501    1.0000 </r>
       <r>  -16.5174    1.0000 </r>
       <r>  -16.5135    1.0000 </r>
       <r>  -16.4884    1.0000 </r>
       <r>  -16.4859    1.0000 </r>
       <r>  -16.4532    1.0000 </r>
       <r>  -16.4313    1.0000 </r>
       <r>  -16.4309    1.0000 </r>
       <r>  -16.4300    1.0000 </r>
       <r>  -16.4292    1.0000 </r>
       <r>  -16.4183    1.0000 </r>
       <r>  -16.4174    1.0000 </r>
       <r>  -16.3949    1.0000 </r>
       <r>  -16.3948    1.0000 </r>
       <r>  -16.3832    1.0000 </r>
       <r>  -16.3819    1.0000 </r>
       <r>  -16.3759    1.0000 </r>
       <r>  -16.3747    1.0000 </r>
       <r>  -15.1144    1.0000 </r>
       <r>  -14.7557    1.0000 </r>
       <r>  -14.7341    1.0000 </r>
       <r>  -14.5383    1.0000 </r>
       <r>  -14.4208    1.0000 </r>
       <r>  -14.3791    1.0000 </r>
       <r>  -14.3431    1.0000 </r>
       <r>  -14.3429    1.0000 </r>
       <r>  -14.2266    1.0000 </r>
       <r>  -14.2095    1.0000 </r>
       <r>  -14.1585    1.0000 </r>
       <r>  -14.1416    1.0000 </r>
       <r>  -14.0748    1.0000 </r>
       <r>  -14.0720    1.0000 </r>
       <r>  -14.0576    1.0000 </r>
       <r>  -14.0480    1.0000 </r>
       <r>  -14.0399    1.0000 </r>
       <r>  -14.0322    1.0000 </r>
       <r>  -14.0169    1.0000 </r>
       <r>  -13.9673    1.0000 </r>
       <r>  -13.8927    1.0000 </r>
       <r>  -13.8729    1.0000 </r>
       <r>  -13.7825    1.0000 </r>
       <r>  -13.5994    1.0000 </r>
       <r>   -8.4764    1.0000 </r>
       <r>   -8.0152    1.0000 </r>
       <r>   -8.0095    1.0000 </r>
       <r>   -7.9916    1.0000 </r>
       <r>   -7.7977    1.0000 </r>
       <r>   -7.5747    1.0000 </r>
       <r>   -7.5469    1.0000 </r>
       <r>   -7.5232    1.0000 </r>
       <r>   -7.4542    1.0000 </r>
       <r>   -7.4351    1.0000 </r>
       <r>   -7.4324    1.0000 </r>
       <r>   -7.4284    1.0000 </r>
       <r>   -7.4063    1.0000 </r>
       <r>   -7.3855    1.0000 </r>
       <r>   -7.3838    1.0000 </r>
       <r>   -7.3776    1.0000 </r>
       <r>   -7.3752    1.0000 </r>
       <r>   -7.3611    1.0000 </r>
       <r>   -7.3591    1.0000 </r>
       <r>   -7.3538    1.0000 </r>
       <r>   -7.3425    1.0000 </r>
       <r>   -7.3415    1.0000 </r>
       <r>   -7.3268    1.0000 </r>
       <r>   -7.3208    1.0000 </r>
       <r>   -7.3189    1.0000 </r>
       <r>   -7.3172    1.0000 </r>
       <r>   -7.3069    1.0000 </r>
       <r>   -7.2235    1.0000 </r>
       <r>   -6.9504    1.0000 </r>
       <r>   -3.7277    1.0000 </r>
       <r>   -3.6435    1.0000 </r>
       <r>   -3.6169    1.0000 </r>
       <r>   -3.5650    1.0000 </r>
       <r>   -3.2652    1.0000 </r>
       <r>   -3.2525    1.0000 </r>
       <r>   -3.1972    1.0000 </r>
       <r>   -3.0484    1.0000 </r>
       <r>   -2.7893    1.0000 </r>
       <r>   -2.7340    1.0000 </r>
       <r>   -2.7084    1.0000 </r>
       <r>   -2.6441    1.0000 </r>
       <r>   -2.6007    1.0000 </r>
       <r>   -2.5720    1.0000 </r>
       <r>   -2.4969    1.0000 </r>
       <r>   -2.4812    1.0000 </r>
       <r>   -2.4514    1.0000 </r>
       <r>   -2.3652    1.0000 </r>
       <r>   -2.2718    1.0000 </r>
       <r>   -2.2083    1.0000 </r>
       <r>   -2.2016    1.0000 </r>
       <r>   -2.1838    1.0000 </r>
       <r>   -2.0953    1.0000 </r>
       <r>   -2.0525    1.0000 </r>
       <r>   -1.9985    1.0000 </r>
       <r>   -1.9535    1.0000 </r>
       <r>   -1.9434    1.0000 </r>
       <r>   -1.9251    1.0000 </r>
       <r>   -1.8639    1.0000 </r>
       <r>   -1.8415    1.0000 </r>
       <r>   -1.7884    1.0000 </r>
       <r>   -1.7268    1.0000 </r>
       <r>   -1.7054    1.0000 </r>
       <r>   -1.6870    1.0000 </r>
       <r>   -1.6829    1.0000 </r>
       <r>   -1.6712    1.0000 </r>
       <r>   -1.6456    1.0000 </r>
       <r>   -1.5797    1.0000 </r>
       <r>   -1.5672    1.0000 </r>
       <r>   -1.5473    1.0000 </r>
       <r>   -1.5399    1.0000 </r>
       <r>   -1.4745    1.0000 </r>
       <r>   -1.4709    1.0000 </r>
       <r>   -1.4534    1.0000 </r>
       <r>   -1.4530    1.0000 </r>
       <r>   -1.4165    1.0000 </r>
       <r>   -1.4031    1.0000 </r>
       <r>   -1.3932    1.0000 </r>
       <r>   -1.3781    1.0000 </r>
       <r>   -1.3778    1.0000 </r>
       <r>   -1.3579    1.0000 </r>
       <r>   -1.3409    1.0000 </r>
       <r>   -1.3163    1.0000 </r>
       <r>   -1.3127    1.0000 </r>
       <r>   -1.2759    1.0000 </r>
       <r>   -1.2634    1.0000 </r>
       <r>   -1.2450    1.0000 </r>
       <r>   -1.2333    1.0000 </r>
       <r>   -1.1955    1.0000 </r>
       <r>   -1.1444    1.0000 </r>
       <r>   -1.0970    1.0000 </r>
       <r>   -1.0712    1.0000 </r>
       <r>   -1.0187    1.0000 </r>
       <r>   -0.9558    1.0000 </r>
       <r>   -0.8915    1.0000 </r>
       <r>   -0.8705    1.0000 </r>
       <r>   -0.8042    1.0000 </r>
       <r>   -0.6277    1.0000 </r>
       <r>   -0.6228    1.0000 </r>
       <r>   -0.5100    1.0000 </r>
       <r>   -0.2411    1.0000 </r>
       <r>   -0.0119    1.0000 </r>
       <r>    2.5021    0.0000 </r>
       <r>    2.5096    0.0000 </r>
       <r>    2.8091    0.0000 </r>
       <r>    2.9017    0.0000 </r>
       <r>    2.9310    0.0000 </r>
       <r>    2.9429    0.0000 </r>
       <r>    3.2333    0.0000 </r>
       <r>    3.3398    0.0000 </r>
       <r>    3.8593    0.0000 </r>
       <r>    4.1225    0.0000 </r>
       <r>    4.1808    0.0000 </r>
       <r>    4.1976    0.0000 </r>
       <r>    4.4385    0.0000 </r>
       <r>    4.4705    0.0000 </r>
       <r>    4.5155    0.0000 </r>
       <r>    4.7264    0.0000 </r>
       <r>    5.0007    0.0000 </r>
       <r>    5.2680    0.0000 </r>
       <r>    5.3323    0.0000 </r>
       <r>    5.5233    0.0000 </r>
       <r>    5.5464    0.0000 </r>
       <r>    5.5677    0.0000 </r>
       <r>    5.7089    0.0000 </r>
       <r>    5.8384    0.0000 </r>
       <r>    5.8864    0.0000 </r>
       <r>    5.9025    0.0000 </r>
       <r>    6.0580    0.0000 </r>
       <r>    6.1453    0.0000 </r>
       <r>    6.1773    0.0000 </r>
       <r>    6.2567    0.0000 </r>
       <r>    6.2630    0.0000 </r>
       <r>    6.2744    0.0000 </r>
       <r>    6.4099    0.0000 </r>
       <r>    6.4418    0.0000 </r>
       <r>    6.4673    0.0000 </r>
       <r>    6.5605    0.0000 </r>
      </set>
      <set comment="kpoint 3">
       <r>  -21.0510    1.0000 </r>
       <r>  -20.9972    1.0000 </r>
       <r>  -20.9925    1.0000 </r>
       <r>  -20.9775    1.0000 </r>
       <r>  -20.9591    1.0000 </r>
       <r>  -20.9348    1.0000 </r>
       <r>  -20.9241    1.0000 </r>
       <r>  -16.9453    1.0000 </r>
       <r>  -16.9417    1.0000 </r>
       <r>  -16.8915    1.0000 </r>
       <r>  -16.8911    1.0000 </r>
       <r>  -16.8430    1.0000 </r>
       <r>  -16.8377    1.0000 </r>
       <r>  -16.8214    1.0000 </r>
       <r>  -16.8205    1.0000 </r>
       <r>  -16.8135    1.0000 </r>
       <r>  -16.8125    1.0000 </r>
       <r>  -16.7997    1.0000 </r>
       <r>  -16.7996    1.0000 </r>
       <r>  -16.7795    1.0000 </r>
       <r>  -16.7793    1.0000 </r>
       <r>  -16.7392    1.0000 </r>
       <r>  -16.7392    1.0000 </r>
       <r>  -16.7147    1.0000 </r>
       <r>  -16.7147    1.0000 </r>
       <r>  -16.7100    1.0000 </r>
       <r>  -16.7099    1.0000 </r>
       <r>  -16.5488    1.0000 </r>
       <r>  -16.5487    1.0000 </r>
       <r>  -16.5421    1.0000 </r>
       <r>  -16.5410    1.0000 </r>
       <r>  -16.4947    1.0000 </r>
       <r>  -16.4945    1.0000 </r>
       <r>  -16.4760    1.0000 </r>
       <r>  -16.4752    1.0000 </r>
       <r>  -16.4311    1.0000 </r>
       <r>  -16.4311    1.0000 </r>
       <r>  -16.4296    1.0000 </r>
       <r>  -16.4296    1.0000 </r>
       <r>  -16.4179    1.0000 </r>
       <r>  -16.4177    1.0000 </r>
       <r>  -16.3948    1.0000 </r>
       <r>  -16.3948    1.0000 </r>
       <r>  -16.3827    1.0000 </r>
       <r>  -16.3823    1.0000 </r>
       <r>  -16.3754    1.0000 </r>
       <r>  -16.3751    1.0000 </r>
       <r>  -15.1251    1.0000 </r>
       <r>  -14.7432    1.0000 </r>
       <r>  -14.7197    1.0000 </r>
       <r>  -14.5355    1.0000 </r>
       <r>  -14.4688    1.0000 </r>
       <r>  -14.3794    1.0000 </r>
       <r>  -14.2963    1.0000 </r>
       <r>  -14.2792    1.0000 </r>
       <r>  -14.2090    1.0000 </r>
       <r>  -14.1966    1.0000 </r>
       <r>  -14.1703    1.0000 </r>
       <r>  -14.1513    1.0000 </r>
       <r>  -14.1377    1.0000 </r>
       <r>  -14.1346    1.0000 </r>
       <r>  -14.1227    1.0000 </r>
       <r>  -14.0682    1.0000 </r>
       <r>  -14.0507    1.0000 </r>
       <r>  -14.0410    1.0000 </r>
       <r>  -13.9457    1.0000 </r>
       <r>  -13.9200    1.0000 </r>
       <r>  -13.8672    1.0000 </r>
       <r>  -13.8357    1.0000 </r>
       <r>  -13.8105    1.0000 </r>
       <r>  -13.6126    1.0000 </r>
       <r>   -8.3670    1.0000 </r>
       <r>   -8.2893    1.0000 </r>
       <r>   -7.8987    1.0000 </r>
       <r>   -7.8142    1.0000 </r>
       <r>   -7.7844    1.0000 </r>
       <r>   -7.6498    1.0000 </r>
       <r>   -7.6192    1.0000 </r>
       <r>   -7.5203    1.0000 </r>
       <r>   -7.4502    1.0000 </r>
       <r>   -7.4412    1.0000 </r>
       <r>   -7.4252    1.0000 </r>
       <r>   -7.4185    1.0000 </r>
       <r>   -7.4035    1.0000 </r>
       <r>   -7.3916    1.0000 </r>
       <r>   -7.3844    1.0000 </r>
       <r>   -7.3775    1.0000 </r>
       <r>   -7.3769    1.0000 </r>
       <r>   -7.3639    1.0000 </r>
       <r>   -7.3616    1.0000 </r>
       <r>   -7.3591    1.0000 </r>
       <r>   -7.3502    1.0000 </r>
       <r>   -7.3499    1.0000 </r>
       <r>   -7.3306    1.0000 </r>
       <r>   -7.3251    1.0000 </r>
       <r>   -7.3182    1.0000 </r>
       <r>   -7.3170    1.0000 </r>
       <r>   -7.3035    1.0000 </r>
       <r>   -7.1209    1.0000 </r>
       <r>   -7.0697    1.0000 </r>
       <r>   -3.7115    1.0000 </r>
       <r>   -3.6015    1.0000 </r>
       <r>   -3.3979    1.0000 </r>
       <r>   -3.3753    1.0000 </r>
       <r>   -3.2720    1.0000 </r>
       <r>   -3.2611    1.0000 </r>
       <r>   -3.2175    1.0000 </r>
       <r>   -3.1762    1.0000 </r>
       <r>   -2.9458    1.0000 </r>
       <r>   -2.8858    1.0000 </r>
       <r>   -2.8344    1.0000 </r>
       <r>   -2.7223    1.0000 </r>
       <r>   -2.5161    1.0000 </r>
       <r>   -2.4630    1.0000 </r>
       <r>   -2.4174    1.0000 </r>
       <r>   -2.3896    1.0000 </r>
       <r>   -2.3564    1.0000 </r>
       <r>   -2.3135    1.0000 </r>
       <r>   -2.2463    1.0000 </r>
       <r>   -2.2057    1.0000 </r>
       <r>   -2.1945    1.0000 </r>
       <r>   -2.1832    1.0000 </r>
       <r>   -2.1430    1.0000 </r>
       <r>   -2.0554    1.0000 </r>
       <r>   -2.0399    1.0000 </r>
       <r>   -1.9804    1.0000 </r>
       <r>   -1.9451    1.0000 </r>
       <r>   -1.9106    1.0000 </r>
       <r>   -1.8999    1.0000 </r>
       <r>   -1.8484    1.0000 </r>
       <r>   -1.8258    1.0000 </r>
       <r>   -1.7871    1.0000 </r>
       <r>   -1.7232    1.0000 </r>
       <r>   -1.6641    1.0000 </r>
       <r>   -1.6404    1.0000 </r>
       <r>   -1.6081    1.0000 </r>
       <r>   -1.5962    1.0000 </r>
       <r>   -1.5816    1.0000 </r>
       <r>   -1.5625    1.0000 </r>
       <r>   -1.5569    1.0000 </r>
       <r>   -1.5528    1.0000 </r>
       <r>   -1.5055    1.0000 </r>
       <r>   -1.5054    1.0000 </r>
       <r>   -1.4884    1.0000 </r>
       <r>   -1.4673    1.0000 </r>
       <r>   -1.4625    1.0000 </r>
       <r>   -1.4580    1.0000 </r>
       <r>   -1.4349    1.0000 </r>
       <r>   -1.4093    1.0000 </r>
       <r>   -1.3794    1.0000 </r>
       <r>   -1.3735    1.0000 </r>
       <r>   -1.3630    1.0000 </r>
       <r>   -1.3335    1.0000 </r>
       <r>   -1.3255    1.0000 </r>
       <r>   -1.2864    1.0000 </r>
       <r>   -1.2491    1.0000 </r>
       <r>   -1.2209    1.0000 </r>
       <r>   -1.1844    1.0000 </r>
       <r>   -1.1452    1.0000 </r>
       <r>   -1.1301    1.0000 </r>
       <r>   -1.1036    1.0000 </r>
       <r>   -0.9992    1.0000 </r>
       <r>   -0.9813    1.0000 </r>
       <r>   -0.9696    1.0000 </r>
       <r>   -0.9175    1.0000 </r>
       <r>   -0.8910    1.0000 </r>
       <r>   -0.7849    1.0000 </r>
       <r>   -0.7613    1.0000 </r>
       <r>   -0.7030    1.0000 </r>
       <r>   -0.3641    1.0000 </r>
       <r>   -0.2645    1.0000 </r>
       <r>   -0.1332    1.0000 </r>
       <r>    2.5635    0.0000 </r>
       <r>    2.6007    0.0000 </r>
       <r>    2.8141    0.0000 </r>
       <r>    2.8305    0.0000 </r>
       <r>    3.1055    0.0000 </r>
       <r>    3.1209    0.0000 </r>
       <r>    3.1710    0.0000 </r>
       <r>    3.1959    0.0000 </r>
       <r>    3.8428    0.0000 </r>
       <r>    4.0084    0.0000 </r>
       <r>    4.2158    0.0000 </r>
       <r>    4.2231    0.0000 </r>
       <r>    4.4426    0.0000 </r>
       <r>    4.5087    0.0000 </r>
       <r>    4.6759    0.0000 </r>
       <r>    4.8168    0.0000 </r>
       <r>    5.2423    0.0000 </r>
       <r>    5.2437    0.0000 </r>
       <r>    5.3536    0.0000 </r>
       <r>    5.3971    0.0000 </r>
       <r>    5.4419    0.0000 </r>
       <r>    5.4823    0.0000 </r>
       <r>    5.7279    0.0000 </r>
       <r>    5.8442    0.0000 </r>
       <r>    5.8560    0.0000 </r>
       <r>    5.9023    0.0000 </r>
       <r>    6.0382    0.0000 </r>
       <r>    6.1243    0.0000 </r>
       <r>    6.2041    0.0000 </r>
       <r>    6.2655    0.0000 </r>
       <r>    6.3582    0.0000 </r>
       <r>    6.3722    0.0000 </r>
       <r>    6.4015    0.0000 </r>
       <r>    6.4683    0.0000 </r>
       <r>    6.4852    0.0000 </r>
       <r>    6.5711    0.0000 </r>
      </set>
      <set comment="kpoint 4">
       <r>  -21.0511    1.0000 </r>
       <r>  -20.9972    1.0000 </r>
       <r>  -20.9925    1.0000 </r>
       <r>  -20.9776    1.0000 </r>
       <r>  -20.9591    1.0000 </r>
       <r>  -20.9348    1.0000 </r>
       <r>  -20.9241    1.0000 </r>
       <r>  -16.9453    1.0000 </r>
       <r>  -16.9417    1.0000 </r>
       <r>  -16.8902    1.0000 </r>
       <r>  -16.8899    1.0000 </r>
       <r>  -16.8429    1.0000 </r>
       <r>  -16.8377    1.0000 </r>
       <r>  -16.8212    1.0000 </r>
       <r>  -16.8204    1.0000 </r>
       <r>  -16.8115    1.0000 </r>
       <r>  -16.8102    1.0000 </r>
       <r>  -16.7998    1.0000 </r>
       <r>  -16.7996    1.0000 </r>
       <r>  -16.7795    1.0000 </r>
       <r>  -16.7794    1.0000 </r>
       <r>  -16.7393    1.0000 </r>
       <r>  -16.7392    1.0000 </r>
       <r>  -16.7148    1.0000 </r>
       <r>  -16.7147    1.0000 </r>
       <r>  -16.7101    1.0000 </r>
       <r>  -16.7100    1.0000 </r>
       <r>  -16.5505    1.0000 </r>
       <r>  -16.5505    1.0000 </r>
       <r>  -16.5433    1.0000 </r>
       <r>  -16.5422    1.0000 </r>
       <r>  -16.4965    1.0000 </r>
       <r>  -16.4964    1.0000 </r>
       <r>  -16.4761    1.0000 </r>
       <r>  -16.4753    1.0000 </r>
       <r>  -16.4312    1.0000 </r>
       <r>  -16.4311    1.0000 </r>
       <r>  -16.4297    1.0000 </r>
       <r>  -16.4296    1.0000 </r>
       <r>  -16.4179    1.0000 </r>
       <r>  -16.4178    1.0000 </r>
       <r>  -16.3948    1.0000 </r>
       <r>  -16.3948    1.0000 </r>
       <r>  -16.3827    1.0000 </r>
       <r>  -16.3824    1.0000 </r>
       <r>  -16.3755    1.0000 </r>
       <r>  -16.3751    1.0000 </r>
       <r>  -15.1254    1.0000 </r>
       <r>  -14.7436    1.0000 </r>
       <r>  -14.7198    1.0000 </r>
       <r>  -14.5360    1.0000 </r>
       <r>  -14.4620    1.0000 </r>
       <r>  -14.3793    1.0000 </r>
       <r>  -14.3214    1.0000 </r>
       <r>  -14.2802    1.0000 </r>
       <r>  -14.2711    1.0000 </r>
       <r>  -14.2024    1.0000 </r>
       <r>  -14.1956    1.0000 </r>
       <r>  -14.1517    1.0000 </r>
       <r>  -14.0777    1.0000 </r>
       <r>  -14.0679    1.0000 </r>
       <r>  -14.0553    1.0000 </r>
       <r>  -14.0549    1.0000 </r>
       <r>  -14.0505    1.0000 </r>
       <r>  -14.0407    1.0000 </r>
       <r>  -13.9678    1.0000 </r>
       <r>  -13.9500    1.0000 </r>
       <r>  -13.8954    1.0000 </r>
       <r>  -13.8427    1.0000 </r>
       <r>  -13.8129    1.0000 </r>
       <r>  -13.6134    1.0000 </r>
       <r>   -8.3116    1.0000 </r>
       <r>   -8.2139    1.0000 </r>
       <r>   -7.8417    1.0000 </r>
       <r>   -7.7941    1.0000 </r>
       <r>   -7.7702    1.0000 </r>
       <r>   -7.7171    1.0000 </r>
       <r>   -7.6494    1.0000 </r>
       <r>   -7.4953    1.0000 </r>
       <r>   -7.4567    1.0000 </r>
       <r>   -7.4518    1.0000 </r>
       <r>   -7.4246    1.0000 </r>
       <r>   -7.4220    1.0000 </r>
       <r>   -7.3947    1.0000 </r>
       <r>   -7.3866    1.0000 </r>
       <r>   -7.3857    1.0000 </r>
       <r>   -7.3838    1.0000 </r>
       <r>   -7.3779    1.0000 </r>
       <r>   -7.3657    1.0000 </r>
       <r>   -7.3635    1.0000 </r>
       <r>   -7.3611    1.0000 </r>
       <r>   -7.3585    1.0000 </r>
       <r>   -7.3508    1.0000 </r>
       <r>   -7.3326    1.0000 </r>
       <r>   -7.3296    1.0000 </r>
       <r>   -7.3260    1.0000 </r>
       <r>   -7.3146    1.0000 </r>
       <r>   -7.3055    1.0000 </r>
       <r>   -7.2629    1.0000 </r>
       <r>   -7.2329    1.0000 </r>
       <r>   -3.7097    1.0000 </r>
       <r>   -3.5977    1.0000 </r>
       <r>   -3.2237    1.0000 </r>
       <r>   -3.1846    1.0000 </r>
       <r>   -3.0457    1.0000 </r>
       <r>   -2.9489    1.0000 </r>
       <r>   -2.9338    1.0000 </r>
       <r>   -2.8396    1.0000 </r>
       <r>   -2.7807    1.0000 </r>
       <r>   -2.7495    1.0000 </r>
       <r>   -2.6374    1.0000 </r>
       <r>   -2.6359    1.0000 </r>
       <r>   -2.5537    1.0000 </r>
       <r>   -2.5142    1.0000 </r>
       <r>   -2.4915    1.0000 </r>
       <r>   -2.4813    1.0000 </r>
       <r>   -2.4710    1.0000 </r>
       <r>   -2.4171    1.0000 </r>
       <r>   -2.3746    1.0000 </r>
       <r>   -2.3589    1.0000 </r>
       <r>   -2.2871    1.0000 </r>
       <r>   -2.2606    1.0000 </r>
       <r>   -2.1967    1.0000 </r>
       <r>   -2.1714    1.0000 </r>
       <r>   -2.0979    1.0000 </r>
       <r>   -2.0143    1.0000 </r>
       <r>   -1.9320    1.0000 </r>
       <r>   -1.9148    1.0000 </r>
       <r>   -1.9032    1.0000 </r>
       <r>   -1.8894    1.0000 </r>
       <r>   -1.8565    1.0000 </r>
       <r>   -1.8439    1.0000 </r>
       <r>   -1.8042    1.0000 </r>
       <r>   -1.7552    1.0000 </r>
       <r>   -1.7332    1.0000 </r>
       <r>   -1.7305    1.0000 </r>
       <r>   -1.6712    1.0000 </r>
       <r>   -1.6676    1.0000 </r>
       <r>   -1.6375    1.0000 </r>
       <r>   -1.6154    1.0000 </r>
       <r>   -1.5863    1.0000 </r>
       <r>   -1.5515    1.0000 </r>
       <r>   -1.5362    1.0000 </r>
       <r>   -1.5210    1.0000 </r>
       <r>   -1.4716    1.0000 </r>
       <r>   -1.4488    1.0000 </r>
       <r>   -1.4124    1.0000 </r>
       <r>   -1.3726    1.0000 </r>
       <r>   -1.3630    1.0000 </r>
       <r>   -1.3609    1.0000 </r>
       <r>   -1.3546    1.0000 </r>
       <r>   -1.3293    1.0000 </r>
       <r>   -1.3252    1.0000 </r>
       <r>   -1.2792    1.0000 </r>
       <r>   -1.2419    1.0000 </r>
       <r>   -1.2396    1.0000 </r>
       <r>   -1.2206    1.0000 </r>
       <r>   -1.1977    1.0000 </r>
       <r>   -1.1647    1.0000 </r>
       <r>   -1.1112    1.0000 </r>
       <r>   -1.1050    1.0000 </r>
       <r>   -1.0802    1.0000 </r>
       <r>   -1.0627    1.0000 </r>
       <r>   -1.0073    1.0000 </r>
       <r>   -0.9267    1.0000 </r>
       <r>   -0.9204    1.0000 </r>
       <r>   -0.8682    1.0000 </r>
       <r>   -0.8446    1.0000 </r>
       <r>   -0.8236    1.0000 </r>
       <r>   -0.5510    1.0000 </r>
       <r>   -0.4775    1.0000 </r>
       <r>   -0.3216    1.0000 </r>
       <r>    2.6252    0.0000 </r>
       <r>    2.6787    0.0000 </r>
       <r>    3.1120    0.0000 </r>
       <r>    3.1344    0.0000 </r>
       <r>    3.7773    0.0000 </r>
       <r>    3.9514    0.0000 </r>
       <r>    3.9918    0.0000 </r>
       <r>    4.0207    0.0000 </r>
       <r>    4.1781    0.0000 </r>
       <r>    4.2282    0.0000 </r>
       <r>    4.2939    0.0000 </r>
       <r>    4.3027    0.0000 </r>
       <r>    4.3394    0.0000 </r>
       <r>    4.3796    0.0000 </r>
       <r>    4.4429    0.0000 </r>
       <r>    4.4859    0.0000 </r>
       <r>    4.5684    0.0000 </r>
       <r>    4.6009    0.0000 </r>
       <r>    4.7219    0.0000 </r>
       <r>    4.8153    0.0000 </r>
       <r>    5.2716    0.0000 </r>
       <r>    5.3901    0.0000 </r>
       <r>    5.5441    0.0000 </r>
       <r>    5.7639    0.0000 </r>
       <r>    5.7826    0.0000 </r>
       <r>    5.8654    0.0000 </r>
       <r>    6.0012    0.0000 </r>
       <r>    6.0066    0.0000 </r>
       <r>    6.0587    0.0000 </r>
       <r>    6.1862    0.0000 </r>
       <r>    6.2039    0.0000 </r>
       <r>    6.2214    0.0000 </r>
       <r>    6.3667    0.0000 </r>
       <r>    6.4278    0.0000 </r>
       <r>    6.4640    0.0000 </r>
       <r>    6.5268    0.0000 </r>
      </set>
      <set comment="kpoint 5">
       <r>  -21.0511    1.0000 </r>
       <r>  -20.9986    1.0000 </r>
       <r>  -20.9911    1.0000 </r>
       <r>  -20.9776    1.0000 </r>
       <r>  -20.9591    1.0000 </r>
       <r>  -20.9347    1.0000 </r>
       <r>  -20.9242    1.0000 </r>
       <r>  -16.9606    1.0000 </r>
       <r>  -16.9206    1.0000 </r>
       <r>  -16.8909    1.0000 </r>
       <r>  -16.8750    1.0000 </r>
       <r>  -16.8714    1.0000 </r>
       <r>  -16.8396    1.0000 </r>
       <r>  -16.8235    1.0000 </r>
       <r>  -16.8202    1.0000 </r>
       <r>  -16.8196    1.0000 </r>
       <r>  -16.8001    1.0000 </r>
       <r>  -16.7994    1.0000 </r>
       <r>  -16.7973    1.0000 </r>
       <r>  -16.7797    1.0000 </r>
       <r>  -16.7792    1.0000 </r>
       <r>  -16.7399    1.0000 </r>
       <r>  -16.7386    1.0000 </r>
       <r>  -16.7148    1.0000 </r>
       <r>  -16.7147    1.0000 </r>
       <r>  -16.7104    1.0000 </r>
       <r>  -16.7096    1.0000 </r>
       <r>  -16.5674    1.0000 </r>
       <r>  -16.5391    1.0000 </r>
       <r>  -16.5382    1.0000 </r>
       <r>  -16.5130    1.0000 </r>
       <r>  -16.5087    1.0000 </r>
       <r>  -16.4988    1.0000 </r>
       <r>  -16.4978    1.0000 </r>
       <r>  -16.4579    1.0000 </r>
       <r>  -16.4314    1.0000 </r>
       <r>  -16.4311    1.0000 </r>
       <r>  -16.4300    1.0000 </r>
       <r>  -16.4293    1.0000 </r>
       <r>  -16.4183    1.0000 </r>
       <r>  -16.4172    1.0000 </r>
       <r>  -16.3949    1.0000 </r>
       <r>  -16.3947    1.0000 </r>
       <r>  -16.3832    1.0000 </r>
       <r>  -16.3819    1.0000 </r>
       <r>  -16.3759    1.0000 </r>
       <r>  -16.3746    1.0000 </r>
       <r>  -15.1124    1.0000 </r>
       <r>  -14.7661    1.0000 </r>
       <r>  -14.7224    1.0000 </r>
       <r>  -14.5514    1.0000 </r>
       <r>  -14.4418    1.0000 </r>
       <r>  -14.3465    1.0000 </r>
       <r>  -14.3359    1.0000 </r>
       <r>  -14.2691    1.0000 </r>
       <r>  -14.2197    1.0000 </r>
       <r>  -14.1930    1.0000 </r>
       <r>  -14.1775    1.0000 </r>
       <r>  -14.1475    1.0000 </r>
       <r>  -14.1386    1.0000 </r>
       <r>  -14.1344    1.0000 </r>
       <r>  -14.1268    1.0000 </r>
       <r>  -14.0933    1.0000 </r>
       <r>  -14.0379    1.0000 </r>
       <r>  -13.9551    1.0000 </r>
       <r>  -13.9441    1.0000 </r>
       <r>  -13.9296    1.0000 </r>
       <r>  -13.8981    1.0000 </r>
       <r>  -13.8885    1.0000 </r>
       <r>  -13.7854    1.0000 </r>
       <r>  -13.6048    1.0000 </r>
       <r>   -8.3869    1.0000 </r>
       <r>   -8.2609    1.0000 </r>
       <r>   -7.9572    1.0000 </r>
       <r>   -7.9019    1.0000 </r>
       <r>   -7.7248    1.0000 </r>
       <r>   -7.6479    1.0000 </r>
       <r>   -7.6239    1.0000 </r>
       <r>   -7.5083    1.0000 </r>
       <r>   -7.4512    1.0000 </r>
       <r>   -7.4400    1.0000 </r>
       <r>   -7.4316    1.0000 </r>
       <r>   -7.4190    1.0000 </r>
       <r>   -7.4039    1.0000 </r>
       <r>   -7.3924    1.0000 </r>
       <r>   -7.3818    1.0000 </r>
       <r>   -7.3755    1.0000 </r>
       <r>   -7.3734    1.0000 </r>
       <r>   -7.3587    1.0000 </r>
       <r>   -7.3575    1.0000 </r>
       <r>   -7.3504    1.0000 </r>
       <r>   -7.3476    1.0000 </r>
       <r>   -7.3423    1.0000 </r>
       <r>   -7.3315    1.0000 </r>
       <r>   -7.3239    1.0000 </r>
       <r>   -7.3202    1.0000 </r>
       <r>   -7.3136    1.0000 </r>
       <r>   -7.3055    1.0000 </r>
       <r>   -7.0780    1.0000 </r>
       <r>   -7.0271    1.0000 </r>
       <r>   -3.6966    1.0000 </r>
       <r>   -3.5758    1.0000 </r>
       <r>   -3.3876    1.0000 </r>
       <r>   -3.3746    1.0000 </r>
       <r>   -3.2756    1.0000 </r>
       <r>   -3.2526    1.0000 </r>
       <r>   -3.2336    1.0000 </r>
       <r>   -3.1264    1.0000 </r>
       <r>   -3.0791    1.0000 </r>
       <r>   -3.0246    1.0000 </r>
       <r>   -2.8232    1.0000 </r>
       <r>   -2.7405    1.0000 </r>
       <r>   -2.5600    1.0000 </r>
       <r>   -2.5251    1.0000 </r>
       <r>   -2.4964    1.0000 </r>
       <r>   -2.4271    1.0000 </r>
       <r>   -2.4102    1.0000 </r>
       <r>   -2.2958    1.0000 </r>
       <r>   -2.2706    1.0000 </r>
       <r>   -2.2566    1.0000 </r>
       <r>   -2.2368    1.0000 </r>
       <r>   -2.2013    1.0000 </r>
       <r>   -2.1646    1.0000 </r>
       <r>   -1.9921    1.0000 </r>
       <r>   -1.9625    1.0000 </r>
       <r>   -1.9452    1.0000 </r>
       <r>   -1.9241    1.0000 </r>
       <r>   -1.9011    1.0000 </r>
       <r>   -1.8553    1.0000 </r>
       <r>   -1.7676    1.0000 </r>
       <r>   -1.7292    1.0000 </r>
       <r>   -1.7288    1.0000 </r>
       <r>   -1.7079    1.0000 </r>
       <r>   -1.6669    1.0000 </r>
       <r>   -1.6588    1.0000 </r>
       <r>   -1.6274    1.0000 </r>
       <r>   -1.6100    1.0000 </r>
       <r>   -1.5906    1.0000 </r>
       <r>   -1.5809    1.0000 </r>
       <r>   -1.5773    1.0000 </r>
       <r>   -1.5643    1.0000 </r>
       <r>   -1.5498    1.0000 </r>
       <r>   -1.5301    1.0000 </r>
       <r>   -1.5179    1.0000 </r>
       <r>   -1.4830    1.0000 </r>
       <r>   -1.4246    1.0000 </r>
       <r>   -1.4178    1.0000 </r>
       <r>   -1.3975    1.0000 </r>
       <r>   -1.3938    1.0000 </r>
       <r>   -1.3782    1.0000 </r>
       <r>   -1.3665    1.0000 </r>
       <r>   -1.3401    1.0000 </r>
       <r>   -1.3217    1.0000 </r>
       <r>   -1.2979    1.0000 </r>
       <r>   -1.2722    1.0000 </r>
       <r>   -1.2302    1.0000 </r>
       <r>   -1.2250    1.0000 </r>
       <r>   -1.2132    1.0000 </r>
       <r>   -1.1985    1.0000 </r>
       <r>   -1.1364    1.0000 </r>
       <r>   -1.0862    1.0000 </r>
       <r>   -1.0814    1.0000 </r>
       <r>   -0.9580    1.0000 </r>
       <r>   -0.8942    1.0000 </r>
       <r>   -0.8822    1.0000 </r>
       <r>   -0.8054    1.0000 </r>
       <r>   -0.7598    1.0000 </r>
       <r>   -0.7321    1.0000 </r>
       <r>   -0.7098    1.0000 </r>
       <r>   -0.3461    1.0000 </r>
       <r>   -0.1914    1.0000 </r>
       <r>   -0.0698    1.0000 </r>
       <r>    2.5906    0.0000 </r>
       <r>    2.6564    0.0000 </r>
       <r>    2.7481    0.0000 </r>
       <r>    2.7686    0.0000 </r>
       <r>    3.1070    0.0000 </r>
       <r>    3.1203    0.0000 </r>
       <r>    3.1561    0.0000 </r>
       <r>    3.1985    0.0000 </r>
       <r>    3.7372    0.0000 </r>
       <r>    3.9018    0.0000 </r>
       <r>    4.0625    0.0000 </r>
       <r>    4.2709    0.0000 </r>
       <r>    4.3479    0.0000 </r>
       <r>    4.3726    0.0000 </r>
       <r>    4.6370    0.0000 </r>
       <r>    4.7291    0.0000 </r>
       <r>    5.1850    0.0000 </r>
       <r>    5.2898    0.0000 </r>
       <r>    5.3470    0.0000 </r>
       <r>    5.4288    0.0000 </r>
       <r>    5.4518    0.0000 </r>
       <r>    5.5902    0.0000 </r>
       <r>    5.6282    0.0000 </r>
       <r>    5.8468    0.0000 </r>
       <r>    5.9615    0.0000 </r>
       <r>    6.0158    0.0000 </r>
       <r>    6.0376    0.0000 </r>
       <r>    6.1146    0.0000 </r>
       <r>    6.1276    0.0000 </r>
       <r>    6.1960    0.0000 </r>
       <r>    6.3144    0.0000 </r>
       <r>    6.3694    0.0000 </r>
       <r>    6.3972    0.0000 </r>
       <r>    6.4407    0.0000 </r>
       <r>    6.4990    0.0000 </r>
       <r>    6.5282    0.0000 </r>
      </set>
      <set comment="kpoint 6">
       <r>  -21.0510    1.0000 </r>
       <r>  -20.9985    1.0000 </r>
       <r>  -20.9911    1.0000 </r>
       <r>  -20.9776    1.0000 </r>
       <r>  -20.9590    1.0000 </r>
       <r>  -20.9347    1.0000 </r>
       <r>  -20.9242    1.0000 </r>
       <r>  -16.9605    1.0000 </r>
       <r>  -16.9204    1.0000 </r>
       <r>  -16.8895    1.0000 </r>
       <r>  -16.8737    1.0000 </r>
       <r>  -16.8712    1.0000 </r>
       <r>  -16.8391    1.0000 </r>
       <r>  -16.8225    1.0000 </r>
       <r>  -16.8201    1.0000 </r>
       <r>  -16.8183    1.0000 </r>
       <r>  -16.8000    1.0000 </r>
       <r>  -16.7994    1.0000 </r>
       <r>  -16.7953    1.0000 </r>
       <r>  -16.7797    1.0000 </r>
       <r>  -16.7791    1.0000 </r>
       <r>  -16.7398    1.0000 </r>
       <r>  -16.7386    1.0000 </r>
       <r>  -16.7147    1.0000 </r>
       <r>  -16.7146    1.0000 </r>
       <r>  -16.7104    1.0000 </r>
       <r>  -16.7095    1.0000 </r>
       <r>  -16.5685    1.0000 </r>
       <r>  -16.5419    1.0000 </r>
       <r>  -16.5397    1.0000 </r>
       <r>  -16.5139    1.0000 </r>
       <r>  -16.5090    1.0000 </r>
       <r>  -16.5005    1.0000 </r>
       <r>  -16.4986    1.0000 </r>
       <r>  -16.4582    1.0000 </r>
       <r>  -16.4313    1.0000 </r>
       <r>  -16.4310    1.0000 </r>
       <r>  -16.4299    1.0000 </r>
       <r>  -16.4292    1.0000 </r>
       <r>  -16.4183    1.0000 </r>
       <r>  -16.4173    1.0000 </r>
       <r>  -16.3948    1.0000 </r>
       <r>  -16.3947    1.0000 </r>
       <r>  -16.3831    1.0000 </r>
       <r>  -16.3819    1.0000 </r>
       <r>  -16.3759    1.0000 </r>
       <r>  -16.3746    1.0000 </r>
       <r>  -15.1128    1.0000 </r>
       <r>  -14.7662    1.0000 </r>
       <r>  -14.7225    1.0000 </r>
       <r>  -14.5503    1.0000 </r>
       <r>  -14.4373    1.0000 </r>
       <r>  -14.3429    1.0000 </r>
       <r>  -14.3299    1.0000 </r>
       <r>  -14.3123    1.0000 </r>
       <r>  -14.2746    1.0000 </r>
       <r>  -14.2135    1.0000 </r>
       <r>  -14.1775    1.0000 </r>
       <r>  -14.1656    1.0000 </r>
       <r>  -14.0900    1.0000 </r>
       <r>  -14.0742    1.0000 </r>
       <r>  -14.0574    1.0000 </r>
       <r>  -14.0448    1.0000 </r>
       <r>  -14.0338    1.0000 </r>
       <r>  -13.9718    1.0000 </r>
       <r>  -13.9646    1.0000 </r>
       <r>  -13.9644    1.0000 </r>
       <r>  -13.9079    1.0000 </r>
       <r>  -13.9037    1.0000 </r>
       <r>  -13.7908    1.0000 </r>
       <r>  -13.6069    1.0000 </r>
       <r>   -8.3328    1.0000 </r>
       <r>   -8.1671    1.0000 </r>
       <r>   -7.9202    1.0000 </r>
       <r>   -7.8291    1.0000 </r>
       <r>   -7.8036    1.0000 </r>
       <r>   -7.7674    1.0000 </r>
       <r>   -7.6184    1.0000 </r>
       <r>   -7.4760    1.0000 </r>
       <r>   -7.4555    1.0000 </r>
       <r>   -7.4398    1.0000 </r>
       <r>   -7.4333    1.0000 </r>
       <r>   -7.4105    1.0000 </r>
       <r>   -7.4007    1.0000 </r>
       <r>   -7.3921    1.0000 </r>
       <r>   -7.3815    1.0000 </r>
       <r>   -7.3784    1.0000 </r>
       <r>   -7.3764    1.0000 </r>
       <r>   -7.3609    1.0000 </r>
       <r>   -7.3558    1.0000 </r>
       <r>   -7.3511    1.0000 </r>
       <r>   -7.3396    1.0000 </r>
       <r>   -7.3370    1.0000 </r>
       <r>   -7.3304    1.0000 </r>
       <r>   -7.3271    1.0000 </r>
       <r>   -7.3140    1.0000 </r>
       <r>   -7.3060    1.0000 </r>
       <r>   -7.2842    1.0000 </r>
       <r>   -7.2549    1.0000 </r>
       <r>   -7.1916    1.0000 </r>
       <r>   -3.6916    1.0000 </r>
       <r>   -3.5705    1.0000 </r>
       <r>   -3.2470    1.0000 </r>
       <r>   -3.1335    1.0000 </r>
       <r>   -3.1277    1.0000 </r>
       <r>   -3.1077    1.0000 </r>
       <r>   -2.8976    1.0000 </r>
       <r>   -2.8488    1.0000 </r>
       <r>   -2.8151    1.0000 </r>
[...]
        <r>  0.0014  0.0016  0.0012 </r>
        <r>  0.0004  0.0015  0.0006 </r>
        <r>  0.0002  0.0012  0.0039 </r>
        <r>  0.0002  0.0010  0.0002 </r>
        <r>  0.0000  0.0014  0.0004 </r>
        <r>  0.0004  0.0016  0.0008 </r>
        <r>  0.0004  0.0003  0.0005 </r>
        <r>  0.0009  0.0012  0.0008 </r>
        <r>  0.0000  0.0000  0.0119 </r>
       </set>
       <set comment="band 199">
        <r>  0.0000  0.0000  0.0008 </r>
        <r>  0.0000  0.0000  0.0086 </r>
        <r>  0.0061  0.0012  0.0275 </r>
        <r>  0.0000  0.0000  0.0009 </r>
        <r>  0.0000  0.0000  0.0018 </r>
        <r>  0.0006  0.0007  0.0068 </r>
        <r>  0.0000  0.0047  0.0001 </r>
        <r>  0.0000  0.0011  0.0007 </r>
        <r>  0.0000  0.0029  0.0005 </r>
        <r>  0.0002  0.0005  0.0001 </r>
        <r>  0.0000  0.0029  0.0005 </r>
        <r>  0.0002  0.0005  0.0001 </r>
        <r>  0.0000  0.0047  0.0001 </r>
        <r>  0.0000  0.0011  0.0007 </r>
        <r>  0.0004  0.0052  0.0073 </r>
        <r>  0.0006  0.0012  0.0004 </r>
        <r>  0.0000  0.0002  0.0001 </r>
        <r>  0.0000  0.0003  0.0002 </r>
        <r>  0.0001  0.0049  0.0007 </r>
        <r>  0.0005  0.0024  0.0073 </r>
        <r>  0.0000  0.0008  0.0007 </r>
        <r>  0.0000  0.0004  0.0004 </r>
        <r>  0.0000  0.0037  0.0007 </r>
        <r>  0.0004  0.0005  0.0001 </r>
        <r>  0.0002  0.0009  0.0013 </r>
        <r>  0.0011  0.0023  0.0009 </r>
        <r>  0.0014  0.0015  0.0011 </r>
        <r>  0.0000  0.0001  0.0002 </r>
        <r>  0.0000  0.0013  0.0008 </r>
        <r>  0.0002  0.0028  0.0008 </r>
        <r>  0.0000  0.0037  0.0007 </r>
        <r>  0.0004  0.0005  0.0001 </r>
        <r>  0.0002  0.0009  0.0013 </r>
        <r>  0.0011  0.0023  0.0009 </r>
        <r>  0.0000  0.0013  0.0008 </r>
        <r>  0.0002  0.0028  0.0008 </r>
        <r>  0.0014  0.0015  0.0011 </r>
        <r>  0.0000  0.0001  0.0002 </r>
        <r>  0.0004  0.0005  0.0535 </r>
       </set>
       <set comment="band 200">
        <r>  0.0023  0.0008  0.0101 </r>
        <r>  0.0066  0.0026  0.0122 </r>
        <r>  0.0000  0.0001  0.0026 </r>
        <r>  0.0033  0.0023  0.0150 </r>
        <r>  0.0087  0.0018  0.0032 </r>
        <r>  0.0000  0.0011  0.0089 </r>
        <r>  0.0000  0.0015  0.0000 </r>
        <r>  0.0001  0.0052  0.0001 </r>
        <r>  0.0000  0.0076  0.0001 </r>
        <r>  0.0000  0.0010  0.0000 </r>
        <r>  0.0000  0.0076  0.0001 </r>
        <r>  0.0000  0.0010  0.0000 </r>
        <r>  0.0000  0.0015  0.0000 </r>
        <r>  0.0001  0.0052  0.0001 </r>
        <r>  0.0000  0.0097  0.0002 </r>
        <r>  0.0000  0.0000  0.0000 </r>
        <r>  0.0002  0.0055  0.0004 </r>
        <r>  0.0003  0.0056  0.0016 </r>
        <r>  0.0000  0.0004  0.0000 </r>
        <r>  0.0000  0.0001  0.0002 </r>
        <r>  0.0082  0.0015  0.0069 </r>
        <r>  0.0001  0.0017  0.0026 </r>
        <r>  0.0003  0.0015  0.0002 </r>
        <r>  0.0000  0.0015  0.0006 </r>
        <r>  0.0002  0.0020  0.0018 </r>
        <r>  0.0000  0.0002  0.0006 </r>
        <r>  0.0035  0.0050  0.0031 </r>
        <r>  0.0000  0.0006  0.0005 </r>
        <r>  0.0006  0.0014  0.0004 </r>
        <r>  0.0000  0.0010  0.0002 </r>
        <r>  0.0003  0.0015  0.0002 </r>
        <r>  0.0000  0.0015  0.0006 </r>
        <r>  0.0002  0.0020  0.0018 </r>
        <r>  0.0000  0.0002  0.0006 </r>
        <r>  0.0006  0.0014  0.0004 </r>
        <r>  0.0000  0.0010  0.0002 </r>
        <r>  0.0035  0.0050  0.0031 </r>
        <r>  0.0000  0.0006  0.0005 </r>
        <r>  0.0000  0.0002  0.0070 </r>
       </set>
       <set comment="band 201">
        <r>  0.0000  0.0000  0.0020 </r>
        <r>  0.0000  0.0007  0.0043 </r>
        <r>  0.0000  0.0007  0.0036 </r>
        <r>  0.0000  0.0003  0.0103 </r>
        <r>  0.0000  0.0009  0.0108 </r>
        <r>  0.0214  0.0004  0.0240 </r>
        <r>  0.0000  0.0053  0.0001 </r>
        <r>  0.0001  0.0033  0.0001 </r>
        <r>  0.0000  0.0055  0.0002 </r>
        <r>  0.0000  0.0035  0.0001 </r>
        <r>  0.0000  0.0055  0.0002 </r>
        <r>  0.0000  0.0034  0.0001 </r>
        <r>  0.0000  0.0053  0.0001 </r>
        <r>  0.0001  0.0033  0.0001 </r>
        <r>  0.0005  0.0019  0.0012 </r>
        <r>  0.0000  0.0048  0.0008 </r>
        <r>  0.0000  0.0025  0.0001 </r>
        <r>  0.0000  0.0023  0.0001 </r>
        <r>  0.0005  0.0005  0.0002 </r>
        <r>  0.0021  0.0029  0.0035 </r>
        <r>  0.0000  0.0016  0.0002 </r>
        <r>  0.0000  0.0002  0.0001 </r>
        <r>  0.0001  0.0046  0.0002 </r>
        <r>  0.0003  0.0006  0.0013 </r>
        <r>  0.0000  0.0012  0.0008 </r>
        <r>  0.0013  0.0030  0.0021 </r>
        <r>  0.0013  0.0020  0.0023 </r>
        <r>  0.0002  0.0023  0.0002 </r>
        <r>  0.0032  0.0020  0.0032 </r>
        <r>  0.0002  0.0011  0.0004 </r>
        <r>  0.0001  0.0046  0.0002 </r>
        <r>  0.0003  0.0006  0.0013 </r>
        <r>  0.0000  0.0012  0.0008 </r>
        <r>  0.0013  0.0030  0.0021 </r>
        <r>  0.0032  0.0020  0.0032 </r>
        <r>  0.0002  0.0011  0.0004 </r>
        <r>  0.0013  0.0020  0.0022 </r>
        <r>  0.0002  0.0023  0.0002 </r>
        <r>  0.0001  0.0020  0.0039 </r>
       </set>
       <set comment="band 202">
        <r>  0.0142  0.0010  0.0111 </r>
        <r>  0.0037  0.0021  0.0029 </r>
        <r>  0.0000  0.0000  0.0091 </r>
        <r>  0.0053  0.0014  0.0051 </r>
        <r>  0.0024  0.0015  0.0033 </r>
        <r>  0.0000  0.0007  0.0100 </r>
        <r>  0.0000  0.0029  0.0001 </r>
        <r>  0.0000  0.0088  0.0002 </r>
        <r>  0.0000  0.0053  0.0000 </r>
        <r>  0.0000  0.0124  0.0001 </r>
        <r>  0.0000  0.0053  0.0000 </r>
        <r>  0.0000  0.0124  0.0001 </r>
        <r>  0.0000  0.0029  0.0001 </r>
        <r>  0.0000  0.0088  0.0002 </r>
        <r>  0.0000  0.0003  0.0001 </r>
        <r>  0.0000  0.0027  0.0000 </r>
        <r>  0.0001  0.0001  0.0016 </r>
        <r>  0.0064  0.0029  0.0058 </r>
        <r>  0.0000  0.0002  0.0001 </r>
        <r>  0.0000  0.0104  0.0003 </r>
        <r>  0.0003  0.0036  0.0003 </r>
        <r>  0.0007  0.0039  0.0018 </r>
        <r>  0.0003  0.0016  0.0016 </r>
        <r>  0.0009  0.0033  0.0015 </r>
        <r>  0.0006  0.0021  0.0010 </r>
        <r>  0.0000  0.0011  0.0005 </r>
        <r>  0.0018  0.0026  0.0017 </r>
        <r>  0.0002  0.0020  0.0006 </r>
        <r>  0.0000  0.0005  0.0004 </r>
        <r>  0.0012  0.0017  0.0010 </r>
        <r>  0.0003  0.0016  0.0016 </r>
        <r>  0.0009  0.0033  0.0015 </r>
        <r>  0.0006  0.0021  0.0010 </r>
        <r>  0.0000  0.0011  0.0005 </r>
        <r>  0.0000  0.0005  0.0004 </r>
        <r>  0.0012  0.0017  0.0010 </r>
        <r>  0.0018  0.0026  0.0017 </r>
        <r>  0.0002  0.0020  0.0006 </r>
        <r>  0.0000  0.0008  0.0028 </r>
       </set>
       <set comment="band 203">
        <r>  0.0000  0.0001  0.0175 </r>
        <r>  0.0000  0.0002  0.0049 </r>
        <r>  0.0165  0.0007  0.0045 </r>
        <r>  0.0000  0.0009  0.0058 </r>
        <r>  0.0000  0.0000  0.0069 </r>
        <r>  0.0002  0.0012  0.0026 </r>
        <r>  0.0000  0.0052  0.0001 </r>
        <r>  0.0000  0.0065  0.0005 </r>
        <r>  0.0000  0.0064  0.0005 </r>
        <r>  0.0000  0.0083  0.0002 </r>
        <r>  0.0000  0.0064  0.0005 </r>
        <r>  0.0000  0.0082  0.0002 </r>
        <r>  0.0000  0.0051  0.0001 </r>
        <r>  0.0000  0.0065  0.0005 </r>
        <r>  0.0022  0.0058  0.0016 </r>
        <r>  0.0000  0.0003  0.0001 </r>
        <r>  0.0000  0.0049  0.0000 </r>
        <r>  0.0000  0.0025  0.0002 </r>
        <r>  0.0017  0.0041  0.0017 </r>
        <r>  0.0010  0.0036  0.0019 </r>
        <r>  0.0000  0.0045  0.0007 </r>
        <r>  0.0000  0.0004  0.0001 </r>
        <r>  0.0020  0.0009  0.0024 </r>
        <r>  0.0000  0.0022  0.0005 </r>
        <r>  0.0002  0.0013  0.0020 </r>
        <r>  0.0008  0.0011  0.0012 </r>
        <r>  0.0002  0.0005  0.0007 </r>
        <r>  0.0000  0.0036  0.0004 </r>
        <r>  0.0000  0.0028  0.0006 </r>
        <r>  0.0015  0.0022  0.0030 </r>
        <r>  0.0020  0.0009  0.0024 </r>
        <r>  0.0000  0.0022  0.0005 </r>
        <r>  0.0002  0.0013  0.0020 </r>
        <r>  0.0009  0.0011  0.0012 </r>
        <r>  0.0000  0.0028  0.0006 </r>
        <r>  0.0015  0.0022  0.0030 </r>
        <r>  0.0002  0.0005  0.0007 </r>
        <r>  0.0000  0.0036  0.0004 </r>
        <r>  0.0000  0.0019  0.0123 </r>
       </set>
       <set comment="band 204">
        <r>  0.0000  0.0008  0.0053 </r>
        <r>  0.0119  0.0017  0.0072 </r>
        <r>  0.0000  0.0005  0.0080 </r>
        <r>  0.0076  0.0016  0.0166 </r>
        <r>  0.0003  0.0016  0.0134 </r>
        <r>  0.0000  0.0000  0.0084 </r>
        <r>  0.0000  0.0125  0.0000 </r>
        <r>  0.0000  0.0019  0.0001 </r>
        <r>  0.0000  0.0013  0.0001 </r>
        <r>  0.0000  0.0039  0.0001 </r>
        <r>  0.0000  0.0013  0.0001 </r>
        <r>  0.0000  0.0040  0.0001 </r>
        <r>  0.0000  0.0123  0.0000 </r>
        <r>  0.0000  0.0018  0.0001 </r>
        <r>  0.0000  0.0002  0.0003 </r>
        <r>  0.0000  0.0031  0.0001 </r>
        <r>  0.0044  0.0032  0.0054 </r>
        <r>  0.0001  0.0037  0.0007 </r>
        <r>  0.0000  0.0071  0.0000 </r>
        <r>  0.0000  0.0001  0.0001 </r>
        <r>  0.0000  0.0023  0.0026 </r>
        <r>  0.0022  0.0039  0.0020 </r>
        <r>  0.0007  0.0041  0.0012 </r>
        <r>  0.0007  0.0006  0.0009 </r>
        <r>  0.0000  0.0004  0.0003 </r>
        <r>  0.0022  0.0006  0.0018 </r>
        <r>  0.0001  0.0021  0.0024 </r>
        <r>  0.0002  0.0031  0.0003 </r>
        <r>  0.0001  0.0025  0.0008 </r>
        <r>  0.0000  0.0020  0.0002 </r>
        <r>  0.0008  0.0041  0.0012 </r>
        <r>  0.0007  0.0006  0.0009 </r>
        <r>  0.0000  0.0004  0.0003 </r>
        <r>  0.0022  0.0007  0.0019 </r>
        <r>  0.0001  0.0025  0.0009 </r>
        <r>  0.0000  0.0020  0.0002 </r>
        <r>  0.0000  0.0021  0.0024 </r>
        <r>  0.0001  0.0030  0.0003 </r>
        <r>  0.0000  0.0000  0.0012 </r>
       </set>
       <set comment="band 205">
        <r>  0.0000  0.0000  0.0014 </r>
        <r>  0.0000  0.0006  0.0044 </r>
        <r>  0.0000  0.0011  0.0025 </r>
        <r>  0.0000  0.0001  0.0159 </r>
        <r>  0.0000  0.0006  0.0001 </r>
        <r>  0.0035  0.0011  0.0068 </r>
        <r>  0.0000  0.0052  0.0001 </r>
        <r>  0.0000  0.0104  0.0006 </r>
        <r>  0.0000  0.0012  0.0002 </r>
        <r>  0.0001  0.0071  0.0002 </r>
        <r>  0.0000  0.0012  0.0002 </r>
        <r>  0.0001  0.0071  0.0002 </r>
        <r>  0.0000  0.0054  0.0001 </r>
        <r>  0.0000  0.0104  0.0006 </r>
        <r>  0.0007  0.0009  0.0016 </r>
        <r>  0.0027  0.0019  0.0037 </r>
        <r>  0.0000  0.0012  0.0001 </r>
        <r>  0.0000  0.0013  0.0004 </r>
        <r>  0.0006  0.0013  0.0009 </r>
        <r>  0.0006  0.0052  0.0037 </r>
        <r>  0.0000  0.0002  0.0003 </r>
        <r>  0.0000  0.0119  0.0002 </r>
        <r>  0.0000  0.0003  0.0006 </r>
        <r>  0.0008  0.0024  0.0014 </r>
        <r>  0.0000  0.0013  0.0003 </r>
        <r>  0.0009  0.0022  0.0012 </r>
        <r>  0.0005  0.0008  0.0007 </r>
        <r>  0.0005  0.0016  0.0003 </r>
        <r>  0.0006  0.0015  0.0008 </r>
        <r>  0.0005  0.0048  0.0019 </r>
        <r>  0.0000  0.0003  0.0006 </r>
        <r>  0.0008  0.0024  0.0015 </r>
        <r>  0.0000  0.0014  0.0004 </r>
        <r>  0.0009  0.0022  0.0012 </r>
        <r>  0.0006  0.0014  0.0008 </r>
        <r>  0.0005  0.0047  0.0019 </r>
        <r>  0.0006  0.0008  0.0008 </r>
        <r>  0.0005  0.0017  0.0003 </r>
        <r>  0.0000  0.0096  0.0114 </r>
       </set>
       <set comment="band 206">
        <r>  0.0029  0.0008  0.0239 </r>
        <r>  0.0003  0.0001  0.0315 </r>
        <r>  0.0000  0.0004  0.0192 </r>
        <r>  0.0026  0.0005  0.0037 </r>
        <r>  0.0010  0.0004  0.0069 </r>
        <r>  0.0000  0.0002  0.0262 </r>
        <r>  0.0000  0.0072  0.0009 </r>
        <r>  0.0000  0.0031  0.0003 </r>
        <r>  0.0000  0.0081  0.0008 </r>
        <r>  0.0001  0.0019  0.0001 </r>
        <r>  0.0000  0.0089  0.0006 </r>
        <r>  0.0000  0.0021  0.0001 </r>
        <r>  0.0001  0.0071  0.0010 </r>
        <r>  0.0000  0.0025  0.0004 </r>
        <r>  0.0000  0.0004  0.0007 </r>
        <r>  0.0000  0.0002  0.0001 </r>
        <r>  0.0018  0.0001  0.0030 </r>
        <r>  0.0013  0.0014  0.0033 </r>
        <r>  0.0000  0.0024  0.0006 </r>
        <r>  0.0000  0.0001  0.0011 </r>
        <r>  0.0000  0.0002  0.0010 </r>
        <r>  0.0005  0.0001  0.0010 </r>
        <r>  0.0011  0.0017  0.0031 </r>
        <r>  0.0001  0.0007  0.0018 </r>
        <r>  0.0000  0.0005  0.0002 </r>
        <r>  0.0005  0.0031  0.0021 </r>
        <r>  0.0005  0.0016  0.0028 </r>
        <r>  0.0000  0.0003  0.0006 </r>
        <r>  0.0005  0.0027  0.0012 </r>
        <r>  0.0004  0.0027  0.0004 </r>
        <r>  0.0009  0.0017  0.0028 </r>
        <r>  0.0001  0.0008  0.0016 </r>
        <r>  0.0000  0.0006  0.0003 </r>
        <r>  0.0004  0.0032  0.0022 </r>
        <r>  0.0005  0.0029  0.0014 </r>
        <r>  0.0005  0.0026  0.0004 </r>
        <r>  0.0005  0.0016  0.0026 </r>
        <r>  0.0000  0.0003  0.0007 </r>
        <r>  0.0000  0.0003  0.0002 </r>
       </set>
       <set comment="band 207">
        <r>  0.0000  0.0012  0.0007 </r>
        <r>  0.0003  0.0006  0.0035 </r>
        <r>  0.0000  0.0000  0.0109 </r>
        <r>  0.0024  0.0002  0.0569 </r>
        <r>  0.0022  0.0002  0.0422 </r>
        <r>  0.0000  0.0001  0.0030 </r>
        <r>  0.0000  0.0020  0.0004 </r>
        <r>  0.0001  0.0007  0.0001 </r>
        <r>  0.0000  0.0024  0.0012 </r>
        <r>  0.0001  0.0035  0.0007 </r>
        <r>  0.0000  0.0023  0.0012 </r>
        <r>  0.0001  0.0034  0.0007 </r>
        <r>  0.0000  0.0021  0.0004 </r>
        <r>  0.0000  0.0008  0.0001 </r>
        <r>  0.0000  0.0000  0.0022 </r>
        <r>  0.0000  0.0024  0.0006 </r>
        <r>  0.0002  0.0008  0.0013 </r>
        <r>  0.0005  0.0007  0.0020 </r>
        <r>  0.0000  0.0002  0.0003 </r>
        <r>  0.0000  0.0001  0.0001 </r>
        <r>  0.0053  0.0029  0.0065 </r>
        <r>  0.0027  0.0016  0.0039 </r>
        <r>  0.0000  0.0040  0.0026 </r>
        <r>  0.0000  0.0021  0.0012 </r>
        <r>  0.0000  0.0007  0.0013 </r>
        <r>  0.0000  0.0007  0.0006 </r>
        <r>  0.0002  0.0010  0.0013 </r>
        <r>  0.0001  0.0009  0.0009 </r>
        <r>  0.0000  0.0004  0.0006 </r>
        <r>  0.0000  0.0024  0.0011 </r>
        <r>  0.0000  0.0040  0.0026 </r>
        <r>  0.0000  0.0020  0.0012 </r>
        <r>  0.0000  0.0006  0.0014 </r>
        <r>  0.0000  0.0006  0.0006 </r>
        <r>  0.0000  0.0004  0.0006 </r>
        <r>  0.0000  0.0025  0.0011 </r>
        <r>  0.0002  0.0010  0.0013 </r>
        <r>  0.0001  0.0010  0.0009 </r>
        <r>  0.0000  0.0001  0.0064 </r>
       </set>
       <set comment="band 208">
        <r>  0.0001  0.0002  0.0419 </r>
        <r>  0.0003  0.0001  0.0381 </r>
        <r>  0.0000  0.0001  0.0058 </r>
        <r>  0.0012  0.0004  0.0083 </r>
        <r>  0.0014  0.0002  0.0116 </r>
        <r>  0.0000  0.0001  0.0045 </r>
        <r>  0.0000  0.0021  0.0001 </r>
        <r>  0.0001  0.0024  0.0016 </r>
        <r>  0.0000  0.0019  0.0003 </r>
        <r>  0.0000  0.0009  0.0003 </r>
        <r>  0.0000  0.0020  0.0003 </r>
        <r>  0.0000  0.0008  0.0004 </r>
        <r>  0.0000  0.0023  0.0001 </r>
        <r>  0.0000  0.0056  0.0012 </r>
        <r>  0.0001  0.0003  0.0003 </r>
        <r>  0.0000  0.0007  0.0002 </r>
        <r>  0.0015  0.0023  0.0029 </r>
        <r>  0.0003  0.0010  0.0020 </r>
        <r>  0.0001  0.0010  0.0002 </r>
        <r>  0.0000  0.0004  0.0008 </r>
        <r>  0.0000  0.0002  0.0014 </r>
        <r>  0.0003  0.0006  0.0014 </r>
        <r>  0.0002  0.0014  0.0014 </r>
        <r>  0.0006  0.0006  0.0024 </r>
        <r>  0.0008  0.0048  0.0047 </r>
        <r>  0.0002  0.0006  0.0008 </r>
        <r>  0.0001  0.0023  0.0018 </r>
        <r>  0.0000  0.0027  0.0022 </r>
        <r>  0.0000  0.0024  0.0004 </r>
        <r>  0.0000  0.0007  0.0010 </r>
        <r>  0.0001  0.0007  0.0013 </r>
        <r>  0.0002  0.0005  0.0018 </r>
        <r>  0.0009  0.0038  0.0053 </r>
        <r>  0.0000  0.0003  0.0005 </r>
        <r>  0.0000  0.0018  0.0005 </r>
        <r>  0.0001  0.0009  0.0009 </r>
        <r>  0.0006  0.0013  0.0021 </r>
        <r>  0.0000  0.0021  0.0022 </r>
        <r>  0.0000  0.0007  0.0260 </r>
       </set>
      </set>
     </set>
    </set>
   </array>
  </projected>
 </calculation>
 <structure name="finalpos" >
  <crystal>
   <varray name="basis" >
    <v>       8.42001800       0.00000000       8.07798100 </v>
    <v>       0.00000000      11.76380800       0.00000000 </v>
    <v>      -8.42001800       0.00000000       8.07798100 </v>
   </varray>
   <i name="volume">   1600.27186790 </i>
   <varray name="rec_basis" >
    <v>       0.05938230      -0.00000000       0.06189665 </v>
    <v>       0.00000000       0.08500649      -0.00000000 </v>
    <v>      -0.05938230       0.00000000       0.06189665 </v>
   </varray>
  </crystal>
  <varray name="positions" >
   <v>       0.27512300       0.25000000       0.20868500 </v>
   <v>       0.77133700       0.25000000       0.70859200 </v>
   <v>       0.20431200       0.75000100       0.76377300 </v>
   <v>       0.29763100       0.24999900       0.72912800 </v>
   <v>       0.78503800       0.25000000       0.22442100 </v>
   <v>       0.73235700       0.75000000       0.79343500 </v>
   <v>       0.99949100       0.99943700       0.00039400 </v>
   <v>       0.50265200       0.99768100       0.49660000 </v>
   <v>       0.49990900       0.99687500       0.00081600 </v>
   <v>       0.00303300       0.00032400       0.49699200 </v>
   <v>       0.49991500       0.50312700       0.00082100 </v>
   <v>       0.00303200       0.49967600       0.49699200 </v>
   <v>       0.99949300       0.50056000       0.00039700 </v>
   <v>       0.50265100       0.50232300       0.49659700 </v>
   <v>       0.46548700       0.75000000       0.94982800 </v>
   <v>       0.97324300       0.74999900       0.47645600 </v>
   <v>       0.95856100       0.25000000       0.96730100 </v>
   <v>       0.46537800       0.25000000       0.46974600 </v>
   <v>       0.03759600       0.75000100       0.02225900 </v>
   <v>       0.53625500       0.75000100       0.53903000 </v>
   <v>       0.52869500       0.24999900       0.02999300 </v>
   <v>       0.03440800       0.24999900       0.54594900 </v>
   <v>       0.24770800       0.46275100       0.94851000 </v>
   <v>       0.75052200       0.45440100       0.45507400 </v>
   <v>       0.44382800       0.52823600       0.24653300 </v>
   <v>       0.94939600       0.53213000       0.74768000 </v>
   <v>       0.55115700       0.03524100       0.75099300 </v>
   <v>       0.04515800       0.04768900       0.25074200 </v>
   <v>       0.75159000       0.96453800       0.05013400 </v>
   <v>       0.25423200       0.97505000       0.55656000 </v>
   <v>       0.24770700       0.03724900       0.94851100 </v>
   <v>       0.75052200       0.04559900       0.45507400 </v>
   <v>       0.44382800       0.97176300       0.24653300 </v>
   <v>       0.94939800       0.96787100       0.74767900 </v>
   <v>       0.75159000       0.53546200       0.05013300 </v>
   <v>       0.25423300       0.52495000       0.55655900 </v>
   <v>       0.55115600       0.46476100       0.75099300 </v>
   <v>       0.04515500       0.45231000       0.25074300 </v>
   <v>       0.46916800       0.74999900       0.28739600 </v>
  </varray>
 </structure>
</modeling>
