CsPbBr3 cubic bulk                      
           1
     8.420018    0.000000    8.077981
     0.000000   11.763808    0.000000
    -8.420018    0.000000    8.077981
   Cs   Pb   Br   Cs
   6   8  24   1
Direct configuration=     1
   0.27512300  0.25000000  0.20868500
   0.77133700  0.25000000  0.70859200
   0.20431200  0.75000100  0.76377300
   0.29763100  0.24999900  0.72912800
   0.78503800  0.25000000  0.22442100
   0.73235700  0.75000000  0.79343500
   0.99949100  0.99943700  0.00039400
   0.50265200  0.99768100  0.49660000
   0.49990900  0.99687500  0.00081600
   0.00303300  0.00032400  0.49699200
   0.49991500  0.50312700  0.00082100
   0.00303200  0.49967600  0.49699200
   0.99949300  0.50056000  0.00039700
   0.50265100  0.50232300  0.49659700
   0.46548700  0.75000000  0.94982800
   0.97324300  0.74999900  0.47645600
   0.95856100  0.25000000  0.96730100
   0.46537800  0.25000000  0.46974600
   0.03759600  0.75000100  0.02225900
   0.53625500  0.75000100  0.53903000
   0.52869500  0.24999900  0.02999300
   0.03440800  0.24999900  0.54594900
   0.24770800  0.46275100  0.94851000
   0.75052200  0.45440100  0.45507400
   0.44382800  0.52823600  0.24653300
   0.94939600  0.53213000  0.74768000
   0.55115700  0.03524100  0.75099300
   0.04515800  0.04768900  0.25074200
   0.75159000  0.96453800  0.05013400
   0.25423200  0.97505000  0.55656000
   0.24770700  0.03724900  0.94851100
   0.75052200  0.04559900  0.45507400
   0.44382800  0.97176300  0.24653300
   0.94939800  0.96787100  0.74767900
   0.75159000  0.53546200  0.05013300
   0.25423300  0.52495000  0.55655900
   0.55115600  0.46476100  0.75099300
   0.04515500  0.45231000  0.25074300
   0.46916800  0.74999900  0.28739600
