 vasp.5.4.4.18Apr17-6-g9f103f2a35 (build Jun 22 2020 09:36:46) gamma-only        
 executed on tx2_gcc-7.3_libsci-1 date 2021.03.02  09:49:07
 running on   64 total cores
 distrk:  each k-point on   64 cores,    1 groups
 distr:  one band on NCORES_PER_BAND=   8 cores,    8 groups


--------------------------------------------------------------------------------------------------------


 INCAR:
 POTCAR:    PAW_PBE Cs_sv 08Apr2002               
 POTCAR:    PAW_PBE Pb_d 06Sep2000                
 POTCAR:    PAW_PBE Br 06Sep2000                  
 POTCAR:    PAW_PBE Cs_sv 08Apr2002               
 POTCAR:    PAW_PBE Pb_d 06Sep2000                
 POTCAR:    PAW_PBE Br 06Sep2000                  
 POTCAR:    PAW_PBE Cs_sv 08Apr2002               
   SHA256 =  c1463496f0f6037ed62c6012a8013a89ee9ad6ffb38599dcd6c079e7ed31779b Cs
   COPYR  = (c) Copyright 08Apr2002 Georg Kresse                                
   COPYR  = This file is part of the software VASP. Any use, copying, and all ot
   COPYR  = If you do not have a valid VASP license, you may not use, copy or di
   VRHFIN =Cs: 5s5p6s                                                           
   LEXCH  = PE                                                                  
   EATOM  =   555.6835 eV,   40.8416 Ry                                         
                                                                                
   TITEL  = PAW_PBE Cs_sv 08Apr2002                                             
   LULTRA =        F    use ultrasoft PP ?                                      
   IUNSCR =        1    unscreen: 0-lin 1-nonlin 2-no                           
   RPACOR =    2.200    partial core radius                                     
   POMASS =  132.900; ZVAL   =    9.000    mass and valenz                      
   RCORE  =    2.500    outmost cutoff radius                                   
   RWIGS  =    2.500; RWIGS  =    1.323    wigner-seitz radius (au A)           
   ENMAX  =  220.318; ENMIN  =  165.238 eV                                      
   RCLOC  =    2.207    cutoff for local pot                                    
   LCOR   =        T    correct aug charges                                     
   LPAW   =        T    paw PP                                                  
   EAUG   =  407.933                                                            
   DEXC   =    0.000                                                            
   RMAX   =    2.554    core radius for proj-oper                               
   RAUG   =    1.300    factor for augmentation sphere                          
   RDEP   =    2.590    radius for radial grids                                 
   RDEPT  =    2.117    core radius for aug-charge                              
                                                                                
   Atomic configuration                                                         
   13 entries                                                                   
     n  l   j            E        occ.                                          
     1  0  0.50    -35790.1377   2.0000                                         
     2  0  0.50     -5613.6201   2.0000                                         
     2  1  1.50     -5035.0101   6.0000                                         
     3  0  0.50     -1167.0767   2.0000                                         
     3  1  1.50      -980.9754   6.0000                                         
     3  2  2.50      -708.0703  10.0000                                         
     4  0  0.50      -220.2386   2.0000                                         
     4  1  1.50      -160.7596   6.0000                                         
     4  2  2.50       -74.2354  10.0000                                         
     5  0  0.50       -26.7287   2.0000                                         
     6  0  0.50        -2.0862   1.0000                                         
     5  1  1.50       -13.5159   6.0000                                         
     5  2  2.50        -0.4136   0.0000                                         
   Description                                                                  
     l       E           TYP  RCUT    TYP  RCUT                                 
     0    -26.7287425     23  1.900                                             
     0     -2.0862306     23  1.900                                             
     1    -13.5158719     23  2.500                                             
     1     -2.7211652     23  2.500                                             
     2     -0.4136171     23  2.500                                             
  local pseudopotential read in
  partial core-charges read in
  partial kinetic energy density read in
  atomic valenz-charges read in
  non local Contribution for L=           0  read in
    real space projection operators read in
  non local Contribution for L=           0  read in
    real space projection operators read in
  non local Contribution for L=           1  read in
    real space projection operators read in
  non local Contribution for L=           1  read in
    real space projection operators read in
  non local Contribution for L=           2  read in
    real space projection operators read in
    PAW grid and wavefunctions read in

   number of l-projection  operators is LMAX  =           5
   number of lm-projection operators is LMMAX =          13

 POTCAR:    PAW_PBE Pb_d 06Sep2000                
   SHA256 =  fb885b08f0fba73a15f6a6b0e39bd200c13ec96ef97cf3ecd8e63bade5137abd Pb
   COPYR  = (c) Copyright 06Sep2000 Georg Kresse                                
   COPYR  = This file is part of the software VASP. Any use, copying, and all ot
   COPYR  = If you do not have a valid VASP license, you may not use, copy or di
   VRHFIN =Pb:                                                                  
   LEXCH  = PE                                                                  
   EATOM  =  1661.6185 eV,  122.1255 Ry                                         
                                                                                
   TITEL  = PAW_PBE Pb_d 06Sep2000                                              
   LULTRA =        F    use ultrasoft PP ?                                      
   IUNSCR =        1    unscreen: 0-lin 1-nonlin 2-no                           
   RPACOR =    2.200    partial core radius                                     
   POMASS =  207.200; ZVAL   =   14.000    mass and valenz                      
   RCORE  =    2.500    outmost cutoff radius                                   
   RWIGS  =    3.260; RWIGS  =    1.725    wigner-seitz radius (au A)           
   ENMAX  =  237.835; ENMIN  =  178.376 eV                                      
   ICORE  =        3    local potential                                         
   LCOR   =        T    correct aug charges                                     
   LPAW   =        T    paw PP                                                  
   EAUG   =  391.914                                                            
   DEXC   =    0.000                                                            
   RMAX   =    2.565    core radius for proj-oper                               
   RAUG   =    1.300    factor for augmentation sphere                          
   RDEP   =    2.643    radius for radial grids                                 
   RDEPT  =    2.092    core radius for aug-charge                              
                                                                                
   Atomic configuration                                                         
   16 entries                                                                   
     n  l   j            E        occ.                                          
     1  0  0.50    -88091.8466   2.0000                                         
     2  0  0.50    -15753.4197   2.0000                                         
     2  1  1.50    -13508.1797   6.0000                                         
     3  0  0.50     -3781.7194   2.0000                                         
     3  1  1.50     -3138.2529   6.0000                                         
     3  2  2.50     -2483.2977  10.0000                                         
     4  0  0.50      -856.2895   2.0000                                         
     4  1  1.50      -645.4942   6.0000                                         
     4  2  2.50      -401.8768  10.0000                                         
     4  3  3.50      -132.9059  14.0000                                         
     5  0  0.50      -144.0950   2.0000                                         
     5  1  1.50       -85.7879   6.0000                                         
     5  2  2.50       -21.1769  10.0000                                         
     6  0  0.50       -12.0372   2.0000                                         
     6  1  1.50        -3.4971   2.0000                                         
     5  3  2.50        -2.7212   0.0000                                         
   Description                                                                  
     l       E           TYP  RCUT    TYP  RCUT                                 
     2    -21.1768523     23  2.500                                             
     2      1.3605826     23  2.500                                             
     0    -12.0371562     23  2.500                                             
     0     13.6058260     23  2.500                                             
     1     -3.4971339     23  2.500                                             
     1     13.6058260     23  2.500                                             
     3     -1.3605826      7  2.500                                             
  local pseudopotential read in
  partial core-charges read in
  partial kinetic energy density read in
  atomic valenz-charges read in
  non local Contribution for L=           2  read in
    real space projection operators read in
  non local Contribution for L=           2  read in
    real space projection operators read in
  non local Contribution for L=           0  read in
    real space projection operators read in
  non local Contribution for L=           0  read in
    real space projection operators read in
  non local Contribution for L=           1  read in
    real space projection operators read in
  non local Contribution for L=           1  read in
    real space projection operators read in
    PAW grid and wavefunctions read in

   number of l-projection  operators is LMAX  =           6
   number of lm-projection operators is LMMAX =          18

 POTCAR:    PAW_PBE Br 06Sep2000                  
   SHA256 =  96a73d2954943bbee26f4990d676cc6c3bf44b8dd2c75cd4b3b825d8403f0103 Br
   COPYR  = (c) Copyright 06Sep2000 Georg Kresse                                
   COPYR  = This file is part of the software VASP. Any use, copying, and all ot
   COPYR  = If you do not have a valid VASP license, you may not use, copy or di
   VRHFIN =Br: s2p5                                                             
   LEXCH  = PE                                                                  
   EATOM  =   368.4488 eV,   27.0802 Ry                                         
                                                                                
   TITEL  = PAW_PBE Br 06Sep2000                                                
   LULTRA =        F    use ultrasoft PP ?                                      
   IUNSCR =        1    unscreen: 0-lin 1-nonlin 2-no                           
   RPACOR =    1.900    partial core radius                                     
   POMASS =   79.904; ZVAL   =    7.000    mass and valenz                      
   RCORE  =    2.100    outmost cutoff radius                                   
   RWIGS  =    2.200; RWIGS  =    1.164    wigner-seitz radius (au A)           
   ENMAX  =  216.285; ENMIN  =  162.214 eV                                      
   ICORE  =        3    local potential                                         
   LCOR   =        T    correct aug charges                                     
   LPAW   =        T    paw PP                                                  
   EAUG   =  503.852                                                            
   DEXC   =    0.000                                                            
   RMAX   =    2.139    core radius for proj-oper                               
   RAUG   =    1.300    factor for augmentation sphere                          
   RDEP   =    2.186    radius for radial grids                                 
   RDEPT  =    1.890    core radius for aug-charge                              
                                                                                
   Atomic configuration                                                         
   10 entries                                                                   
     n  l   j            E        occ.                                          
     1  0  0.50    -13316.2796   2.0000                                         
     2  0  0.50     -1732.8239   2.0000                                         
     2  1  1.50     -1528.2193   6.0000                                         
     3  0  0.50      -238.0460   2.0000                                         
     3  1  1.50      -173.4609   6.0000                                         
     3  2  2.50       -66.7132  10.0000                                         
     4  0  0.50       -20.1334   2.0000                                         
     4  1  0.50        -7.8591   5.0000                                         
     4  2  2.50        -8.1635   0.0000                                         
     4  3  2.50        -8.1635   0.0000                                         
   Description                                                                  
     l       E           TYP  RCUT    TYP  RCUT                                 
     0    -20.1333652     23  2.100                                             
     0    -21.4939478     23  2.100                                             
     1     -7.8591052     23  2.100                                             
     1     -3.1608434     23  2.100                                             
     2     -8.1634956     23  2.100                                             
     3     -1.3605826      7  2.100                                             
  local pseudopotential read in
  partial core-charges read in
  partial kinetic energy density read in
  atomic valenz-charges read in
  non local Contribution for L=           0  read in
    real space projection operators read in
  non local Contribution for L=           0  read in
    real space projection operators read in
  non local Contribution for L=           1  read in
    real space projection operators read in
  non local Contribution for L=           1  read in
    real space projection operators read in
  non local Contribution for L=           2  read in
    real space projection operators read in
    PAW grid and wavefunctions read in

   number of l-projection  operators is LMAX  =           5
   number of lm-projection operators is LMMAX =          13

 POTCAR:    PAW_PBE Cs_sv 08Apr2002               
   SHA256 =  c1463496f0f6037ed62c6012a8013a89ee9ad6ffb38599dcd6c079e7ed31779b Cs
   COPYR  = (c) Copyright 08Apr2002 Georg Kresse                                
   COPYR  = This file is part of the software VASP. Any use, copying, and all ot
   COPYR  = If you do not have a valid VASP license, you may not use, copy or di
   VRHFIN =Cs: 5s5p6s                                                           
   LEXCH  = PE                                                                  
   EATOM  =   555.6835 eV,   40.8416 Ry                                         
                                                                                
   TITEL  = PAW_PBE Cs_sv 08Apr2002                                             
   LULTRA =        F    use ultrasoft PP ?                                      
   IUNSCR =        1    unscreen: 0-lin 1-nonlin 2-no                           
   RPACOR =    2.200    partial core radius                                     
   POMASS =  132.900; ZVAL   =    9.000    mass and valenz                      
   RCORE  =    2.500    outmost cutoff radius                                   
   RWIGS  =    2.500; RWIGS  =    1.323    wigner-seitz radius (au A)           
   ENMAX  =  220.318; ENMIN  =  165.238 eV                                      
   RCLOC  =    2.207    cutoff for local pot                                    
   LCOR   =        T    correct aug charges                                     
   LPAW   =        T    paw PP                                                  
   EAUG   =  407.933                                                            
   DEXC   =    0.000                                                            
   RMAX   =    2.554    core radius for proj-oper                               
   RAUG   =    1.300    factor for augmentation sphere                          
   RDEP   =    2.590    radius for radial grids                                 
   RDEPT  =    2.117    core radius for aug-charge                              
                                                                                
   Atomic configuration                                                         
   13 entries                                                                   
     n  l   j            E        occ.                                          
     1  0  0.50    -35790.1377   2.0000                                         
     2  0  0.50     -5613.6201   2.0000                                         
     2  1  1.50     -5035.0101   6.0000                                         
     3  0  0.50     -1167.0767   2.0000                                         
     3  1  1.50      -980.9754   6.0000                                         
     3  2  2.50      -708.0703  10.0000                                         
     4  0  0.50      -220.2386   2.0000                                         
     4  1  1.50      -160.7596   6.0000                                         
     4  2  2.50       -74.2354  10.0000                                         
     5  0  0.50       -26.7287   2.0000                                         
     6  0  0.50        -2.0862   1.0000                                         
     5  1  1.50       -13.5159   6.0000                                         
     5  2  2.50        -0.4136   0.0000                                         
   Description                                                                  
     l       E           TYP  RCUT    TYP  RCUT                                 
     0    -26.7287425     23  1.900                                             
     0     -2.0862306     23  1.900                                             
     1    -13.5158719     23  2.500                                             
     1     -2.7211652     23  2.500                                             
     2     -0.4136171     23  2.500                                             
  local pseudopotential read in
  partial core-charges read in
  partial kinetic energy density read in
  atomic valenz-charges read in
  non local Contribution for L=           0  read in
    real space projection operators read in
  non local Contribution for L=           0  read in
    real space projection operators read in
  non local Contribution for L=           1  read in
    real space projection operators read in
  non local Contribution for L=           1  read in
    real space projection operators read in
  non local Contribution for L=           2  read in
    real space projection operators read in
    PAW grid and wavefunctions read in

   number of l-projection  operators is LMAX  =           5
   number of lm-projection operators is LMMAX =          13

 POTCAR:    PAW_PBE Pb_d 06Sep2000                
   SHA256 =  fb885b08f0fba73a15f6a6b0e39bd200c13ec96ef97cf3ecd8e63bade5137abd Pb
   COPYR  = (c) Copyright 06Sep2000 Georg Kresse                                
   COPYR  = This file is part of the software VASP. Any use, copying, and all ot
   COPYR  = If you do not have a valid VASP license, you may not use, copy or di
   VRHFIN =Pb:                                                                  
   LEXCH  = PE                                                                  
   EATOM  =  1661.6185 eV,  122.1255 Ry                                         
                                                                                
   TITEL  = PAW_PBE Pb_d 06Sep2000                                              
   LULTRA =        F    use ultrasoft PP ?                                      
   IUNSCR =        1    unscreen: 0-lin 1-nonlin 2-no                           
   RPACOR =    2.200    partial core radius                                     
   POMASS =  207.200; ZVAL   =   14.000    mass and valenz                      
   RCORE  =    2.500    outmost cutoff radius                                   
   RWIGS  =    3.260; RWIGS  =    1.725    wigner-seitz radius (au A)           
   ENMAX  =  237.835; ENMIN  =  178.376 eV                                      
   ICORE  =        3    local potential                                         
   LCOR   =        T    correct aug charges                                     
   LPAW   =        T    paw PP                                                  
   EAUG   =  391.914                                                            
   DEXC   =    0.000                                                            
   RMAX   =    2.565    core radius for proj-oper                               
   RAUG   =    1.300    factor for augmentation sphere                          
   RDEP   =    2.643    radius for radial grids                                 
   RDEPT  =    2.092    core radius for aug-charge                              
                                                                                
   Atomic configuration                                                         
   16 entries                                                                   
     n  l   j            E        occ.                                          
     1  0  0.50    -88091.8466   2.0000                                         
     2  0  0.50    -15753.4197   2.0000                                         
     2  1  1.50    -13508.1797   6.0000                                         
     3  0  0.50     -3781.7194   2.0000                                         
     3  1  1.50     -3138.2529   6.0000                                         
     3  2  2.50     -2483.2977  10.0000                                         
     4  0  0.50      -856.2895   2.0000                                         
     4  1  1.50      -645.4942   6.0000                                         
     4  2  2.50      -401.8768  10.0000                                         
     4  3  3.50      -132.9059  14.0000                                         
     5  0  0.50      -144.0950   2.0000                                         
     5  1  1.50       -85.7879   6.0000                                         
     5  2  2.50       -21.1769  10.0000                                         
     6  0  0.50       -12.0372   2.0000                                         
     6  1  1.50        -3.4971   2.0000                                         
     5  3  2.50        -2.7212   0.0000                                         
   Description                                                                  
     l       E           TYP  RCUT    TYP  RCUT                                 
     2    -21.1768523     23  2.500                                             
     2      1.3605826     23  2.500                                             
     0    -12.0371562     23  2.500                                             
     0     13.6058260     23  2.500                                             
     1     -3.4971339     23  2.500                                             
     1     13.6058260     23  2.500                                             
     3     -1.3605826      7  2.500                                             
  local pseudopotential read in
  partial core-charges read in
  partial kinetic energy density read in
  atomic valenz-charges read in
  non local Contribution for L=           2  read in
    real space projection operators read in
  non local Contribution for L=           2  read in
    real space projection operators read in
  non local Contribution for L=           0  read in
    real space projection operators read in
  non local Contribution for L=           0  read in
    real space projection operators read in
  non local Contribution for L=           1  read in
    real space projection operators read in
  non local Contribution for L=           1  read in
    real space projection operators read in
    PAW grid and wavefunctions read in

   number of l-projection  operators is LMAX  =           6
   number of lm-projection operators is LMMAX =          18

 POTCAR:    PAW_PBE Br 06Sep2000                  
   SHA256 =  96a73d2954943bbee26f4990d676cc6c3bf44b8dd2c75cd4b3b825d8403f0103 Br
   COPYR  = (c) Copyright 06Sep2000 Georg Kresse                                
   COPYR  = This file is part of the software VASP. Any use, copying, and all ot
   COPYR  = If you do not have a valid VASP license, you may not use, copy or di
   VRHFIN =Br: s2p5                                                             
   LEXCH  = PE                                                                  
   EATOM  =   368.4488 eV,   27.0802 Ry                                         
                                                                                
   TITEL  = PAW_PBE Br 06Sep2000                                                
   LULTRA =        F    use ultrasoft PP ?                                      
   IUNSCR =        1    unscreen: 0-lin 1-nonlin 2-no                           
   RPACOR =    1.900    partial core radius                                     
   POMASS =   79.904; ZVAL   =    7.000    mass and valenz                      
   RCORE  =    2.100    outmost cutoff radius                                   
   RWIGS  =    2.200; RWIGS  =    1.164    wigner-seitz radius (au A)           
   ENMAX  =  216.285; ENMIN  =  162.214 eV                                      
   ICORE  =        3    local potential                                         
   LCOR   =        T    correct aug charges                                     
   LPAW   =        T    paw PP                                                  
   EAUG   =  503.852                                                            
   DEXC   =    0.000                                                            
   RMAX   =    2.139    core radius for proj-oper                               
   RAUG   =    1.300    factor for augmentation sphere                          
   RDEP   =    2.186    radius for radial grids                                 
   RDEPT  =    1.890    core radius for aug-charge                              
                                                                                
   Atomic configuration                                                         
   10 entries                                                                   
     n  l   j            E        occ.                                          
     1  0  0.50    -13316.2796   2.0000                                         
     2  0  0.50     -1732.8239   2.0000                                         
     2  1  1.50     -1528.2193   6.0000                                         
     3  0  0.50      -238.0460   2.0000                                         
     3  1  1.50      -173.4609   6.0000                                         
     3  2  2.50       -66.7132  10.0000                                         
     4  0  0.50       -20.1334   2.0000                                         
     4  1  0.50        -7.8591   5.0000                                         
     4  2  2.50        -8.1635   0.0000                                         
     4  3  2.50        -8.1635   0.0000                                         
   Description                                                                  
     l       E           TYP  RCUT    TYP  RCUT                                 
     0    -20.1333652     23  2.100                                             
     0    -21.4939478     23  2.100                                             
     1     -7.8591052     23  2.100                                             
     1     -3.1608434     23  2.100                                             
     2     -8.1634956     23  2.100                                             
     3     -1.3605826      7  2.100                                             
  local pseudopotential read in
  partial core-charges read in
  partial kinetic energy density read in
  atomic valenz-charges read in
  non local Contribution for L=           0  read in
    real space projection operators read in
  non local Contribution for L=           0  read in
    real space projection operators read in
  non local Contribution for L=           1  read in
    real space projection operators read in
  non local Contribution for L=           1  read in
    real space projection operators read in
  non local Contribution for L=           2  read in
    real space projection operators read in
    PAW grid and wavefunctions read in

   number of l-projection  operators is LMAX  =           5
   number of lm-projection operators is LMMAX =          13

 Optimization of the real space projectors (new method)

 maximal supplied QI-value         = 15.12
 optimisation between [QCUT,QGAM] = [  8.77, 17.69] = [ 21.53, 87.61] Ry 
 Optimized for a Real-space Cutoff    1.85 Angstroem

   l    n(q)    QCUT    max X(q) W(low)/X(q) W(high)/X(q)  e(spline) 
   0     10     8.768    25.322    0.81E-04    0.51E-04    0.48E-06
   0     10     8.768    99.187    0.78E-04    0.50E-04    0.47E-06
   1      9     8.768    11.761    0.21E-03    0.20E-03    0.37E-06
   1      9     8.768     8.275    0.24E-03    0.22E-03    0.41E-06
   2      9     8.768     3.829    0.23E-04    0.15E-03    0.18E-06
 Optimization of the real space projectors (new method)

 maximal supplied QI-value         = 15.12
 optimisation between [QCUT,QGAM] = [  8.77, 17.69] = [ 21.53, 87.61] Ry 
 Optimized for a Real-space Cutoff    1.59 Angstroem

   l    n(q)    QCUT    max X(q) W(low)/X(q) W(high)/X(q)  e(spline) 
   2      7     8.768     3.846    0.48E-04    0.11E-03    0.11E-06
   2      7     8.768     8.593    0.20E-03    0.22E-04    0.24E-06
   0      8     8.768    20.082    0.68E-04    0.88E-04    0.41E-07
   0      8     8.768     8.597    0.89E-04    0.13E-03    0.59E-07
   1      8     8.768    33.223    0.15E-03    0.53E-04    0.87E-07
   1      8     8.768    15.899    0.14E-03    0.44E-04    0.78E-07
 Optimization of the real space projectors (new method)

 maximal supplied QI-value         = 17.95
 optimisation between [QCUT,QGAM] = [  8.80, 17.59] = [ 21.67, 86.68] Ry 
 Optimized for a Real-space Cutoff    1.59 Angstroem

   l    n(q)    QCUT    max X(q) W(low)/X(q) W(high)/X(q)  e(spline) 
   0      8     8.797   175.082    0.82E-04    0.14E-03    0.89E-07
   0      8     8.797   174.004    0.79E-04    0.14E-03    0.86E-07
   1      8     8.797    54.315    0.16E-03    0.14E-04    0.30E-06
   1      8     8.797    42.441    0.16E-03    0.14E-04    0.30E-06
   2      7     8.797     3.596    0.92E-04    0.15E-03    0.85E-07
 Optimization of the real space projectors (new method)

 maximal supplied QI-value         = 15.12
 optimisation between [QCUT,QGAM] = [  8.77, 17.69] = [ 21.53, 87.61] Ry 
 Optimized for a Real-space Cutoff    1.85 Angstroem

   l    n(q)    QCUT    max X(q) W(low)/X(q) W(high)/X(q)  e(spline) 
   0     10     8.768    25.322    0.81E-04    0.51E-04    0.48E-06
   0     10     8.768    99.187    0.78E-04    0.50E-04    0.47E-06
   1      9     8.768    11.761    0.21E-03    0.20E-03    0.37E-06
   1      9     8.768     8.275    0.24E-03    0.22E-03    0.41E-06
   2      9     8.768     3.829    0.23E-04    0.15E-03    0.18E-06
 Optimization of the real space projectors (new method)

 maximal supplied QI-value         = 15.12
 optimisation between [QCUT,QGAM] = [  8.77, 17.69] = [ 21.53, 87.61] Ry 
 Optimized for a Real-space Cutoff    1.59 Angstroem

   l    n(q)    QCUT    max X(q) W(low)/X(q) W(high)/X(q)  e(spline) 
   2      7     8.768     3.846    0.48E-04    0.11E-03    0.11E-06
   2      7     8.768     8.593    0.20E-03    0.22E-04    0.24E-06
   0      8     8.768    20.082    0.68E-04    0.88E-04    0.41E-07
   0      8     8.768     8.597    0.89E-04    0.13E-03    0.59E-07
   1      8     8.768    33.223    0.15E-03    0.53E-04    0.87E-07
   1      8     8.768    15.899    0.14E-03    0.44E-04    0.78E-07
 Optimization of the real space projectors (new method)

 maximal supplied QI-value         = 17.95
 optimisation between [QCUT,QGAM] = [  8.80, 17.59] = [ 21.67, 86.68] Ry 
 Optimized for a Real-space Cutoff    1.59 Angstroem

   l    n(q)    QCUT    max X(q) W(low)/X(q) W(high)/X(q)  e(spline) 
   0      8     8.797   175.082    0.82E-04    0.14E-03    0.89E-07
   0      8     8.797   174.004    0.79E-04    0.14E-03    0.86E-07
   1      8     8.797    54.315    0.16E-03    0.14E-04    0.30E-06
   1      8     8.797    42.441    0.16E-03    0.14E-04    0.30E-06
   2      7     8.797     3.596    0.92E-04    0.15E-03    0.85E-07
  PAW_PBE Cs_sv 08Apr2002               :
 energy of atom  1       EATOM= -555.6835
 kinetic energy error for atom=    0.0069 (will be added to EATOM!!)
  PAW_PBE Pb_d 06Sep2000                :
 energy of atom  2       EATOM=-1661.6185
 kinetic energy error for atom=    0.0498 (will be added to EATOM!!)
  PAW_PBE Br 06Sep2000                  :
 energy of atom  3       EATOM= -368.4488
 kinetic energy error for atom=    0.0072 (will be added to EATOM!!)
  PAW_PBE Cs_sv 08Apr2002               :
 energy of atom  4       EATOM= -555.6835
 kinetic energy error for atom=    0.0069 (will be added to EATOM!!)
  PAW_PBE Pb_d 06Sep2000                :
 energy of atom  5       EATOM=-1661.6185
 kinetic energy error for atom=    0.0498 (will be added to EATOM!!)
  PAW_PBE Br 06Sep2000                  :
 energy of atom  6       EATOM= -368.4488
 kinetic energy error for atom=    0.0072 (will be added to EATOM!!)


 POSCAR: Cs63 Pb64 Br192                         
  positions in direct lattice
  velocities in cartesian coordinates

 METAGGA = SCAN     LMAXTAU =  6    LMIXTAU =  F

 exchange correlation table for  LEXCH =        8
   RHO(1)=    0.500       N(1)  =     2000
   RHO(2)=  100.500       N(2)  =     4000

 VTST: version 3.2, (02/03/18)

 CHAIN: initializing optimizer
 
 OPT: Using VASP Conjugate-Gradient optimizer
 CHAIN: Read ICHAIN            0

 POSCAR: Cs63 Pb64 Br192                         
  positions in direct lattice
  velocities in cartesian coordinates



--------------------------------------------------------------------------------------------------------


 ion  position               nearest neighbor table
   1  0.886  0.875  0.354-
   2  0.136  0.875  0.604-
   3  0.886  0.376  0.354-
   4  0.137  0.376  0.604-
   5  0.886  0.875  0.853-
   6  0.136  0.875  0.104-
   7  0.388  0.875  0.354-
   8  0.639  0.875  0.605-
   9  0.886  0.376  0.853-
  10  0.138  0.376  0.106-
  11  0.387  0.875  0.854-
  12  0.636  0.875  0.104-
  13  0.386  0.376  0.854-
  14  0.636  0.376  0.104-
  15  0.104  0.125  0.386-
  16  0.354  0.125  0.637-
  17  0.105  0.625  0.386-
  18  0.104  0.125  0.886-
  19  0.354  0.125  0.136-
  20  0.604  0.126  0.388-
  21  0.854  0.125  0.636-
  22  0.104  0.625  0.886-
  23  0.357  0.625  0.137-
  24  0.851  0.626  0.636-
  25  0.604  0.125  0.886-
  26  0.854  0.125  0.136-
  27  0.603  0.625  0.884-
  28  0.854  0.625  0.136-
  29  0.897  0.875  0.114-
  30  0.147  0.875  0.364-
  31  0.896  0.375  0.114-
  32  0.147  0.376  0.365-
  33  0.896  0.875  0.614-
  34  0.147  0.875  0.864-
  35  0.397  0.875  0.114-
  36  0.647  0.875  0.364-
  37  0.896  0.376  0.614-
  38  0.147  0.376  0.864-
  39  0.397  0.376  0.114-
  40  0.396  0.876  0.615-
  41  0.647  0.876  0.864-
  42  0.648  0.375  0.864-
  43  0.114  0.125  0.147-
  44  0.365  0.126  0.397-
  45  0.114  0.625  0.146-
  46  0.114  0.125  0.647-
  47  0.364  0.125  0.897-
  48  0.614  0.125  0.147-
  49  0.864  0.125  0.397-
  50  0.115  0.625  0.647-
  51  0.366  0.626  0.894-
  52  0.614  0.625  0.147-
  53  0.865  0.625  0.396-
  54  0.614  0.125  0.647-
  55  0.864  0.125  0.896-
  56  0.865  0.625  0.900-
  57  0.750  0.750  0.250- 143 2.99 203 2.99 310 3.01 132 3.01 252 3.02 225 3.02
  58  0.000  0.750  0.500- 144 2.99 220 2.99 200 3.00 133 3.00 226 3.01 241 3.01
  59  0.750  0.250  0.250- 141 2.99 136 3.00 250 3.00 216 3.00 207 3.01 227 3.01
  60  0.000  0.250  0.500- 137 2.99 142 3.00 204 3.01 228 3.01 217 3.01 239 3.01
  61  0.749  0.749  0.750- 315 2.97 149 2.98 223 3.00 138 3.03 229 3.03 209 3.05
  62  0.000  0.750  0.000- 150 3.00 139 3.00 247 3.00 224 3.01 230 3.01 197 3.01
  63  0.251  0.750  0.251- 300 2.99 231 3.00 198 3.00 127 3.01 248 3.01 213 3.01
  64  0.501  0.751  0.504- 301 2.95 208 2.96 311 3.01 232 3.02 128 3.03 314 3.06
  65  0.750  0.251  0.750- 298 2.98 145 3.00 221 3.00 246 3.01 210 3.01 233 3.01
  66  0.000  0.251  0.000- 140 2.99 146 3.00 243 3.00 234 3.01 222 3.01 199 3.01
  67  0.251  0.751  0.750- 153 2.99 236 2.99 242 3.01 130 3.01 201 3.01 218 3.03
  68  0.500  0.751  1.000- 251 2.98 154 2.99 131 3.00 237 3.00 219 3.01 202 3.02
  69  0.250  0.251  0.750- 151 2.99 134 2.99 240 3.00 312 3.00 214 3.01 205 3.01
  70  0.500  0.250  1.000- 135 2.99 152 2.99 249 3.00 238 3.00 215 3.01 206 3.01
  71  0.000  0.750  0.250- 115 2.99 225 3.00 241 3.00 155 3.00 197 3.01 213 3.01
  72  0.250  0.750  0.500- 116 2.98 311 2.99 242 3.00 156 3.01 226 3.01 198 3.02
  73  0.000  0.251  0.250- 113 2.99 157 3.00 227 3.00 239 3.01 211 3.01 199 3.01
  74  1.000  0.750  0.750- 121 2.99 229 2.99 200 3.01 158 3.01 218 3.01 247 3.01
  75  0.250  0.750  0.000- 122 2.99 219 3.00 201 3.00 159 3.01 248 3.01 230 3.01
  76  0.501  0.750  0.251- 123 2.98 314 2.99 310 3.00 160 3.01 202 3.01 231 3.02
  77  0.749  0.750  0.502- 315 2.95 297 2.98 232 3.00 161 3.02 220 3.02 203 3.06
  78  0.000  0.251  0.750- 162 2.99 117 3.00 233 3.00 204 3.01 214 3.01 243 3.01
  79  0.250  0.251  0.000- 118 3.00 163 3.00 205 3.00 215 3.00 234 3.01 244 3.02
  80  0.750  0.251  0.500- 164 2.99 120 2.99 313 3.00 246 3.01 217 3.01 207 3.01
  81  0.504  0.750  0.750- 296 2.95 223 2.96 208 2.99 251 3.04 165 3.04 236 3.07
  82  0.750  0.750  1.000- 126 2.99 209 2.99 237 3.00 166 3.01 252 3.02 224 3.02
  83  0.500  0.252  0.750- 167 2.98 124 3.00 308 3.00 312 3.01 221 3.01 249 3.02
  84  0.750  0.250  0.000- 168 2.99 125 2.99 210 3.00 238 3.01 222 3.01 250 3.01
  85  0.000  0.000  0.250- 155 2.99 113 3.00 169 3.00 183 3.01 267 3.01 253 3.01
  86  0.250  0.000  0.500- 156 2.98 254 3.00 114 3.01 184 3.01 170 3.01 268 3.01
  87  0.001  0.500  0.250- 157 2.99 171 3.00 185 3.00 115 3.00 269 3.01 255 3.02
  88  0.000  0.000  0.750- 158 2.99 173 3.00 117 3.00 270 3.01 256 3.01 187 3.01
  89  0.250  0.000  0.000- 159 2.99 118 3.00 257 3.01 271 3.01 174 3.01 188 3.01
  90  0.500  0.000  0.250- 160 2.98 189 3.00 119 3.01 272 3.01 175 3.01 258 3.01
  91  0.750  0.000  0.500- 161 2.97 176 3.00 190 3.01 120 3.01 273 3.01 259 3.01
  92  1.000  0.501  0.750- 177 2.99 121 2.99 162 3.01 274 3.01 191 3.01 260 3.01
  93  0.251  0.501  0.000- 122 3.00 275 3.00 261 3.00 163 3.00 178 3.01 192 3.02
  94  0.750  0.502  0.503- 307 2.94 297 2.99 305 2.99 164 3.02 262 3.02 277 3.08
  95  0.500  0.000  0.750- 165 2.96 278 3.01 263 3.01 180 3.01 193 3.01 124 3.02
  96  0.750  0.000  0.000- 166 2.99 125 3.00 181 3.00 279 3.01 194 3.01 264 3.01
  97  0.504  0.502  0.750- 265 2.97 296 2.97 318 2.97 167 3.03 195 3.06 304 3.06
  98  0.750  0.501  1.000- 280 2.99 182 2.99 126 3.00 168 3.00 196 3.02 266 3.02
  99  0.750  0.001  0.250- 132 2.99 273 3.00 194 3.01 141 3.01 258 3.01 169 3.01
 100  0.000  0.000  0.500- 133 2.99 142 3.00 259 3.00 270 3.01 170 3.01 183 3.01
 101  0.750  0.501  0.251- 277 2.99 136 3.00 143 3.00 316 3.00 196 3.02 171 3.02
 102  0.001  0.501  0.501- 262 2.99 137 3.00 144 3.00 274 3.00 185 3.01 172 3.02
 103  0.750  0.000  0.750- 138 2.97 263 3.00 190 3.01 279 3.01 145 3.01 173 3.01
 104  0.000  0.000  0.000- 139 2.99 146 3.00 187 3.00 264 3.01 267 3.01 174 3.01
 105  0.250  0.000  0.250- 127 2.99 268 3.00 175 3.01 253 3.01 147 3.01 188 3.01
 106  0.500  0.000  0.501- 128 2.96 278 3.00 254 3.01 176 3.01 189 3.02 148 3.02
 107  0.749  0.503  0.750- 307 2.97 149 2.98 265 2.99 298 3.03 177 3.04 280 3.04
 108  0.000  0.500  0.000- 140 2.99 150 3.00 191 3.00 266 3.01 178 3.01 269 3.01
 109  0.250  0.000  0.750- 130 2.98 180 3.00 151 3.00 184 3.01 256 3.01 271 3.01
 110  0.500  0.001  0.000- 131 2.98 152 3.00 193 3.00 181 3.01 272 3.01 257 3.01
 111  0.251  0.501  0.750- 304 2.99 186 2.99 153 3.00 134 3.00 275 3.02 260 3.02
 112  0.501  0.501  0.000- 195 2.97 135 3.00 154 3.00 182 3.01 261 3.01 276 3.03
 113  0.985  0.126  0.231-  73 2.99  85 3.00
 114  0.235  0.126  0.480- 291 2.99  86 3.01
 115  0.984  0.626  0.231-  71 2.99  87 3.00
 116  0.236  0.626  0.480-  72 2.98 293 3.01
 117  0.985  0.125  0.731-  78 3.00  88 3.00
 118  0.234  0.126  0.981-  79 3.00  89 3.00
 119  0.484  0.126  0.231- 290 2.99  90 3.01
 120  0.734  0.126  0.481-  80 2.99  91 3.01
 121  0.984  0.626  0.730-  74 2.99  92 2.99
 122  0.235  0.626  0.980-  75 2.99  93 3.00
 123  0.486  0.626  0.233-  76 2.98 292 3.01
 124  0.485  0.126  0.731-  83 3.00  95 3.02
 125  0.735  0.125  0.981-  84 2.99  96 3.00
 126  0.733  0.626  0.981-  82 2.99  98 3.00
 127  0.231  0.876  0.234- 105 2.99  63 3.01
 128  0.480  0.877  0.484- 106 2.96  64 3.03
 129  0.233  0.376  0.235- 294 3.00 288 3.00
 130  0.231  0.876  0.734- 109 2.98  67 3.01
 131  0.481  0.876  0.985- 110 2.98  68 3.00
 132  0.731  0.876  0.234-  99 2.99  57 3.01
 133  0.981  0.876  0.485- 100 2.99  58 3.00
 134  0.231  0.376  0.735-  69 2.99 111 3.00
 135  0.481  0.375  0.985-  70 2.99 112 3.00
 136  0.731  0.376  0.235-  59 3.00 101 3.00
 137  0.981  0.376  0.485-  60 2.99 102 3.00
 138  0.734  0.876  0.736- 103 2.97  61 3.03
 139  0.981  0.876  0.984- 104 2.99  62 3.00
 140  0.980  0.375  0.984-  66 2.99 108 2.99
 141  0.770  0.126  0.266-  59 2.99  99 3.01
 142  0.020  0.126  0.516-  60 3.00 100 3.00
 143  0.770  0.626  0.266-  57 2.99 101 3.00
 144  0.021  0.626  0.516-  58 2.99 102 3.00
 145  0.770  0.126  0.766-  65 3.00 103 3.01
 146  0.020  0.126  0.016-  66 3.00 104 3.00
 147  0.270  0.126  0.266- 288 2.99 105 3.01
 148  0.519  0.126  0.517- 289 3.01 106 3.02
 149  0.775  0.626  0.771-  61 2.98 107 2.98
 150  0.020  0.625  0.016-  62 3.00 108 3.00
 151  0.269  0.126  0.766-  69 2.99 109 3.00
 152  0.520  0.126  0.016-  70 2.99 110 3.00
 153  0.269  0.626  0.766-  67 2.99 111 3.00
 154  0.520  0.626  0.015-  68 2.99 112 3.00
 155  0.016  0.876  0.270-  85 2.99  71 3.00
 156  0.265  0.876  0.520-  86 2.98  72 3.01
 157  0.017  0.376  0.270-  87 2.99  73 3.00
 158  0.017  0.876  0.770-  88 2.99  74 3.01
 159  0.266  0.876  0.020-  89 2.99  75 3.01
 160  0.517  0.876  0.268-  90 2.98  76 3.01
 161  0.767  0.876  0.518-  91 2.97  77 3.02
 162  0.016  0.375  0.770-  78 2.99  92 3.01
 163  0.266  0.376  0.020-  79 3.00  93 3.00
 164  0.767  0.376  0.518-  80 2.99  94 3.02
 165  0.516  0.877  0.771-  95 2.96  81 3.04
 166  0.766  0.876  0.020-  96 2.99  82 3.01
 167  0.516  0.375  0.772-  83 2.98  97 3.03
 168  0.766  0.375  0.019-  84 2.99  98 3.00
 169  0.874  0.982  0.225-  85 3.00  99 3.01
 170  0.124  0.982  0.475- 100 3.01  86 3.01
 171  0.875  0.482  0.225-  87 3.00 101 3.02
 172  0.125  0.482  0.476- 102 3.02 293 3.03
 173  0.874  0.982  0.725-  88 3.00 103 3.01
 174  0.124  0.982  0.975-  89 3.01 104 3.01
 175  0.374  0.982  0.225- 105 3.01  90 3.01
 176  0.624  0.982  0.475-  91 3.00 106 3.01
 177  0.874  0.482  0.725-  92 2.99 107 3.04
 178  0.124  0.482  0.975- 108 3.01  93 3.01
 179  0.376  0.482  0.225- 294 3.00 292 3.02
 180  0.374  0.983  0.725- 109 3.00  95 3.01
 181  0.624  0.983  0.975-  96 3.00 110 3.01
 182  0.625  0.482  0.975-  98 2.99 112 3.01
 183  0.975  0.018  0.374-  85 3.01 100 3.01
 184  0.225  0.018  0.624- 109 3.01  86 3.01
 185  0.976  0.518  0.374-  87 3.00 102 3.01
 186  0.226  0.519  0.624- 111 2.99 293 3.01
 187  0.975  0.018  0.874- 104 3.00  88 3.01
 188  0.225  0.018  0.124-  89 3.01 105 3.01
 189  0.475  0.018  0.374-  90 3.00 106 3.02
 190  0.725  0.018  0.624-  91 3.01 103 3.01
 191  0.975  0.518  0.874- 108 3.00  92 3.01
 192  0.227  0.520  0.125- 294 3.01  93 3.02
 193  0.475  0.019  0.874- 110 3.00  95 3.01
 194  0.725  0.018  0.124-  99 3.01  96 3.01
 195  0.475  0.517  0.876- 112 2.97  97 3.06
 196  0.725  0.518  0.124-  98 3.02 101 3.02
 197  0.026  0.768  0.126-  71 3.01  62 3.01
 198  0.276  0.770  0.376-  63 3.00  72 3.02
 199  0.026  0.269  0.126-  73 3.01  66 3.01
 200  0.026  0.768  0.626-  58 3.00  74 3.01
 201  0.276  0.768  0.876-  75 3.00  67 3.01
 202  0.525  0.768  0.126-  76 3.01  68 3.02
 203  0.776  0.768  0.376-  57 2.99  77 3.06
 204  0.026  0.268  0.626-  60 3.01  78 3.01
 205  0.276  0.268  0.876-  79 3.00  69 3.01
 206  0.526  0.268  0.126- 290 3.01  70 3.01
 207  0.776  0.268  0.376-  59 3.01  80 3.01
 208  0.521  0.778  0.627-  64 2.96  81 2.99
 209  0.777  0.768  0.877-  82 2.99  61 3.05
 210  0.777  0.267  0.877-  84 3.00  65 3.01
 211  0.126  0.233  0.276-  73 3.01 288 3.01
 212  0.376  0.233  0.527- 291 3.00 289 3.02
 213  0.126  0.732  0.276-  71 3.01  63 3.01
 214  0.126  0.232  0.776-  69 3.01  78 3.01
 215  0.376  0.232  0.026-  79 3.00  70 3.01
 216  0.626  0.232  0.276-  59 3.00 290 3.01
 217  0.876  0.232  0.526-  60 3.01  80 3.01
 218  0.126  0.732  0.776-  74 3.01  67 3.03
 219  0.376  0.732  0.026-  75 3.00  68 3.01
 220  0.876  0.732  0.525-  58 2.99  77 3.02
 221  0.627  0.233  0.776-  65 3.00  83 3.01
 222  0.876  0.232  0.026-  66 3.01  84 3.01
 223  0.627  0.740  0.784-  81 2.96  61 3.00
 224  0.876  0.733  0.026-  62 3.01  82 3.02
 225  0.875  0.768  0.225-  71 3.00  57 3.02
 226  0.124  0.768  0.475-  58 3.01  72 3.01
 227  0.874  0.268  0.225-  73 3.00  59 3.01
 228  0.124  0.268  0.474-  60 3.01 291 3.01
 229  0.874  0.769  0.726-  74 2.99  61 3.03
 230  0.124  0.768  0.975-  62 3.01  75 3.01
 231  0.374  0.768  0.225-  63 3.00  76 3.02
 232  0.624  0.770  0.475-  77 3.00  64 3.02
 233  0.874  0.268  0.724-  78 3.00  65 3.01
 234  0.124  0.268  0.975-  66 3.01  79 3.01
 235  0.374  0.269  0.225- 288 3.01 290 3.01
 236  0.374  0.768  0.727-  67 2.99  81 3.07
 237  0.624  0.769  0.975-  82 3.00  68 3.00
 238  0.624  0.268  0.975-  70 3.00  84 3.01
 239  0.975  0.232  0.374-  73 3.01  60 3.01
 240  0.224  0.232  0.624-  69 3.00 291 3.01
 241  0.975  0.732  0.374-  71 3.00  58 3.01
 242  0.225  0.732  0.624-  72 3.00  67 3.01
 243  0.975  0.232  0.874-  66 3.00  78 3.01
 244  0.225  0.232  0.124- 288 3.01  79 3.02
 245  0.476  0.233  0.375- 290 3.01 289 3.02
 246  0.725  0.232  0.624-  65 3.01  80 3.01
 247  0.975  0.732  0.874-  62 3.00  74 3.01
 248  0.225  0.732  0.124-  75 3.01  63 3.01
 249  0.475  0.232  0.874-  70 3.00  83 3.02
 250  0.725  0.232  0.124-  59 3.00  84 3.01
 251  0.475  0.736  0.875-  68 2.98  81 3.04
 252  0.725  0.732  0.124-  57 3.02  82 3.02
 253  0.126  0.018  0.276- 105 3.01  85 3.01
 254  0.376  0.018  0.526-  86 3.00 106 3.01
 255  0.127  0.518  0.275-  87 3.02 294 3.03
 256  0.126  0.018  0.776- 109 3.01  88 3.01
 257  0.376  0.018  0.026-  89 3.01 110 3.01
 258  0.626  0.019  0.276-  99 3.01  90 3.01
 259  0.876  0.019  0.526- 100 3.00  91 3.01
 260  0.126  0.518  0.776-  92 3.01 111 3.02
 261  0.376  0.518  0.026-  93 3.00 112 3.01
 262  0.877  0.519  0.526- 102 2.99  94 3.02
 263  0.626  0.018  0.776- 103 3.00  95 3.01
 264  0.876  0.018  0.026- 104 3.01  96 3.01
 265  0.628  0.511  0.784-  97 2.97 107 2.99
 266  0.877  0.518  0.027- 108 3.01  98 3.02
 267  0.026  0.982  0.126- 104 3.01  85 3.01
 268  0.276  0.982  0.376- 105 3.00  86 3.01
 269  0.026  0.482  0.126- 108 3.01  87 3.01
 270  0.026  0.982  0.626- 100 3.01  88 3.01
 271  0.276  0.982  0.876-  89 3.01 109 3.01
 272  0.526  0.983  0.126- 110 3.01  90 3.01
 273  0.776  0.983  0.376-  99 3.00  91 3.01
 274  0.026  0.482  0.626- 102 3.00  92 3.01
 275  0.275  0.482  0.877-  93 3.00 111 3.02
 276  0.526  0.483  0.127- 292 3.02 112 3.03
 277  0.776  0.483  0.376- 101 2.99  94 3.08
 278  0.527  0.982  0.626- 106 3.00  95 3.01
 279  0.776  0.983  0.876-  96 3.01 103 3.01
 280  0.778  0.483  0.877-  98 2.99 107 3.04
 281  0.389  0.375  0.354-
 282  0.640  0.378  0.607-
 283  0.603  0.627  0.390-
 284  0.359  0.627  0.639-
 285  0.396  0.376  0.616-
 286  0.649  0.376  0.365-
 287  0.369  0.626  0.400-
 288  0.250  0.251  0.250- 147 2.99 129 3.00 244 3.01 235 3.01 309 3.01 211 3.01
 289  0.500  0.252  0.501- 299 2.98 308 3.00 313 3.00 148 3.01 245 3.02 212 3.02
 290  0.501  0.251  0.250- 119 2.99 302 3.00 216 3.01 206 3.01 245 3.01 235 3.01
 291  0.250  0.251  0.500- 114 2.99 303 3.00 212 3.00 309 3.01 228 3.01 240 3.01
 292  0.503  0.500  0.253- 316 2.99 302 2.99 306 2.99 123 3.01 179 3.02 276 3.02
 293  0.252  0.501  0.500- 317 2.98 303 2.99 116 3.01 319 3.01 186 3.01 172 3.03
 294  0.253  0.501  0.251- 300 3.00 129 3.00 179 3.00 192 3.01 319 3.01 255 3.03
 295  0.503  0.501  0.504- 301 2.96 318 2.97 305 3.00 299 3.02 317 3.04 306 3.04
 296  0.484  0.626  0.741-  81 2.95  97 2.97
 297  0.737  0.626  0.478-  77 2.98  94 2.99
 298  0.736  0.376  0.736-  65 2.98 107 3.03
 299  0.479  0.376  0.485- 289 2.98 295 3.02
 300  0.273  0.626  0.268-  63 2.99 294 3.00
 301  0.512  0.626  0.514-  64 2.95 295 2.96
 302  0.519  0.375  0.270- 292 2.99 290 3.00
 303  0.266  0.376  0.520- 293 2.99 291 3.00
 304  0.375  0.484  0.727- 111 2.99  97 3.06
 305  0.625  0.482  0.475-  94 2.99 295 3.00
 306  0.476  0.517  0.376- 292 2.99 295 3.04
 307  0.726  0.518  0.625-  94 2.94 107 2.97
 308  0.528  0.270  0.627- 289 3.00  83 3.00
 309  0.276  0.269  0.376- 291 3.01 288 3.01
 310  0.626  0.732  0.276-  76 3.00  57 3.01
 311  0.376  0.735  0.527-  72 2.99  64 3.01
 312  0.374  0.268  0.725-  69 3.00  83 3.01
 313  0.624  0.270  0.476-  80 3.00 289 3.00
 314  0.476  0.736  0.375-  76 2.99  64 3.06
 315  0.727  0.735  0.624-  77 2.95  61 2.97
 316  0.627  0.521  0.278- 292 2.99 101 3.00
 317  0.377  0.518  0.528- 293 2.98 295 3.04
 318  0.522  0.474  0.627- 295 2.97  97 2.97
 319  0.278  0.482  0.377- 294 3.01 293 3.01


IMPORTANT INFORMATION: All symmetrisations will be switched off!
NOSYMM: (Re-)initialisation of all symmetry stuff for point group C_1.



 KPOINTS: 1x1x1                                   

Automatic generation of k-mesh.
Space group operators:
 irot       det(A)        alpha          n_x          n_y          n_z        tau_x        tau_y        tau_z
    1     1.000000     0.000000     1.000000     0.000000     0.000000     0.000000     0.000000     0.000000
 
 Subroutine IBZKPT returns following result:
 ===========================================
 
 Found      1 irreducible k-points:
 
 Following reciprocal coordinates:
            Coordinates               Weight
  0.000000  0.000000  0.000000      1.000000
 
 Following cartesian coordinates:
            Coordinates               Weight
 -0.000000  0.000000  0.000000      1.000000
 


--------------------------------------------------------------------------------------------------------




 Dimension of arrays:
   k-points           NKPTS =      1   k-points in BZ     NKDIM =      1   number of bands    NBANDS=   1688
   number of dos      NEDOS =    301   number of ions     NIONS =    319
   non local maximal  LDIM  =      6   non local SUM 2l+1 LMDIM =     18
   total plane-waves  NPLWV = ******
   max r-space proj   IRMAX =   5716   max aug-charges    IRDMAX=  91227
   dimension x,y,z NGX =   140 NGY =  140 NGZ =  140
   dimension x,y,z NGXF=   280 NGYF=  280 NGZF=  280
   support grid    NGXF=   560 NGYF=  560 NGZF=  560
   ions per type =              56  56 168   7   8  24
   NGX,Y,Z   is equivalent  to a cutoff of   9.97,  9.89,  9.97 a.u.
   NGXF,Y,Z  is equivalent  to a cutoff of  19.95, 19.78, 19.95 a.u.

 SYSTEM =  CsPbBr3 cubic bulk                      
 POSCAR =  Cs63 Pb64 Br192                         

 Startparameter for this run:
   NWRITE =      2    write-flag & timer
   PREC   = accura    normal or accurate (medium, high low for compatibility)
   ISTART =      0    job   : 0-new  1-cont  2-samecut
   ICHARG =      2    charge: 1-file 2-atom 10-const
   ISPIN  =      1    spin polarized calculation?
   LNONCOLLINEAR =      F non collinear calculations
   LSORBIT =      F    spin-orbit coupling
   INIWAV =      1    electr: 0-lowe 1-rand  2-diag
   LASPH  =      T    aspherical Exc in radial PAW
   METAGGA=      F    non-selfconsistent MetaGGA calc.

 Electronic Relaxation 1
   ENCUT  =  300.0 eV  22.05 Ry    4.70 a.u.  32.96 33.23 32.96*2*pi/ulx,y,z
   ENINI  =  300.0     initial cutoff
   ENAUG  =  503.9 eV  augmentation charge cutoff
   NELM   =    200;   NELMIN=  2; NELMDL=  0     # of ELM steps 
   EDIFF  = 0.1E-05   stopping-criterion for ELM
   LREAL  =      T    real-space projection
   NLSPLINE    = F    spline interpolate recip. space projectors
   LCOMPAT=      F    compatible to vasp.4.4
   GGA_COMPAT  = T    GGA compatible to vasp.4.4-vasp.4.6
   LMAXPAW     = -100 max onsite density
   LMAXMIX     =    2 max onsite mixed and CHGCAR
   VOSKOWN=      0    Vosko Wilk Nusair interpolation
   ROPT   =   -0.00025  -0.00025  -0.00025  -0.00025
   ROPT   =   -0.00025  -0.00025
 Ionic relaxation
   EDIFFG = -.1E-01   stopping-criterion for IOM
   NSW    =     25    number of steps for IOM
   NBLOCK =      1;   KBLOCK =     25    inner block; outer block 
   IBRION =      2    ionic relax: 0-MD 1-quasi-New 2-CG
   NFREE  =      1    steps in history (QN), initial steepest desc. (CG)
   ISIF   =      2    stress and relaxation
   IWAVPR =     11    prediction:  0-non 1-charg 2-wave 3-comb
   ISYM   =      0    0-nonsym 1-usesym 2-fastsym
   LCORR  =      T    Harris-Foulkes like correction to forces

   POTIM  = 0.5000    time-step for ionic-motion
   TEIN   =    0.0    initial temperature
   TEBEG  =    0.0;   TEEND  =   0.0 temperature during run
   SMASS  =  -3.00    Nose mass-parameter (am)
   estimated Nose-frequenzy (Omega)   =  0.10E-29 period in steps =****** mass=  -0.124E-25a.u.
   SCALEE = 1.0000    scale energy and forces
   NPACO  =    256;   APACO  = 16.0  distance and # of slots for P.C.
   PSTRESS=    0.0 pullay stress

  Mass of Ions in am
   POMASS = 132.90207.20 79.90132.90207.20 79.90
  Ionic Valenz
   ZVAL   =   9.00 14.00  7.00  9.00 14.00  7.00
  Atomic Wigner-Seitz radii
   RWIGS  =  -1.00 -1.00 -1.00 -1.00 -1.00 -1.00
  virtual crystal weights 
   VCA    =   1.00  1.00  1.00  1.00  1.00  1.00
   NELECT =    2808.0000    total number of electrons
   NUPDOWN=       0.0000    fix difference up-down

 DOS related values:
   EMIN   =  10.00;   EMAX   =-10.00  energy-range for DOS
   EFERMI =   0.00
   ISMEAR =     0;   SIGMA  =   0.01  broadening in eV -4-tet -1-fermi 0-gaus

 Electronic relaxation 2 (details)
   IALGO  =     38    algorithm
   LDIAG  =      T    sub-space diagonalisation (order eigenvalues)
   LSUBROT=      F    optimize rotation matrix (better conditioning)
   TURBO    =      0    0=normal 1=particle mesh
   IRESTART =      0    0=no restart 2=restart with 2 vectors
   NREBOOT  =      0    no. of reboots
   NMIN     =      0    reboot dimension
   EREF     =   0.00    reference energy to select bands
   IMIX   =      4    mixing-type and parameters
     AMIX     =   0.40;   BMIX     =  1.00
     AMIX_MAG =   1.60;   BMIX_MAG =  1.00
     AMIN     =   0.10
     WC   =   100.;   INIMIX=   1;  MIXPRE=   1;  MAXMIX= -45

 Intra band minimization:
   WEIMIN = 0.0010     energy-eigenvalue tresh-hold
   EBREAK =  0.15E-09  absolut break condition
   DEPER  =   0.30     relativ break condition  

   TIME   =   0.40     timestep for ELM

  volume/ion in A,a.u.               =      40.13       270.83
  Fermi-wavevector in a.u.,A,eV,Ry     =   0.987293  1.865713 13.262239  0.974747
  Thomas-Fermi vector in A             =   2.118736

 Write flags
   LWAVE        =      F    write WAVECAR
   LDOWNSAMPLE  =      F    k-point downsampling of WAVECAR
   LCHARG       =      F    write CHGCAR
   LVTOT        =      F    write LOCPOT, total local potential
   LVHAR        =      T    write LOCPOT, Hartree potential only
   LELF         =      F    write electronic localiz. function (ELF)
   LORBIT       =     10    0 simple, 1 ext, 2 COOP (PROOUT), +10 PAW based schemes


 Dipole corrections
   LMONO  =      F    monopole corrections only (constant potential shift)
   LDIPOL =      F    correct potential (dipole corrections)
   IDIPOL =      0    1-x, 2-y, 3-z, 4-all directions 
   EPSILON=  1.0000000 bulk dielectric constant

 Exchange correlation treatment:
   GGA     =    --    GGA type
   LEXCH   =     8    internal setting for exchange type
   VOSKOWN=      0    Vosko Wilk Nusair interpolation
   LHFCALC =     F    Hartree Fock is set to
   LHFONE  =     F    Hartree Fock one center treatment
   AEXX    =    0.0000 exact exchange contribution

 Linear response parameters
   LEPSILON=     F    determine dielectric tensor
   LRPA    =     F    only Hartree local field effects (RPA)
   LNABLA  =     F    use nabla operator in PAW spheres
   LVEL    =     F    velocity operator in full k-point grid
   LINTERFAST=   F  fast interpolation
   KINTER  =     0    interpolate to denser k-point grid
   CSHIFT  =0.1000    complex shift for real part using Kramers Kronig
   OMEGAMAX=  -1.0    maximum frequency
   DEG_THRESHOLD= 0.2000000E-02 threshold for treating states as degnerate
   RTIME   =   -0.100 relaxation time in fs
  (WPLASMAI=    0.000 imaginary part of plasma frequency in eV, 0.658/RTIME)
   DFIELD  = 0.0000000 0.0000000 0.0000000 field for delta impulse in time

 Orbital magnetization related:
   ORBITALMAG=     F  switch on orbital magnetization
   LCHIMAG   =     F  perturbation theory with respect to B field
   DQ        =  0.001000  dq finite difference perturbation B field
   LLRAUG    =     F  two centre corrections for induced B field



--------------------------------------------------------------------------------------------------------


 conjugate gradient relaxation of ions
 charge density and potential will be updated during run
 non-spin polarized calculation
 Variant of blocked Davidson
 Davidson routine will perform the subspace rotation
 perform sub-space diagonalisation
    after iterative eigenvector-optimisation
 modified Broyden-mixing scheme, WC =      100.0
 initial mixing is a Kerker type mixing with AMIX =  0.4000 and BMIX =      1.0000
 Hartree-type preconditioning will be used
 using additional bands          284
 real space projection scheme for non local part
 use partial core corrections
 calculate Harris-corrections to forces   (improved forces if not selfconsistent)
 use gradient corrections 
 use of overlap-Matrix (Vanderbilt PP)
 Gauss-broadening in eV      SIGMA  =   0.01


--------------------------------------------------------------------------------------------------------


  energy-cutoff  :      300.00
  volume of cell :    12802.17
      direct lattice vectors                 reciprocal lattice vectors
    16.840035000  0.000000000 16.155961000     0.029691150 -0.000000000  0.030948329
     0.000000000 23.527616000  0.000000000     0.000000000  0.042503244 -0.000000000
   -16.840035000  0.000000000 16.155961000    -0.029691150  0.000000000  0.030948329

  length of vectors
    23.336706165 23.527616000 23.336706165     0.042887801  0.042503244  0.042887801



 k-points in units of 2pi/SCALE and weight: 1x1x1                                   
  -0.00000000  0.00000000  0.00000000       1.000

 k-points in reciprocal lattice and weights: 1x1x1                                   
   0.00000000  0.00000000  0.00000000       1.000

 position of ions in fractional coordinates (direct lattice) 
   0.88611758  0.87489365  0.35423831
   0.13612348  0.87505179  0.60376146
   0.88627647  0.37569173  0.35433602
   0.13667205  0.37558554  0.60375692
   0.88606258  0.87510257  0.85333098
   0.13641461  0.87504177  0.10391591
   0.38776336  0.87531691  0.35379888
   0.63872923  0.87484166  0.60470082
   0.88567959  0.37553427  0.85283660
   0.13763144  0.37553755  0.10591350
   0.38665690  0.87499195  0.85398215
   0.63592627  0.87478085  0.10392071
   0.38641031  0.37619799  0.85443207
   0.63606624  0.37567420  0.10401722
   0.10397847  0.12528150  0.38622010
   0.35438367  0.12524691  0.63678156
   0.10459158  0.62494898  0.38635029
   0.10397315  0.12530148  0.88616620
   0.35385235  0.12537297  0.13643744
   0.60358410  0.12561115  0.38763520
   0.85390894  0.12527061  0.63639725
   0.10414540  0.62509871  0.88583747
   0.35674555  0.62525274  0.13721104
   0.85134917  0.62575084  0.63627540
   0.60372587  0.12525823  0.88622033
   0.85390600  0.12518977  0.13629988
   0.60323644  0.62539586  0.88424178
   0.85357679  0.62532602  0.13628098
   0.89657571  0.87509031  0.11415807
   0.14696514  0.87509848  0.36425850
   0.89645085  0.37537149  0.11402993
   0.14746696  0.37614436  0.36460207
   0.89585441  0.87467115  0.61432862
   0.14673616  0.87489919  0.86410396
   0.39690522  0.87507265  0.11435200
   0.64685638  0.87524432  0.36406287
   0.89606488  0.37582858  0.61432806
   0.14656711  0.37564835  0.86405055
   0.39694095  0.37562236  0.11447690
   0.39562436  0.87570355  0.61460696
   0.64693536  0.87621673  0.86436415
   0.64824735  0.37466890  0.86443715
   0.11436799  0.12520356  0.14658742
   0.36496275  0.12610290  0.39688878
   0.11412693  0.62506542  0.14638087
   0.11416344  0.12512471  0.64679319
   0.36421154  0.12518868  0.89654271
   0.61406882  0.12525697  0.14678480
   0.86410734  0.12525643  0.39689678
   0.11480018  0.62514352  0.64700487
   0.36610242  0.62553900  0.89391386
   0.61417800  0.62519082  0.14650096
   0.86482933  0.62514401  0.39569508
   0.61400267  0.12545860  0.64657135
   0.86404845  0.12515868  0.89645049
   0.86522523  0.62525703  0.89997127
   0.75018216  0.75042861  0.25047587
   0.00003984  0.75012956  0.50037229
   0.75011375  0.25049687  0.25011394
   0.00021024  0.25047886  0.50021424
   0.74909174  0.74880869  0.74967227
   0.00014233  0.75036020  0.00008031
   0.25062851  0.75007644  0.25060624
   0.50082171  0.75079917  0.50350044
   0.75024105  0.25077466  0.75024105
   0.00017524  0.25054935  0.00012376
   0.25082801  0.75070735  0.74998567
   0.50028627  0.75051249  0.99983950
   0.25021704  0.25057827  0.75001533
   0.50012401  0.25049925  0.99997345
   0.00020181  0.75036003  0.25018869
   0.25032845  0.75033148  0.50020443
   0.00014852  0.25062536  0.25015227
   0.99982174  0.75023657  0.75004677
   0.25045631  0.75004600  0.00026682
   0.50053878  0.75027110  0.25083848
   0.74943958  0.74990060  0.50167378
   0.00016417  0.25056038  0.75015648
   0.25027405  0.25060798  0.00005825
   0.75005451  0.25092751  0.50032624
   0.50379239  0.74961261  0.74967907
   0.74997156  0.75048379  0.99964319
   0.50043829  0.25151267  0.75012178
   0.75023480  0.25041968  0.00019974
   0.00013812  0.00030407  0.25014003
   0.25023842  0.00040494  0.50010852
   0.00058569  0.50040527  0.25027026
   0.00016282  0.00015678  0.75013968
   0.25025119  0.00018217  0.00019069
   0.50031080  0.00048487  0.25029572
   0.75005947  0.00032383  0.50005117
   0.99986602  0.50073200  0.75000362
   0.25054091  0.50071284  0.00012417
   0.75007269  0.50201968  0.50296020
   0.50031402  0.00004623  0.75009178
   0.75014833  0.00027296  0.00016809
   0.50404309  0.50166498  0.74979348
   0.75004462  0.50057429  0.99980570
   0.75009566  0.00054869  0.25020938
   0.00013980  0.00035797  0.50021502
   0.75048518  0.50061617  0.25096724
   0.00059006  0.50058563  0.50056453
   0.75018114  0.00022720  0.75019920
   0.00016412  0.00041543  0.00013781
   0.25031853  0.00031105  0.25033078
   0.50023786  0.00017556  0.50052490
   0.74943989  0.50338002  0.75002387
   0.00014552  0.50010111  0.00014828
   0.25018706  0.00047434  0.75017494
   0.50015299  0.00059285  0.00017588
   0.25103098  0.50072335  0.74979661
   0.50051615  0.50057044  0.00021078
   0.98485602  0.12563589  0.23069513
   0.23473378  0.12593532  0.48044580
   0.98444946  0.62555665  0.23075113
   0.23573016  0.62596935  0.47997176
   0.98472807  0.12542617  0.73105715
   0.23443720  0.12556458  0.98119968
   0.48416688  0.12592134  0.23141778
   0.73441388  0.12597389  0.48104417
   0.98438646  0.62556706  0.73009151
   0.23543146  0.62558700  0.97955080
   0.48558570  0.62557770  0.23322011
   0.48492451  0.12604075  0.73123238
   0.73458630  0.12540344  0.98118960
   0.73346871  0.62560396  0.98135593
   0.23115688  0.87565774  0.23437908
   0.48018046  0.87670519  0.48410037
   0.23279333  0.37629725  0.23516600
   0.23066072  0.87609021  0.73417534
   0.48112654  0.87600350  0.98522787
   0.73101561  0.87599767  0.23409192
   0.98121431  0.87562575  0.48479440
   0.23141679  0.37562243  0.73452296
   0.48105590  0.37540944  0.98536391
   0.73093889  0.37561013  0.23458576
   0.98133909  0.37554503  0.48484811
   0.73363388  0.87584875  0.73564022
   0.98094580  0.87556252  0.98448950
   0.98011326  0.37530306  0.98389670
   0.77046374  0.12581581  0.26622212
   0.02016107  0.12560157  0.51617145
   0.77027692  0.62584598  0.26560578
   0.02091620  0.62557408  0.51633043
   0.76992573  0.12578816  0.76607014
   0.01994342  0.12553887  0.01623781
   0.26982621  0.12584497  0.26641955
   0.51897035  0.12633249  0.51667287
   0.77487533  0.62619535  0.77053510
   0.01956669  0.62532426  0.01573678
   0.26944526  0.12578878  0.76646327
   0.51990804  0.12571573  0.01647331
   0.26904398  0.62596145  0.76557106
   0.52019609  0.62576022  0.01548597
   0.01637534  0.87567149  0.26967373
   0.26529761  0.87611932  0.51951935
   0.01672707  0.37556682  0.27009161
   0.01653647  0.87561016  0.76986565
   0.26635208  0.87557308  0.02009348
   0.51695958  0.87607986  0.26843968
   0.76723899  0.87620810  0.51776976
   0.01619437  0.37542497  0.76967245
   0.26638494  0.37557784  0.02025055
   0.76710172  0.37577472  0.51815200
   0.51579413  0.87665081  0.77115463
   0.76614380  0.87572966  0.02014056
   0.51554321  0.37528011  0.77235527
   0.76603655  0.37529828  0.01943035
   0.87423890  0.98215113  0.22461578
   0.12408277  0.98232050  0.47460155
   0.87487047  0.48211766  0.22504625
   0.12529062  0.48248814  0.47561515
   0.87439225  0.98239679  0.72454361
   0.12415715  0.98207508  0.97465667
   0.37418229  0.98223967  0.22461619
   0.62430630  0.98226237  0.47450556
   0.87449792  0.48238441  0.72499886
   0.12429048  0.48201103  0.97540853
   0.37628805  0.48228793  0.22548900
   0.37396919  0.98270950  0.72491086
   0.62416667  0.98255556  0.97504430
   0.62454256  0.48160776  0.97525716
   0.97465492  0.01828144  0.37405935
   0.22464797  0.01838212  0.62410526
   0.97555755  0.51826128  0.37406864
   0.22590575  0.51856374  0.62424340
   0.97469241  0.01829673  0.87418498
   0.22468092  0.01826490  0.12416454
   0.47461271  0.01840790  0.37401586
   0.72474320  0.01824615  0.62406025
   0.97495351  0.51820185  0.87431459
   0.22650843  0.51967751  0.12486548
   0.47474927  0.01850559  0.87427093
   0.72465125  0.01841435  0.12416476
   0.47532469  0.51696411  0.87565136
   0.72480235  0.51805956  0.12433077
   0.02596383  0.76819013  0.12622379
   0.27629320  0.76972623  0.37620609
   0.02615489  0.26868510  0.12624310
   0.02577694  0.76827437  0.62618058
   0.27551518  0.76842453  0.87641085
   0.52546130  0.76802441  0.12648077
   0.77552361  0.76839531  0.37574085
   0.02594852  0.26829456  0.62619424
   0.27583347  0.26831857  0.87635903
   0.52577074  0.26811901  0.12637181
   0.77599777  0.26815593  0.37614093
   0.52109847  0.77758898  0.62667517
   0.77709535  0.76848249  0.87678819
   0.77676595  0.26725924  0.87651891
   0.12623536  0.23268359  0.27604605
   0.37610188  0.23281402  0.52659948
   0.12628599  0.73192010  0.27573787
   0.12632147  0.23220433  0.77588439
   0.37609350  0.23208949  0.02591354
   0.62642159  0.23169804  0.27577587
   0.87623856  0.23211931  0.52574830
   0.12606494  0.73237273  0.77565088
   0.37618144  0.73206989  0.02570793
   0.87648910  0.73227686  0.52537426
   0.62650210  0.23253224  0.77605171
   0.87631616  0.23202502  0.02595394
   0.62705857  0.74008637  0.78407415
   0.87640711  0.73252449  0.02641261
   0.87450811  0.76826091  0.22474139
   0.12407463  0.76826087  0.47454990
   0.87418181  0.26834348  0.22459229
   0.12409585  0.26826745  0.47431088
   0.87424276  0.76883212  0.72575950
   0.12419079  0.76816774  0.97477927
   0.37414015  0.76827392  0.22462295
   0.62426659  0.77036790  0.47515322
   0.87443882  0.26787709  0.72448571
   0.12411482  0.26840170  0.97466896
   0.37434101  0.26856108  0.22504594
   0.37447670  0.76848433  0.72708944
   0.62424604  0.76894060  0.97519417
   0.62413870  0.26792844  0.97483544
   0.97457101  0.23213577  0.37407220
   0.22447948  0.23219721  0.62424262
   0.97490962  0.73227475  0.37400840
   0.22490867  0.73236590  0.62406345
   0.97474728  0.23198712  0.87424689
   0.22463824  0.23222066  0.12441924
   0.47603019  0.23288876  0.37479379
   0.72500524  0.23240582  0.62428499
   0.97492588  0.73211337  0.87431581
   0.22489836  0.73179601  0.12437495
   0.47471451  0.23205565  0.87433937
   0.72465608  0.23204043  0.12425101
   0.47451419  0.73562349  0.87465377
   0.72475348  0.73228571  0.12404996
   0.12626876  0.01828490  0.27574249
   0.37614175  0.01847110  0.52576852
   0.12721827  0.51832352  0.27505183
   0.12621493  0.01828183  0.77584155
   0.37615598  0.01843079  0.02596626
   0.62634244  0.01917597  0.27629271
   0.87633567  0.01851732  0.52573011
   0.12628902  0.51809405  0.77562680
   0.37632882  0.51830324  0.02571561
   0.87725672  0.51855512  0.52629716
   0.62637262  0.01842753  0.77575816
   0.87632994  0.01827084  0.02586627
   0.62751031  0.51068779  0.78414249
   0.87657969  0.51800544  0.02694359
   0.02581773  0.98214118  0.12618088
   0.27597849  0.98216721  0.37609666
   0.02604939  0.48190522  0.12616927
   0.02577571  0.98218844  0.62617856
   0.27569120  0.98217241  0.87624578
   0.52596041  0.98262460  0.12623860
   0.77606252  0.98251053  0.37602378
   0.02602583  0.48204337  0.62626267
   0.27524282  0.48231437  0.87652040
   0.52627260  0.48308993  0.12736558
   0.77637752  0.48284078  0.37620116
   0.52650464  0.98235157  0.62624925
   0.77607690  0.98265214  0.87634276
   0.77766766  0.48340845  0.87688504
   0.38855297  0.37511155  0.35406185
   0.63970528  0.37758134  0.60660688
   0.60332190  0.62722949  0.38986967
   0.35942596  0.62665849  0.63894530
   0.39563913  0.37645944  0.61557948
   0.64920940  0.37576150  0.36541127
   0.36855333  0.62611762  0.39980543
   0.25032642  0.25065746  0.25036179
   0.50028498  0.25220547  0.50122451
   0.50054504  0.25056579  0.25044620
   0.25041138  0.25061124  0.50016565
   0.50259231  0.50030766  0.25259731
   0.25226245  0.50078924  0.50033732
   0.25272217  0.50140061  0.25069618
   0.50263530  0.50132532  0.50363174
   0.48370769  0.62587783  0.74102949
   0.73706719  0.62599339  0.47845697
   0.73567306  0.37610357  0.73646713
   0.47946470  0.37607846  0.48483255
   0.27325014  0.62612775  0.26839536
   0.51194299  0.62640565  0.51375809
   0.51913084  0.37531143  0.27014783
   0.26610907  0.37566250  0.51963119
   0.37498251  0.48391948  0.72741133
   0.62544461  0.48208317  0.47521982
   0.47639233  0.51672003  0.37593470
   0.72588400  0.51799381  0.62470294
   0.52752285  0.27034498  0.62679644
   0.27642988  0.26893301  0.37634352
   0.62635824  0.73197567  0.27590367
   0.37577926  0.73470134  0.52672752
   0.37408479  0.26793102  0.72454808
   0.62423493  0.27001171  0.47603204
   0.47583756  0.73582051  0.37482164
   0.72651302  0.73456464  0.62422386
   0.62747408  0.52088285  0.27794542
   0.37686754  0.51795708  0.52761035
   0.52170753  0.47435060  0.62735602
   0.27778276  0.48180629  0.37651689

 position of ions in cartesian coordinates  (Angst):
   8.95686561 20.58416188 20.03914145
  -7.87503994 20.58788250 11.95355222
   8.95789574  8.83913081 20.04328708
  -7.86572561  8.83663241 11.96234151
   0.55120134 20.58907716 28.10157451
   0.54727929 20.58764664  3.88277059
   0.57196304 20.59412002 11.98065066
   0.57303963 20.58293854 20.08880739
   0.55307697  8.83542603 28.08739977
   0.53413133  8.83550322  3.93470259
  -7.86977371 20.58647468 20.04371611
   8.95899220 20.58150797 11.95293888
  -7.88150277  8.85104193 20.04700103
   8.95972427  8.83871830 11.95675950
  -4.75295893  2.94757505  7.91962907
  -4.75559041  2.94676132 16.01322678
  -4.74482652 14.70355973  7.93163770
 -13.17215829  2.94804519 15.99665281
   3.66127464  2.94972698  7.92110274
   3.63658696  2.95533087 16.01410031
   3.66290436  2.94731884 24.07732872
 -13.16372176 14.70708238 15.99412458
   3.69696880 14.71070632  7.98034332
   3.62184976 14.72242546 24.03400454
  -4.75721652  2.94702753 24.07151279
  12.08451226  2.94541692 15.99772753
  -4.73213975 14.71407361 24.03164010
  12.07928650 14.71243053 15.99210342
  13.17594049 20.58878886 16.32937550
  -3.65922788 20.58898099  8.25930918
  13.17599576  8.83159619 16.32528810
  -3.65656276  8.84977999  8.27296724
   4.74090416 20.57892695 24.39845815
 -12.08049881 20.58429222 16.33109365
   4.75820605 20.58837339  8.25985172
   4.76225252 20.59241219 16.33237202
   4.74445797  8.84235057 24.40184942
 -12.08244620  8.83811015 16.32749960
   4.75670442  8.83749876  8.26244682
  -3.68767463 20.60321675 16.32125773
  -3.66150842 20.61529074 24.41649595
  -3.64064382  8.81506604 24.43887179
  -0.54257635  2.94574139  4.21598535
  -0.53763560  2.96690058 12.30844358
  -0.54315747 14.70629911  4.20875401
  -8.96950364  2.94388614 12.29398556
  -8.96447547  2.94539108 20.36869651
   7.86907925  2.94699800 12.29232147
   7.86784223  2.94698516 20.37273334
  -8.96234560 14.70813660 12.30769259
  -8.88836317 14.71744135 20.35677385
   7.87569768 14.70924958 12.28949972
   7.90023704 14.70814819 20.36498320
  -0.54845772  2.95174168 20.36578463
  -0.54565154  2.94468544 28.44255225
  -0.58512448 14.71080721 28.51844587
   8.41507150 17.65579625 16.16659212
  -8.42561604 17.64876022  8.08463879
   8.42001435  5.89359420 16.15963959
  -8.42008481  5.89317053  8.08483842
  -0.00977610 17.61768339 24.21397285
   0.00104439 17.65418658  0.00359703
   0.00037504 17.64751047  8.09792908
  -0.04510993 17.66451461 16.22578951
  -0.00000002  5.90012995 24.24173041
   0.00086691  5.89482885  0.00483055
  -8.40583250 17.66235435 16.16910687
  -8.41249400 17.65776955 24.23597343
  -8.41662080  5.89550920 16.15971522
  -8.41748211  5.89365012 24.23551599
  -4.20978783 17.65418274  4.04529922
  -4.20792020 17.65351092 12.12557986
  -4.21007200  5.89661726  4.04384986
   4.20621923 17.65127792 28.27080744
   4.21319967 17.64679418  4.05067311
   4.20496188 17.65209042 12.13922170
   4.17238476 17.64337345 20.21293851
 -12.62989673  5.89508845 12.12215114
   4.21364271  5.89620837  4.04435883
   4.20543277  5.90372616 20.20110265
  -4.14074026 17.63659762 20.25103611
  -4.20447904 17.65709454 28.26670761
  -4.20467876  5.91749341 20.20399970
  12.63061659  5.89177809 12.12399116
  -4.21004092  0.00715414  4.04348393
  -4.20782132  0.00952729 12.12257584
  -4.20469681 11.77334315  4.05281892
 -12.62963664  0.00368863 12.12185788
   4.21102751  0.00428605  4.04612928
   4.21026265  0.01140776 12.12676976
   4.21014849  0.00761891 20.19673872
   4.20769154 11.78103027 28.27082559
   4.21702660 11.78057951  4.04973524
   4.16138294 11.81132618 20.24395056
  -4.20626632  0.00108765 20.20150736
  12.62969346  0.00642219 12.12208286
  -4.13844508 11.80298107 20.25693470
  -4.20598533 11.77731966 28.27051345
   8.41810250  0.01290936 16.16088924
  -8.42128429  0.00842217  8.08371301
   8.41189956 11.77830495 16.17942633
  -8.41958760 11.77758646  8.09663400
  -0.00030405  0.00534548 24.24008625
   0.00044307  0.00977419  0.00487809
  -0.00020625  0.00731821  8.08847066
  -0.00483385  0.00413057 16.16828416
  -0.00983419 11.84333192 24.22527794
  -0.00004649 11.76618689  0.00474668
  -8.41981334  0.01115998 16.16180947
   8.41963200  0.01394835  8.08329363
  -8.39923068 11.78082663 16.16933162
   8.42516007 11.77722918  8.08972477
  12.70009582  2.95591292 19.63839687
  -4.13779907  2.96295786 11.55441332
  12.69230629 14.71785669 19.63273334
  -4.11303713 14.72756649 11.56285218
   4.27182717  2.95097876 27.72015901
 -12.57550627  2.95423513 19.63978206
   4.25630382  2.96262891 11.56095787
   4.26675483  2.96386527 19.63689290
   4.28233586 14.71810147 27.69903934
 -12.53099576 14.71857063 19.62920603
   4.24984541 14.71835202 11.61299872
  -4.14783323  2.96543836 19.64818332
  -4.15280827  2.95044406 27.72000844
  -4.17442942 14.71896983 27.70464011
  -0.05426195 20.60213916  7.52118095
  -0.06601137 20.62678317 15.57888353
  -0.03995582  8.85337728  7.56033275
  -8.47920387 20.61231405 15.58785382
  -8.48908409 20.61027401 23.69036466
   8.36821231 20.61013669 15.59223949
   8.35972850 20.60138636 23.68477955
  -8.47232552  8.83750031 15.60568501
  -8.49256456  8.83248911 23.69142122
   8.35860421  8.83721092 15.59897856
   8.36092551  8.83567931 23.68766328
  -0.03378677 20.60663315 23.73753500
  -0.05967600 20.59989865 31.75349613
  -0.06371324  8.82998628 31.73046844
   8.49144661  2.96014610 16.74865629
  -8.35283208  2.95510562  8.66496724
   8.49867969 14.72466400 16.73568055
  -8.34279307 14.71826662  8.67973563
   0.06492839  2.95949561 24.81548934
   0.06240256  2.95363024  0.58454258
   0.05736828  2.96083218  8.66356573
   0.03868973  2.97230229 16.73181153
   0.07308961 14.73288374 24.96759059
   0.06449583 14.71238900  0.57036159
  -8.36980077  2.95951019 16.73609789
   8.47785841  2.95779132  8.66575626
  -8.36153334 14.72738064 16.71520019
   8.49933619 14.72264605  8.65445851
  -4.26555369 20.60246265  4.62139757
  -4.28110287 20.61299882 12.67947222
  -4.26666773  8.83619204  4.63383134
 -12.68608968 20.60101967 12.70508200
   4.14700346 20.60014727  4.62780334
   4.18508384 20.61207054 12.68887980
   4.20107066 20.61508760 20.76055127
 -12.68859710  8.83285453 12.69643369
   4.14491172  8.83645130  4.63087167
   4.19232212  8.84108338 20.76450900
  -4.30027973 20.62550363 20.79189400
  12.56272077 20.60383114 12.70317948
  -4.32472416  8.82944633 20.80723754
  12.57287448  8.82987374 12.68997270
  10.93967599 23.10767465 17.75305333
  -5.90274842 23.11165958  9.67232055
  10.94306273 11.34307910 17.77021160
  -5.89947731 11.35179566  9.70821017
   2.52345633 23.11345437 25.83234535
 -14.32244163 23.10588546 17.75239321
   2.51869840 23.10975786  9.67416496
   2.52264968 23.11029180 17.75236160
   2.51756941 11.34935525 25.84140763
 -14.33285775 11.34057044 17.76669445
   2.53946129 11.34708533  9.72228657
  -5.90986995 23.12081172 17.75346317
[...]
     -4.69357     14.73382     16.13834         0.001689     -0.005727      0.005867
     -3.69544      8.84844     16.33186         0.001542     -0.005801     -0.000534
      4.77915      8.84282     16.38823         0.002440     -0.001681     -0.001213
     -0.52872     14.72246     12.41957         0.001161     -0.000242     -0.003424
     -0.00075      5.89871      8.09289         0.002560     -0.003819     -0.004739
     -0.01010      5.93168     16.17524         0.002674     -0.004361     -0.000091
      4.21175      5.89512     12.13179         0.004097     -0.000976      0.001964
     -4.20807      5.89824     12.12764         0.002758     -0.002582      0.000094
      4.20945     11.77126     12.20156         0.003764      0.001350     -0.000868
     -4.18066     11.78446     12.15698        -0.006432      0.001109     -0.003366
      0.03330     11.79474      8.13574         0.001710      0.001842     -0.004601
     -0.01632     11.79656     16.25968         0.001224      0.000573     -0.000038
     -4.33418     14.72565     19.78720        -0.000580     -0.003896      0.003352
      4.34956     14.72885     19.63833        -0.004452     -0.000107     -0.000285
     -0.01351      8.84824     23.78297         0.000117      0.002831     -0.000590
     -0.08561      8.84622     15.58400         0.006410      0.005394     -0.001111
      0.08575     14.72864      8.74570         0.000520     -0.000485      0.000775
     -0.03887     14.73798     16.57297        -0.000527     -0.004302      0.000761
      4.19068      8.83063     12.74774        -0.001195      0.000751     -0.001764
     -4.27138      8.83882     12.69258        -0.000086     -0.000537     -0.001912
     -5.92996     11.37863     17.80909         0.000670     -0.005650     -0.002562
      2.53022     11.33894     17.78497        -0.002710      0.002001     -0.002608
      1.68979     12.15644     13.77143         0.001251     -0.001895      0.002486
      1.69386     12.19096     21.81142        -0.004401     -0.000366     -0.005331
     -1.67603      6.35675     18.63966        -0.002069     -0.003688     -0.004762
     -1.67924      6.32538     10.54723         0.001568      0.001970      0.000675
      5.89804     17.22473     14.57996        -0.000014      0.000830      0.000926
     -2.54581     17.28284     14.58335        -0.001399     -0.000660      0.000119
     -5.90866      6.30609     17.75193         0.005302      0.001089      0.001521
      2.50136      6.34786     17.77787        -0.002156     -0.002472     -0.005589
      1.69562     17.31052     13.74128        -0.001504      0.000006      0.000008
      1.72275     17.28174     21.82084        -0.003325     -0.000383      0.002270
      5.88414     12.25436     14.62912        -0.001885     -0.000277     -0.000921
     -2.53719     12.18646     14.61458         0.000210     -0.006645     -0.006162
     -1.77988     11.16422     18.56358         0.000612     -0.000990     -0.002830
     -1.65974     11.34325     10.56979        -0.000437      0.000716      0.002997
 -----------------------------------------------------------------------------------
    total drift:                               -0.061582     -0.400920     -1.131681


--------------------------------------------------------------------------------------------------------



  FREE ENERGIE OF THE ION-ELECTRON SYSTEM (eV)
  ---------------------------------------------------
  free  energy   TOTEN  =    -11395.71356643 eV

  energy  without entropy=   -11395.71356643  energy(sigma->0) =   -11395.71356643

 d Force = 0.4881912E-03[ 0.408E-03, 0.568E-03]  d Energy = 0.4908112E-03-0.262E-05
 d Force = 0.4594434E+00[ 0.457E+00, 0.462E+00]  d Ewald  = 0.4594408E+00 0.262E-05


--------------------------------------------------------------------------------------------------------


    POTLOK:  cpu time    8.1857: real time    8.1860


--------------------------------------------------------------------------------------------------------


 stress matrix after NEB project (eV)
     -4.48498      0.05984     -0.14061
      0.05984     -5.16018     -0.01459
     -0.14066     -0.01457     -8.16150
  FORCES: max atom, RMS     0.009441    0.003236
  FORCE total and by dimension    0.057797    0.007845
  Stress total and by dimension   10.648926    8.161498
 Conjugate gradient step on ions:
 trial-energy change:   -0.000491  1 .order   -0.000488   -0.000568   -0.000408
  (g-gl).g = 0.278E-03      g.g   = 0.275E-03  gl.gl    = 0.311E-03
 g(Force)  = 0.275E-03   g(Stress)= 0.000E+00 ortho     = 0.262E-05
 gamma     =   0.89360
 trial     =   2.04798
 opt step  =   7.27186  (harmonic =   7.27186) maximal distance =0.00735146
 next E    =-11395.714084   (d E  =  -0.00101)


--------------------------------------------------------------------------------------------------------


  
 reached required accuracy - stopping structural energy minimisation
     LOOP+:  cpu time 2293.4406: real time 2293.8636
    4ORBIT:  cpu time    0.0000: real time    0.0000



 total charge     

# of ion       s       p       d       tot
------------------------------------------
    1        1.786   4.719   0.019   6.524
    2        1.786   4.719   0.019   6.524
    3        1.786   4.719   0.019   6.524
    4        1.786   4.719   0.019   6.524
    5        1.786   4.719   0.019   6.525
    6        1.786   4.719   0.019   6.524
    7        1.786   4.719   0.019   6.525
    8        1.786   4.719   0.019   6.524
    9        1.786   4.719   0.019   6.524
   10        1.786   4.719   0.019   6.524
   11        1.786   4.719   0.019   6.525
   12        1.786   4.719   0.019   6.524
   13        1.786   4.719   0.019   6.525
   14        1.786   4.719   0.019   6.524
   15        1.786   4.719   0.019   6.524
   16        1.786   4.719   0.019   6.524
   17        1.786   4.719   0.019   6.524
   18        1.786   4.719   0.019   6.524
   19        1.786   4.719   0.019   6.524
   20        1.786   4.719   0.019   6.524
   21        1.786   4.719   0.019   6.524
   22        1.786   4.719   0.019   6.524
   23        1.786   4.719   0.019   6.524
   24        1.786   4.719   0.019   6.524
   25        1.786   4.719   0.019   6.524
   26        1.786   4.719   0.019   6.524
   27        1.786   4.719   0.019   6.524
   28        1.786   4.719   0.019   6.525
   29        1.786   4.719   0.019   6.524
   30        1.786   4.719   0.019   6.524
   31        1.786   4.719   0.019   6.524
   32        1.786   4.719   0.019   6.524
   33        1.786   4.719   0.019   6.524
   34        1.786   4.719   0.019   6.524
   35        1.786   4.719   0.019   6.525
   36        1.786   4.719   0.019   6.525
   37        1.786   4.719   0.019   6.524
   38        1.786   4.719   0.019   6.524
   39        1.786   4.719   0.019   6.524
   40        1.786   4.719   0.020   6.525
   41        1.786   4.719   0.020   6.526
   42        1.786   4.719   0.020   6.526
   43        1.786   4.719   0.019   6.524
   44        1.786   4.719   0.019   6.524
   45        1.786   4.719   0.019   6.524
   46        1.786   4.719   0.019   6.524
   47        1.786   4.719   0.019   6.524
   48        1.786   4.719   0.019   6.524
   49        1.786   4.719   0.019   6.525
   50        1.786   4.719   0.019   6.524
   51        1.786   4.719   0.018   6.523
   52        1.786   4.719   0.019   6.524
   53        1.786   4.719   0.020   6.525
   54        1.786   4.719   0.019   6.524
   55        1.786   4.719   0.019   6.525
   56        1.787   4.719   0.020   6.526
   57        1.555   0.417   9.833  11.805
   58        1.555   0.417   9.833  11.806
   59        1.555   0.417   9.833  11.805
   60        1.555   0.417   9.833  11.805
   61        1.554   0.412   9.833  11.799
   62        1.555   0.417   9.833  11.806
   63        1.555   0.416   9.833  11.804
   64        1.554   0.416   9.833  11.803
   65        1.555   0.418   9.834  11.806
   66        1.555   0.417   9.833  11.805
   67        1.554   0.417   9.833  11.805
   68        1.555   0.418   9.834  11.807
   69        1.555   0.418   9.834  11.806
   70        1.555   0.418   9.834  11.806
   71        1.555   0.417   9.833  11.805
   72        1.555   0.417   9.833  11.805
   73        1.555   0.417   9.833  11.805
   74        1.555   0.417   9.833  11.805
   75        1.555   0.417   9.833  11.805
   76        1.555   0.418   9.833  11.806
   77        1.554   0.418   9.833  11.805
   78        1.555   0.418   9.834  11.806
   79        1.555   0.417   9.833  11.805
   80        1.555   0.418   9.834  11.806
   81        1.554   0.412   9.833  11.799
   82        1.555   0.417   9.833  11.805
   83        1.555   0.417   9.833  11.805
   84        1.555   0.418   9.834  11.806
   85        1.555   0.417   9.833  11.805
   86        1.555   0.417   9.833  11.805
   87        1.555   0.417   9.833  11.805
   88        1.555   0.418   9.834  11.806
   89        1.555   0.417   9.833  11.805
   90        1.555   0.417   9.833  11.806
   91        1.555   0.418   9.834  11.806
   92        1.555   0.417   9.833  11.805
   93        1.555   0.417   9.833  11.805
   94        1.554   0.418   9.833  11.805
   95        1.555   0.417   9.833  11.805
   96        1.555   0.418   9.834  11.806
   97        1.554   0.412   9.833  11.799
   98        1.555   0.417   9.833  11.805
   99        1.555   0.417   9.833  11.805
  100        1.555   0.417   9.833  11.805
  101        1.555   0.417   9.833  11.805
  102        1.555   0.417   9.833  11.805
  103        1.555   0.418   9.834  11.806
  104        1.555   0.417   9.833  11.805
  105        1.555   0.417   9.833  11.805
  106        1.555   0.417   9.833  11.805
  107        1.554   0.413   9.833  11.799
  108        1.555   0.417   9.833  11.805
  109        1.555   0.418   9.834  11.806
  110        1.555   0.418   9.834  11.806
  111        1.554   0.417   9.833  11.805
  112        1.554   0.418   9.834  11.806
  113        1.614   3.286   0.006   4.907
  114        1.614   3.287   0.006   4.907
  115        1.614   3.286   0.006   4.906
  116        1.614   3.286   0.006   4.907
  117        1.614   3.287   0.006   4.907
  118        1.614   3.286   0.006   4.906
  119        1.614   3.287   0.006   4.907
  120        1.614   3.287   0.006   4.907
  121        1.614   3.285   0.006   4.906
  122        1.614   3.286   0.006   4.907
  123        1.614   3.287   0.006   4.907
  124        1.614   3.287   0.006   4.907
  125        1.614   3.287   0.006   4.907
  126        1.614   3.286   0.006   4.906
  127        1.614   3.286   0.006   4.906
  128        1.614   3.287   0.006   4.907
  129        1.614   3.287   0.006   4.907
  130        1.614   3.287   0.006   4.907
  131        1.614   3.287   0.006   4.907
  132        1.614   3.286   0.006   4.906
  133        1.614   3.286   0.006   4.907
  134        1.614   3.287   0.006   4.907
  135        1.614   3.287   0.006   4.907
  136        1.614   3.286   0.006   4.907
  137        1.614   3.286   0.006   4.907
  138        1.614   3.287   0.006   4.907
  139        1.614   3.286   0.006   4.906
  140        1.614   3.286   0.006   4.906
  141        1.614   3.287   0.006   4.907
  142        1.614   3.286   0.006   4.907
  143        1.614   3.287   0.006   4.907
  144        1.614   3.286   0.006   4.907
  145        1.614   3.287   0.006   4.907
  146        1.614   3.286   0.006   4.906
  147        1.614   3.286   0.006   4.906
  148        1.614   3.287   0.006   4.906
  149        1.614   3.287   0.006   4.907
  150        1.614   3.286   0.006   4.906
  151        1.614   3.286   0.006   4.907
  152        1.614   3.287   0.006   4.907
  153        1.614   3.286   0.006   4.907
  154        1.614   3.286   0.006   4.906
  155        1.614   3.286   0.006   4.906
  156        1.614   3.287   0.006   4.907
  157        1.614   3.286   0.006   4.906
  158        1.614   3.286   0.006   4.906
  159        1.614   3.286   0.006   4.906
  160        1.614   3.287   0.006   4.907
  161        1.614   3.287   0.006   4.907
  162        1.614   3.286   0.006   4.906
  163        1.614   3.286   0.006   4.906
  164        1.614   3.286   0.006   4.907
  165        1.614   3.287   0.006   4.907
  166        1.614   3.286   0.006   4.907
  167        1.614   3.287   0.006   4.907
  168        1.614   3.286   0.006   4.907
  169        1.614   3.285   0.006   4.904
  170        1.614   3.285   0.006   4.905
  171        1.614   3.285   0.006   4.904
  172        1.614   3.285   0.006   4.904
  173        1.614   3.285   0.006   4.905
  174        1.614   3.285   0.006   4.905
  175        1.614   3.285   0.006   4.905
  176        1.614   3.284   0.006   4.904
  177        1.614   3.285   0.006   4.905
  178        1.614   3.284   0.006   4.904
  179        1.614   3.285   0.006   4.905
  180        1.614   3.285   0.006   4.905
  181        1.614   3.285   0.006   4.905
  182        1.614   3.284   0.006   4.904
  183        1.614   3.285   0.006   4.905
  184        1.614   3.285   0.006   4.905
  185        1.614   3.285   0.006   4.905
  186        1.614   3.284   0.006   4.904
  187        1.614   3.285   0.006   4.905
  188        1.614   3.285   0.006   4.905
  189        1.614   3.285   0.006   4.905
  190        1.614   3.285   0.006   4.905
  191        1.614   3.284   0.006   4.904
  192        1.614   3.284   0.006   4.904
  193        1.614   3.285   0.006   4.905
  194        1.614   3.285   0.006   4.905
  195        1.614   3.285   0.006   4.905
  196        1.614   3.285   0.006   4.905
  197        1.614   3.285   0.006   4.905
  198        1.614   3.284   0.006   4.904
  199        1.614   3.284   0.006   4.904
  200        1.614   3.285   0.006   4.905
  201        1.614   3.285   0.006   4.904
  202        1.614   3.285   0.006   4.905
  203        1.614   3.285   0.006   4.904
  204        1.614   3.284   0.006   4.904
  205        1.614   3.284   0.006   4.904
  206        1.614   3.285   0.006   4.905
  207        1.614   3.285   0.006   4.905
  208        1.615   3.285   0.006   4.906
  209        1.614   3.284   0.006   4.904
  210        1.614   3.285   0.006   4.905
  211        1.614   3.284   0.006   4.904
  212        1.614   3.284   0.006   4.904
  213        1.614   3.284   0.006   4.904
  214        1.614   3.285   0.006   4.905
  215        1.614   3.284   0.006   4.904
  216        1.614   3.284   0.006   4.904
  217        1.614   3.285   0.006   4.904
  218        1.614   3.285   0.006   4.905
  219        1.614   3.284   0.006   4.904
  220        1.614   3.285   0.006   4.904
  221        1.614   3.284   0.006   4.904
  222        1.614   3.285   0.006   4.904
  223        1.615   3.284   0.006   4.905
  224        1.614   3.285   0.006   4.905
  225        1.614   3.285   0.006   4.905
  226        1.614   3.285   0.006   4.905
  227        1.614   3.285   0.006   4.904
  228        1.614   3.285   0.006   4.904
  229        1.614   3.285   0.006   4.905
  230        1.614   3.285   0.006   4.905
  231        1.614   3.285   0.006   4.905
  232        1.614   3.285   0.006   4.905
  233        1.614   3.285   0.006   4.905
  234        1.614   3.284   0.006   4.904
  235        1.614   3.285   0.006   4.905
  236        1.614   3.284   0.006   4.903
  237        1.614   3.284   0.006   4.904
  238        1.614   3.285   0.006   4.905
  239        1.614   3.285   0.006   4.904
  240        1.614   3.285   0.006   4.904
  241        1.614   3.285   0.006   4.905
  242        1.614   3.284   0.006   4.904
  243        1.614   3.284   0.006   4.904
  244        1.614   3.285   0.006   4.905
  245        1.614   3.285   0.006   4.905
  246        1.614   3.285   0.006   4.905
  247        1.614   3.285   0.006   4.905
  248        1.614   3.284   0.006   4.904
  249        1.614   3.285   0.006   4.905
  250        1.614   3.285   0.006   4.905
  251        1.614   3.285   0.006   4.905
  252        1.614   3.285   0.006   4.905
  253        1.614   3.285   0.006   4.904
  254        1.614   3.285   0.006   4.904
  255        1.614   3.284   0.006   4.903
  256        1.614   3.285   0.006   4.905
  257        1.614   3.285   0.006   4.905
  258        1.614   3.284   0.006   4.904
  259        1.614   3.285   0.006   4.905
  260        1.614   3.285   0.006   4.905
  261        1.614   3.284   0.006   4.904
  262        1.614   3.284   0.006   4.904
  263        1.614   3.285   0.006   4.905
  264        1.614   3.285   0.006   4.905
  265        1.615   3.284   0.006   4.905
  266        1.614   3.285   0.006   4.905
  267        1.614   3.284   0.006   4.904
  268        1.614   3.284   0.006   4.904
  269        1.614   3.285   0.006   4.905
  270        1.614   3.284   0.006   4.904
  271        1.614   3.284   0.006   4.904
  272        1.614   3.285   0.006   4.905
  273        1.614   3.285   0.006   4.905
  274        1.614   3.285   0.006   4.905
  275        1.614   3.285   0.006   4.905
  276        1.614   3.284   0.006   4.904
  277        1.614   3.284   0.006   4.904
  278        1.614   3.283   0.006   4.903
  279        1.614   3.285   0.006   4.905
  280        1.614   3.285   0.006   4.904
  281        1.786   4.719   0.019   6.525
  282        1.786   4.719   0.019   6.524
  283        1.786   4.719   0.019   6.524
  284        1.785   4.719   0.018   6.523
  285        1.786   4.719   0.020   6.525
  286        1.786   4.719   0.019   6.525
  287        1.786   4.719   0.019   6.524
  288        1.555   0.417   9.833  11.805
  289        1.555   0.416   9.833  11.804
  290        1.555   0.418   9.834  11.806
  291        1.555   0.417   9.833  11.805
  292        1.555   0.417   9.833  11.805
  293        1.554   0.417   9.833  11.805
  294        1.554   0.416   9.833  11.804
  295        1.554   0.415   9.833  11.802
  296        1.615   3.281   0.006   4.902
  297        1.614   3.288   0.006   4.909
  298        1.614   3.287   0.006   4.907
  299        1.614   3.287   0.006   4.907
  300        1.614   3.285   0.006   4.905
  301        1.615   3.280   0.007   4.902
  302        1.614   3.286   0.006   4.907
  303        1.614   3.287   0.006   4.907
  304        1.614   3.284   0.006   4.903
  305        1.614   3.285   0.006   4.905
  306        1.614   3.285   0.006   4.904
  307        1.615   3.276   0.007   4.898
  308        1.614   3.283   0.006   4.903
  309        1.614   3.284   0.006   4.904
  310        1.614   3.284   0.006   4.904
  311        1.614   3.285   0.006   4.905
  312        1.614   3.285   0.006   4.905
  313        1.614   3.284   0.006   4.904
  314        1.614   3.285   0.006   4.905
  315        1.615   3.276   0.006   4.897
  316        1.614   3.284   0.006   4.904
  317        1.614   3.285   0.006   4.905
  318        1.615   3.285   0.006   4.906
  319        1.614   3.284   0.006   4.904
--------------------------------------------------
tot        521.907 954.713 631.6932108.313


 total amount of memory used by VASP MPI-rank0   207245. kBytes
=======================================================================

   base      :      30000. kBytes
   nonlr-proj:      21711. kBytes
   fftplans  :      59112. kBytes
   grid      :      63297. kBytes
   one-center:        311. kBytes
   wavefun   :      32814. kBytes

  
  
 General timing and accounting informations for this job:
 ========================================================
  
                  Total CPU time used (sec):    22257.721
                            User time (sec):    21824.004
                          System time (sec):      433.717
                         Elapsed time (sec):    22275.487
  
                   Maximum memory used (kb):      298500.
                   Average memory used (kb):           0.
  
                          Minor page faults:     84355522
                          Major page faults:            0
                 Voluntary context switches:         7493
