  39  39   1   0
  0.4089970E+02  0.1166870E-08  0.1172985E-08  0.1166870E-08  0.5000000E-15
   1.0000000000000000E-004
  CAR 
 CsPbBr3 cubic bulk                      
      8.04652980    -22.44002096  301      0.75516308      1.00000000
    -22.440  0.0000E+00  0.0000E+00
    -22.338  0.0000E+00  0.0000E+00
    -22.237  0.0000E+00  0.0000E+00
    -22.135  0.0000E+00  0.0000E+00
    -22.034  0.0000E+00  0.0000E+00
    -21.932  0.0000E+00  0.0000E+00
    -21.830  0.0000E+00  0.0000E+00
    -21.729  0.0000E+00  0.0000E+00
    -21.627  0.0000E+00  0.0000E+00
    -21.525  0.0000E+00  0.0000E+00
    -21.424  0.0000E+00  0.0000E+00
    -21.322  0.0000E+00  0.0000E+00
    -21.221  0.0000E+00  0.0000E+00
    -21.119  0.0000E+00  0.0000E+00
    -21.017  0.1968E+02  0.2000E+01
    -20.916  0.4887E-02  0.2000E+01
    -20.814  0.3936E+02  0.6000E+01
    -20.712  0.3852E+02  0.9914E+01
    -20.611  0.1968E+02  0.1200E+02
    -20.509  0.0000E+00  0.1200E+02
    -20.408  0.0000E+00  0.1200E+02
    -20.306  0.1794E+02  0.1382E+02
    -20.204  0.0000E+00  0.1400E+02
    -20.103  0.0000E+00  0.1400E+02
    -20.001  0.2722E+01  0.1428E+02
    -19.899  0.0000E+00  0.1600E+02
    -19.798  0.0000E+00  0.1600E+02
    -19.696  0.0000E+00  0.1600E+02
    -19.595  0.0000E+00  0.1600E+02
    -19.493  0.0000E+00  0.1600E+02
    -19.391  0.0000E+00  0.1600E+02
    -19.290  0.0000E+00  0.1600E+02
    -19.188  0.0000E+00  0.1600E+02
    -19.087  0.0000E+00  0.1600E+02
    -18.985  0.0000E+00  0.1600E+02
    -18.883  0.0000E+00  0.1600E+02
    -18.782  0.0000E+00  0.1600E+02
    -18.680  0.0000E+00  0.1600E+02
    -18.578  0.0000E+00  0.1600E+02
    -18.477  0.0000E+00  0.1600E+02
    -18.375  0.0000E+00  0.1600E+02
    -18.274  0.0000E+00  0.1600E+02
    -18.172  0.0000E+00  0.1600E+02
    -18.070  0.0000E+00  0.1600E+02
    -17.969  0.0000E+00  0.1600E+02
    -17.867  0.0000E+00  0.1600E+02
    -17.765  0.0000E+00  0.1600E+02
    -17.664  0.0000E+00  0.1600E+02
    -17.562  0.0000E+00  0.1600E+02
    -17.461  0.0000E+00  0.1600E+02
    -17.359  0.0000E+00  0.1600E+02
    -17.257  0.0000E+00  0.1600E+02
    -17.156  0.0000E+00  0.1600E+02
    -17.054  0.0000E+00  0.1600E+02
    -16.952  0.1088E-06  0.1600E+02
    -16.851  0.7531E+02  0.2365E+02
    -16.749  0.2066E+03  0.4800E+02
    -16.648  0.7872E+02  0.5600E+02
    -16.546  0.0000E+00  0.5600E+02
    -16.444  0.2234E+02  0.5827E+02
    -16.343  0.9840E+02  0.7200E+02
    -16.241  0.2362E+03  0.9600E+02
    -16.139  0.0000E+00  0.9600E+02
    -16.038  0.0000E+00  0.9600E+02
    -15.936  0.0000E+00  0.9600E+02
    -15.835  0.0000E+00  0.9600E+02
    -15.733  0.0000E+00  0.9600E+02
    -15.631  0.0000E+00  0.9600E+02
    -15.530  0.0000E+00  0.9600E+02
    -15.428  0.0000E+00  0.9600E+02
    -15.326  0.0000E+00  0.9600E+02
    -15.225  0.0000E+00  0.9600E+02
    -15.123  0.0000E+00  0.9600E+02
    -15.022  0.0000E+00  0.9600E+02
    -14.920  0.0000E+00  0.9600E+02
    -14.818  0.0000E+00  0.9600E+02
    -14.717  0.1159E+00  0.9601E+02
    -14.615  0.2952E+02  0.1000E+03
    -14.514  0.0000E+00  0.1000E+03
    -14.412  0.1490E-09  0.1000E+03
    -14.310  0.2350E+02  0.1024E+03
    -14.209  0.4344E+02  0.1077E+03
    -14.107  0.5038E+02  0.1134E+03
    -14.005  0.8720E+02  0.1231E+03
    -13.904  0.4865E+02  0.1289E+03
    -13.802  0.3476E+02  0.1343E+03
    -13.701  0.4271E+02  0.1398E+03
    -13.599  0.0000E+00  0.1400E+03
    -13.497  0.0000E+00  0.1400E+03
    -13.396  0.0000E+00  0.1400E+03
    -13.294  0.0000E+00  0.1400E+03
    -13.192  0.0000E+00  0.1400E+03
    -13.091  0.0000E+00  0.1400E+03
    -12.989  0.0000E+00  0.1400E+03
    -12.888  0.9304E-02  0.1400E+03
    -12.786  0.1967E+02  0.1420E+03
    -12.684  0.0000E+00  0.1420E+03
    -12.583  0.0000E+00  0.1420E+03
    -12.481  0.0000E+00  0.1420E+03
    -12.379  0.0000E+00  0.1420E+03
    -12.278  0.0000E+00  0.1420E+03
    -12.176  0.0000E+00  0.1420E+03
    -12.075  0.0000E+00  0.1420E+03
    -11.973  0.0000E+00  0.1420E+03
    -11.871  0.0000E+00  0.1420E+03
    -11.770  0.0000E+00  0.1420E+03
    -11.668  0.0000E+00  0.1420E+03
    -11.566  0.0000E+00  0.1420E+03
    -11.465  0.0000E+00  0.1420E+03
    -11.363  0.0000E+00  0.1420E+03
    -11.262  0.0000E+00  0.1420E+03
    -11.160  0.0000E+00  0.1420E+03
    -11.058  0.0000E+00  0.1420E+03
    -10.957  0.0000E+00  0.1420E+03
    -10.855  0.0000E+00  0.1420E+03
    -10.754  0.0000E+00  0.1420E+03
    -10.652  0.0000E+00  0.1420E+03
    -10.550  0.0000E+00  0.1420E+03
    -10.449  0.0000E+00  0.1420E+03
    -10.347  0.0000E+00  0.1420E+03
    -10.245  0.0000E+00  0.1420E+03
    -10.144  0.0000E+00  0.1420E+03
    -10.042  0.0000E+00  0.1420E+03
     -9.941  0.0000E+00  0.1420E+03
     -9.839  0.0000E+00  0.1420E+03
     -9.737  0.0000E+00  0.1420E+03
     -9.636  0.0000E+00  0.1420E+03
     -9.534  0.0000E+00  0.1420E+03
     -9.432  0.0000E+00  0.1420E+03
     -9.331  0.0000E+00  0.1420E+03
     -9.229  0.0000E+00  0.1420E+03
     -9.128  0.0000E+00  0.1420E+03
     -9.026  0.0000E+00  0.1420E+03
     -8.924  0.0000E+00  0.1420E+03
     -8.823  0.0000E+00  0.1420E+03
     -8.721  0.0000E+00  0.1420E+03
     -8.619  0.0000E+00  0.1420E+03
     -8.518  0.0000E+00  0.1420E+03
     -8.416  0.0000E+00  0.1420E+03
     -8.315  0.9323E+00  0.1421E+03
     -8.213  0.2460E+01  0.1425E+03
     -8.111  0.4920E+01  0.1430E+03
     -8.010  0.1227E+02  0.1442E+03
     -7.908  0.1476E+02  0.1457E+03
     -7.806  0.6228E+01  0.1464E+03
     -7.705  0.1849E+02  0.1489E+03
     -7.603  0.1153E+02  0.1502E+03
     -7.502  0.1982E+02  0.1528E+03
     -7.400  0.6215E+02  0.1593E+03
     -7.298  0.3198E+02  0.1628E+03
     -7.197  0.8900E+02  0.1755E+03
     -7.095  0.7150E+02  0.1863E+03
     -6.994  0.6566E+02  0.1932E+03
     -6.892  0.1515E+01  0.1934E+03
     -6.790  0.2510E+02  0.1961E+03
     -6.689  0.1968E+02  0.1998E+03
     -6.587  0.2460E+01  0.2000E+03
     -6.485  0.1958E+02  0.2020E+03
     -6.384  0.1969E+02  0.2040E+03
     -6.282  0.9838E+01  0.2060E+03
     -6.181  0.0000E+00  0.2060E+03
     -6.079  0.0000E+00  0.2060E+03
     -5.977  0.0000E+00  0.2060E+03
     -5.876  0.0000E+00  0.2060E+03
     -5.774  0.0000E+00  0.2060E+03
     -5.672  0.0000E+00  0.2060E+03
     -5.571  0.0000E+00  0.2060E+03
     -5.469  0.0000E+00  0.2060E+03
     -5.368  0.0000E+00  0.2060E+03
     -5.266  0.0000E+00  0.2060E+03
     -5.164  0.0000E+00  0.2060E+03
     -5.063  0.0000E+00  0.2060E+03
     -4.961  0.0000E+00  0.2060E+03
     -4.859  0.0000E+00  0.2060E+03
     -4.758  0.0000E+00  0.2060E+03
     -4.656  0.0000E+00  0.2060E+03
     -4.555  0.0000E+00  0.2060E+03
     -4.453  0.0000E+00  0.2060E+03
     -4.351  0.0000E+00  0.2060E+03
     -4.250  0.0000E+00  0.2060E+03
     -4.148  0.0000E+00  0.2060E+03
     -4.046  0.0000E+00  0.2060E+03
     -3.945  0.0000E+00  0.2060E+03
     -3.843  0.0000E+00  0.2060E+03
     -3.742  0.0000E+00  0.2060E+03
     -3.640  0.0000E+00  0.2060E+03
     -3.538  0.0000E+00  0.2060E+03
     -3.437  0.9559E-15  0.2060E+03
     -3.335  0.1652E+02  0.2077E+03
     -3.233  0.3205E+02  0.2118E+03
     -3.132  0.3083E+02  0.2156E+03
     -3.030  0.2416E+02  0.2190E+03
     -2.929  0.7380E+01  0.2200E+03
     -2.827  0.2133E-10  0.2200E+03
     -2.725  0.1511E+02  0.2215E+03
     -2.624  0.2965E+02  0.2250E+03
     -2.522  0.3323E+02  0.2289E+03
     -2.421  0.2578E+02  0.2321E+03
     -2.319  0.3761E+02  0.2373E+03
     -2.217  0.1626E+02  0.2404E+03
     -2.116  0.2231E+02  0.2435E+03
     -2.014  0.2647E+02  0.2472E+03
     -1.912  0.3641E+02  0.2517E+03
     -1.811  0.4493E+02  0.2573E+03
     -1.709  0.3471E+02  0.2628E+03
     -1.608  0.5636E+02  0.2707E+03
     -1.506  0.6900E+02  0.2793E+03
     -1.404  0.7619E+02  0.2895E+03
     -1.303  0.7238E+02  0.2991E+03
     -1.201  0.5929E+02  0.3065E+03
     -1.099  0.7821E+02  0.3174E+03
     -0.998  0.4243E+02  0.3233E+03
     -0.896  0.3771E+02  0.3273E+03
     -0.795  0.1744E+02  0.3303E+03
     -0.693  0.6790E+01  0.3312E+03
     -0.591  0.1861E+02  0.3336E+03
     -0.490  0.1480E+02  0.3365E+03
     -0.388  0.7379E+01  0.3375E+03
     -0.286  0.7380E+01  0.3382E+03
     -0.185  0.3924E+01  0.3386E+03
     -0.083  0.5819E-01  0.3390E+03
      0.018  0.2435E+01  0.3395E+03
      0.120  0.2460E+01  0.3398E+03
      0.222  0.1872E+01  0.3399E+03
      0.323  0.1031E+01  0.3419E+03
      0.425  0.0000E+00  0.3420E+03
      0.527  0.0000E+00  0.3420E+03
      0.628  0.9964E+01  0.3430E+03
      0.730  0.0000E+00  0.3440E+03
      0.831  0.0000E+00  0.3440E+03
      0.933  0.0000E+00  0.3440E+03
      1.035  0.0000E+00  0.3440E+03
      1.136  0.0000E+00  0.3440E+03
      1.238  0.0000E+00  0.3440E+03
      1.339  0.0000E+00  0.3440E+03
      1.441  0.0000E+00  0.3440E+03
      1.543  0.0000E+00  0.3440E+03
      1.644  0.0000E+00  0.3440E+03
      1.746  0.0000E+00  0.3440E+03
      1.848  0.0000E+00  0.3440E+03
      1.949  0.0000E+00  0.3440E+03
      2.051  0.0000E+00  0.3440E+03
      2.152  0.0000E+00  0.3440E+03
      2.254  0.1468E+01  0.3441E+03
      2.356  0.5180E+01  0.3448E+03
      2.457  0.7255E+01  0.3457E+03
      2.559  0.5800E+01  0.3463E+03
      2.661  0.9873E+01  0.3478E+03
      2.762  0.7551E+01  0.3490E+03
      2.864  0.7928E-03  0.3495E+03
      2.965  0.1830E+02  0.3514E+03
      3.067  0.8692E+01  0.3529E+03
      3.169  0.1426E+02  0.3544E+03
      3.270  0.7406E+01  0.3563E+03
      3.372  0.5164E+01  0.3570E+03
      3.474  0.9748E+01  0.3582E+03
      3.575  0.4920E+01  0.3587E+03
      3.677  0.5016E+01  0.3593E+03
      3.778  0.2670E+01  0.3598E+03
      3.880  0.6636E+01  0.3607E+03
      3.982  0.5892E-10  0.3610E+03
      4.083  0.4589E+01  0.3615E+03
      4.185  0.1687E+02  0.3632E+03
      4.287  0.1874E+02  0.3652E+03
      4.388  0.2881E+02  0.3684E+03
      4.490  0.2697E+02  0.3720E+03
      4.591  0.2211E+02  0.3750E+03
      4.693  0.1499E+02  0.3773E+03
      4.795  0.1223E+02  0.3790E+03
      4.896  0.1773E+02  0.3818E+03
      4.998  0.0000E+00  0.3822E+03
      5.099  0.0000E+00  0.3822E+03
      5.201  0.0000E+00  0.3822E+03
      5.303  0.4603E-10  0.3823E+03
      5.404  0.5656E+01  0.3828E+03
      5.506  0.5140E+01  0.3835E+03
      5.608  0.1104E+02  0.3849E+03
      5.709  0.2183E+02  0.3875E+03
      5.811  0.2776E+01  0.3878E+03
      5.912  0.2219E+02  0.3915E+03
      6.014  0.1486E+02  0.3933E+03
      6.116  0.3510E+02  0.3973E+03
      6.217  0.2471E+02  0.4008E+03
      6.319  0.1849E+02  0.4034E+03
      6.421  0.3454E+02  0.4078E+03
      6.522  0.3308E+02  0.4116E+03
      6.624  0.2754E+02  0.4150E+03
      6.725  0.4920E+01  0.4160E+03
      6.827  0.0000E+00  0.4160E+03
      6.929  0.0000E+00  0.4160E+03
      7.030  0.0000E+00  0.4160E+03
      7.132  0.0000E+00  0.4160E+03
      7.234  0.0000E+00  0.4160E+03
      7.335  0.0000E+00  0.4160E+03
      7.437  0.0000E+00  0.4160E+03
      7.538  0.0000E+00  0.4160E+03
      7.640  0.0000E+00  0.4160E+03
      7.742  0.0000E+00  0.4160E+03
      7.843  0.0000E+00  0.4160E+03
      7.945  0.0000E+00  0.4160E+03
      8.047  0.0000E+00  0.4160E+03
      8.04652980    -22.44002096  301      0.75516308      1.00000000
    -22.440  0.0000E+00  0.0000E+00  0.0000E+00
    -22.338  0.0000E+00  0.0000E+00  0.0000E+00
    -22.237  0.0000E+00  0.0000E+00  0.0000E+00
    -22.135  0.0000E+00  0.0000E+00  0.0000E+00
    -22.034  0.0000E+00  0.0000E+00  0.0000E+00
    -21.932  0.0000E+00  0.0000E+00  0.0000E+00
    -21.830  0.0000E+00  0.0000E+00  0.0000E+00
    -21.729  0.0000E+00  0.0000E+00  0.0000E+00
    -21.627  0.0000E+00  0.0000E+00  0.0000E+00
    -21.525  0.0000E+00  0.0000E+00  0.0000E+00
    -21.424  0.0000E+00  0.0000E+00  0.0000E+00
    -21.322  0.0000E+00  0.0000E+00  0.0000E+00
    -21.221  0.0000E+00  0.0000E+00  0.0000E+00
    -21.119  0.0000E+00  0.0000E+00  0.0000E+00
    -21.017  0.2552E-06  0.2945E-08  0.5260E-09
    -20.916  0.1857E-07  0.9496E-11  0.9208E-12
    -20.814  0.7638E-04  0.4531E-07  0.4327E-08
    -20.712  0.1887E-02  0.1576E-06  0.2453E-07
    -20.611  0.1747E+02  0.3151E-05  0.2405E-05
    -20.509  0.0000E+00  0.0000E+00  0.0000E+00
    -20.408  0.0000E+00  0.0000E+00  0.0000E+00
    -20.306  0.3927E-06  0.2794E-08  0.2958E-09
    -20.204  0.0000E+00  0.0000E+00  0.0000E+00
    -20.103  0.0000E+00  0.0000E+00  0.0000E+00
    -20.001  0.4233E-05  0.2594E-07  0.3418E-08
    -19.899  0.0000E+00  0.0000E+00  0.0000E+00
    -19.798  0.0000E+00  0.0000E+00  0.0000E+00
    -19.696  0.0000E+00  0.0000E+00  0.0000E+00
    -19.595  0.0000E+00  0.0000E+00  0.0000E+00
    -19.493  0.0000E+00  0.0000E+00  0.0000E+00
    -19.391  0.0000E+00  0.0000E+00  0.0000E+00
    -19.290  0.0000E+00  0.0000E+00  0.0000E+00
    -19.188  0.0000E+00  0.0000E+00  0.0000E+00
    -19.087  0.0000E+00  0.0000E+00  0.0000E+00
    -18.985  0.0000E+00  0.0000E+00  0.0000E+00
    -18.883  0.0000E+00  0.0000E+00  0.0000E+00
    -18.782  0.0000E+00  0.0000E+00  0.0000E+00
    -18.680  0.0000E+00  0.0000E+00  0.0000E+00
    -18.578  0.0000E+00  0.0000E+00  0.0000E+00
    -18.477  0.0000E+00  0.0000E+00  0.0000E+00
    -18.375  0.0000E+00  0.0000E+00  0.0000E+00
    -18.274  0.0000E+00  0.0000E+00  0.0000E+00
    -18.172  0.0000E+00  0.0000E+00  0.0000E+00
    -18.070  0.0000E+00  0.0000E+00  0.0000E+00
    -17.969  0.0000E+00  0.0000E+00  0.0000E+00
    -17.867  0.0000E+00  0.0000E+00  0.0000E+00
    -17.765  0.0000E+00  0.0000E+00  0.0000E+00
    -17.664  0.0000E+00  0.0000E+00  0.0000E+00
    -17.562  0.0000E+00  0.0000E+00  0.0000E+00
    -17.461  0.0000E+00  0.0000E+00  0.0000E+00
    -17.359  0.0000E+00  0.0000E+00  0.0000E+00
    -17.257  0.0000E+00  0.0000E+00  0.0000E+00
    -17.156  0.0000E+00  0.0000E+00  0.0000E+00
    -17.054  0.0000E+00  0.0000E+00  0.0000E+00
    -16.952  0.1459E-12  0.1511E-13  0.9989E-15
    -16.851  0.3129E-04  0.9827E-05  0.1338E-05
    -16.749  0.1633E-04  0.1265E-04  0.2506E-05
    -16.648  0.5620E-05  0.1966E-05  0.2119E-06
    -16.546  0.0000E+00  0.0000E+00  0.0000E+00
    -16.444  0.1286E-04  0.1075E-04  0.4002E-05
    -16.343  0.1605E-04  0.4462E-04  0.7655E-05
    -16.241  0.8874E-04  0.4598E-04  0.5722E-05
    -16.139  0.0000E+00  0.0000E+00  0.0000E+00
    -16.038  0.0000E+00  0.0000E+00  0.0000E+00
    -15.936  0.0000E+00  0.0000E+00  0.0000E+00
    -15.835  0.0000E+00  0.0000E+00  0.0000E+00
    -15.733  0.0000E+00  0.0000E+00  0.0000E+00
    -15.631  0.0000E+00  0.0000E+00  0.0000E+00
    -15.530  0.0000E+00  0.0000E+00  0.0000E+00
    -15.428  0.0000E+00  0.0000E+00  0.0000E+00
    -15.326  0.0000E+00  0.0000E+00  0.0000E+00
    -15.225  0.0000E+00  0.0000E+00  0.0000E+00
    -15.123  0.0000E+00  0.0000E+00  0.0000E+00
    -15.022  0.0000E+00  0.0000E+00  0.0000E+00
    -14.920  0.0000E+00  0.0000E+00  0.0000E+00
    -14.818  0.0000E+00  0.0000E+00  0.0000E+00
    -14.717  0.2299E-05  0.2369E-06  0.8486E-08
    -14.615  0.1885E-03  0.1642E-03  0.3000E-05
    -14.514  0.0000E+00  0.0000E+00  0.0000E+00
    -14.412  0.5606E-15  0.5259E-14  0.7367E-17
    -14.310  0.7102E-03  0.2986E-03  0.2164E-04
    -14.209  0.3467E-02  0.2032E-02  0.4496E-04
    -14.107  0.8917E-03  0.4173E-02  0.1298E-03
    -14.005  0.4384E-02  0.7261E-02  0.5646E-03
    -13.904  0.2840E-03  0.4338E-02  0.3136E-03
    -13.802  0.5835E-03  0.1520E-02  0.3826E-03
    -13.701  0.1194E-02  0.1899E-02  0.2464E-03
    -13.599  0.0000E+00  0.0000E+00  0.0000E+00
    -13.497  0.0000E+00  0.0000E+00  0.0000E+00
    -13.396  0.0000E+00  0.0000E+00  0.0000E+00
    -13.294  0.0000E+00  0.0000E+00  0.0000E+00
    -13.192  0.0000E+00  0.0000E+00  0.0000E+00
    -13.091  0.0000E+00  0.0000E+00  0.0000E+00
    -12.989  0.0000E+00  0.0000E+00  0.0000E+00
    -12.888  0.1492E-07  0.6705E-07  0.4746E-08
    -12.786  0.3117E-04  0.1433E-03  0.1003E-04
    -12.684  0.0000E+00  0.0000E+00  0.0000E+00
    -12.583  0.0000E+00  0.0000E+00  0.0000E+00
    -12.481  0.0000E+00  0.0000E+00  0.0000E+00
    -12.379  0.0000E+00  0.0000E+00  0.0000E+00
    -12.278  0.0000E+00  0.0000E+00  0.0000E+00
    -12.176  0.0000E+00  0.0000E+00  0.0000E+00
    -12.075  0.0000E+00  0.0000E+00  0.0000E+00
    -11.973  0.0000E+00  0.0000E+00  0.0000E+00
    -11.871  0.0000E+00  0.0000E+00  0.0000E+00
    -11.770  0.0000E+00  0.0000E+00  0.0000E+00
    -11.668  0.0000E+00  0.0000E+00  0.0000E+00
    -11.566  0.0000E+00  0.0000E+00  0.0000E+00
    -11.465  0.0000E+00  0.0000E+00  0.0000E+00
    -11.363  0.0000E+00  0.0000E+00  0.0000E+00
    -11.262  0.0000E+00  0.0000E+00  0.0000E+00
    -11.160  0.0000E+00  0.0000E+00  0.0000E+00
    -11.058  0.0000E+00  0.0000E+00  0.0000E+00
    -10.957  0.0000E+00  0.0000E+00  0.0000E+00
    -10.855  0.0000E+00  0.0000E+00  0.0000E+00
    -10.754  0.0000E+00  0.0000E+00  0.0000E+00
    -10.652  0.0000E+00  0.0000E+00  0.0000E+00
    -10.550  0.0000E+00  0.0000E+00  0.0000E+00
    -10.449  0.0000E+00  0.0000E+00  0.0000E+00
    -10.347  0.0000E+00  0.0000E+00  0.0000E+00
    -10.245  0.0000E+00  0.0000E+00  0.0000E+00
    -10.144  0.0000E+00  0.0000E+00  0.0000E+00
    -10.042  0.0000E+00  0.0000E+00  0.0000E+00
     -9.941  0.0000E+00  0.0000E+00  0.0000E+00
     -9.839  0.0000E+00  0.0000E+00  0.0000E+00
     -9.737  0.0000E+00  0.0000E+00  0.0000E+00
     -9.636  0.0000E+00  0.0000E+00  0.0000E+00
     -9.534  0.0000E+00  0.0000E+00  0.0000E+00
     -9.432  0.0000E+00  0.0000E+00  0.0000E+00
     -9.331  0.0000E+00  0.0000E+00  0.0000E+00
     -9.229  0.0000E+00  0.0000E+00  0.0000E+00
     -9.128  0.0000E+00  0.0000E+00  0.0000E+00
     -9.026  0.0000E+00  0.0000E+00  0.0000E+00
     -8.924  0.0000E+00  0.0000E+00  0.0000E+00
     -8.823  0.0000E+00  0.0000E+00  0.0000E+00
     -8.721  0.0000E+00  0.0000E+00  0.0000E+00
     -8.619  0.0000E+00  0.0000E+00  0.0000E+00
     -8.518  0.0000E+00  0.0000E+00  0.0000E+00
     -8.416  0.0000E+00  0.0000E+00  0.0000E+00
     -8.315  0.3635E-13  0.1431E-04  0.3842E-05
     -8.213  0.8183E-11  0.1201E-03  0.1040E-04
     -8.111  0.1160E-09  0.1136E-02  0.1221E-04
     -8.010  0.1467E-06  0.6392E-02  0.3173E-04
     -7.908  0.8411E-06  0.1269E-01  0.2637E-04
     -7.806  0.2627E-07  0.7645E-02  0.1266E-04
     -7.705  0.1627E-04  0.1504E-01  0.5686E-04
     -7.603  0.4682E-04  0.2467E-01  0.1237E-04
     -7.502  0.1119E-04  0.2168E-01  0.5304E-04
     -7.400  0.2773E-04  0.2746E-01  0.3573E-04
     -7.298  0.2536E-04  0.3738E-01  0.3662E-04
     -7.197  0.5720E-04  0.1919E+00  0.4877E-04
     -7.095  0.1441E-04  0.1137E+01  0.3194E-04
     -6.994  0.1661E-04  0.4326E+02  0.4094E-04
     -6.892  0.5128E-05  0.2205E-01  0.7827E-06
     -6.790  0.9097E-05  0.8184E-01  0.4898E-05
     -6.689  0.7385E-05  0.1266E-01  0.2247E-05
     -6.587  0.3238E-05  0.9943E-02  0.2932E-06
     -6.485  0.2119E-08  0.4290E-02  0.3803E-05
     -6.384  0.6551E-05  0.7470E-02  0.2102E-04
     -6.282  0.3403E-05  0.1113E-02  0.1424E-05
     -6.181  0.0000E+00  0.0000E+00  0.0000E+00
     -6.079  0.0000E+00  0.0000E+00  0.0000E+00
     -5.977  0.0000E+00  0.0000E+00  0.0000E+00
     -5.876  0.0000E+00  0.0000E+00  0.0000E+00
     -5.774  0.0000E+00  0.0000E+00  0.0000E+00
     -5.672  0.0000E+00  0.0000E+00  0.0000E+00
     -5.571  0.0000E+00  0.0000E+00  0.0000E+00
     -5.469  0.0000E+00  0.0000E+00  0.0000E+00
     -5.368  0.0000E+00  0.0000E+00  0.0000E+00
     -5.266  0.0000E+00  0.0000E+00  0.0000E+00
     -5.164  0.0000E+00  0.0000E+00  0.0000E+00
     -5.063  0.0000E+00  0.0000E+00  0.0000E+00
     -4.961  0.0000E+00  0.0000E+00  0.0000E+00
     -4.859  0.0000E+00  0.0000E+00  0.0000E+00
     -4.758  0.0000E+00  0.0000E+00  0.0000E+00
     -4.656  0.0000E+00  0.0000E+00  0.0000E+00
     -4.555  0.0000E+00  0.0000E+00  0.0000E+00
     -4.453  0.0000E+00  0.0000E+00  0.0000E+00
     -4.351  0.0000E+00  0.0000E+00  0.0000E+00
     -4.250  0.0000E+00  0.0000E+00  0.0000E+00
     -4.148  0.0000E+00  0.0000E+00  0.0000E+00
     -4.046  0.0000E+00  0.0000E+00  0.0000E+00
     -3.945  0.0000E+00  0.0000E+00  0.0000E+00
     -3.843  0.0000E+00  0.0000E+00  0.0000E+00
     -3.742  0.0000E+00  0.0000E+00  0.0000E+00
     -3.640  0.0000E+00  0.0000E+00  0.0000E+00
     -3.538  0.0000E+00  0.0000E+00  0.0000E+00
     -3.437  0.2985E-23  0.9019E-18  0.1473E-19
     -3.335  0.1229E-03  0.1476E-01  0.5773E-03
     -3.233  0.3062E-03  0.2170E-01  0.1399E-02
     -3.132  0.1580E-03  0.1458E-01  0.1658E-02
     -3.030  0.6282E-05  0.5116E-02  0.6227E-03
     -2.929  0.4946E-05  0.7069E-03  0.1033E-03
     -2.827  0.6409E-16  0.1980E-13  0.1669E-15
     -2.725  0.3892E-03  0.1544E-01  0.3965E-03
     -2.624  0.7022E-03  0.2136E-01  0.1134E-02
     -2.522  0.1222E-02  0.1924E-01  0.1315E-02
     -2.421  0.2519E-02  0.1522E-01  0.1600E-02
     -2.319  0.5125E-02  0.1985E-01  0.2177E-02
     -2.217  0.2825E-02  0.5899E-02  0.2031E-02
     -2.116  0.3001E-02  0.2646E-01  0.2119E-02
     -2.014  0.6417E-02  0.2393E-01  0.3626E-02
     -1.912  0.4810E-02  0.3448E-01  0.3839E-02
     -1.811  0.1053E-01  0.5775E-01  0.2693E-02
     -1.709  0.4643E-02  0.6448E-01  0.3240E-02
     -1.608  0.2800E-02  0.9286E-01  0.8372E-02
     -1.506  0.4015E-02  0.1217E+00  0.1441E-01
     -1.404  0.2842E-02  0.5844E-01  0.1538E-01
     -1.303  0.4051E-02  0.5386E-01  0.1261E-01
     -1.201  0.2604E-02  0.6949E-01  0.1542E-01
     -1.099  0.2181E-02  0.6943E-01  0.1181E-01
     -0.998  0.8352E-03  0.5315E-01  0.9396E-02
     -0.896  0.6995E-03  0.4342E-01  0.1027E-01
     -0.795  0.1096E-02  0.1059E-01  0.1866E-02
     -0.693  0.7583E-04  0.1355E-02  0.3170E-03
     -0.591  0.1913E-03  0.1511E-02  0.5610E-03
     -0.490  0.1412E-03  0.2981E-02  0.5580E-03
     -0.388  0.4773E-04  0.7804E-03  0.4475E-03
     -0.286  0.4850E-07  0.1706E-02  0.3719E-03
     -0.185  0.1345E-07  0.3707E-03  0.3059E-03
     -0.083  0.1339E-10  0.1134E-04  0.4756E-05
      0.018  0.3634E-09  0.8354E-05  0.1105E-03
      0.120  0.1312E-08  0.1262E-03  0.6583E-04
      0.222  0.2457E-04  0.2738E-03  0.8607E-04
      0.323  0.1092E-09  0.1420E-05  0.9307E-04
      0.425  0.0000E+00  0.0000E+00  0.0000E+00
      0.527  0.0000E+00  0.0000E+00  0.0000E+00
      0.628  0.5004E-03  0.4338E-02  0.1351E-02
      0.730  0.0000E+00  0.0000E+00  0.0000E+00
      0.831  0.0000E+00  0.0000E+00  0.0000E+00
      0.933  0.0000E+00  0.0000E+00  0.0000E+00
      1.035  0.0000E+00  0.0000E+00  0.0000E+00
      1.136  0.0000E+00  0.0000E+00  0.0000E+00
      1.238  0.0000E+00  0.0000E+00  0.0000E+00
      1.339  0.0000E+00  0.0000E+00  0.0000E+00
      1.441  0.0000E+00  0.0000E+00  0.0000E+00
      1.543  0.0000E+00  0.0000E+00  0.0000E+00
      1.644  0.0000E+00  0.0000E+00  0.0000E+00
      1.746  0.0000E+00  0.0000E+00  0.0000E+00
      1.848  0.0000E+00  0.0000E+00  0.0000E+00
      1.949  0.0000E+00  0.0000E+00  0.0000E+00
      2.051  0.0000E+00  0.0000E+00  0.0000E+00
      2.152  0.0000E+00  0.0000E+00  0.0000E+00
      2.254  0.7626E-04  0.1757E-04  0.3671E-04
      2.356  0.1601E-03  0.2092E-03  0.3218E-03
      2.457  0.1603E-03  0.3064E-03  0.4854E-03
      2.559  0.2342E-03  0.2981E-03  0.3637E-03
      2.661  0.3750E-03  0.6320E-03  0.4455E-03
      2.762  0.1826E-03  0.1533E-03  0.2532E-02
      2.864  0.6133E-10  0.7691E-08  0.3236E-06
      2.965  0.3779E-03  0.2394E-02  0.4191E-02
      3.067  0.4678E-04  0.7343E-03  0.2342E-02
      3.169  0.6640E-03  0.2944E-02  0.2600E-02
      3.270  0.3103E-03  0.8268E-03  0.1586E-02
      3.372  0.1562E-03  0.3515E-03  0.6795E-03
      3.474  0.6702E-04  0.1090E-02  0.4249E-03
      3.575  0.8155E-04  0.2079E-03  0.3194E-03
      3.677  0.6784E-09  0.3329E-04  0.1081E-02
      3.778  0.4648E-04  0.4474E-04  0.2737E-03
      3.880  0.6428E-06  0.2305E-03  0.1038E-02
      3.982  0.3531E-15  0.1510E-15  0.2248E-14
      4.083  0.1538E-03  0.2021E-03  0.2777E-03
      4.185  0.4574E-03  0.1563E-02  0.1196E-01
      4.287  0.3396E-03  0.2861E-02  0.1208E-01
      4.388  0.7067E-03  0.7071E-02  0.1035E-01
      4.490  0.2484E-02  0.5913E-02  0.9749E-02
      4.591  0.3287E-02  0.4508E-02  0.5724E-02
      4.693  0.2086E-02  0.1908E-02  0.5025E-02
      4.795  0.1278E-02  0.2947E-02  0.4443E-02
      4.896  0.1059E-01  0.3155E-02  0.4029E-02
      4.998  0.0000E+00  0.0000E+00  0.0000E+00
      5.099  0.0000E+00  0.0000E+00  0.0000E+00
      5.201  0.0000E+00  0.0000E+00  0.0000E+00
      5.303  0.6824E-13  0.3670E-13  0.2483E-14
      5.404  0.3647E-02  0.4751E-02  0.1232E-02
      5.506  0.1472E-02  0.1249E-03  0.3476E-02
      5.608  0.1151E-01  0.1489E-02  0.6564E-02
      5.709  0.1036E-01  0.5551E-02  0.2228E-01
      5.811  0.3209E-04  0.1507E-03  0.2800E-02
      5.912  0.6995E-02  0.1229E-01  0.3405E-01
      6.014  0.5839E-02  0.3535E-02  0.3054E-01
      6.116  0.5442E-01  0.7790E-02  0.9068E-01
      6.217  0.4236E-01  0.1532E-01  0.1175E+00
      6.319  0.2927E-01  0.5039E-02  0.1680E+00
      6.421  0.3077E-01  0.1202E-01  0.4525E+00
      6.522  0.1580E-01  0.2679E-01  0.2812E+00
      6.624  0.3494E-01  0.2501E-01  0.3840E+00
      6.725  0.1743E-01  0.2578E-02  0.6215E-01
      6.827  0.0000E+00  0.0000E+00  0.0000E+00
      6.929  0.0000E+00  0.0000E+00  0.0000E+00
      7.030  0.0000E+00  0.0000E+00  0.0000E+00
      7.132  0.0000E+00  0.0000E+00  0.0000E+00
      7.234  0.0000E+00  0.0000E+00  0.0000E+00
      7.335  0.0000E+00  0.0000E+00  0.0000E+00
      7.437  0.0000E+00  0.0000E+00  0.0000E+00
      7.538  0.0000E+00  0.0000E+00  0.0000E+00
      7.640  0.0000E+00  0.0000E+00  0.0000E+00
      7.742  0.0000E+00  0.0000E+00  0.0000E+00
      7.843  0.0000E+00  0.0000E+00  0.0000E+00
      7.945  0.0000E+00  0.0000E+00  0.0000E+00
      8.047  0.0000E+00  0.0000E+00  0.0000E+00
      8.04652980    -22.44002096  301      0.75516308      1.00000000
    -22.440  0.0000E+00  0.0000E+00  0.0000E+00
    -22.338  0.0000E+00  0.0000E+00  0.0000E+00
    -22.237  0.0000E+00  0.0000E+00  0.0000E+00
    -22.135  0.0000E+00  0.0000E+00  0.0000E+00
    -22.034  0.0000E+00  0.0000E+00  0.0000E+00
    -21.932  0.0000E+00  0.0000E+00  0.0000E+00
    -21.830  0.0000E+00  0.0000E+00  0.0000E+00
    -21.729  0.0000E+00  0.0000E+00  0.0000E+00
    -21.627  0.0000E+00  0.0000E+00  0.0000E+00
    -21.525  0.0000E+00  0.0000E+00  0.0000E+00
    -21.424  0.0000E+00  0.0000E+00  0.0000E+00
    -21.322  0.0000E+00  0.0000E+00  0.0000E+00
    -21.221  0.0000E+00  0.0000E+00  0.0000E+00
    -21.119  0.0000E+00  0.0000E+00  0.0000E+00
    -21.017  0.8391E-08  0.8081E-09  0.1711E-09
    -20.916  0.1790E-11  0.3941E-12  0.1272E-13
    -20.814  0.1693E-06  0.4079E-08  0.5545E-09
    -20.712  0.6539E-04  0.1368E-06  0.2002E-07
    -20.611  0.2307E-06  0.2889E-08  0.2915E-09
    -20.509  0.0000E+00  0.0000E+00  0.0000E+00
    -20.408  0.0000E+00  0.0000E+00  0.0000E+00
    -20.306  0.1593E+02  0.1346E-03  0.1856E-04
    -20.204  0.0000E+00  0.0000E+00  0.0000E+00
    -20.103  0.0000E+00  0.0000E+00  0.0000E+00
    -20.001  0.3213E-03  0.5831E-06  0.1160E-06
    -19.899  0.0000E+00  0.0000E+00  0.0000E+00
    -19.798  0.0000E+00  0.0000E+00  0.0000E+00
    -19.696  0.0000E+00  0.0000E+00  0.0000E+00
    -19.595  0.0000E+00  0.0000E+00  0.0000E+00
    -19.493  0.0000E+00  0.0000E+00  0.0000E+00
    -19.391  0.0000E+00  0.0000E+00  0.0000E+00
    -19.290  0.0000E+00  0.0000E+00  0.0000E+00
    -19.188  0.0000E+00  0.0000E+00  0.0000E+00
    -19.087  0.0000E+00  0.0000E+00  0.0000E+00
    -18.985  0.0000E+00  0.0000E+00  0.0000E+00
    -18.883  0.0000E+00  0.0000E+00  0.0000E+00
    -18.782  0.0000E+00  0.0000E+00  0.0000E+00
    -18.680  0.0000E+00  0.0000E+00  0.0000E+00
    -18.578  0.0000E+00  0.0000E+00  0.0000E+00
    -18.477  0.0000E+00  0.0000E+00  0.0000E+00
    -18.375  0.0000E+00  0.0000E+00  0.0000E+00
    -18.274  0.0000E+00  0.0000E+00  0.0000E+00
    -18.172  0.0000E+00  0.0000E+00  0.0000E+00
    -18.070  0.0000E+00  0.0000E+00  0.0000E+00
    -17.969  0.0000E+00  0.0000E+00  0.0000E+00
    -17.867  0.0000E+00  0.0000E+00  0.0000E+00
    -17.765  0.0000E+00  0.0000E+00  0.0000E+00
    -17.664  0.0000E+00  0.0000E+00  0.0000E+00
    -17.562  0.0000E+00  0.0000E+00  0.0000E+00
    -17.461  0.0000E+00  0.0000E+00  0.0000E+00
    -17.359  0.0000E+00  0.0000E+00  0.0000E+00
    -17.257  0.0000E+00  0.0000E+00  0.0000E+00
    -17.156  0.0000E+00  0.0000E+00  0.0000E+00
    -17.054  0.0000E+00  0.0000E+00  0.0000E+00
    -16.952  0.1038E-12  0.1560E-13  0.1545E-14
    -16.851  0.4781E-04  0.1282E-04  0.1674E-05
    -16.749  0.4784E-04  0.2085E-04  0.3605E-05
    -16.648  0.1306E-04  0.4380E-05  0.5991E-06
    -16.546  0.0000E+00  0.0000E+00  0.0000E+00
    -16.444  0.4686E-04  0.1557E-04  0.2627E-05
    -16.343  0.4628E-04  0.3620E-04  0.6223E-05
    -16.241  0.1839E-04  0.8169E-05  0.1105E-05
    -16.139  0.0000E+00  0.0000E+00  0.0000E+00
    -16.038  0.0000E+00  0.0000E+00  0.0000E+00
    -15.936  0.0000E+00  0.0000E+00  0.0000E+00
    -15.835  0.0000E+00  0.0000E+00  0.0000E+00
    -15.733  0.0000E+00  0.0000E+00  0.0000E+00
    -15.631  0.0000E+00  0.0000E+00  0.0000E+00
    -15.530  0.0000E+00  0.0000E+00  0.0000E+00
    -15.428  0.0000E+00  0.0000E+00  0.0000E+00
    -15.326  0.0000E+00  0.0000E+00  0.0000E+00
    -15.225  0.0000E+00  0.0000E+00  0.0000E+00
    -15.123  0.0000E+00  0.0000E+00  0.0000E+00
    -15.022  0.0000E+00  0.0000E+00  0.0000E+00
    -14.920  0.0000E+00  0.0000E+00  0.0000E+00
    -14.818  0.0000E+00  0.0000E+00  0.0000E+00
    -14.717  0.1600E-05  0.5534E-06  0.1630E-07
    -14.615  0.1156E-03  0.1183E-03  0.9215E-05
    -14.514  0.0000E+00  0.0000E+00  0.0000E+00
    -14.412  0.9161E-14  0.5575E-15  0.9326E-16
    -14.310  0.6827E-03  0.2751E-03  0.2025E-04
    -14.209  0.2122E-02  0.8560E-03  0.4698E-04
    -14.107  0.2786E-02  0.5466E-02  0.2335E-03
    -14.005  0.2969E-02  0.4607E-02  0.4570E-03
    -13.904  0.1509E-02  0.3056E-02  0.2339E-03
    -13.802  0.8776E-03  0.2925E-02  0.3026E-03
    -13.701  0.2938E-02  0.4273E-02  0.4861E-03
    -13.599  0.0000E+00  0.0000E+00  0.0000E+00
    -13.497  0.0000E+00  0.0000E+00  0.0000E+00
    -13.396  0.0000E+00  0.0000E+00  0.0000E+00