       N       E                     dE             d eps       ncg     rms          rms(c)
DAV:   1     0.133726697660E+04    0.13373E+04   -0.11051E+05  3496   0.973E+02
DAV:   2    -0.111281393105E+04   -0.24501E+04   -0.23665E+04  4104   0.300E+02
DAV:   3    -0.147398648567E+04   -0.36117E+03   -0.35919E+03  4440   0.136E+02
DAV:   4    -0.148592720355E+04   -0.11941E+02   -0.11906E+02  3936   0.328E+01
DAV:   5    -0.148645878630E+04   -0.53158E+00   -0.53134E+00  4368   0.544E+00    0.105E+01
DAV:   6    -0.140790534718E+04    0.78553E+02   -0.24076E+01  4360   0.308E+01    0.748E+00
DAV:   7    -0.140717101315E+04    0.73433E+00   -0.94108E+00  4032   0.601E+00    0.371E+00
DAV:   8    -0.140735153232E+04   -0.18052E+00   -0.67677E-01  3984   0.232E+00    0.221E+00
DAV:   9    -0.140739203444E+04   -0.40502E-01   -0.20079E-01  3776   0.139E+00    0.428E-01
DAV:  10    -0.140739727141E+04   -0.52370E-02   -0.37462E-02  4368   0.461E-01    0.356E-01
DAV:  11    -0.140739877990E+04   -0.15085E-02   -0.40324E-03  3656   0.175E-01    0.153E-01
DAV:  12    -0.140740078780E+04   -0.20079E-02   -0.78633E-03  3560   0.212E-01    0.128E-01
DAV:  13    -0.140740026668E+04    0.52113E-03   -0.23576E-03  4472   0.124E-01    0.528E-02
DAV:  14    -0.140740024078E+04    0.25901E-04   -0.41364E-04  3888   0.395E-02    0.253E-02
DAV:  15    -0.140740020812E+04    0.32657E-04   -0.76668E-05  3616   0.239E-02    0.147E-02
DAV:  16    -0.140740026996E+04   -0.61845E-04   -0.35804E-05  4248   0.167E-02    0.700E-03
DAV:  17    -0.140740025911E+04    0.10852E-04   -0.60020E-06  3360   0.525E-03    0.344E-03
DAV:  18    -0.140740026034E+04   -0.12327E-05   -0.70242E-07  2360   0.248E-03    0.156E-03
DAV:  19    -0.140740026069E+04   -0.34662E-06   -0.36232E-07  2128   0.198E-03
   1 F= -.14074003E+04 E0= -.14074003E+04  d E =-.536349E-56
