<?xml version="1.0" encoding="ISO-8859-1"?>
<modeling>
 <generator>
  <i name="program" type="string">vasp </i>
  <i name="version" type="string">5.4.4.18Apr17-6-g9f103f2a35  </i>
  <i name="subversion" type="string">(build Jun 22 2020 09:27:21) complex            parallel </i>
  <i name="platform" type="string">tx2_gcc-7.3_libsci-18.07_cray-fftw-3.3.8 </i>
  <i name="date" type="string">2021 10 12 </i>
  <i name="time" type="string">05:36:29 </i>
 </generator>
 <incar>
  <i type="string" name="SYSTEM"> CsPbBr3 cubic bulk</i>
  <i type="string" name="PREC">accurate</i>
  <i type="string" name="ALGO"> NORMAL   ! Electronic minimisation algo</i>
  <i type="logical" name="ADDGRID"> T  </i>
  <i type="int" name="ISPIN">     1</i>
  <i type="int" name="NELM">   200</i>
  <i type="int" name="IBRION">     2</i>
  <i name="EDIFF">      0.00000100</i>
  <i name="EDIFFG">     -0.01000000</i>
  <i type="int" name="NSW">     0</i>
  <i type="int" name="ISIF">     2</i>
  <i type="int" name="ISYM">     0</i>
  <i name="ENCUT">    300.00000000</i>
  <i name="POTIM">      0.50000000</i>
  <i name="NUPDOWN">      0.00000000</i>
  <i name="NELECT">    344.00000000</i>
  <i type="string" name="LREAL"> AUTO</i>
  <i type="int" name="ISMEAR">     0</i>
  <i name="SIGMA">      0.01000000</i>
  <i type="logical" name="LWAVE"> F  </i>
  <i type="logical" name="LCHARG"> F  </i>
  <i type="logical" name="LVHAR"> T  </i>
  <i type="int" name="LORBIT">    10</i>
  <i type="logical" name="LASPH"> T  </i>
  <v type="int" name="KPOINT_BSE">    -1     0     0     0</v>
  <i type="int" name="NELM">   200</i>
  <i type="string" name="METAGGA"> SCAN       ! PBE exchange-correlation</i>
  <i type="logical" name="LASPH"> T  </i>
 </incar>
 <structure name="primitive_cell" >
  <crystal>
   <varray name="basis" >
    <v>       8.45648900       0.00000000       8.04030100 </v>
    <v>       0.00000000      11.72984700       0.00000000 </v>
    <v>      -8.45648900       0.00000000       8.04030100 </v>
   </varray>
   <i name="volume">   1595.08833419 </i>
   <varray name="rec_basis" >
    <v>       0.05912619      -0.00000000       0.06218673 </v>
    <v>       0.00000000       0.08525260      -0.00000000 </v>
    <v>      -0.05912619       0.00000000       0.06218673 </v>
   </varray>
  </crystal>
  <varray name="positions" >
   <v>       0.27300300       0.24988200       0.20148600 </v>
   <v>       0.05164000       0.46360100       0.25373700 </v>
   <v>       0.05108600       0.03638200       0.25380400 </v>
   <v>      -0.46750200       0.25003900       0.03111600 </v>
   <v>       0.46715700       0.25000200       0.47053200 </v>
   <v>       0.24797600       0.46737100      -0.05216100 </v>
   <v>       0.24795900       0.03270400      -0.05244200 </v>
   <v>       0.45255300      -0.03208500       0.24836200 </v>
   <v>       0.45270800      -0.46789400       0.24845400 </v>
   <v>      -0.02510000       0.25009400      -0.02524900 </v>
   <v>       0.49918500       0.00079800      -0.00078100 </v>
   <v>       0.49917200       0.49926900      -0.00062700 </v>
   <v>       0.00066500      -0.00018500      -0.00015700 </v>
   <v>       0.00070200      -0.49966100      -0.00014200 </v>
   <v>       0.01766900       0.24997700      -0.45895800 </v>
   <v>       0.49190000      -0.00247600      -0.49895100 </v>
   <v>       0.49194300      -0.49742400      -0.49874900 </v>
   <v>       0.25043600      -0.04178000      -0.44775900 </v>
   <v>       0.25047900      -0.45837200      -0.44782200 </v>
   <v>       0.28973500       0.25007600      -0.27131800 </v>
   <v>      -0.20614700       0.25016100       0.22213300 </v>
   <v>       0.00475000      -0.00175900      -0.49992000 </v>
   <v>       0.00486100      -0.49819900      -0.49999800 </v>
   <v>       0.22808800      -0.25002300       0.28141600 </v>
   <v>      -0.25247900       0.25009200       0.44988500 </v>
   <v>      -0.24703600      -0.02488800       0.05004700 </v>
   <v>      -0.24700200      -0.47502800       0.05003800 </v>
   <v>       0.02663400      -0.24991200       0.03313400 </v>
   <v>      -0.45091800       0.46905600      -0.25042000 </v>
   <v>      -0.45072600       0.03097100      -0.25046500 </v>
   <v>       0.47239300      -0.24997000      -0.02959200 </v>
   <v>      -0.05194800      -0.03476400      -0.25403500 </v>
   <v>      -0.05176100      -0.46514800      -0.25422100 </v>
   <v>      -0.03570200      -0.25009000       0.45373000 </v>
   <v>      -0.44769700      -0.25002700      -0.47592300 </v>
   <v>       0.20774800      -0.25002600      -0.21670300 </v>
   <v>      -0.29391800      -0.24997200       0.25572700 </v>
   <v>      -0.22905100       0.25026900      -0.26592300 </v>
   <v>      -0.27122900      -0.24999600      -0.20157300 </v>
  </varray>
 </structure>
 <varray name="primitive_index" >
  <v type="int" >        1 </v>
  <v type="int" >       38 </v>
  <v type="int" >       29 </v>
  <v type="int" >       23 </v>
  <v type="int" >       20 </v>
  <v type="int" >       25 </v>
  <v type="int" >       32 </v>
  <v type="int" >       33 </v>
  <v type="int" >       26 </v>
  <v type="int" >       19 </v>
  <v type="int" >       11 </v>
  <v type="int" >       13 </v>
  <v type="int" >        9 </v>
  <v type="int" >       15 </v>
  <v type="int" >       24 </v>
  <v type="int" >       10 </v>
  <v type="int" >       16 </v>
  <v type="int" >       31 </v>
  <v type="int" >       36 </v>
  <v type="int" >        5 </v>
  <v type="int" >        6 </v>
  <v type="int" >       12 </v>
  <v type="int" >       14 </v>
  <v type="int" >        8 </v>
  <v type="int" >       39 </v>
  <v type="int" >       30 </v>
  <v type="int" >       35 </v>
  <v type="int" >       21 </v>
  <v type="int" >       37 </v>
  <v type="int" >       28 </v>
  <v type="int" >       17 </v>
  <v type="int" >       34 </v>
  <v type="int" >       27 </v>
  <v type="int" >       18 </v>
  <v type="int" >       22 </v>
  <v type="int" >        4 </v>
  <v type="int" >        3 </v>
  <v type="int" >        2 </v>
  <v type="int" >        7 </v>
 </varray>
 <kpoints>
  <generation param="Gamma">
   <v type="int" name="divisions">       2        2        2 </v>
   <v name="usershift">      0.00000000       0.00000000       0.00000000 </v>
   <v name="genvec1">      0.50000000       0.00000000       0.00000000 </v>
   <v name="genvec2">      0.00000000       0.50000000       0.00000000 </v>
   <v name="genvec3">      0.00000000       0.00000000       0.50000000 </v>
   <v name="shift">      0.00000000       0.00000000       0.00000000 </v>
  </generation>
  <varray name="kpointlist" >
   <v>       0.00000000       0.00000000       0.00000000 </v>
   <v>       0.50000000       0.00000000       0.00000000 </v>
   <v>       0.00000000       0.50000000       0.00000000 </v>
   <v>       0.50000000       0.50000000       0.00000000 </v>
   <v>       0.00000000       0.00000000       0.50000000 </v>
   <v>       0.50000000       0.00000000       0.50000000 </v>
   <v>       0.00000000       0.50000000       0.50000000 </v>
   <v>       0.50000000       0.50000000       0.50000000 </v>
  </varray>
  <varray name="weights" >
   <v>       0.12500000 </v>
   <v>       0.12500000 </v>
   <v>       0.12500000 </v>
   <v>       0.12500000 </v>
   <v>       0.12500000 </v>
   <v>       0.12500000 </v>
   <v>       0.12500000 </v>
   <v>       0.12500000 </v>
  </varray>
 </kpoints>
 <parameters>
  <separator name="general" >
   <i type="string" name="SYSTEM">CsPbBr3 cubic bulk</i>
   <i type="logical" name="LCOMPAT"> F  </i>
  </separator>
  <separator name="electronic" >
   <i type="string" name="PREC">accura</i>
   <i name="ENMAX">    300.00000000</i>
   <i name="ENAUG">    503.85200000</i>
   <i name="EDIFF">      0.00000100</i>
   <i type="int" name="IALGO">    38</i>
   <i type="int" name="IWAVPR">    10</i>
   <i type="int" name="NBANDS">   208</i>
   <i name="NELECT">    344.00000000</i>
   <i type="int" name="TURBO">     0</i>
   <i type="int" name="IRESTART">     0</i>
   <i type="int" name="NREBOOT">     0</i>
   <i type="int" name="NMIN">     0</i>
   <i name="EREF">      0.00000000</i>
   <separator name="electronic smearing" >
    <i type="int" name="ISMEAR">     0</i>
    <i name="SIGMA">      0.01000000</i>
    <i name="KSPACING">      0.50000000</i>
    <i type="logical" name="KGAMMA"> T  </i>
   </separator>
   <separator name="electronic projectors" >
    <i type="logical" name="LREAL"> T  </i>
    <v name="ROPT">     -0.00025000     -0.00025000     -0.00025000</v>
    <i type="int" name="LMAXPAW">  -100</i>
    <i type="int" name="LMAXMIX">     2</i>
    <i type="logical" name="NLSPLINE"> F  </i>
   </separator>
   <separator name="electronic startup" >
    <i type="int" name="ISTART">     0</i>
    <i type="int" name="ICHARG">     2</i>
    <i type="int" name="INIWAV">     1</i>
   </separator>
   <separator name="electronic spin" >
    <i type="int" name="ISPIN">     1</i>
    <i type="logical" name="LNONCOLLINEAR"> F  </i>
    <v name="MAGMOM">      0.00000000      0.00000000      0.00000000      0.00000000      0.00000000      0.00000000      0.00000000      0.00000000      0.00000000      0.00000000      0.00000000      0.00000000      0.00000000      0.00000000      0.00000000      0.00000000      0.00000000      0.00000000      0.00000000      0.00000000
      0.00000000      0.00000000      0.00000000      0.00000000      0.00000000      0.00000000      0.00000000      0.00000000      0.00000000      0.00000000      0.00000000      0.00000000      0.00000000      0.00000000      0.00000000      0.00000000      0.00000000      0.00000000      0.00000000</v>
    <i name="NUPDOWN">      0.00000000</i>
    <i type="logical" name="LSORBIT"> F  </i>
    <v name="SAXIS">      0.00000000      0.00000000      1.00000000</v>
    <i type="logical" name="LSPIRAL"> F  </i>
    <v name="QSPIRAL">      0.00000000      0.00000000      0.00000000</v>
    <i type="logical" name="LZEROZ"> F  </i>
   </separator>
   <separator name="electronic exchange-correlation" >
    <i type="logical" name="LASPH"> T  </i>
    <i type="logical" name="LMETAGGA"> F  </i>
   </separator>
   <separator name="electronic convergence" >
    <i type="int" name="NELM">   200</i>
    <i type="int" name="NELMDL">    -5</i>
    <i type="int" name="NELMIN">     2</i>
    <i name="ENINI">    300.00000000</i>
    <separator name="electronic convergence detail" >
     <i type="logical" name="LDIAG"> T  </i>
     <i type="logical" name="LSUBROT"> F  </i>
     <i name="WEIMIN">      0.00000000</i>
     <i name="EBREAK">      0.00000000</i>
     <i name="DEPER">      0.30000000</i>
     <i type="int" name="NRMM">     4</i>
     <i name="TIME">      0.40000000</i>
    </separator>
   </separator>
   <separator name="electronic mixer" >
    <i name="AMIX">      0.40000000</i>
    <i name="BMIX">      1.00000000</i>
    <i name="AMIN">      0.10000000</i>
    <i name="AMIX_MAG">      1.60000000</i>
    <i name="BMIX_MAG">      1.00000000</i>
    <separator name="electronic mixer details" >
     <i type="int" name="IMIX">     4</i>
     <i type="logical" name="MIXFIRST"> F  </i>
     <i type="int" name="MAXMIX">   -45</i>
     <i name="WC">    100.00000000</i>
     <i type="int" name="INIMIX">     1</i>
     <i type="int" name="MIXPRE">     1</i>
     <i type="int" name="MREMOVE">     5</i>
    </separator>
   </separator>
   <separator name="electronic dipolcorrection" >
    <i type="logical" name="LDIPOL"> F  </i>
    <i type="logical" name="LMONO"> F  </i>
    <i type="int" name="IDIPOL">     0</i>
    <i name="EPSILON">      1.00000000</i>
    <v name="DIPOL">   -100.00000000   -100.00000000   -100.00000000</v>
    <i name="EFIELD">      0.00000000</i>
   </separator>
  </separator>
  <separator name="grids" >
   <i type="int" name="NGX">    70</i>
   <i type="int" name="NGY">    70</i>
   <i type="int" name="NGZ">    70</i>
   <i type="int" name="NGXF">   140</i>
   <i type="int" name="NGYF">   140</i>
   <i type="int" name="NGZF">   140</i>
   <i type="logical" name="ADDGRID"> T  </i>
  </separator>
  <separator name="ionic" >
   <i type="int" name="NSW">     0</i>
   <i type="int" name="IBRION">    -1</i>
   <i type="int" name="MDALGO">     0</i>
   <i type="int" name="ISIF">     2</i>
   <i name="PSTRESS">      0.00000000</i>
   <i name="EDIFFG">     -0.01000000</i>
   <i type="int" name="NFREE">     1</i>
   <i name="POTIM">      0.50000000</i>
   <i name="SMASS">     -3.00000000</i>
   <i name="SCALEE">      1.00000000</i>
  </separator>
  <separator name="ionic md" >
   <i name="TEBEG">      0.00010000</i>
   <i name="TEEND">      0.00010000</i>
   <i type="int" name="NBLOCK">     1</i>
   <i type="int" name="KBLOCK">     1</i>
   <i type="int" name="NPACO">   256</i>
   <i name="APACO">     16.00000000</i>
  </separator>
  <separator name="symmetry" >
   <i type="int" name="ISYM">     0</i>
   <i name="SYMPREC">      0.00001000</i>
  </separator>
  <separator name="dos" >
   <i type="int" name="LORBIT">    10</i>
   <v name="RWIGS">     -1.00000000     -1.00000000     -1.00000000</v>
   <i type="int" name="NEDOS">   301</i>
   <i name="EMIN">     10.00000000</i>
   <i name="EMAX">    -10.00000000</i>
   <i name="EFERMI">      0.00000000</i>
  </separator>
  <separator name="writing" >
   <i type="int" name="NWRITE">     2</i>
   <i type="logical" name="LWAVE"> F  </i>
   <i type="logical" name="LDOWNSAMPLE"> F  </i>
   <i type="logical" name="LCHARG"> F  </i>
   <i type="logical" name="LPARD"> F  </i>
   <i type="logical" name="LVTOT"> F  </i>
   <i type="logical" name="LVHAR"> T  </i>
   <i type="logical" name="LELF"> F  </i>
   <i type="logical" name="LOPTICS"> F  </i>
   <v name="STM">      0.00000000      0.00000000      0.00000000      0.00000000      0.00000000      0.00000000      0.00000000</v>
  </separator>
  <separator name="performance" >
   <i type="int" name="NPAR">     8</i>
   <i type="int" name="NSIM">     4</i>
   <i type="int" name="NBLK">    -1</i>
   <i type="logical" name="LPLANE"> T  </i>
   <i type="logical" name="LSCALAPACK"> T  </i>
   <i type="logical" name="LSCAAWARE"> F  </i>
   <i type="logical" name="LSCALU"> F  </i>
   <i type="logical" name="LASYNC"> F  </i>
   <i type="logical" name="LORBITALREAL"> F  </i>
  </separator>
  <separator name="miscellaneous" >
   <i type="int" name="IDIOT">     3</i>
   <i type="int" name="ISPECIAL">     0</i>
   <i type="logical" name="LMUSIC"> F  </i>
   <v name="POMASS">    132.90000000    207.20000000     79.90400000</v>
   <v name="DARWINR">      0.00000000      0.00000000      0.00000000</v>
   <v name="DARWINV">      1.00000000      1.00000000      1.00000000</v>
   <i type="logical" name="LCORR"> T  </i>
  </separator>
  <i type="logical" name="GGA_COMPAT"> T  </i>
  <i type="logical" name="LBERRY"> F  </i>
  <i type="int" name="ICORELEVEL">     0</i>
  <i type="logical" name="LDAU"> F  </i>
  <i type="int" name="I_CONSTRAINED_M">     0</i>
  <separator name="electronic exchange-correlation" >
   <i type="string" name="GGA">--</i>
   <i type="int" name="VOSKOWN">     0</i>
   <i type="logical" name="LHFCALC"> F  </i>
   <i type="string" name="PRECFOCK"></i>
   <i type="logical" name="LSYMGRAD"> F  </i>
   <i type="logical" name="LHFONE"> F  </i>
   <i type="logical" name="LRHFCALC"> F  </i>
   <i type="logical" name="LTHOMAS"> F  </i>
   <i type="logical" name="LMODELHF"> F  </i>
   <i name="ENCUT4O">     -1.00000000</i>
   <i type="int" name="EXXOEP">     0</i>
   <i type="int" name="FOURORBIT">     0</i>
   <i name="AEXX">      0.00000000</i>
   <i name="HFALPHA">      0.00000000</i>
   <i name="MCALPHA">      0.00000000</i>
   <i name="ALDAX">      1.00000000</i>
   <i name="AGGAX">      1.00000000</i>
   <i name="ALDAC">      1.00000000</i>
   <i name="AGGAC">      1.00000000</i>
   <i type="int" name="NKREDX">     1</i>
   <i type="int" name="NKREDY">     1</i>
   <i type="int" name="NKREDZ">     1</i>
   <i type="logical" name="SHIFTRED"> F  </i>
   <i type="logical" name="ODDONLY"> F  </i>
   <i type="logical" name="EVENONLY"> F  </i>
   <i type="int" name="LMAXFOCK">     0</i>
   <i type="int" name="NMAXFOCKAE">     0</i>
   <i type="logical" name="LFOCKAEDFT"> F  </i>
   <i name="HFSCREEN">      0.00000000</i>
   <i name="HFSCREENC">      0.00000000</i>
   <i type="int" name="NBANDSGWLOW">     0</i>
  </separator>
  <separator name="vdW DFT" >
   <i type="logical" name="LUSE_VDW"> F  </i>
   <i name="Zab_VDW">     -0.84910000</i>
   <i name="PARAM1">      0.12340000</i>
   <i name="PARAM2">      1.00000000</i>
   <i name="PARAM3">      0.00000000</i>
  </separator>
  <separator name="model GW" >
   <i type="int" name="MODEL_GW">     0</i>
   <i name="MODEL_EPS0">     24.53982053</i>
   <i name="MODEL_ALPHA">      1.00000000</i>
  </separator>
  <separator name="linear response parameters" >
   <i type="logical" name="LEPSILON"> F  </i>
   <i type="logical" name="LRPA"> F  </i>
   <i type="logical" name="LNABLA"> F  </i>
   <i type="logical" name="LVEL"> F  </i>
   <i type="int" name="KINTER">     0</i>
   <i name="CSHIFT">      0.10000000</i>
   <i name="OMEGAMAX">     -1.00000000</i>
   <i name="DEG_THRESHOLD">      0.00200000</i>
   <i name="RTIME">     -0.10000000</i>
   <i name="WPLASMAI">      0.00000000</i>
   <v name="DFIELD">      0.00000000      0.00000000      0.00000000</v>
   <v name="WPLASMA">      0.00000000      0.00000000      0.00000000      0.00000000      0.00000000      0.00000000      0.00000000      0.00000000      0.00000000</v>
  </separator>
  <separator name="orbital magnetization" >
   <i type="logical" name="NUCIND"> F  </i>
   <v name="MAGPOS">      0.00000000      0.00000000      0.00000000</v>
   <i type="logical" name="LNICSALL"> T  </i>
   <i type="logical" name="ORBITALMAG"> F  </i>
   <i type="logical" name="LMAGBLOCH"> F  </i>
   <i type="logical" name="LCHIMAG"> F  </i>
   <i type="logical" name="LGAUGE"> T  </i>
   <i type="int" name="MAGATOM">     0</i>
   <v name="MAGDIPOL">      0.00000000      0.00000000      0.00000000</v>
   <v name="AVECCONST">      0.00000000      0.00000000      0.00000000</v>
  </separator>
  <separator name="response functions" >
   <i type="logical" name="LADDER"> F  </i>
   <i type="logical" name="LRPAFORCE"> F  </i>
   <i type="logical" name="LFXC"> F  </i>
   <i type="logical" name="LHARTREE"> T  </i>
   <i type="int" name="IBSE">     0</i>
   <v type="int" name="KPOINT">    -1     0     0     0</v>
   <i type="logical" name="LTCTE"> F  </i>
   <i type="logical" name="LTETE"> F  </i>
   <i type="logical" name="LTRIPLET"> F  </i>
   <i type="logical" name="LFXCEPS"> F  </i>
   <i type="logical" name="LFXHEG"> F  </i>
   <i type="int" name="NATURALO">     2</i>
   <i type="logical" name="L2ORDER"> F  </i>
   <i type="logical" name="LMP2LT"> F  </i>
   <i type="logical" name="LUSEW"> F  </i>
   <i name="ENCUTGW">     -2.00000000</i>
   <i name="ENCUTGWSOFT">     -2.00000000</i>
   <i name="ENCUTLF">     -1.00000000</i>
   <i type="int" name="LMAXMP2">    -1</i>
   <i name="SCISSOR">      0.00000000</i>
   <i type="int" name="NOMEGA">     0</i>
   <i type="int" name="NOMEGAR">     0</i>
   <i type="int" name="NBANDSGW">    -1</i>
   <i type="int" name="NBANDSO">    -1</i>
   <i type="int" name="NBANDSV">    -1</i>
   <i type="int" name="NELM">   200</i>
   <i type="int" name="NELMHF">     1</i>
   <i type="int" name="DIM">     3</i>
   <i type="int" name="ANTIRES">     0</i>
   <i name="OMEGAMAX">    -30.00000000</i>
   <i name="OMEGAMIN">    -30.00000000</i>
   <i name="OMEGATL">   -200.00000000</i>
   <i type="int" name="OMEGAGRID">   140</i>
   <i name="CSHIFT">     -0.10000000</i>
   <i type="logical" name="SELFENERGY"> F  </i>
   <i type="logical" name="LSPECTRAL"> F  </i>
   <i type="logical" name="LSPECTRALGW"> F  </i>
   <i type="logical" name="LSINGLES"> F  </i>
   <i type="logical" name="LFERMIGW"> F  </i>
   <i type="logical" name="ODDONLYGW"> F  </i>
   <i type="logical" name="EVENONLYGW"> F  </i>
   <i type="int" name="NKREDLFX">     1</i>
   <i type="int" name="NKREDLFY">     1</i>
   <i type="int" name="NKREDLFZ">     1</i>
   <i type="int" name="MAXMEM">  2800</i>
   <i type="int" name="TELESCOPE">     0</i>
   <i type="int" name="TAUPAR">     1</i>
   <i type="int" name="OMEGAPAR">    -1</i>
   <i name="LAMBDA">      1.00000000</i>
  </separator>
  <separator name="External order field" >
   <i name="OFIELD_KAPPA">      0.00000000</i>
   <v name="OFIELD_K">      0.00000000      0.00000000      0.00000000</v>
   <i name="OFIELD_Q6_NEAR">      0.00000000</i>
   <i name="OFIELD_Q6_FAR">      0.00000000</i>
   <i name="OFIELD_A">      0.00000000</i>
  </separator>
 </parameters>
 <atominfo>
  <atoms>      39 </atoms>
  <types>       3 </types>
  <array name="atoms" >
   <dimension dim="1">ion</dimension>
   <field type="string">element</field>
   <field type="int">atomtype</field>
   <set>
    <rc><c>Cs</c><c>   1</c></rc>
    <rc><c>Cs</c><c>   1</c></rc>
    <rc><c>Cs</c><c>   1</c></rc>
    <rc><c>Cs</c><c>   1</c></rc>
    <rc><c>Cs</c><c>   1</c></rc>
    <rc><c>Cs</c><c>   1</c></rc>
    <rc><c>Cs</c><c>   1</c></rc>
    <rc><c>Cs</c><c>   1</c></rc>
    <rc><c>Pb</c><c>   2</c></rc>
    <rc><c>Pb</c><c>   2</c></rc>
    <rc><c>Pb</c><c>   2</c></rc>
    <rc><c>Pb</c><c>   2</c></rc>
    <rc><c>Pb</c><c>   2</c></rc>
    <rc><c>Pb</c><c>   2</c></rc>
    <rc><c>Pb</c><c>   2</c></rc>
    <rc><c>Pb</c><c>   2</c></rc>
    <rc><c>Br</c><c>   3</c></rc>
    <rc><c>Br</c><c>   3</c></rc>
    <rc><c>Br</c><c>   3</c></rc>
    <rc><c>Br</c><c>   3</c></rc>
    <rc><c>Br</c><c>   3</c></rc>
    <rc><c>Br</c><c>   3</c></rc>
    <rc><c>Br</c><c>   3</c></rc>
    <rc><c>Br</c><c>   3</c></rc>
    <rc><c>Br</c><c>   3</c></rc>
    <rc><c>Br</c><c>   3</c></rc>
    <rc><c>Br</c><c>   3</c></rc>
    <rc><c>Br</c><c>   3</c></rc>
    <rc><c>Br</c><c>   3</c></rc>
    <rc><c>Br</c><c>   3</c></rc>
    <rc><c>Br</c><c>   3</c></rc>
    <rc><c>Br</c><c>   3</c></rc>
    <rc><c>Br</c><c>   3</c></rc>
    <rc><c>Br</c><c>   3</c></rc>
    <rc><c>Br</c><c>   3</c></rc>
    <rc><c>Br</c><c>   3</c></rc>
    <rc><c>Br</c><c>   3</c></rc>
    <rc><c>Br</c><c>   3</c></rc>
    <rc><c>Br</c><c>   3</c></rc>
   </set>
  </array>
  <array name="atomtypes" >
   <dimension dim="1">type</dimension>
   <field type="int">atomspertype</field>
   <field type="string">element</field>
   <field>mass</field>
   <field>valence</field>
   <field type="string">pseudopotential</field>
   <set>
    <rc><c>   8</c><c>Cs</c><c>    132.90000000</c><c>      9.00000000</c><c>  PAW_PBE Cs_sv 08Apr2002               </c></rc>
    <rc><c>   8</c><c>Pb</c><c>    207.20000000</c><c>     14.00000000</c><c>  PAW_PBE Pb_d 06Sep2000                </c></rc>
    <rc><c>  23</c><c>Br</c><c>     79.90400000</c><c>      7.00000000</c><c>  PAW_PBE Br 06Sep2000                  </c></rc>
   </set>
  </array>
 </atominfo>
 <structure name="initialpos" >
  <crystal>
   <varray name="basis" >
    <v>       8.45648900       0.00000000       8.04030100 </v>
    <v>       0.00000000      11.72984700       0.00000000 </v>
    <v>      -8.45648900       0.00000000       8.04030100 </v>
   </varray>
   <i name="volume">   1595.08833419 </i>
   <varray name="rec_basis" >
    <v>       0.05912619      -0.00000000       0.06218673 </v>
    <v>       0.00000000       0.08525260      -0.00000000 </v>
    <v>      -0.05912619       0.00000000       0.06218673 </v>
   </varray>
  </crystal>
  <varray name="positions" >
   <v>       0.27300300       0.24988200       0.20148600 </v>
   <v>       0.77094900       0.25026900       0.73407700 </v>
   <v>       0.70608200       0.75002800       0.25572700 </v>
   <v>       0.20774800       0.74997400       0.78329700 </v>
   <v>       0.28973500       0.25007600       0.72868200 </v>
   <v>       0.79385300       0.25016100       0.22213300 </v>
   <v>       0.72877100       0.75000400       0.79842700 </v>
   <v>       0.22808800       0.74997700       0.28141600 </v>
   <v>       0.00066500       0.99981500       0.99984300 </v>
   <v>       0.49190000       0.99752400       0.50104900 </v>
   <v>       0.49918500       0.00079800       0.99921900 </v>
   <v>       0.00475000       0.99824100       0.50008000 </v>
   <v>       0.49917200       0.49926900       0.99937300 </v>
   <v>       0.00486100       0.50180100       0.50000200 </v>
   <v>       0.00070200       0.50033900       0.99985800 </v>
   <v>       0.49194300       0.50257600       0.50125100 </v>
   <v>       0.47239300       0.75003000       0.97040800 </v>
   <v>       0.96429800       0.74991000       0.45373000 </v>
   <v>       0.97490000       0.25009400       0.97475100 </v>
   <v>       0.46715700       0.25000200       0.47053200 </v>
   <v>       0.02663400       0.75008800       0.03313400 </v>
   <v>       0.55230300       0.74997300       0.52407700 </v>
   <v>       0.53249800       0.25003900       0.03111600 </v>
   <v>       0.01766900       0.24997700       0.54104200 </v>
   <v>       0.24797600       0.46737100       0.94783900 </v>
   <v>       0.45270800       0.53210600       0.24845400 </v>
   <v>       0.94823900       0.53485200       0.74577900 </v>
   <v>       0.54927400       0.03097100       0.74953500 </v>
   <v>       0.05108600       0.03638200       0.25380400 </v>
   <v>       0.75296400       0.97511200       0.05004700 </v>
   <v>       0.25043600       0.95822000       0.55224100 </v>
   <v>       0.24795900       0.03270400       0.94755800 </v>
   <v>       0.45255300       0.96791500       0.24836200 </v>
   <v>       0.94805200       0.96523600       0.74596500 </v>
   <v>       0.75299800       0.52497200       0.05003800 </v>
   <v>       0.25047900       0.54162800       0.55217800 </v>
   <v>       0.54908200       0.46905600       0.74958000 </v>
   <v>       0.05164000       0.46360100       0.25373700 </v>
   <v>       0.74752100       0.25009200       0.44988500 </v>
  </varray>
 </structure>
 <calculation>
  <scstep>
   <time name="dav">   16.64   16.64</time>
   <time name="total">   18.10   18.12</time>
   <energy>
    <i name="alphaZ">    872.70583573 </i>
    <i name="ewald"> -17972.27803765 </i>
    <i name="hartreedc">  -7382.85800156 </i>
    <i name="XCdc">    908.13567815 </i>
    <i name="pawpsdc">  21345.28103884 </i>
    <i name="pawaedc"> -22405.85761495 </i>
    <i name="eentropy">     -0.00171559 </i>
    <i name="bandstr">   -239.97882205 </i>
    <i name="atom">  26212.11861568 </i>
    <i name="e_fr_energy">   1337.26697660 </i>
    <i name="e_wo_entrp">   1337.26869219 </i>
    <i name="e_0_energy">   1337.26783439 </i>
   </energy>
  </scstep>
  <scstep>
   <time name="dav">   18.41   18.49</time>
   <time name="total">   18.41   18.49</time>
   <energy>
    <i name="e_fr_energy">  -1112.81393105 </i>
    <i name="e_wo_entrp">  -1112.81393105 </i>
    <i name="e_0_energy">  -1112.81393105 </i>
   </energy>
  </scstep>
  <scstep>
   <time name="dav">   19.36   19.40</time>
   <time name="total">   19.36   19.40</time>
   <energy>
    <i name="e_fr_energy">  -1473.98648567 </i>
    <i name="e_wo_entrp">  -1473.98648567 </i>
    <i name="e_0_energy">  -1473.98648567 </i>
   </energy>
  </scstep>
  <scstep>
   <time name="dav">   17.94   17.95</time>
   <time name="total">   17.94   17.95</time>
   <energy>
    <i name="e_fr_energy">  -1485.92720355 </i>
    <i name="e_wo_entrp">  -1485.92720355 </i>
    <i name="e_0_energy">  -1485.92720355 </i>
   </energy>
  </scstep>
  <scstep>
   <time name="dav">   19.13   19.18</time>
   <time name="total">   21.83   21.88</time>
   <energy>
    <i name="e_fr_energy">  -1486.45878630 </i>
    <i name="e_wo_entrp">  -1486.45878630 </i>
    <i name="e_0_energy">  -1486.45878630 </i>
   </energy>
  </scstep>
  <scstep>
   <time name="dav">   19.18   19.18</time>
   <time name="total">   23.37   23.40</time>
   <energy>
    <i name="e_fr_energy">  -1407.90534718 </i>
    <i name="e_wo_entrp">  -1407.90534718 </i>
    <i name="e_0_energy">  -1407.90534718 </i>
   </energy>
  </scstep>
  <scstep>
   <time name="dav">   18.20   18.21</time>
   <time name="total">   22.39   22.41</time>
   <energy>
    <i name="e_fr_energy">  -1407.17101315 </i>
    <i name="e_wo_entrp">  -1407.17101315 </i>
    <i name="e_0_energy">  -1407.17101315 </i>
   </energy>
  </scstep>
  <scstep>
   <time name="dav">   18.07   18.07</time>
   <time name="total">   22.21   22.27</time>
   <energy>
    <i name="e_fr_energy">  -1407.35153232 </i>
    <i name="e_wo_entrp">  -1407.35153232 </i>
    <i name="e_0_energy">  -1407.35153232 </i>
   </energy>
  </scstep>
  <scstep>
   <time name="dav">   17.47   17.47</time>
   <time name="total">   21.64   21.67</time>
   <energy>
    <i name="e_fr_energy">  -1407.39203444 </i>
    <i name="e_wo_entrp">  -1407.39203444 </i>
    <i name="e_0_energy">  -1407.39203444 </i>
   </energy>
  </scstep>
  <scstep>
   <time name="dav">   19.18   19.18</time>
   <time name="total">   23.31   23.37</time>
   <energy>
    <i name="e_fr_energy">  -1407.39727141 </i>
    <i name="e_wo_entrp">  -1407.39727141 </i>
    <i name="e_0_energy">  -1407.39727141 </i>
   </energy>
  </scstep>
  <scstep>
   <time name="dav">   17.15   17.15</time>
   <time name="total">   21.33   21.35</time>
   <energy>
    <i name="e_fr_energy">  -1407.39877990 </i>
    <i name="e_wo_entrp">  -1407.39877990 </i>
    <i name="e_0_energy">  -1407.39877990 </i>
   </energy>
  </scstep>
  <scstep>
   <time name="dav">   16.89   16.89</time>
   <time name="total">   21.06   21.06</time>
   <energy>
    <i name="e_fr_energy">  -1407.40078780 </i>
    <i name="e_wo_entrp">  -1407.40078780 </i>
    <i name="e_0_energy">  -1407.40078780 </i>
   </energy>
  </scstep>
  <scstep>
   <time name="dav">   19.54   19.54</time>
   <time name="total">   23.71   23.75</time>
   <energy>
    <i name="e_fr_energy">  -1407.40026668 </i>
    <i name="e_wo_entrp">  -1407.40026668 </i>
    <i name="e_0_energy">  -1407.40026668 </i>
   </energy>
  </scstep>
  <scstep>
   <time name="dav">   17.83   17.83</time>
   <time name="total">   21.97   22.03</time>
   <energy>
    <i name="e_fr_energy">  -1407.40024078 </i>
    <i name="e_wo_entrp">  -1407.40024078 </i>
    <i name="e_0_energy">  -1407.40024078 </i>
   </energy>
  </scstep>
  <scstep>
   <time name="dav">   17.04   17.04</time>
   <time name="total">   21.19   21.23</time>
   <energy>
    <i name="e_fr_energy">  -1407.40020812 </i>
    <i name="e_wo_entrp">  -1407.40020812 </i>
    <i name="e_0_energy">  -1407.40020812 </i>
   </energy>
  </scstep>
  <scstep>
   <time name="dav">   18.87   18.88</time>
   <time name="total">   23.05   23.08</time>
   <energy>
    <i name="e_fr_energy">  -1407.40026996 </i>
    <i name="e_wo_entrp">  -1407.40026996 </i>
    <i name="e_0_energy">  -1407.40026996 </i>
   </energy>
  </scstep>
  <scstep>
   <time name="dav">   16.33   16.33</time>
   <time name="total">   20.48   20.53</time>
   <energy>
    <i name="e_fr_energy">  -1407.40025911 </i>
    <i name="e_wo_entrp">  -1407.40025911 </i>
    <i name="e_0_energy">  -1407.40025911 </i>
   </energy>
  </scstep>
  <scstep>
   <time name="dav">   13.51   13.51</time>
   <time name="total">   17.70   17.70</time>
   <energy>
    <i name="e_fr_energy">  -1407.40026034 </i>
    <i name="e_wo_entrp">  -1407.40026034 </i>
    <i name="e_0_energy">  -1407.40026034 </i>
   </energy>
  </scstep>
  <scstep>
   <time name="dav">   12.84   12.84</time>
   <time name="total">   14.29   14.34</time>
   <energy>
    <i name="alphaZ">    872.70583573 </i>
    <i name="ewald"> -17972.27803765 </i>
    <i name="hartreedc">  -7412.96703460 </i>
    <i name="XCdc">    943.59902717 </i>
    <i name="pawpsdc">  22753.05950644 </i>
    <i name="pawaedc"> -23810.50420724 </i>
    <i name="eentropy">     -0.00000000 </i>
    <i name="bandstr">  -2993.13396621 </i>
    <i name="atom">  26212.11861568 </i>
    <i name="e_fr_energy">  -1407.40026069 </i>
    <i name="e_wo_entrp">  -1407.40026069 </i>
    <i name="e_0_energy">  -1407.40026069 </i>
   </energy>
  </scstep>
  <structure>
   <crystal>
    <varray name="basis" >
     <v>       8.45648900       0.00000000       8.04030100 </v>
     <v>       0.00000000      11.72984700       0.00000000 </v>
     <v>      -8.45648900       0.00000000       8.04030100 </v>
    </varray>
    <i name="volume">   1595.08833419 </i>
    <varray name="rec_basis" >
     <v>       0.05912619      -0.00000000       0.06218673 </v>
     <v>       0.00000000       0.08525260      -0.00000000 </v>
     <v>      -0.05912619       0.00000000       0.06218673 </v>
    </varray>
   </crystal>
   <varray name="positions" >
    <v>       0.27300300       0.24988200       0.20148600 </v>
    <v>       0.77094900       0.25026900       0.73407700 </v>
    <v>       0.70608200       0.75002800       0.25572700 </v>
    <v>       0.20774800       0.74997400       0.78329700 </v>
    <v>       0.28973500       0.25007600       0.72868200 </v>
    <v>       0.79385300       0.25016100       0.22213300 </v>
    <v>       0.72877100       0.75000400       0.79842700 </v>
    <v>       0.22808800       0.74997700       0.28141600 </v>
    <v>       0.00066500       0.99981500       0.99984300 </v>
    <v>       0.49190000       0.99752400       0.50104900 </v>
    <v>       0.49918500       0.00079800       0.99921900 </v>
    <v>       0.00475000       0.99824100       0.50008000 </v>
    <v>       0.49917200       0.49926900       0.99937300 </v>
    <v>       0.00486100       0.50180100       0.50000200 </v>
    <v>       0.00070200       0.50033900       0.99985800 </v>
    <v>       0.49194300       0.50257600       0.50125100 </v>
    <v>       0.47239300       0.75003000       0.97040800 </v>
    <v>       0.96429800       0.74991000       0.45373000 </v>
    <v>       0.97490000       0.25009400       0.97475100 </v>
    <v>       0.46715700       0.25000200       0.47053200 </v>
    <v>       0.02663400       0.75008800       0.03313400 </v>
    <v>       0.55230300       0.74997300       0.52407700 </v>
    <v>       0.53249800       0.25003900       0.03111600 </v>
    <v>       0.01766900       0.24997700       0.54104200 </v>
    <v>       0.24797600       0.46737100       0.94783900 </v>
    <v>       0.45270800       0.53210600       0.24845400 </v>
    <v>       0.94823900       0.53485200       0.74577900 </v>
    <v>       0.54927400       0.03097100       0.74953500 </v>
    <v>       0.05108600       0.03638200       0.25380400 </v>
    <v>       0.75296400       0.97511200       0.05004700 </v>
    <v>       0.25043600       0.95822000       0.55224100 </v>
    <v>       0.24795900       0.03270400       0.94755800 </v>
    <v>       0.45255300       0.96791500       0.24836200 </v>
    <v>       0.94805200       0.96523600       0.74596500 </v>
    <v>       0.75299800       0.52497200       0.05003800 </v>
    <v>       0.25047900       0.54162800       0.55217800 </v>
    <v>       0.54908200       0.46905600       0.74958000 </v>
    <v>       0.05164000       0.46360100       0.25373700 </v>
    <v>       0.74752100       0.25009200       0.44988500 </v>
   </varray>
  </structure>
  <varray name="forces" >
   <v>      -0.00611443       0.00087764       0.01383471 </v>
   <v>      -0.22936993      -0.00429813       0.25766883 </v>
   <v>       0.08042089       0.00016859      -0.11530898 </v>
   <v>      -0.05323292       0.00032918       0.03431202 </v>
   <v>      -0.00529161      -0.00075794      -0.01404798 </v>
   <v>       2.83772141      -0.00066400      -1.82025905 </v>
   <v>      -0.04785177       0.00019747       0.05191147 </v>
   <v>       0.02812997       0.00004683      -0.03505543 </v>
   <v>      -0.04249225       0.12367585       0.00071858 </v>
   <v>      -0.07022556       0.40751560      -0.05866344 </v>
   <v>       0.03441321       0.09213335       0.00692202 </v>
   <v>       0.06325379       0.42695776       0.05456479 </v>
   <v>       0.03705516      -0.09237876       0.00546165 </v>
   <v>       0.06307329      -0.42826290       0.05351103 </v>
   <v>      -0.04379700      -0.12371806       0.00276449 </v>
   <v>      -0.06291497      -0.40637147      -0.06335549 </v>
   <v>       0.00049880       0.00028391      -0.00144083 </v>
   <v>      -0.02200397       0.00144096      -0.03033427 </v>
   <v>       0.12436200       0.00011485       0.06404009 </v>
   <v>      -0.69946985      -0.00215000      -0.53204394 </v>
   <v>       0.00266476      -0.00009232       0.01479644 </v>
   <v>       0.03858362       0.00124307       0.02369940 </v>
   <v>      -0.01895685      -0.00008734      -0.07200367 </v>
   <v>       0.45292540      -0.00278789       0.84811673 </v>
   <v>       0.01523472       0.02764742      -0.00113077 </v>
   <v>      -0.03857910       0.04111300       0.06550413 </v>
   <v>       0.05948827       0.04191216      -0.04773327 </v>
   <v>       0.02429234      -0.06188214      -0.06798312 </v>
   <v>      -0.04512234      -0.06950436       0.06223765 </v>
   <v>      -0.01192305      -0.07879724      -0.01909072 </v>
   <v>       0.05014539       0.01470242      -0.04605649 </v>
   <v>       0.01259247      -0.02822630       0.00066308 </v>
   <v>      -0.03905573      -0.04102750       0.06650530 </v>
   <v>       0.06364171      -0.04143808      -0.05137362 </v>
   <v>      -0.01201432       0.07990700      -0.01949834 </v>
   <v>       0.04790482      -0.01164052      -0.04354217 </v>
   <v>       0.02344779       0.06239969      -0.06614505 </v>
   <v>      -0.04612947       0.07069513       0.05761793 </v>
   <v>      -2.56530470       0.00072307       1.42021631 </v>
  </varray>
  <varray name="stress" >
   <v>       0.13746016       0.00247583      -4.04529665 </v>
   <v>       0.00247568      -7.92721240      -0.00549751 </v>
   <v>      -4.04528928      -0.00549805      -1.89726287 </v>
  </varray>
  <energy>
   <i name="e_fr_energy">  -1407.40026069 </i>
   <i name="e_wo_entrp">  -1407.40026069 </i>
   <i name="e_0_energy">     -0.00000000 </i>
  </energy>
  <time name="totalsc">  448.22  448.98</time>
  <eigenvalues>
   <array>
    <dimension dim="1">band</dimension>
    <dimension dim="2">kpoint</dimension>
    <dimension dim="3">spin</dimension>
    <field>eigene</field>
    <field>occ</field>
    <set>
     <set comment="spin 1">
      <set comment="kpoint 1">
       <r>  -21.0543    1.0000 </r>
       <r>  -20.8911    1.0000 </r>
       <r>  -20.8622    1.0000 </r>
       <r>  -20.7851    1.0000 </r>
       <r>  -20.7246    1.0000 </r>
       <r>  -20.6514    1.0000 </r>
       <r>  -20.3155    1.0000 </r>
       <r>  -19.9934    1.0000 </r>
       <r>  -16.9131    1.0000 </r>
       <r>  -16.9012    1.0000 </r>
       <r>  -16.8694    1.0000 </r>
       <r>  -16.8541    1.0000 </r>
       <r>  -16.8471    1.0000 </r>
       <r>  -16.8337    1.0000 </r>
       <r>  -16.8110    1.0000 </r>
       <r>  -16.7985    1.0000 </r>
       <r>  -16.7915    1.0000 </r>
       <r>  -16.7886    1.0000 </r>
       <r>  -16.7828    1.0000 </r>
       <r>  -16.7818    1.0000 </r>
       <r>  -16.7794    1.0000 </r>
       <r>  -16.7774    1.0000 </r>
       <r>  -16.7729    1.0000 </r>
       <r>  -16.7718    1.0000 </r>
       <r>  -16.7173    1.0000 </r>
       <r>  -16.7161    1.0000 </r>
       <r>  -16.7087    1.0000 </r>
       <r>  -16.7075    1.0000 </r>
       <r>  -16.4618    1.0000 </r>
       <r>  -16.4494    1.0000 </r>
       <r>  -16.4382    1.0000 </r>
       <r>  -16.4320    1.0000 </r>
       <r>  -16.4016    1.0000 </r>
       <r>  -16.3882    1.0000 </r>
       <r>  -16.3861    1.0000 </r>
       <r>  -16.3649    1.0000 </r>
       <r>  -16.3097    1.0000 </r>
       <r>  -16.3091    1.0000 </r>
       <r>  -16.3026    1.0000 </r>
       <r>  -16.3020    1.0000 </r>
       <r>  -16.3016    1.0000 </r>
       <r>  -16.3012    1.0000 </r>
       <r>  -16.2944    1.0000 </r>
       <r>  -16.2932    1.0000 </r>
       <r>  -16.2896    1.0000 </r>
       <r>  -16.2886    1.0000 </r>
       <r>  -16.2840    1.0000 </r>
       <r>  -16.2827    1.0000 </r>
       <r>  -14.7014    1.0000 </r>
       <r>  -14.6453    1.0000 </r>
       <r>  -14.3559    1.0000 </r>
       <r>  -14.3119    1.0000 </r>
       <r>  -14.2592    1.0000 </r>
       <r>  -14.1522    1.0000 </r>
       <r>  -14.1440    1.0000 </r>
       <r>  -14.1168    1.0000 </r>
       <r>  -14.1140    1.0000 </r>
       <r>  -14.0674    1.0000 </r>
       <r>  -14.0642    1.0000 </r>
       <r>  -14.0314    1.0000 </r>
       <r>  -14.0284    1.0000 </r>
       <r>  -14.0225    1.0000 </r>
       <r>  -14.0122    1.0000 </r>
       <r>  -14.0062    1.0000 </r>
       <r>  -13.9276    1.0000 </r>
       <r>  -13.8516    1.0000 </r>
       <r>  -13.8347    1.0000 </r>
       <r>  -13.7614    1.0000 </r>
       <r>  -13.7187    1.0000 </r>
       <r>  -13.7031    1.0000 </r>
       <r>  -12.8637    1.0000 </r>
       <r>   -8.3124    1.0000 </r>
       <r>   -7.9633    1.0000 </r>
       <r>   -7.8051    1.0000 </r>
       <r>   -7.7977    1.0000 </r>
       <r>   -7.4676    1.0000 </r>
       <r>   -7.4600    1.0000 </r>
       <r>   -7.4280    1.0000 </r>
       <r>   -7.3987    1.0000 </r>
       <r>   -7.3160    1.0000 </r>
       <r>   -7.3154    1.0000 </r>
       <r>   -7.2955    1.0000 </r>
       <r>   -7.2810    1.0000 </r>
       <r>   -7.2698    1.0000 </r>
       <r>   -7.2617    1.0000 </r>
       <r>   -7.2568    1.0000 </r>
       <r>   -7.2177    1.0000 </r>
       <r>   -7.2039    1.0000 </r>
       <r>   -7.1817    1.0000 </r>
       <r>   -7.1745    1.0000 </r>
       <r>   -7.1376    1.0000 </r>
       <r>   -7.1150    1.0000 </r>
       <r>   -7.1091    1.0000 </r>
       <r>   -7.0600    1.0000 </r>
       <r>   -7.0590    1.0000 </r>
       <r>   -7.0389    1.0000 </r>
       <r>   -6.8597    1.0000 </r>
       <r>   -6.7833    1.0000 </r>
       <r>   -6.7485    1.0000 </r>
       <r>   -6.6501    1.0000 </r>
       <r>   -6.5040    1.0000 </r>
       <r>   -6.4590    1.0000 </r>
       <r>   -6.3626    1.0000 </r>
       <r>   -3.3798    1.0000 </r>
       <r>   -3.3654    1.0000 </r>
       <r>   -3.3313    1.0000 </r>
       <r>   -3.3142    1.0000 </r>
       <r>   -3.2557    1.0000 </r>
       <r>   -3.2390    1.0000 </r>
       <r>   -3.2356    1.0000 </r>
       <r>   -3.1705    1.0000 </r>
       <r>   -3.1272    1.0000 </r>
       <r>   -3.1026    1.0000 </r>
       <r>   -2.9684    1.0000 </r>
       <r>   -2.9634    1.0000 </r>
       <r>   -2.3955    1.0000 </r>
       <r>   -2.3202    1.0000 </r>
       <r>   -2.1941    1.0000 </r>
       <r>   -2.1281    1.0000 </r>
       <r>   -2.0880    1.0000 </r>
       <r>   -1.9646    1.0000 </r>
       <r>   -1.9503    1.0000 </r>
       <r>   -1.9148    1.0000 </r>
       <r>   -1.8944    1.0000 </r>
       <r>   -1.8642    1.0000 </r>
       <r>   -1.8217    1.0000 </r>
       <r>   -1.8044    1.0000 </r>
       <r>   -1.7660    1.0000 </r>
       <r>   -1.7271    1.0000 </r>
       <r>   -1.7089    1.0000 </r>
       <r>   -1.6767    1.0000 </r>
       <r>   -1.6345    1.0000 </r>
       <r>   -1.5934    1.0000 </r>
       <r>   -1.5748    1.0000 </r>
       <r>   -1.5507    1.0000 </r>
       <r>   -1.5303    1.0000 </r>
       <r>   -1.5270    1.0000 </r>
       <r>   -1.5113    1.0000 </r>
       <r>   -1.5112    1.0000 </r>
       <r>   -1.4852    1.0000 </r>
       <r>   -1.4646    1.0000 </r>
       <r>   -1.4426    1.0000 </r>
       <r>   -1.4376    1.0000 </r>
       <r>   -1.4147    1.0000 </r>
       <r>   -1.3993    1.0000 </r>
       <r>   -1.3769    1.0000 </r>
       <r>   -1.3576    1.0000 </r>
       <r>   -1.3538    1.0000 </r>
       <r>   -1.3321    1.0000 </r>
       <r>   -1.3235    1.0000 </r>
       <r>   -1.3051    1.0000 </r>
       <r>   -1.2861    1.0000 </r>
       <r>   -1.2441    1.0000 </r>
       <r>   -1.2178    1.0000 </r>
       <r>   -1.1992    1.0000 </r>
       <r>   -1.1584    1.0000 </r>
       <r>   -1.1579    1.0000 </r>
       <r>   -1.1396    1.0000 </r>
       <r>   -1.1160    1.0000 </r>
       <r>   -1.0882    1.0000 </r>
       <r>   -0.9703    1.0000 </r>
       <r>   -0.8832    1.0000 </r>
       <r>   -0.8652    1.0000 </r>
       <r>   -0.7856    1.0000 </r>
       <r>   -0.7096    1.0000 </r>
       <r>   -0.6036    1.0000 </r>
       <r>   -0.4751    1.0000 </r>
       <r>   -0.3376    1.0000 </r>
       <r>   -0.1792    1.0000 </r>
       <r>    0.2272    1.0000 </r>
       <r>    0.3247    1.0000 </r>
       <r>    0.6420    1.0000 </r>
       <r>    2.2919    0.0000 </r>
       <r>    2.4457    0.0000 </r>
       <r>    2.6814    0.0000 </r>
       <r>    2.6825    0.0000 </r>
       <r>    2.9151    0.0000 </r>
       <r>    2.9865    0.0000 </r>
       <r>    3.0450    0.0000 </r>
       <r>    3.0454    0.0000 </r>
       <r>    3.1130    0.0000 </r>
       <r>    3.3810    0.0000 </r>
       <r>    3.4521    0.0000 </r>
       <r>    3.4609    0.0000 </r>
       <r>    3.8436    0.0000 </r>
       <r>    4.3719    0.0000 </r>
       <r>    4.8359    0.0000 </r>
       <r>    5.4077    0.0000 </r>
       <r>    5.4799    0.0000 </r>
       <r>    5.6883    0.0000 </r>
       <r>    5.7010    0.0000 </r>
       <r>    5.8215    0.0000 </r>
       <r>    5.8514    0.0000 </r>
       <r>    5.8865    0.0000 </r>
       <r>    5.9871    0.0000 </r>
       <r>    6.0772    0.0000 </r>
       <r>    6.0844    0.0000 </r>
       <r>    6.1200    0.0000 </r>
       <r>    6.1717    0.0000 </r>
       <r>    6.2422    0.0000 </r>
       <r>    6.2664    0.0000 </r>
       <r>    6.3011    0.0000 </r>
       <r>    6.4074    0.0000 </r>
       <r>    6.4210    0.0000 </r>
       <r>    6.5068    0.0000 </r>
       <r>    6.5269    0.0000 </r>
       <r>    6.5289    0.0000 </r>
       <r>    6.5866    0.0000 </r>
      </set>
      <set comment="kpoint 2">
       <r>  -21.0543    1.0000 </r>
       <r>  -20.8911    1.0000 </r>
       <r>  -20.8622    1.0000 </r>
       <r>  -20.7851    1.0000 </r>
       <r>  -20.7246    1.0000 </r>
       <r>  -20.6514    1.0000 </r>
       <r>  -20.3155    1.0000 </r>
       <r>  -19.9934    1.0000 </r>
       <r>  -16.9128    1.0000 </r>
       <r>  -16.9009    1.0000 </r>
       <r>  -16.8696    1.0000 </r>
       <r>  -16.8544    1.0000 </r>
       <r>  -16.8470    1.0000 </r>
       <r>  -16.8337    1.0000 </r>
       <r>  -16.8110    1.0000 </r>
       <r>  -16.7985    1.0000 </r>
       <r>  -16.7915    1.0000 </r>
       <r>  -16.7885    1.0000 </r>
       <r>  -16.7828    1.0000 </r>
       <r>  -16.7818    1.0000 </r>
       <r>  -16.7794    1.0000 </r>
       <r>  -16.7773    1.0000 </r>
       <r>  -16.7729    1.0000 </r>
       <r>  -16.7719    1.0000 </r>
       <r>  -16.7173    1.0000 </r>
       <r>  -16.7161    1.0000 </r>
       <r>  -16.7087    1.0000 </r>
       <r>  -16.7075    1.0000 </r>
       <r>  -16.4544    1.0000 </r>
       <r>  -16.4497    1.0000 </r>
       <r>  -16.4184    1.0000 </r>
       <r>  -16.4175    1.0000 </r>
       <r>  -16.4084    1.0000 </r>
       <r>  -16.4076    1.0000 </r>
       <r>  -16.3866    1.0000 </r>
       <r>  -16.3810    1.0000 </r>
       <r>  -16.3097    1.0000 </r>
       <r>  -16.3092    1.0000 </r>
       <r>  -16.3025    1.0000 </r>
       <r>  -16.3021    1.0000 </r>
       <r>  -16.3016    1.0000 </r>
       <r>  -16.3014    1.0000 </r>
       <r>  -16.2944    1.0000 </r>
       <r>  -16.2932    1.0000 </r>
       <r>  -16.2896    1.0000 </r>
       <r>  -16.2885    1.0000 </r>
       <r>  -16.2841    1.0000 </r>
       <r>  -16.2826    1.0000 </r>
       <r>  -14.7003    1.0000 </r>
       <r>  -14.6446    1.0000 </r>
       <r>  -14.3664    1.0000 </r>
       <r>  -14.2932    1.0000 </r>
       <r>  -14.2408    1.0000 </r>
       <r>  -14.2188    1.0000 </r>
       <r>  -14.1390    1.0000 </r>
       <r>  -14.1198    1.0000 </r>
       <r>  -14.1141    1.0000 </r>
       <r>  -14.0896    1.0000 </r>
       <r>  -14.0670    1.0000 </r>
       <r>  -14.0571    1.0000 </r>
       <r>  -14.0310    1.0000 </r>
       <r>  -14.0279    1.0000 </r>
       <r>  -13.9571    1.0000 </r>
       <r>  -13.9246    1.0000 </r>
       <r>  -13.9049    1.0000 </r>
       <r>  -13.8864    1.0000 </r>
       <r>  -13.8009    1.0000 </r>
       <r>  -13.7826    1.0000 </r>
       <r>  -13.7467    1.0000 </r>
       <r>  -13.7149    1.0000 </r>
       <r>  -12.8641    1.0000 </r>
       <r>   -8.2674    1.0000 </r>
       <r>   -8.0304    1.0000 </r>
       <r>   -7.7555    1.0000 </r>
       <r>   -7.6217    1.0000 </r>
       <r>   -7.5252    1.0000 </r>
       <r>   -7.5137    1.0000 </r>
       <r>   -7.4595    1.0000 </r>
       <r>   -7.4313    1.0000 </r>
       <r>   -7.4204    1.0000 </r>
       <r>   -7.3179    1.0000 </r>
       <r>   -7.2931    1.0000 </r>
       <r>   -7.2817    1.0000 </r>
       <r>   -7.2707    1.0000 </r>
       <r>   -7.2639    1.0000 </r>
       <r>   -7.2556    1.0000 </r>
       <r>   -7.2086    1.0000 </r>
       <r>   -7.1790    1.0000 </r>
       <r>   -7.1777    1.0000 </r>
       <r>   -7.1398    1.0000 </r>
       <r>   -7.1235    1.0000 </r>
       <r>   -7.1131    1.0000 </r>
       <r>   -7.0617    1.0000 </r>
       <r>   -7.0594    1.0000 </r>
       <r>   -7.0390    1.0000 </r>
       <r>   -6.9971    1.0000 </r>
       <r>   -6.8940    1.0000 </r>
       <r>   -6.8577    1.0000 </r>
       <r>   -6.7830    1.0000 </r>
       <r>   -6.7412    1.0000 </r>
       <r>   -6.5043    1.0000 </r>
       <r>   -6.4611    1.0000 </r>
       <r>   -6.3622    1.0000 </r>
       <r>   -3.3690    1.0000 </r>
       <r>   -3.3508    1.0000 </r>
       <r>   -3.3315    1.0000 </r>
       <r>   -3.2706    1.0000 </r>
       <r>   -3.2698    1.0000 </r>
       <r>   -3.2265    1.0000 </r>
       <r>   -3.1964    1.0000 </r>
       <r>   -3.1444    1.0000 </r>
       <r>   -3.0238    1.0000 </r>
       <r>   -2.9762    1.0000 </r>
       <r>   -2.5216    1.0000 </r>
       <r>   -2.4932    1.0000 </r>
       <r>   -2.3928    1.0000 </r>
       <r>   -2.3835    1.0000 </r>
       <r>   -2.3799    1.0000 </r>
       <r>   -2.3063    1.0000 </r>
       <r>   -2.1057    1.0000 </r>
       <r>   -2.0984    1.0000 </r>
       <r>   -2.0631    1.0000 </r>
       <r>   -2.0500    1.0000 </r>
       <r>   -1.9249    1.0000 </r>
       <r>   -1.8907    1.0000 </r>
       <r>   -1.8903    1.0000 </r>
       <r>   -1.8544    1.0000 </r>
       <r>   -1.8354    1.0000 </r>
       <r>   -1.7151    1.0000 </r>
       <r>   -1.6756    1.0000 </r>
       <r>   -1.6750    1.0000 </r>
       <r>   -1.6443    1.0000 </r>
       <r>   -1.6197    1.0000 </r>
       <r>   -1.5849    1.0000 </r>
       <r>   -1.5708    1.0000 </r>
       <r>   -1.5646    1.0000 </r>
       <r>   -1.5496    1.0000 </r>
       <r>   -1.5422    1.0000 </r>
       <r>   -1.5127    1.0000 </r>
       <r>   -1.5085    1.0000 </r>
       <r>   -1.4788    1.0000 </r>
       <r>   -1.4778    1.0000 </r>
       <r>   -1.4537    1.0000 </r>
       <r>   -1.4351    1.0000 </r>
       <r>   -1.4200    1.0000 </r>
       <r>   -1.3884    1.0000 </r>
       <r>   -1.3854    1.0000 </r>
       <r>   -1.3605    1.0000 </r>
       <r>   -1.3267    1.0000 </r>
       <r>   -1.2892    1.0000 </r>
       <r>   -1.2767    1.0000 </r>
       <r>   -1.2566    1.0000 </r>
       <r>   -1.2139    1.0000 </r>
       <r>   -1.2097    1.0000 </r>
       <r>   -1.1942    1.0000 </r>
       <r>   -1.1827    1.0000 </r>
       <r>   -1.1202    1.0000 </r>
       <r>   -1.1162    1.0000 </r>
       <r>   -1.0843    1.0000 </r>
       <r>   -1.0772    1.0000 </r>
       <r>   -1.0361    1.0000 </r>
       <r>   -0.8940    1.0000 </r>
       <r>   -0.8771    1.0000 </r>
       <r>   -0.7036    1.0000 </r>
       <r>   -0.6643    1.0000 </r>
       <r>   -0.6589    1.0000 </r>
       <r>   -0.5841    1.0000 </r>
       <r>   -0.5513    1.0000 </r>
       <r>   -0.0692    1.0000 </r>
       <r>    0.0020    1.0000 </r>
       <r>    0.2319    1.0000 </r>
       <r>    0.6094    1.0000 </r>
       <r>    2.4033    0.0000 </r>
       <r>    2.6199    0.0000 </r>
       <r>    2.7436    0.0000 </r>
       <r>    2.7516    0.0000 </r>
       <r>    2.8983    0.0000 </r>
       <r>    2.9251    0.0000 </r>
       <r>    3.1256    0.0000 </r>
       <r>    3.2150    0.0000 </r>
       <r>    3.2865    0.0000 </r>
       <r>    3.3299    0.0000 </r>
       <r>    3.6166    0.0000 </r>
       <r>    3.8773    0.0000 </r>
       <r>    4.4193    0.0000 </r>
       <r>    4.4386    0.0000 </r>
       <r>    4.7508    0.0000 </r>
       <r>    4.7986    0.0000 </r>
       <r>    5.4602    0.0000 </r>
       <r>    5.5155    0.0000 </r>
       <r>    5.5312    0.0000 </r>
       <r>    5.6373    0.0000 </r>
       <r>    5.6599    0.0000 </r>
       <r>    5.8085    0.0000 </r>
       <r>    5.8424    0.0000 </r>
       <r>    6.0608    0.0000 </r>
       <r>    6.0986    0.0000 </r>
       <r>    6.1040    0.0000 </r>
       <r>    6.1474    0.0000 </r>
       <r>    6.2302    0.0000 </r>
       <r>    6.2560    0.0000 </r>
       <r>    6.3184    0.0000 </r>
       <r>    6.3470    0.0000 </r>
       <r>    6.4092    0.0000 </r>
       <r>    6.5059    0.0000 </r>
       <r>    6.5260    0.0000 </r>
       <r>    6.5732    0.0000 </r>
       <r>    6.5838    0.0000 </r>
      </set>
      <set comment="kpoint 3">
       <r>  -21.0543    1.0000 </r>
       <r>  -20.8911    1.0000 </r>
       <r>  -20.8622    1.0000 </r>
       <r>  -20.7851    1.0000 </r>
       <r>  -20.7246    1.0000 </r>
       <r>  -20.6513    1.0000 </r>
       <r>  -20.3155    1.0000 </r>
       <r>  -19.9934    1.0000 </r>
       <r>  -16.9068    1.0000 </r>
       <r>  -16.9050    1.0000 </r>
       <r>  -16.8594    1.0000 </r>
       <r>  -16.8574    1.0000 </r>
       <r>  -16.8349    1.0000 </r>
       <r>  -16.8278    1.0000 </r>
       <r>  -16.8216    1.0000 </r>
       <r>  -16.8155    1.0000 </r>
       <r>  -16.7910    1.0000 </r>
       <r>  -16.7893    1.0000 </r>
       <r>  -16.7828    1.0000 </r>
       <r>  -16.7818    1.0000 </r>
       <r>  -16.7790    1.0000 </r>
       <r>  -16.7777    1.0000 </r>
       <r>  -16.7729    1.0000 </r>
       <r>  -16.7720    1.0000 </r>
       <r>  -16.7171    1.0000 </r>
       <r>  -16.7162    1.0000 </r>
       <r>  -16.7085    1.0000 </r>
       <r>  -16.7076    1.0000 </r>
       <r>  -16.4424    1.0000 </r>
       <r>  -16.4414    1.0000 </r>
       <r>  -16.4246    1.0000 </r>
       <r>  -16.4231    1.0000 </r>
       <r>  -16.4159    1.0000 </r>
       <r>  -16.4135    1.0000 </r>
       <r>  -16.3820    1.0000 </r>
       <r>  -16.3812    1.0000 </r>
       <r>  -16.3095    1.0000 </r>
       <r>  -16.3093    1.0000 </r>
       <r>  -16.3026    1.0000 </r>
       <r>  -16.3018    1.0000 </r>
       <r>  -16.3017    1.0000 </r>
       <r>  -16.3013    1.0000 </r>
       <r>  -16.2942    1.0000 </r>
       <r>  -16.2934    1.0000 </r>
       <r>  -16.2892    1.0000 </r>
       <r>  -16.2889    1.0000 </r>
       <r>  -16.2838    1.0000 </r>
       <r>  -16.2829    1.0000 </r>
       <r>  -14.6911    1.0000 </r>
       <r>  -14.6597    1.0000 </r>
       <r>  -14.3513    1.0000 </r>
       <r>  -14.2960    1.0000 </r>
       <r>  -14.2392    1.0000 </r>
       <r>  -14.2297    1.0000 </r>
       <r>  -14.1395    1.0000 </r>
       <r>  -14.1301    1.0000 </r>
       <r>  -14.1136    1.0000 </r>
       <r>  -14.1099    1.0000 </r>
       <r>  -14.0654    1.0000 </r>
       <r>  -14.0637    1.0000 </r>
       <r>  -14.0143    1.0000 </r>
       <r>  -14.0113    1.0000 </r>
       <r>  -13.9307    1.0000 </r>
       <r>  -13.9281    1.0000 </r>
       <r>  -13.9055    1.0000 </r>
       <r>  -13.8657    1.0000 </r>
       <r>  -13.8084    1.0000 </r>
       <r>  -13.7802    1.0000 </r>
       <r>  -13.7545    1.0000 </r>
       <r>  -13.7375    1.0000 </r>
       <r>  -12.8638    1.0000 </r>
       <r>   -8.0810    1.0000 </r>
       <r>   -8.0755    1.0000 </r>
       <r>   -7.7232    1.0000 </r>
       <r>   -7.7053    1.0000 </r>
       <r>   -7.5561    1.0000 </r>
       <r>   -7.5432    1.0000 </r>
       <r>   -7.4580    1.0000 </r>
       <r>   -7.4520    1.0000 </r>
       <r>   -7.4269    1.0000 </r>
       <r>   -7.3163    1.0000 </r>
       <r>   -7.2882    1.0000 </r>
       <r>   -7.2804    1.0000 </r>
       <r>   -7.2691    1.0000 </r>
       <r>   -7.2648    1.0000 </r>
       <r>   -7.2526    1.0000 </r>
       <r>   -7.2074    1.0000 </r>
       <r>   -7.1807    1.0000 </r>
       <r>   -7.1794    1.0000 </r>
       <r>   -7.1407    1.0000 </r>
       <r>   -7.1238    1.0000 </r>
       <r>   -7.1147    1.0000 </r>
       <r>   -7.0719    1.0000 </r>
       <r>   -7.0611    1.0000 </r>
       <r>   -7.0421    1.0000 </r>
       <r>   -7.0149    1.0000 </r>
       <r>   -7.0124    1.0000 </r>
       <r>   -6.8603    1.0000 </r>
       <r>   -6.7826    1.0000 </r>
       <r>   -6.7501    1.0000 </r>
       <r>   -6.5019    1.0000 </r>
       <r>   -6.4615    1.0000 </r>
       <r>   -6.3629    1.0000 </r>
       <r>   -3.3275    1.0000 </r>
       <r>   -3.3113    1.0000 </r>
       <r>   -3.2017    1.0000 </r>
       <r>   -3.2006    1.0000 </r>
       <r>   -3.1920    1.0000 </r>
       <r>   -3.1896    1.0000 </r>
       <r>   -3.0782    1.0000 </r>
       <r>   -3.0511    1.0000 </r>
       <r>   -2.6860    1.0000 </r>
       <r>   -2.6237    1.0000 </r>
       <r>   -2.5020    1.0000 </r>
       <r>   -2.4677    1.0000 </r>
       <r>   -2.4282    1.0000 </r>
       <r>   -2.4046    1.0000 </r>
       <r>   -2.3458    1.0000 </r>
       <r>   -2.3044    1.0000 </r>
       <r>   -2.2166    1.0000 </r>
       <r>   -2.2066    1.0000 </r>
       <r>   -2.0704    1.0000 </r>
       <r>   -2.0315    1.0000 </r>
       <r>   -2.0008    1.0000 </r>
       <r>   -1.9607    1.0000 </r>
       <r>   -1.9104    1.0000 </r>
       <r>   -1.9055    1.0000 </r>
       <r>   -1.8664    1.0000 </r>
       <r>   -1.7969    1.0000 </r>
       <r>   -1.7936    1.0000 </r>
       <r>   -1.7708    1.0000 </r>
       <r>   -1.7251    1.0000 </r>
       <r>   -1.7015    1.0000 </r>
       <r>   -1.7000    1.0000 </r>
       <r>   -1.6644    1.0000 </r>
       <r>   -1.6282    1.0000 </r>
       <r>   -1.5691    1.0000 </r>
       <r>   -1.5273    1.0000 </r>
       <r>   -1.5008    1.0000 </r>
       <r>   -1.4697    1.0000 </r>
       <r>   -1.4650    1.0000 </r>
       <r>   -1.4167    1.0000 </r>
       <r>   -1.4163    1.0000 </r>
       <r>   -1.4044    1.0000 </r>
       <r>   -1.3948    1.0000 </r>
       <r>   -1.3911    1.0000 </r>
       <r>   -1.3586    1.0000 </r>
       <r>   -1.3378    1.0000 </r>
       <r>   -1.3226    1.0000 </r>
       <r>   -1.3105    1.0000 </r>
       <r>   -1.2546    1.0000 </r>
       <r>   -1.2288    1.0000 </r>
       <r>   -1.1988    1.0000 </r>
       <r>   -1.1894    1.0000 </r>
       <r>   -1.1831    1.0000 </r>
       <r>   -1.1662    1.0000 </r>
       <r>   -1.1263    1.0000 </r>
       <r>   -1.1241    1.0000 </r>
       <r>   -1.1219    1.0000 </r>
       <r>   -1.0735    1.0000 </r>
       <r>   -1.0345    1.0000 </r>
       <r>   -0.9638    1.0000 </r>
       <r>   -0.9582    1.0000 </r>
       <r>   -0.9223    1.0000 </r>
       <r>   -0.9104    1.0000 </r>
       <r>   -0.6935    1.0000 </r>
       <r>   -0.6834    1.0000 </r>
       <r>   -0.6011    1.0000 </r>
       <r>   -0.2018    1.0000 </r>
       <r>   -0.1829    1.0000 </r>
       <r>    0.2284    1.0000 </r>
       <r>    0.6427    1.0000 </r>
       <r>    2.2524    0.0000 </r>
       <r>    2.4998    0.0000 </r>
       <r>    2.8879    0.0000 </r>
       <r>    2.8992    0.0000 </r>
       <r>    3.1792    0.0000 </r>
       <r>    3.1804    0.0000 </r>
       <r>    3.2363    0.0000 </r>
       <r>    3.2478    0.0000 </r>
       <r>    3.8919    0.0000 </r>
       <r>    4.0755    0.0000 </r>
       <r>    4.1753    0.0000 </r>
       <r>    4.3428    0.0000 </r>
       <r>    4.3469    0.0000 </r>
       <r>    4.4472    0.0000 </r>
       <r>    4.6262    0.0000 </r>
       <r>    4.7098    0.0000 </r>
       <r>    4.8581    0.0000 </r>
       <r>    4.9060    0.0000 </r>
       <r>    5.3901    0.0000 </r>
       <r>    5.5975    0.0000 </r>
       <r>    5.6258    0.0000 </r>
       <r>    5.6373    0.0000 </r>
       <r>    5.8203    0.0000 </r>
       <r>    5.8257    0.0000 </r>
       <r>    5.9269    0.0000 </r>
       <r>    5.9962    0.0000 </r>
       <r>    6.0758    0.0000 </r>
       <r>    6.1470    0.0000 </r>
       <r>    6.1955    0.0000 </r>
       <r>    6.3515    0.0000 </r>
       <r>    6.3916    0.0000 </r>
       <r>    6.4123    0.0000 </r>
       <r>    6.4725    0.0000 </r>
       <r>    6.5691    0.0000 </r>
       <r>    6.6025    0.0000 </r>
       <r>    6.6185    0.0000 </r>
      </set>
      <set comment="kpoint 4">
       <r>  -21.0543    1.0000 </r>
       <r>  -20.8911    1.0000 </r>
       <r>  -20.8622    1.0000 </r>
       <r>  -20.7851    1.0000 </r>
       <r>  -20.7246    1.0000 </r>
       <r>  -20.6513    1.0000 </r>
       <r>  -20.3155    1.0000 </r>
       <r>  -19.9934    1.0000 </r>
       <r>  -16.9065    1.0000 </r>
       <r>  -16.9047    1.0000 </r>
       <r>  -16.8596    1.0000 </r>
       <r>  -16.8576    1.0000 </r>
       <r>  -16.8349    1.0000 </r>
       <r>  -16.8278    1.0000 </r>
       <r>  -16.8216    1.0000 </r>
       <r>  -16.8155    1.0000 </r>
       <r>  -16.7911    1.0000 </r>
       <r>  -16.7894    1.0000 </r>
       <r>  -16.7828    1.0000 </r>
       <r>  -16.7818    1.0000 </r>
       <r>  -16.7791    1.0000 </r>
       <r>  -16.7778    1.0000 </r>
       <r>  -16.7729    1.0000 </r>
       <r>  -16.7720    1.0000 </r>
       <r>  -16.7171    1.0000 </r>
       <r>  -16.7163    1.0000 </r>
       <r>  -16.7086    1.0000 </r>
       <r>  -16.7076    1.0000 </r>
       <r>  -16.4247    1.0000 </r>
       <r>  -16.4234    1.0000 </r>
       <r>  -16.4176    1.0000 </r>
       <r>  -16.4154    1.0000 </r>
       <r>  -16.4146    1.0000 </r>
       <r>  -16.4143    1.0000 </r>
       <r>  -16.4083    1.0000 </r>
       <r>  -16.4075    1.0000 </r>
       <r>  -16.3096    1.0000 </r>
       <r>  -16.3093    1.0000 </r>
       <r>  -16.3025    1.0000 </r>
       <r>  -16.3018    1.0000 </r>
       <r>  -16.3016    1.0000 </r>
       <r>  -16.3016    1.0000 </r>
       <r>  -16.2942    1.0000 </r>
       <r>  -16.2934    1.0000 </r>
       <r>  -16.2892    1.0000 </r>
       <r>  -16.2890    1.0000 </r>
       <r>  -16.2839    1.0000 </r>
       <r>  -16.2829    1.0000 </r>
       <r>  -14.6900    1.0000 </r>
       <r>  -14.6587    1.0000 </r>
       <r>  -14.3598    1.0000 </r>
       <r>  -14.2853    1.0000 </r>
       <r>  -14.2158    1.0000 </r>
       <r>  -14.2145    1.0000 </r>
       <r>  -14.2001    1.0000 </r>
       <r>  -14.1795    1.0000 </r>
       <r>  -14.1183    1.0000 </r>
       <r>  -14.1170    1.0000 </r>
       <r>  -14.0658    1.0000 </r>
       <r>  -14.0646    1.0000 </r>
       <r>  -13.9626    1.0000 </r>
       <r>  -13.9295    1.0000 </r>
       <r>  -13.9287    1.0000 </r>
       <r>  -13.9194    1.0000 </r>
       <r>  -13.8883    1.0000 </r>
       <r>  -13.8745    1.0000 </r>
       <r>  -13.8264    1.0000 </r>
       <r>  -13.8094    1.0000 </r>
       <r>  -13.7760    1.0000 </r>
       <r>  -13.7384    1.0000 </r>
       <r>  -12.8641    1.0000 </r>
       <r>   -8.0397    1.0000 </r>
       <r>   -8.0264    1.0000 </r>
       <r>   -7.7870    1.0000 </r>
       <r>   -7.7833    1.0000 </r>
       <r>   -7.4718    1.0000 </r>
       <r>   -7.4541    1.0000 </r>
       <r>   -7.4310    1.0000 </r>
       <r>   -7.3754    1.0000 </r>
       <r>   -7.3690    1.0000 </r>
       <r>   -7.3199    1.0000 </r>
       <r>   -7.2838    1.0000 </r>
       <r>   -7.2784    1.0000 </r>
       <r>   -7.2706    1.0000 </r>
       <r>   -7.2681    1.0000 </r>
       <r>   -7.2660    1.0000 </r>
       <r>   -7.2419    1.0000 </r>
       <r>   -7.2284    1.0000 </r>
       <r>   -7.2025    1.0000 </r>
       <r>   -7.1725    1.0000 </r>
       <r>   -7.1716    1.0000 </r>
       <r>   -7.1386    1.0000 </r>
       <r>   -7.1126    1.0000 </r>
       <r>   -7.1073    1.0000 </r>
       <r>   -7.0564    1.0000 </r>
       <r>   -7.0547    1.0000 </r>
       <r>   -7.0397    1.0000 </r>
       <r>   -6.8611    1.0000 </r>
       <r>   -6.7808    1.0000 </r>
       <r>   -6.7497    1.0000 </r>
       <r>   -6.5028    1.0000 </r>
       <r>   -6.4614    1.0000 </r>
       <r>   -6.3624    1.0000 </r>
       <r>   -3.3068    1.0000 </r>
       <r>   -3.2918    1.0000 </r>
       <r>   -3.2205    1.0000 </r>
       <r>   -3.2083    1.0000 </r>
       <r>   -3.1258    1.0000 </r>
       <r>   -3.0925    1.0000 </r>
       <r>   -2.6855    1.0000 </r>
       <r>   -2.6361    1.0000 </r>
       <r>   -2.6257    1.0000 </r>
       <r>   -2.5844    1.0000 </r>
       <r>   -2.5347    1.0000 </r>
       <r>   -2.5195    1.0000 </r>
       <r>   -2.4288    1.0000 </r>
       <r>   -2.3303    1.0000 </r>
       <r>   -2.3266    1.0000 </r>
       <r>   -2.3243    1.0000 </r>
       <r>   -2.3108    1.0000 </r>
       <r>   -2.2834    1.0000 </r>
       <r>   -2.2022    1.0000 </r>
       <r>   -2.1614    1.0000 </r>
       <r>   -2.1320    1.0000 </r>
       <r>   -2.0508    1.0000 </r>
       <r>   -1.9602    1.0000 </r>
       <r>   -1.9028    1.0000 </r>
       <r>   -1.8829    1.0000 </r>
       <r>   -1.8079    1.0000 </r>
       <r>   -1.7968    1.0000 </r>
       <r>   -1.7374    1.0000 </r>
       <r>   -1.6920    1.0000 </r>
       <r>   -1.6910    1.0000 </r>
       <r>   -1.6628    1.0000 </r>
       <r>   -1.6195    1.0000 </r>
       <r>   -1.6095    1.0000 </r>
       <r>   -1.6036    1.0000 </r>
       <r>   -1.5569    1.0000 </r>
       <r>   -1.5461    1.0000 </r>
       <r>   -1.5322    1.0000 </r>
       <r>   -1.5292    1.0000 </r>
       <r>   -1.5115    1.0000 </r>
       <r>   -1.4857    1.0000 </r>
       <r>   -1.4735    1.0000 </r>
       <r>   -1.4305    1.0000 </r>
       <r>   -1.4252    1.0000 </r>
       <r>   -1.3618    1.0000 </r>
       <r>   -1.3480    1.0000 </r>
       <r>   -1.3328    1.0000 </r>
       <r>   -1.3111    1.0000 </r>
       <r>   -1.2066    1.0000 </r>
       <r>   -1.1999    1.0000 </r>
       <r>   -1.1884    1.0000 </r>
       <r>   -1.1813    1.0000 </r>
       <r>   -1.1589    1.0000 </r>
       <r>   -1.1373    1.0000 </r>
       <r>   -1.1281    1.0000 </r>
       <r>   -1.1148    1.0000 </r>
       <r>   -1.1063    1.0000 </r>
       <r>   -1.0617    1.0000 </r>
       <r>   -1.0157    1.0000 </r>
       <r>   -1.0012    1.0000 </r>
       <r>   -0.9649    1.0000 </r>
       <r>   -0.9341    1.0000 </r>
       <r>   -0.9225    1.0000 </r>
       <r>   -0.6055    1.0000 </r>
       <r>   -0.5879    1.0000 </r>
       <r>   -0.5810    1.0000 </r>
       <r>   -0.5371    1.0000 </r>
       <r>   -0.5336    1.0000 </r>
       <r>    0.2324    1.0000 </r>
       <r>    0.6110    1.0000 </r>
       <r>    2.5717    0.0000 </r>
       <r>    2.6167    0.0000 </r>
       <r>    2.9084    0.0000 </r>
       <r>    2.9420    0.0000 </r>
       <r>    3.0941    0.0000 </r>
       <r>    3.0972    0.0000 </r>
       <r>    3.5465    0.0000 </r>
       <r>    3.6892    0.0000 </r>
       <r>    4.1520    0.0000 </r>
       <r>    4.3319    0.0000 </r>
       <r>    4.3692    0.0000 </r>
       <r>    4.4064    0.0000 </r>
       <r>    4.5039    0.0000 </r>
       <r>    4.5989    0.0000 </r>
       <r>    4.6055    0.0000 </r>
       <r>    4.6403    0.0000 </r>
       <r>    4.7527    0.0000 </r>
       <r>    4.8122    0.0000 </r>
       <r>    4.8555    0.0000 </r>
       <r>    4.8683    0.0000 </r>
       <r>    5.6343    0.0000 </r>
       <r>    5.6370    0.0000 </r>
       <r>    5.8244    0.0000 </r>
       <r>    5.8302    0.0000 </r>
       <r>    5.8561    0.0000 </r>
       <r>    5.8920    0.0000 </r>
       <r>    6.0630    0.0000 </r>
       <r>    6.0661    0.0000 </r>
       <r>    6.1754    0.0000 </r>
       <r>    6.1935    0.0000 </r>
       <r>    6.3351    0.0000 </r>
       <r>    6.3371    0.0000 </r>
       <r>    6.3850    0.0000 </r>
       <r>    6.4997    0.0000 </r>
       <r>    6.5859    0.0000 </r>
       <r>    6.6608    0.0000 </r>
      </set>
      <set comment="kpoint 5">
       <r>  -21.0543    1.0000 </r>
       <r>  -20.8911    1.0000 </r>
       <r>  -20.8623    1.0000 </r>
       <r>  -20.7851    1.0000 </r>
       <r>  -20.7246    1.0000 </r>
       <r>  -20.6514    1.0000 </r>
       <r>  -20.3155    1.0000 </r>
       <r>  -19.9934    1.0000 </r>
       <r>  -16.9129    1.0000 </r>
       <r>  -16.9008    1.0000 </r>
       <r>  -16.8693    1.0000 </r>
       <r>  -16.8535    1.0000 </r>
       <r>  -16.8457    1.0000 </r>
       <r>  -16.8324    1.0000 </r>
       <r>  -16.8101    1.0000 </r>
       <r>  -16.7976    1.0000 </r>
       <r>  -16.7915    1.0000 </r>
       <r>  -16.7885    1.0000 </r>
       <r>  -16.7828    1.0000 </r>
       <r>  -16.7818    1.0000 </r>
       <r>  -16.7794    1.0000 </r>
       <r>  -16.7774    1.0000 </r>
       <r>  -16.7729    1.0000 </r>
       <r>  -16.7719    1.0000 </r>
       <r>  -16.7173    1.0000 </r>
       <r>  -16.7160    1.0000 </r>
       <r>  -16.7087    1.0000 </r>
       <r>  -16.7074    1.0000 </r>
       <r>  -16.4619    1.0000 </r>
       <r>  -16.4504    1.0000 </r>
       <r>  -16.4394    1.0000 </r>
       <r>  -16.4337    1.0000 </r>
       <r>  -16.4037    1.0000 </r>
       <r>  -16.3895    1.0000 </r>
       <r>  -16.3872    1.0000 </r>
       <r>  -16.3649    1.0000 </r>
       <r>  -16.3097    1.0000 </r>
       <r>  -16.3091    1.0000 </r>
       <r>  -16.3026    1.0000 </r>
       <r>  -16.3021    1.0000 </r>
       <r>  -16.3016    1.0000 </r>
       <r>  -16.3012    1.0000 </r>
       <r>  -16.2944    1.0000 </r>
       <r>  -16.2932    1.0000 </r>
       <r>  -16.2896    1.0000 </r>
       <r>  -16.2886    1.0000 </r>
       <r>  -16.2840    1.0000 </r>
       <r>  -16.2826    1.0000 </r>
       <r>  -14.7008    1.0000 </r>
       <r>  -14.6454    1.0000 </r>
       <r>  -14.3509    1.0000 </r>
       <r>  -14.3207    1.0000 </r>
       <r>  -14.2803    1.0000 </r>
       <r>  -14.1825    1.0000 </r>
       <r>  -14.1740    1.0000 </r>
       <r>  -14.0832    1.0000 </r>
       <r>  -14.0820    1.0000 </r>
       <r>  -14.0545    1.0000 </r>
       <r>  -14.0417    1.0000 </r>
       <r>  -14.0313    1.0000 </r>
       <r>  -14.0280    1.0000 </r>
       <r>  -14.0198    1.0000 </r>
       <r>  -14.0109    1.0000 </r>
       <r>  -14.0064    1.0000 </r>
       <r>  -13.9009    1.0000 </r>
       <r>  -13.8483    1.0000 </r>
       <r>  -13.8130    1.0000 </r>
       <r>  -13.7948    1.0000 </r>
       <r>  -13.7512    1.0000 </r>
       <r>  -13.7052    1.0000 </r>
       <r>  -12.8642    1.0000 </r>
       <r>   -8.1659    1.0000 </r>
       <r>   -7.9812    1.0000 </r>
       <r>   -7.8536    1.0000 </r>
       <r>   -7.6690    1.0000 </r>
       <r>   -7.5045    1.0000 </r>
       <r>   -7.4782    1.0000 </r>
       <r>   -7.4453    1.0000 </r>
       <r>   -7.4284    1.0000 </r>
       <r>   -7.4071    1.0000 </r>
       <r>   -7.3298    1.0000 </r>
       <r>   -7.2938    1.0000 </r>
       <r>   -7.2826    1.0000 </r>
       <r>   -7.2719    1.0000 </r>
       <r>   -7.2626    1.0000 </r>
       <r>   -7.2550    1.0000 </r>
       <r>   -7.2477    1.0000 </r>
       <r>   -7.2026    1.0000 </r>
       <r>   -7.1799    1.0000 </r>
       <r>   -7.1798    1.0000 </r>
       <r>   -7.1384    1.0000 </r>
       <r>   -7.1156    1.0000 </r>
       <r>   -7.1099    1.0000 </r>
       <r>   -7.0617    1.0000 </r>
       <r>   -7.0590    1.0000 </r>
       <r>   -7.0366    1.0000 </r>
       <r>   -6.8607    1.0000 </r>
       <r>   -6.8385    1.0000 </r>
       <r>   -6.7837    1.0000 </r>
       <r>   -6.7495    1.0000 </r>
       <r>   -6.5045    1.0000 </r>
       <r>   -6.4614    1.0000 </r>
       <r>   -6.3589    1.0000 </r>
       <r>   -3.3601    1.0000 </r>
       <r>   -3.3088    1.0000 </r>
       <r>   -3.2850    1.0000 </r>
       <r>   -3.2324    1.0000 </r>
       <r>   -3.2113    1.0000 </r>
       <r>   -3.1038    1.0000 </r>
       <r>   -3.0677    1.0000 </r>
       <r>   -3.0328    1.0000 </r>
       <r>   -2.6816    1.0000 </r>
       <r>   -2.5978    1.0000 </r>
       <r>   -2.5968    1.0000 </r>
       <r>   -2.5387    1.0000 </r>
       <r>   -2.4755    1.0000 </r>
       <r>   -2.4387    1.0000 </r>
       <r>   -2.3829    1.0000 </r>
       <r>   -2.2993    1.0000 </r>
       <r>   -2.2763    1.0000 </r>
       <r>   -2.2074    1.0000 </r>
       <r>   -2.1032    1.0000 </r>
       <r>   -2.0178    1.0000 </r>
       <r>   -2.0038    1.0000 </r>
       <r>   -1.9794    1.0000 </r>
       <r>   -1.9342    1.0000 </r>
       <r>   -1.8715    1.0000 </r>
       <r>   -1.8616    1.0000 </r>
       <r>   -1.8254    1.0000 </r>
       <r>   -1.7974    1.0000 </r>
       <r>   -1.7760    1.0000 </r>
       <r>   -1.7638    1.0000 </r>
       <r>   -1.6965    1.0000 </r>
       <r>   -1.6524    1.0000 </r>
       <r>   -1.6087    1.0000 </r>
       <r>   -1.5917    1.0000 </r>
       <r>   -1.4973    1.0000 </r>
       <r>   -1.4932    1.0000 </r>
       <r>   -1.4481    1.0000 </r>
       <r>   -1.4337    1.0000 </r>
       <r>   -1.4249    1.0000 </r>
       <r>   -1.4202    1.0000 </r>
       <r>   -1.4172    1.0000 </r>
       <r>   -1.4008    1.0000 </r>
       <r>   -1.3957    1.0000 </r>
       <r>   -1.3581    1.0000 </r>
       <r>   -1.3565    1.0000 </r>
       <r>   -1.3481    1.0000 </r>
       <r>   -1.3280    1.0000 </r>
       <r>   -1.3264    1.0000 </r>
       <r>   -1.3095    1.0000 </r>
       <r>   -1.2997    1.0000 </r>
       <r>   -1.2352    1.0000 </r>
       <r>   -1.2199    1.0000 </r>
       <r>   -1.1999    1.0000 </r>
       <r>   -1.1772    1.0000 </r>
       <r>   -1.1614    1.0000 </r>
       <r>   -1.1330    1.0000 </r>
       <r>   -1.1108    1.0000 </r>
       <r>   -1.0912    1.0000 </r>
       <r>   -1.0663    1.0000 </r>
       <r>   -0.9990    1.0000 </r>
       <r>   -0.9495    1.0000 </r>
       <r>   -0.8529    1.0000 </r>
       <r>   -0.6874    1.0000 </r>
       <r>   -0.5833    1.0000 </r>
       <r>   -0.5659    1.0000 </r>
       <r>   -0.5153    1.0000 </r>
       <r>   -0.4645    1.0000 </r>
       <r>    0.0674    1.0000 </r>
       <r>    0.2308    1.0000 </r>
       <r>    0.6439    1.0000 </r>
       <r>    2.3645    0.0000 </r>
       <r>    2.4871    0.0000 </r>
       <r>    2.7699    0.0000 </r>
       <r>    2.9687    0.0000 </r>
       <r>    2.9740    0.0000 </r>
       <r>    3.0050    0.0000 </r>
       <r>    3.3347    0.0000 </r>
       <r>    3.4030    0.0000 </r>
       <r>    3.7881    0.0000 </r>
       <r>    4.1258    0.0000 </r>
       <r>    4.1735    0.0000 </r>
       <r>    4.2435    0.0000 </r>
       <r>    4.2881    0.0000 </r>
       <r>    4.4799    0.0000 </r>
       <r>    4.5159    0.0000 </r>
       <r>    4.5517    0.0000 </r>
       <r>    4.6072    0.0000 </r>
       <r>    4.8116    0.0000 </r>
       <r>    5.3495    0.0000 </r>
       <r>    5.5416    0.0000 </r>
       <r>    5.6065    0.0000 </r>
       <r>    5.6576    0.0000 </r>
       <r>    5.8147    0.0000 </r>
       <r>    5.9711    0.0000 </r>
       <r>    6.0472    0.0000 </r>
       <r>    6.0781    0.0000 </r>
       <r>    6.1210    0.0000 </r>
       <r>    6.1870    0.0000 </r>
       <r>    6.1991    0.0000 </r>
       <r>    6.3454    0.0000 </r>
       <r>    6.3685    0.0000 </r>
       <r>    6.4175    0.0000 </r>
       <r>    6.4702    0.0000 </r>
       <r>    6.4926    0.0000 </r>
       <r>    6.6218    0.0000 </r>
       <r>    6.6591    0.0000 </r>
      </set>
      <set comment="kpoint 6">
       <r>  -21.0543    1.0000 </r>
       <r>  -20.8911    1.0000 </r>
       <r>  -20.8622    1.0000 </r>
       <r>  -20.7851    1.0000 </r>
       <r>  -20.7246    1.0000 </r>
       <r>  -20.6514    1.0000 </r>
       <r>  -20.3155    1.0000 </r>
       <r>  -19.9934    1.0000 </r>
       <r>  -16.9126    1.0000 </r>
       <r>  -16.9005    1.0000 </r>
       <r>  -16.8695    1.0000 </r>
       <r>  -16.8538    1.0000 </r>
       <r>  -16.8456    1.0000 </r>
       <r>  -16.8324    1.0000 </r>
       <r>  -16.8101    1.0000 </r>
       <r>  -16.7976    1.0000 </r>
       <r>  -16.7915    1.0000 </r>
       <r>  -16.7884    1.0000 </r>
       <r>  -16.7828    1.0000 </r>
       <r>  -16.7818    1.0000 </r>
       <r>  -16.7794    1.0000 </r>
       <r>  -16.7773    1.0000 </r>
       <r>  -16.7729    1.0000 </r>
       <r>  -16.7719    1.0000 </r>
       <r>  -16.7173    1.0000 </r>
       <r>  -16.7161    1.0000 </r>
       <r>  -16.7087    1.0000 </r>
       <r>  -16.7075    1.0000 </r>
       <r>  -16.4552    1.0000 </r>
       <r>  -16.4502    1.0000 </r>
       <r>  -16.4205    1.0000 </r>
       <r>  -16.4189    1.0000 </r>
       <r>  -16.4098    1.0000 </r>
       <r>  -16.4090    1.0000 </r>
       <r>  -16.3870    1.0000 </r>
       <r>  -16.3814    1.0000 </r>
       <r>  -16.3097    1.0000 </r>
       <r>  -16.3092    1.0000 </r>
       <r>  -16.3025    1.0000 </r>
       <r>  -16.3021    1.0000 </r>
       <r>  -16.3016    1.0000 </r>
       <r>  -16.3013    1.0000 </r>
       <r>  -16.2944    1.0000 </r>
       <r>  -16.2932    1.0000 </r>
       <r>  -16.2896    1.0000 </r>
       <r>  -16.2886    1.0000 </r>
       <r>  -16.2841    1.0000 </r>
       <r>  -16.2827    1.0000 </r>
       <r>  -14.7003    1.0000 </r>
       <r>  -14.6451    1.0000 </r>
       <r>  -14.3541    1.0000 </r>
       <r>  -14.2840    1.0000 </r>
       <r>  -14.2757    1.0000 </r>
       <r>  -14.2610    1.0000 </r>
       <r>  -14.1567    1.0000 </r>
       <r>  -14.1197    1.0000 </r>
       <r>  -14.0872    1.0000 </r>
       <r>  -14.0757    1.0000 </r>
       <r>  -14.0384    1.0000 </r>
       <r>  -14.0321    1.0000 </r>
       <r>  -14.0285    1.0000 </r>
       <r>  -14.0237    1.0000 </r>
       <r>  -13.9332    1.0000 </r>
       <r>  -13.9151    1.0000 </r>
       <r>  -13.9084    1.0000 </r>
       <r>  -13.8975    1.0000 </r>
       <r>  -13.7983    1.0000 </r>
       <r>  -13.7792    1.0000 </r>
       <r>  -13.7619    1.0000 </r>
       <r>  -13.7474    1.0000 </r>
       <r>  -12.8645    1.0000 </r>
       <r>   -8.1748    1.0000 </r>
       <r>   -7.8412    1.0000 </r>
       <r>   -7.7560    1.0000 </r>
       <r>   -7.7537    1.0000 </r>
       <r>   -7.6669    1.0000 </r>
       <r>   -7.4671    1.0000 </r>
       <r>   -7.4666    1.0000 </r>
       <r>   -7.4292    1.0000 </r>
       <r>   -7.3364    1.0000 </r>
       <r>   -7.3195    1.0000 </r>
       <r>   -7.2863    1.0000 </r>
       <r>   -7.2820    1.0000 </r>
       <r>   -7.2725    1.0000 </r>
       <r>   -7.2561    1.0000 </r>
       <r>   -7.2498    1.0000 </r>
       <r>   -7.2052    1.0000 </r>
       <r>   -7.1801    1.0000 </r>
       <r>   -7.1778    1.0000 </r>
       <r>   -7.1579    1.0000 </r>
       <r>   -7.1451    1.0000 </r>
       <r>   -7.1407    1.0000 </r>
       <r>   -7.1104    1.0000 </r>
       <r>   -7.0899    1.0000 </r>
       <r>   -7.0593    1.0000 </r>
       <r>   -7.0520    1.0000 </r>
       <r>   -7.0323    1.0000 </r>
       <r>   -6.8600    1.0000 </r>
       <r>   -6.7837    1.0000 </r>
       <r>   -6.7484    1.0000 </r>
       <r>   -6.5047    1.0000 </r>
       <r>   -6.4617    1.0000 </r>
       <r>   -6.3586    1.0000 </r>
       <r>   -3.3522    1.0000 </r>
       <r>   -3.2933    1.0000 </r>
       <r>   -3.2571    1.0000 </r>
       <r>   -3.2510    1.0000 </r>
[...]
        <r>  0.0006  0.0073  0.0013 </r>
        <r>  0.0000  0.0010  0.0002 </r>
        <r>  0.0006  0.0012  0.0013 </r>
        <r>  0.0016  0.0018  0.0010 </r>
        <r>  0.0002  0.0058  0.0010 </r>
        <r>  0.0006  0.0073  0.0013 </r>
        <r>  0.0000  0.0008  0.0008 </r>
        <r>  0.0001  0.0008  0.0003 </r>
        <r>  0.0000  0.0013  0.0008 </r>
       </set>
       <set comment="band 199">
        <r>  0.0000  0.0000  0.0077 </r>
        <r>  0.0000  0.0002  0.0038 </r>
        <r>  0.0017  0.0013  0.0110 </r>
        <r>  0.0061  0.0011  0.0061 </r>
        <r>  0.0000  0.0010  0.0010 </r>
        <r>  0.0000  0.0014  0.0007 </r>
        <r>  0.0089  0.0007  0.0082 </r>
        <r>  0.0000  0.0017  0.0169 </r>
        <r>  0.0000  0.0006  0.0001 </r>
        <r>  0.0004  0.0048  0.0008 </r>
        <r>  0.0000  0.0047  0.0003 </r>
        <r>  0.0001  0.0041  0.0007 </r>
        <r>  0.0000  0.0047  0.0003 </r>
        <r>  0.0001  0.0041  0.0007 </r>
        <r>  0.0000  0.0007  0.0001 </r>
        <r>  0.0004  0.0048  0.0008 </r>
        <r>  0.0030  0.0001  0.0032 </r>
        <r>  0.0000  0.0016  0.0048 </r>
        <r>  0.0000  0.0000  0.0001 </r>
        <r>  0.0000  0.0038  0.0003 </r>
        <r>  0.0000  0.0049  0.0005 </r>
        <r>  0.0024  0.0039  0.0040 </r>
        <r>  0.0000  0.0044  0.0005 </r>
        <r>  0.0000  0.0000  0.0000 </r>
        <r>  0.0004  0.0010  0.0004 </r>
        <r>  0.0007  0.0043  0.0008 </r>
        <r>  0.0001  0.0033  0.0010 </r>
        <r>  0.0004  0.0008  0.0007 </r>
        <r>  0.0005  0.0004  0.0007 </r>
        <r>  0.0007  0.0016  0.0003 </r>
        <r>  0.0018  0.0023  0.0021 </r>
        <r>  0.0004  0.0010  0.0004 </r>
        <r>  0.0007  0.0042  0.0008 </r>
        <r>  0.0001  0.0033  0.0010 </r>
        <r>  0.0007  0.0016  0.0003 </r>
        <r>  0.0018  0.0023  0.0021 </r>
        <r>  0.0004  0.0008  0.0007 </r>
        <r>  0.0005  0.0004  0.0007 </r>
        <r>  0.0000  0.0001  0.0007 </r>
       </set>
       <set comment="band 200">
        <r>  0.0070  0.0018  0.0153 </r>
        <r>  0.0001  0.0002  0.0057 </r>
        <r>  0.0000  0.0013  0.0113 </r>
        <r>  0.0000  0.0000  0.0065 </r>
        <r>  0.0002  0.0005  0.0053 </r>
        <r>  0.0053  0.0004  0.0170 </r>
        <r>  0.0000  0.0000  0.0001 </r>
        <r>  0.0000  0.0005  0.0058 </r>
        <r>  0.0000  0.0016  0.0003 </r>
        <r>  0.0000  0.0069  0.0004 </r>
        <r>  0.0000  0.0042  0.0001 </r>
        <r>  0.0002  0.0109  0.0001 </r>
        <r>  0.0000  0.0042  0.0001 </r>
        <r>  0.0002  0.0109  0.0001 </r>
        <r>  0.0000  0.0016  0.0003 </r>
        <r>  0.0000  0.0069  0.0004 </r>
        <r>  0.0000  0.0000  0.0001 </r>
        <r>  0.0000  0.0045  0.0000 </r>
        <r>  0.0005  0.0007  0.0004 </r>
        <r>  0.0001  0.0036  0.0028 </r>
        <r>  0.0000  0.0002  0.0001 </r>
        <r>  0.0000  0.0007  0.0000 </r>
        <r>  0.0001  0.0029  0.0020 </r>
        <r>  0.0010  0.0036  0.0020 </r>
        <r>  0.0003  0.0011  0.0007 </r>
        <r>  0.0002  0.0018  0.0012 </r>
        <r>  0.0000  0.0023  0.0004 </r>
        <r>  0.0000  0.0006  0.0005 </r>
        <r>  0.0023  0.0011  0.0027 </r>
        <r>  0.0001  0.0045  0.0009 </r>
        <r>  0.0015  0.0041  0.0008 </r>
        <r>  0.0003  0.0011  0.0007 </r>
        <r>  0.0002  0.0019  0.0012 </r>
        <r>  0.0000  0.0023  0.0004 </r>
        <r>  0.0001  0.0044  0.0009 </r>
        <r>  0.0015  0.0041  0.0007 </r>
        <r>  0.0000  0.0006  0.0005 </r>
        <r>  0.0023  0.0011  0.0027 </r>
        <r>  0.0004  0.0003  0.0027 </r>
       </set>
       <set comment="band 201">
        <r>  0.0000  0.0003  0.0001 </r>
        <r>  0.0000  0.0001  0.0023 </r>
        <r>  0.0039  0.0013  0.0147 </r>
        <r>  0.0048  0.0008  0.0101 </r>
        <r>  0.0000  0.0001  0.0047 </r>
        <r>  0.0000  0.0006  0.0038 </r>
        <r>  0.0009  0.0022  0.0178 </r>
        <r>  0.0140  0.0002  0.0043 </r>
        <r>  0.0000  0.0069  0.0003 </r>
        <r>  0.0001  0.0039  0.0001 </r>
        <r>  0.0000  0.0070  0.0001 </r>
        <r>  0.0000  0.0019  0.0001 </r>
        <r>  0.0000  0.0070  0.0001 </r>
        <r>  0.0000  0.0019  0.0001 </r>
        <r>  0.0000  0.0069  0.0003 </r>
        <r>  0.0001  0.0039  0.0001 </r>
        <r>  0.0008  0.0067  0.0028 </r>
        <r>  0.0006  0.0031  0.0008 </r>
        <r>  0.0000  0.0089  0.0003 </r>
        <r>  0.0000  0.0001  0.0000 </r>
        <r>  0.0039  0.0013  0.0049 </r>
        <r>  0.0001  0.0000  0.0050 </r>
        <r>  0.0000  0.0018  0.0000 </r>
        <r>  0.0000  0.0015  0.0001 </r>
        <r>  0.0004  0.0006  0.0006 </r>
        <r>  0.0004  0.0025  0.0011 </r>
        <r>  0.0002  0.0008  0.0004 </r>
        <r>  0.0002  0.0025  0.0006 </r>
        <r>  0.0007  0.0008  0.0004 </r>
        <r>  0.0014  0.0047  0.0021 </r>
        <r>  0.0003  0.0021  0.0018 </r>
        <r>  0.0003  0.0006  0.0006 </r>
        <r>  0.0004  0.0025  0.0011 </r>
        <r>  0.0002  0.0008  0.0004 </r>
        <r>  0.0014  0.0047  0.0021 </r>
        <r>  0.0003  0.0021  0.0018 </r>
        <r>  0.0002  0.0025  0.0006 </r>
        <r>  0.0007  0.0008  0.0003 </r>
        <r>  0.0000  0.0002  0.0002 </r>
       </set>
       <set comment="band 202">
        <r>  0.0007  0.0004  0.0036 </r>
        <r>  0.0014  0.0011  0.0018 </r>
        <r>  0.0000  0.0000  0.0006 </r>
        <r>  0.0000  0.0011  0.0044 </r>
        <r>  0.0207  0.0004  0.0174 </r>
        <r>  0.0000  0.0000  0.0024 </r>
        <r>  0.0000  0.0004  0.0095 </r>
        <r>  0.0000  0.0002  0.0239 </r>
        <r>  0.0000  0.0047  0.0001 </r>
        <r>  0.0001  0.0041  0.0001 </r>
        <r>  0.0000  0.0062  0.0001 </r>
        <r>  0.0003  0.0027  0.0002 </r>
        <r>  0.0000  0.0061  0.0001 </r>
        <r>  0.0003  0.0027  0.0002 </r>
        <r>  0.0000  0.0048  0.0001 </r>
        <r>  0.0001  0.0040  0.0001 </r>
        <r>  0.0000  0.0018  0.0000 </r>
        <r>  0.0000  0.0015  0.0001 </r>
        <r>  0.0004  0.0032  0.0012 </r>
        <r>  0.0003  0.0012  0.0009 </r>
        <r>  0.0000  0.0012  0.0001 </r>
        <r>  0.0000  0.0014  0.0000 </r>
        <r>  0.0008  0.0005  0.0001 </r>
        <r>  0.0005  0.0051  0.0018 </r>
        <r>  0.0022  0.0028  0.0030 </r>
        <r>  0.0001  0.0053  0.0002 </r>
        <r>  0.0005  0.0012  0.0013 </r>
        <r>  0.0024  0.0010  0.0025 </r>
        <r>  0.0000  0.0009  0.0002 </r>
        <r>  0.0002  0.0033  0.0002 </r>
        <r>  0.0022  0.0013  0.0035 </r>
        <r>  0.0021  0.0027  0.0030 </r>
        <r>  0.0000  0.0053  0.0002 </r>
        <r>  0.0005  0.0012  0.0013 </r>
        <r>  0.0002  0.0033  0.0002 </r>
        <r>  0.0021  0.0013  0.0036 </r>
        <r>  0.0024  0.0010  0.0025 </r>
        <r>  0.0000  0.0009  0.0002 </r>
        <r>  0.0000  0.0012  0.0005 </r>
       </set>
       <set comment="band 203">
        <r>  0.0000  0.0000  0.0066 </r>
        <r>  0.0000  0.0006  0.0028 </r>
        <r>  0.0006  0.0003  0.0397 </r>
        <r>  0.0027  0.0001  0.0146 </r>
        <r>  0.0000  0.0000  0.0023 </r>
        <r>  0.0000  0.0004  0.0085 </r>
        <r>  0.0036  0.0011  0.0059 </r>
        <r>  0.0004  0.0020  0.0243 </r>
        <r>  0.0001  0.0073  0.0005 </r>
        <r>  0.0000  0.0048  0.0004 </r>
        <r>  0.0000  0.0025  0.0003 </r>
        <r>  0.0000  0.0053  0.0003 </r>
        <r>  0.0000  0.0023  0.0003 </r>
        <r>  0.0000  0.0050  0.0003 </r>
        <r>  0.0001  0.0075  0.0005 </r>
        <r>  0.0000  0.0046  0.0004 </r>
        <r>  0.0015  0.0018  0.0014 </r>
        <r>  0.0006  0.0005  0.0011 </r>
        <r>  0.0000  0.0001  0.0004 </r>
        <r>  0.0000  0.0019  0.0003 </r>
        <r>  0.0000  0.0015  0.0021 </r>
        <r>  0.0031  0.0007  0.0039 </r>
        <r>  0.0000  0.0004  0.0001 </r>
        <r>  0.0000  0.0014  0.0003 </r>
        <r>  0.0006  0.0001  0.0008 </r>
        <r>  0.0000  0.0033  0.0028 </r>
        <r>  0.0003  0.0015  0.0015 </r>
        <r>  0.0001  0.0008  0.0007 </r>
        <r>  0.0007  0.0049  0.0005 </r>
        <r>  0.0001  0.0007  0.0019 </r>
        <r>  0.0001  0.0010  0.0016 </r>
        <r>  0.0006  0.0001  0.0009 </r>
        <r>  0.0000  0.0033  0.0028 </r>
        <r>  0.0003  0.0015  0.0014 </r>
        <r>  0.0001  0.0007  0.0018 </r>
        <r>  0.0001  0.0012  0.0016 </r>
        <r>  0.0001  0.0008  0.0007 </r>
        <r>  0.0007  0.0048  0.0006 </r>
        <r>  0.0000  0.0000  0.0011 </r>
       </set>
       <set comment="band 204">
        <r>  0.0084  0.0004  0.0079 </r>
        <r>  0.0015  0.0003  0.0037 </r>
        <r>  0.0000  0.0017  0.0076 </r>
        <r>  0.0000  0.0001  0.0119 </r>
        <r>  0.0000  0.0026  0.0043 </r>
        <r>  0.0060  0.0013  0.0082 </r>
        <r>  0.0000  0.0000  0.0076 </r>
        <r>  0.0000  0.0003  0.0084 </r>
        <r>  0.0001  0.0023  0.0001 </r>
        <r>  0.0003  0.0112  0.0001 </r>
        <r>  0.0000  0.0034  0.0002 </r>
        <r>  0.0000  0.0108  0.0002 </r>
        <r>  0.0000  0.0045  0.0002 </r>
        <r>  0.0000  0.0112  0.0003 </r>
        <r>  0.0001  0.0021  0.0001 </r>
        <r>  0.0003  0.0113  0.0001 </r>
        <r>  0.0000  0.0022  0.0003 </r>
        <r>  0.0000  0.0000  0.0004 </r>
        <r>  0.0005  0.0005  0.0006 </r>
        <r>  0.0012  0.0085  0.0013 </r>
        <r>  0.0000  0.0003  0.0002 </r>
        <r>  0.0000  0.0040  0.0002 </r>
        <r>  0.0009  0.0033  0.0016 </r>
        <r>  0.0000  0.0015  0.0009 </r>
        <r>  0.0006  0.0015  0.0011 </r>
        <r>  0.0017  0.0005  0.0021 </r>
        <r>  0.0006  0.0001  0.0006 </r>
        <r>  0.0004  0.0020  0.0011 </r>
        <r>  0.0000  0.0024  0.0011 </r>
        <r>  0.0000  0.0020  0.0016 </r>
        <r>  0.0013  0.0088  0.0009 </r>
        <r>  0.0008  0.0012  0.0013 </r>
        <r>  0.0014  0.0007  0.0017 </r>
        <r>  0.0006  0.0001  0.0008 </r>
        <r>  0.0001  0.0017  0.0017 </r>
        <r>  0.0015  0.0079  0.0011 </r>
        <r>  0.0003  0.0023  0.0010 </r>
        <r>  0.0000  0.0024  0.0010 </r>
        <r>  0.0016  0.0018  0.0007 </r>
       </set>
       <set comment="band 205">
        <r>  0.0006  0.0002  0.0058 </r>
        <r>  0.0003  0.0002  0.0020 </r>
        <r>  0.0003  0.0002  0.0507 </r>
        <r>  0.0017  0.0004  0.0456 </r>
        <r>  0.0000  0.0001  0.0013 </r>
        <r>  0.0001  0.0002  0.0019 </r>
        <r>  0.0001  0.0004  0.0033 </r>
        <r>  0.0000  0.0019  0.0155 </r>
        <r>  0.0000  0.0014  0.0001 </r>
        <r>  0.0001  0.0020  0.0002 </r>
        <r>  0.0001  0.0043  0.0005 </r>
        <r>  0.0000  0.0038  0.0005 </r>
        <r>  0.0001  0.0026  0.0006 </r>
        <r>  0.0000  0.0035  0.0006 </r>
        <r>  0.0000  0.0013  0.0001 </r>
        <r>  0.0000  0.0006  0.0001 </r>
        <r>  0.0007  0.0020  0.0040 </r>
        <r>  0.0014  0.0028  0.0032 </r>
        <r>  0.0000  0.0012  0.0002 </r>
        <r>  0.0001  0.0003  0.0002 </r>
        <r>  0.0004  0.0023  0.0031 </r>
        <r>  0.0002  0.0035  0.0024 </r>
        <r>  0.0001  0.0008  0.0008 </r>
        <r>  0.0000  0.0008  0.0006 </r>
        <r>  0.0001  0.0012  0.0007 </r>
        <r>  0.0006  0.0019  0.0021 </r>
        <r>  0.0000  0.0007  0.0007 </r>
        <r>  0.0002  0.0008  0.0006 </r>
        <r>  0.0002  0.0009  0.0007 </r>
        <r>  0.0003  0.0019  0.0009 </r>
        <r>  0.0001  0.0021  0.0019 </r>
        <r>  0.0001  0.0012  0.0010 </r>
        <r>  0.0011  0.0020  0.0026 </r>
        <r>  0.0000  0.0009  0.0008 </r>
        <r>  0.0003  0.0019  0.0012 </r>
        <r>  0.0000  0.0023  0.0019 </r>
        <r>  0.0001  0.0005  0.0005 </r>
        <r>  0.0002  0.0008  0.0008 </r>
        <r>  0.0001  0.0002  0.0002 </r>
       </set>
       <set comment="band 206">
        <r>  0.0002  0.0002  0.0088 </r>
        <r>  0.0002  0.0001  0.0065 </r>
        <r>  0.0040  0.0011  0.0176 </r>
        <r>  0.0005  0.0001  0.0276 </r>
        <r>  0.0000  0.0003  0.0175 </r>
        <r>  0.0000  0.0000  0.0059 </r>
        <r>  0.0025  0.0006  0.0125 </r>
        <r>  0.0021  0.0006  0.0108 </r>
        <r>  0.0000  0.0024  0.0001 </r>
        <r>  0.0000  0.0073  0.0006 </r>
        <r>  0.0001  0.0064  0.0006 </r>
        <r>  0.0000  0.0020  0.0008 </r>
        <r>  0.0001  0.0064  0.0005 </r>
        <r>  0.0000  0.0019  0.0008 </r>
        <r>  0.0000  0.0021  0.0001 </r>
        <r>  0.0000  0.0063  0.0006 </r>
        <r>  0.0014  0.0004  0.0033 </r>
        <r>  0.0003  0.0009  0.0021 </r>
        <r>  0.0000  0.0002  0.0001 </r>
        <r>  0.0000  0.0005  0.0001 </r>
        <r>  0.0001  0.0001  0.0020 </r>
        <r>  0.0001  0.0019  0.0005 </r>
        <r>  0.0000  0.0027  0.0002 </r>
        <r>  0.0000  0.0001  0.0011 </r>
        <r>  0.0004  0.0048  0.0011 </r>
        <r>  0.0004  0.0011  0.0016 </r>
        <r>  0.0000  0.0016  0.0026 </r>
        <r>  0.0006  0.0020  0.0016 </r>
        <r>  0.0005  0.0008  0.0009 </r>
        <r>  0.0009  0.0023  0.0021 </r>
        <r>  0.0007  0.0004  0.0020 </r>
        <r>  0.0004  0.0049  0.0012 </r>
        <r>  0.0005  0.0009  0.0019 </r>
        <r>  0.0000  0.0018  0.0027 </r>
        <r>  0.0010  0.0022  0.0021 </r>
        <r>  0.0006  0.0004  0.0020 </r>
        <r>  0.0005  0.0018  0.0014 </r>
        <r>  0.0005  0.0007  0.0008 </r>
        <r>  0.0000  0.0002  0.0008 </r>
       </set>
       <set comment="band 207">
        <r>  0.0004  0.0004  0.0131 </r>
        <r>  0.0058  0.0015  0.0093 </r>
        <r>  0.0002  0.0002  0.0146 </r>
        <r>  0.0000  0.0004  0.0041 </r>
        <r>  0.0000  0.0011  0.0125 </r>
        <r>  0.0032  0.0002  0.0075 </r>
        <r>  0.0002  0.0014  0.0040 </r>
        <r>  0.0001  0.0004  0.0268 </r>
        <r>  0.0000  0.0014  0.0005 </r>
        <r>  0.0000  0.0055  0.0003 </r>
        <r>  0.0000  0.0059  0.0003 </r>
        <r>  0.0000  0.0035  0.0007 </r>
        <r>  0.0000  0.0082  0.0002 </r>
        <r>  0.0000  0.0044  0.0008 </r>
        <r>  0.0000  0.0024  0.0005 </r>
        <r>  0.0001  0.0036  0.0005 </r>
        <r>  0.0001  0.0025  0.0002 </r>
        <r>  0.0000  0.0003  0.0001 </r>
        <r>  0.0001  0.0031  0.0007 </r>
        <r>  0.0003  0.0001  0.0005 </r>
        <r>  0.0001  0.0034  0.0011 </r>
        <r>  0.0000  0.0009  0.0007 </r>
        <r>  0.0023  0.0015  0.0032 </r>
        <r>  0.0000  0.0003  0.0017 </r>
        <r>  0.0004  0.0006  0.0016 </r>
        <r>  0.0003  0.0017  0.0013 </r>
        <r>  0.0005  0.0028  0.0012 </r>
        <r>  0.0013  0.0022  0.0016 </r>
        <r>  0.0005  0.0022  0.0021 </r>
        <r>  0.0023  0.0010  0.0010 </r>
        <r>  0.0004  0.0010  0.0015 </r>
        <r>  0.0003  0.0014  0.0014 </r>
        <r>  0.0005  0.0011  0.0016 </r>
        <r>  0.0004  0.0022  0.0009 </r>
        <r>  0.0017  0.0021  0.0010 </r>
        <r>  0.0002  0.0005  0.0014 </r>
        <r>  0.0010  0.0025  0.0014 </r>
        <r>  0.0007  0.0018  0.0027 </r>
        <r>  0.0001  0.0024  0.0013 </r>
       </set>
       <set comment="band 208">
        <r>  0.0050  0.0004  0.0033 </r>
        <r>  0.0037  0.0004  0.0079 </r>
        <r>  0.0002  0.0006  0.0146 </r>
        <r>  0.0000  0.0002  0.0349 </r>
        <r>  0.0021  0.0007  0.0134 </r>
        <r>  0.0003  0.0003  0.0055 </r>
        <r>  0.0003  0.0006  0.0079 </r>
        <r>  0.0002  0.0004  0.0033 </r>
        <r>  0.0000  0.0072  0.0006 </r>
        <r>  0.0001  0.0059  0.0002 </r>
        <r>  0.0000  0.0024  0.0006 </r>
        <r>  0.0000  0.0038  0.0005 </r>
        <r>  0.0000  0.0012  0.0006 </r>
        <r>  0.0000  0.0019  0.0006 </r>
        <r>  0.0001  0.0090  0.0005 </r>
        <r>  0.0003  0.0079  0.0005 </r>
        <r>  0.0001  0.0023  0.0006 </r>
        <r>  0.0001  0.0019  0.0004 </r>
        <r>  0.0005  0.0010  0.0014 </r>
        <r>  0.0009  0.0016  0.0016 </r>
        <r>  0.0001  0.0007  0.0008 </r>
        <r>  0.0000  0.0013  0.0005 </r>
        <r>  0.0003  0.0027  0.0011 </r>
        <r>  0.0011  0.0031  0.0013 </r>
        <r>  0.0001  0.0020  0.0019 </r>
        <r>  0.0017  0.0016  0.0017 </r>
        <r>  0.0016  0.0013  0.0025 </r>
        <r>  0.0003  0.0010  0.0023 </r>
        <r>  0.0002  0.0019  0.0012 </r>
        <r>  0.0001  0.0015  0.0010 </r>
        <r>  0.0000  0.0021  0.0009 </r>
        <r>  0.0000  0.0014  0.0017 </r>
        <r>  0.0011  0.0014  0.0013 </r>
        <r>  0.0020  0.0010  0.0033 </r>
        <r>  0.0002  0.0011  0.0004 </r>
        <r>  0.0001  0.0030  0.0013 </r>
        <r>  0.0005  0.0013  0.0025 </r>
        <r>  0.0004  0.0020  0.0014 </r>
        <r>  0.0001  0.0027  0.0004 </r>
       </set>
      </set>
     </set>
    </set>
   </array>
  </projected>
 </calculation>
 <structure name="finalpos" >
  <crystal>
   <varray name="basis" >
    <v>       8.45648900       0.00000000       8.04030100 </v>
    <v>       0.00000000      11.72984700       0.00000000 </v>
    <v>      -8.45648900       0.00000000       8.04030100 </v>
   </varray>
   <i name="volume">   1595.08833419 </i>
   <varray name="rec_basis" >
    <v>       0.05912619      -0.00000000       0.06218673 </v>
    <v>       0.00000000       0.08525260      -0.00000000 </v>
    <v>      -0.05912619       0.00000000       0.06218673 </v>
   </varray>
  </crystal>
  <varray name="positions" >
   <v>       0.27300300       0.24988200       0.20148600 </v>
   <v>       0.77094900       0.25026900       0.73407700 </v>
   <v>       0.70608200       0.75002800       0.25572700 </v>
   <v>       0.20774800       0.74997400       0.78329700 </v>
   <v>       0.28973500       0.25007600       0.72868200 </v>
   <v>       0.79385300       0.25016100       0.22213300 </v>
   <v>       0.72877100       0.75000400       0.79842700 </v>
   <v>       0.22808800       0.74997700       0.28141600 </v>
   <v>       0.00066500       0.99981500       0.99984300 </v>
   <v>       0.49190000       0.99752400       0.50104900 </v>
   <v>       0.49918500       0.00079800       0.99921900 </v>
   <v>       0.00475000       0.99824100       0.50008000 </v>
   <v>       0.49917200       0.49926900       0.99937300 </v>
   <v>       0.00486100       0.50180100       0.50000200 </v>
   <v>       0.00070200       0.50033900       0.99985800 </v>
   <v>       0.49194300       0.50257600       0.50125100 </v>
   <v>       0.47239300       0.75003000       0.97040800 </v>
   <v>       0.96429800       0.74991000       0.45373000 </v>
   <v>       0.97490000       0.25009400       0.97475100 </v>
   <v>       0.46715700       0.25000200       0.47053200 </v>
   <v>       0.02663400       0.75008800       0.03313400 </v>
   <v>       0.55230300       0.74997300       0.52407700 </v>
   <v>       0.53249800       0.25003900       0.03111600 </v>
   <v>       0.01766900       0.24997700       0.54104200 </v>
   <v>       0.24797600       0.46737100       0.94783900 </v>
   <v>       0.45270800       0.53210600       0.24845400 </v>
   <v>       0.94823900       0.53485200       0.74577900 </v>
   <v>       0.54927400       0.03097100       0.74953500 </v>
   <v>       0.05108600       0.03638200       0.25380400 </v>
   <v>       0.75296400       0.97511200       0.05004700 </v>
   <v>       0.25043600       0.95822000       0.55224100 </v>
   <v>       0.24795900       0.03270400       0.94755800 </v>
   <v>       0.45255300       0.96791500       0.24836200 </v>
   <v>       0.94805200       0.96523600       0.74596500 </v>
   <v>       0.75299800       0.52497200       0.05003800 </v>
   <v>       0.25047900       0.54162800       0.55217800 </v>
   <v>       0.54908200       0.46905600       0.74958000 </v>
   <v>       0.05164000       0.46360100       0.25373700 </v>
   <v>       0.74752100       0.25009200       0.44988500 </v>
  </varray>
 </structure>
</modeling>
