       N       E                     dE             d eps       ncg     rms          rms(c)
DAV:   1     0.133718714713E+04    0.13372E+04   -0.11056E+05  3472   0.973E+02
DAV:   2    -0.111215905433E+04   -0.24493E+04   -0.23643E+04  4088   0.300E+02
DAV:   3    -0.147426700731E+04   -0.36211E+03   -0.36015E+03  4440   0.137E+02
DAV:   4    -0.148591398903E+04   -0.11647E+02   -0.11611E+02  3872   0.326E+01
DAV:   5    -0.148647939652E+04   -0.56541E+00   -0.56513E+00  4480   0.562E+00    0.109E+01
DAV:   6    -0.140881077046E+04    0.77669E+02   -0.23495E+01  4312   0.311E+01    0.766E+00
DAV:   7    -0.140829778863E+04    0.51298E+00   -0.87609E+00  4120   0.568E+00    0.379E+00
DAV:   8    -0.140846667072E+04   -0.16888E+00   -0.45727E-01  4096   0.208E+00    0.218E+00
DAV:   9    -0.140852766623E+04   -0.60996E-01   -0.15579E-01  3912   0.128E+00    0.440E-01
DAV:  10    -0.140853083798E+04   -0.31718E-02   -0.19830E-02  4672   0.435E-01    0.313E-01
DAV:  11    -0.140853358240E+04   -0.27444E-02   -0.35243E-03  3864   0.183E-01    0.123E-01
DAV:  12    -0.140853593470E+04   -0.23523E-02   -0.42637E-03  3656   0.174E-01    0.104E-01
DAV:  13    -0.140853550131E+04    0.43340E-03   -0.17417E-03  4520   0.123E-01    0.417E-02
DAV:  14    -0.140853552123E+04   -0.19926E-04   -0.38642E-04  3856   0.384E-02    0.281E-02
DAV:  15    -0.140853551234E+04    0.88935E-05   -0.44407E-05  3712   0.158E-02    0.159E-02
DAV:  16    -0.140853559095E+04   -0.78609E-04   -0.35937E-05  3976   0.192E-02    0.674E-03
DAV:  17    -0.140853558479E+04    0.61532E-05   -0.58062E-06  3680   0.641E-03    0.435E-03
DAV:  18    -0.140853558168E+04    0.31105E-05   -0.18866E-06  2704   0.312E-03    0.177E-03
DAV:  19    -0.140853557885E+04    0.28318E-05   -0.36197E-07  2240   0.206E-03    0.103E-03
DAV:  20    -0.140853557693E+04    0.19233E-05   -0.20361E-07  2032   0.130E-03    0.992E-04
DAV:  21    -0.140853557677E+04    0.15351E-06   -0.78752E-08  2000   0.110E-03
   1 F= -.14085356E+04 E0= -.14085356E+04  d E =-.123623E-13
