CsPbBr3 cubic bulk                      
           1
     8.456489    0.000000    8.040301
     0.000000   11.729847    0.000000
    -8.456489    0.000000    8.040301
   Cs   Pb   Br
   8   8  23
Direct configuration=     1
   0.26823600  0.24938400  0.19913600
   0.77375500  0.24118900  0.72590800
   0.71531000  0.75967500  0.25429400
   0.20292600  0.75423200  0.78139700
   0.28608000  0.24602200  0.73110800
   0.79556400  0.24675900  0.22557900
   0.73573000  0.75038900  0.80538300
   0.22179800  0.75254300  0.27901700
   0.00085100  0.00080000  0.00020400
   0.50099300  0.00322700  0.49867500
   0.49902700  0.00014500  0.99980000
   0.00151600  0.00011600  0.50001400
   0.49963500  0.49909300  0.00015800
   0.00354600  0.50358300  0.50046900
   0.00003000  0.49926800  0.99989700
   0.48918400  0.49511300  0.50169200
   0.47283400  0.74954100  0.96355700
   0.96716900  0.75029100  0.45711700
   0.97368300  0.25022800  0.97263700
   0.46242800  0.24817000  0.46756000
   0.01965500  0.74994700  0.03139000
   0.52980900  0.24986200  0.03719600
   0.02210400  0.25307500  0.53810500
   0.24760100  0.46961600  0.94769800
   0.45418400  0.53875200  0.25171600
   0.94751600  0.53216500  0.74599400
   0.54787200  0.02880900  0.75080100
   0.05050000  0.03513800  0.25256600
   0.75268500  0.97832500  0.04498300
   0.25601000  0.95767400  0.54765400
   0.24825500  0.03128000  0.94937700
   0.74837900  0.03356300  0.44937200
   0.45231900  0.96074300  0.24976900
   0.95104900  0.96538200  0.74729100
   0.75226900  0.52639800  0.05377700
   0.24899400  0.54441500  0.55233900
   0.54977300  0.46318300  0.75007000
   0.05083700  0.46491100  0.25371300
   0.65294800  0.61471100  0.49261900
