  20  20   1   0
  0.4000679E+02  0.8420018E-09  0.1176381E-08  0.8077981E-09  0.5000000E-15
   1.0000000000000000E-004
  CAR 
 CsPbBr3 cubic bulk                      
      8.62982597    -22.14191850  301      0.55224305      1.00000000
    -22.142  0.0000E+00  0.0000E+00
    -22.039  0.0000E+00  0.0000E+00
    -21.937  0.0000E+00  0.0000E+00
    -21.834  0.0000E+00  0.0000E+00
    -21.732  0.0000E+00  0.0000E+00
    -21.629  0.0000E+00  0.0000E+00
    -21.526  0.0000E+00  0.0000E+00
    -21.424  0.0000E+00  0.0000E+00
    -21.321  0.0000E+00  0.0000E+00
    -21.219  0.0000E+00  0.0000E+00
    -21.116  0.0000E+00  0.0000E+00
    -21.014  0.0000E+00  0.0000E+00
    -20.911  0.0000E+00  0.0000E+00
    -20.808  0.0000E+00  0.0000E+00
    -20.706  0.7799E+02  0.8000E+01
    -20.603  0.0000E+00  0.8000E+01
    -20.501  0.0000E+00  0.8000E+01
    -20.398  0.0000E+00  0.8000E+01
    -20.296  0.0000E+00  0.8000E+01
    -20.193  0.0000E+00  0.8000E+01
    -20.090  0.0000E+00  0.8000E+01
    -19.988  0.0000E+00  0.8000E+01
    -19.885  0.0000E+00  0.8000E+01
    -19.783  0.0000E+00  0.8000E+01
    -19.680  0.0000E+00  0.8000E+01
    -19.578  0.0000E+00  0.8000E+01
    -19.475  0.0000E+00  0.8000E+01
    -19.372  0.0000E+00  0.8000E+01
    -19.270  0.0000E+00  0.8000E+01
    -19.167  0.0000E+00  0.8000E+01
    -19.065  0.0000E+00  0.8000E+01
    -18.962  0.0000E+00  0.8000E+01
    -18.860  0.0000E+00  0.8000E+01
    -18.757  0.0000E+00  0.8000E+01
    -18.654  0.0000E+00  0.8000E+01
    -18.552  0.0000E+00  0.8000E+01
    -18.449  0.0000E+00  0.8000E+01
    -18.347  0.0000E+00  0.8000E+01
    -18.244  0.0000E+00  0.8000E+01
    -18.142  0.0000E+00  0.8000E+01
    -18.039  0.0000E+00  0.8000E+01
    -17.936  0.0000E+00  0.8000E+01
    -17.834  0.0000E+00  0.8000E+01
    -17.731  0.0000E+00  0.8000E+01
    -17.629  0.0000E+00  0.8000E+01
    -17.526  0.0000E+00  0.8000E+01
    -17.424  0.0000E+00  0.8000E+01
    -17.321  0.0000E+00  0.8000E+01
    -17.218  0.0000E+00  0.8000E+01
    -17.116  0.0000E+00  0.8000E+01
    -17.013  0.0000E+00  0.8000E+01
    -16.911  0.0000E+00  0.8000E+01
    -16.808  0.0000E+00  0.8000E+01
    -16.706  0.0000E+00  0.8000E+01
    -16.603  0.0000E+00  0.8000E+01
    -16.500  0.1383E-14  0.8000E+01
    -16.398  0.7837E+02  0.1604E+02
    -16.295  0.5261E+02  0.2484E+02
    -16.193  0.0000E+00  0.4800E+02
    -16.090  0.0000E+00  0.4800E+02
    -15.988  0.0000E+00  0.4800E+02
    -15.885  0.0000E+00  0.4800E+02
    -15.782  0.0000E+00  0.4800E+02
    -15.680  0.0000E+00  0.4800E+02
    -15.577  0.0000E+00  0.4800E+02
    -15.475  0.0000E+00  0.4800E+02
    -15.372  0.0000E+00  0.4800E+02
    -15.270  0.0000E+00  0.4800E+02
    -15.167  0.0000E+00  0.4800E+02
    -15.064  0.0000E+00  0.4800E+02
    -14.962  0.0000E+00  0.4800E+02
    -14.859  0.0000E+00  0.4800E+02
    -14.757  0.0000E+00  0.4800E+02
    -14.654  0.0000E+00  0.4800E+02
    -14.552  0.0000E+00  0.4800E+02
    -14.449  0.0000E+00  0.4800E+02
    -14.346  0.1072E-04  0.4800E+02
    -14.244  0.7548E+01  0.4877E+02
    -14.141  0.2232E+02  0.5107E+02
    -14.039  0.2598E+02  0.5466E+02
    -13.936  0.5117E+02  0.6014E+02
    -13.834  0.4163E+02  0.6549E+02
    -13.731  0.3440E+02  0.7097E+02
    -13.628  0.0000E+00  0.7200E+02
    -13.526  0.0000E+00  0.7200E+02
    -13.423  0.0000E+00  0.7200E+02
    -13.321  0.0000E+00  0.7200E+02
    -13.218  0.0000E+00  0.7200E+02
    -13.116  0.0000E+00  0.7200E+02
    -13.013  0.0000E+00  0.7200E+02
    -12.910  0.0000E+00  0.7200E+02
    -12.808  0.0000E+00  0.7200E+02
    -12.705  0.0000E+00  0.7200E+02
    -12.603  0.0000E+00  0.7200E+02
    -12.500  0.0000E+00  0.7200E+02
    -12.398  0.0000E+00  0.7200E+02
    -12.295  0.0000E+00  0.7200E+02
    -12.192  0.0000E+00  0.7200E+02
    -12.090  0.0000E+00  0.7200E+02
    -11.987  0.0000E+00  0.7200E+02
    -11.885  0.0000E+00  0.7200E+02
    -11.782  0.0000E+00  0.7200E+02
    -11.680  0.0000E+00  0.7200E+02
    -11.577  0.0000E+00  0.7200E+02
    -11.474  0.0000E+00  0.7200E+02
    -11.372  0.0000E+00  0.7200E+02
    -11.269  0.0000E+00  0.7200E+02
    -11.167  0.0000E+00  0.7200E+02
    -11.064  0.0000E+00  0.7200E+02
    -10.962  0.0000E+00  0.7200E+02
    -10.859  0.0000E+00  0.7200E+02
    -10.756  0.0000E+00  0.7200E+02
    -10.654  0.0000E+00  0.7200E+02
    -10.551  0.0000E+00  0.7200E+02
    -10.449  0.0000E+00  0.7200E+02
    -10.346  0.0000E+00  0.7200E+02
    -10.244  0.0000E+00  0.7200E+02
    -10.141  0.0000E+00  0.7200E+02
    -10.038  0.0000E+00  0.7200E+02
     -9.936  0.0000E+00  0.7200E+02
     -9.833  0.0000E+00  0.7200E+02
     -9.731  0.0000E+00  0.7200E+02
     -9.628  0.0000E+00  0.7200E+02
     -9.526  0.0000E+00  0.7200E+02
     -9.423  0.0000E+00  0.7200E+02
     -9.320  0.0000E+00  0.7200E+02
     -9.218  0.0000E+00  0.7200E+02
     -9.115  0.0000E+00  0.7200E+02
     -9.013  0.0000E+00  0.7200E+02
     -8.910  0.0000E+00  0.7200E+02
     -8.807  0.0000E+00  0.7200E+02
     -8.705  0.0000E+00  0.7200E+02
     -8.602  0.0000E+00  0.7200E+02
     -8.500  0.0000E+00  0.7200E+02
     -8.397  0.0000E+00  0.7200E+02
     -8.295  0.0000E+00  0.7200E+02
     -8.192  0.1624E-11  0.7200E+02
     -8.089  0.1083E+01  0.7211E+02
     -7.987  0.4450E-13  0.7211E+02
     -7.884  0.6499E+01  0.7278E+02
     -7.782  0.4327E+01  0.7322E+02
     -7.679  0.8633E+01  0.7411E+02
     -7.577  0.1868E+01  0.7430E+02
     -7.474  0.1808E-01  0.7556E+02
     -7.371  0.6499E+01  0.7644E+02
     -7.269  0.1300E+02  0.7778E+02
     -7.166  0.3821E+02  0.8170E+02
     -7.064  0.1429E+03  0.1028E+03
     -6.961  0.3507E+01  0.1031E+03
     -6.859  0.2656E+01  0.1035E+03
     -6.756  0.0000E+00  0.1039E+03
     -6.653  0.0000E+00  0.1039E+03
     -6.551  0.5593E-09  0.1039E+03
     -6.448  0.1083E+01  0.1040E+03
     -6.346  0.0000E+00  0.1040E+03
     -6.243  0.0000E+00  0.1040E+03
     -6.141  0.0000E+00  0.1040E+03
     -6.038  0.0000E+00  0.1040E+03
     -5.935  0.0000E+00  0.1040E+03
     -5.833  0.0000E+00  0.1040E+03
     -5.730  0.0000E+00  0.1040E+03
     -5.628  0.0000E+00  0.1040E+03
     -5.525  0.0000E+00  0.1040E+03
     -5.423  0.0000E+00  0.1040E+03
     -5.320  0.0000E+00  0.1040E+03
     -5.217  0.0000E+00  0.1040E+03
     -5.115  0.0000E+00  0.1040E+03
     -5.012  0.0000E+00  0.1040E+03
     -4.910  0.0000E+00  0.1040E+03
     -4.807  0.0000E+00  0.1040E+03
     -4.705  0.0000E+00  0.1040E+03
     -4.602  0.0000E+00  0.1040E+03
     -4.499  0.0000E+00  0.1040E+03
     -4.397  0.0000E+00  0.1040E+03
     -4.294  0.0000E+00  0.1040E+03
     -4.192  0.0000E+00  0.1040E+03
     -4.089  0.0000E+00  0.1040E+03
     -3.987  0.0000E+00  0.1040E+03
     -3.884  0.0000E+00  0.1040E+03
     -3.781  0.0000E+00  0.1040E+03
     -3.679  0.0000E+00  0.1040E+03
     -3.576  0.0000E+00  0.1040E+03
     -3.474  0.0000E+00  0.1040E+03
     -3.371  0.0000E+00  0.1040E+03
     -3.269  0.1028E+01  0.1041E+03
     -3.166  0.2063E+02  0.1062E+03
     -3.063  0.1571E+02  0.1082E+03
     -2.961  0.4555E+01  0.1087E+03
     -2.858  0.8663E+01  0.1100E+03
     -2.756  0.1773E+02  0.1118E+03
     -2.653  0.6639E+01  0.1133E+03
     -2.551  0.0000E+00  0.1140E+03
     -2.448  0.9413E+01  0.1150E+03
     -2.345  0.1804E+02  0.1174E+03
     -2.243  0.4333E+01  0.1182E+03
     -2.140  0.1099E+02  0.1193E+03
     -2.038  0.2772E+02  0.1226E+03
     -1.935  0.3106E+02  0.1262E+03
     -1.833  0.7293E+01  0.1271E+03
     -1.730  0.9644E+01  0.1282E+03
     -1.627  0.3638E+02  0.1320E+03
     -1.525  0.7610E+01  0.1346E+03
     -1.422  0.3461E+02  0.1390E+03
     -1.320  0.6883E+02  0.1471E+03
     -1.217  0.5025E+02  0.1536E+03
     -1.115  0.4251E+02  0.1594E+03
     -1.012  0.5910E+02  0.1667E+03
     -0.909  0.5416E+01  0.1680E+03
     -0.807  0.8116E+01  0.1688E+03
     -0.704  0.1625E+02  0.1710E+03
     -0.602  0.9301E+01  0.1720E+03
     -0.499  0.1470E+02  0.1740E+03
     -0.397  0.1074E-07  0.1742E+03
     -0.294  0.4333E+01  0.1747E+03
     -0.191  0.0000E+00  0.1747E+03
     -0.089  0.3175E+01  0.1750E+03
      0.014  0.7775E+01  0.1758E+03
      0.116  0.0000E+00  0.1759E+03
      0.219  0.0000E+00  0.1759E+03
      0.321  0.0000E+00  0.1759E+03
      0.424  0.1581E-13  0.1759E+03
      0.527  0.1083E+01  0.1760E+03
      0.629  0.0000E+00  0.1760E+03
      0.732  0.0000E+00  0.1760E+03
      0.834  0.0000E+00  0.1760E+03
      0.937  0.0000E+00  0.1760E+03
      1.039  0.0000E+00  0.1760E+03
      1.142  0.0000E+00  0.1760E+03
      1.245  0.0000E+00  0.1760E+03
      1.347  0.0000E+00  0.1760E+03
      1.450  0.0000E+00  0.1760E+03
      1.552  0.0000E+00  0.1760E+03
      1.655  0.0000E+00  0.1760E+03
      1.757  0.0000E+00  0.1760E+03
      1.860  0.0000E+00  0.1760E+03
      1.963  0.0000E+00  0.1760E+03
      2.065  0.0000E+00  0.1760E+03
      2.168  0.0000E+00  0.1760E+03
      2.270  0.0000E+00  0.1760E+03
      2.373  0.0000E+00  0.1760E+03
      2.475  0.0000E+00  0.1760E+03
      2.578  0.0000E+00  0.1760E+03
      2.681  0.0000E+00  0.1760E+03
      2.783  0.1083E+01  0.1761E+03
      2.886  0.1083E+01  0.1762E+03
      2.988  0.5963E+01  0.1768E+03
      3.091  0.4679E+01  0.1775E+03
      3.193  0.3250E+01  0.1782E+03
      3.296  0.1173E+02  0.1794E+03
      3.399  0.5416E+01  0.1801E+03
      3.501  0.3841E+01  0.1805E+03
      3.604  0.3250E+01  0.1809E+03
      3.706  0.4353E+01  0.1813E+03
      3.809  0.2221E+01  0.1820E+03
      3.911  0.5791E+01  0.1830E+03
      4.014  0.4398E+01  0.1840E+03
      4.117  0.1083E+02  0.1853E+03
      4.219  0.2166E+01  0.1856E+03
      4.322  0.4334E+01  0.1860E+03
      4.424  0.2166E+01  0.1862E+03
      4.527  0.8666E+01  0.1871E+03
      4.629  0.8666E+01  0.1880E+03
      4.732  0.8669E+01  0.1889E+03
      4.835  0.8663E+01  0.1898E+03
      4.937  0.6601E+01  0.1905E+03
      5.040  0.7065E-09  0.1906E+03
      5.142  0.1517E+02  0.1921E+03
      5.245  0.1196E+02  0.1933E+03
      5.348  0.1517E+02  0.1950E+03
      5.450  0.2893E+01  0.1953E+03
      5.553  0.3825E-05  0.1954E+03
      5.655  0.6499E+01  0.1961E+03
      5.758  0.1252E+01  0.1962E+03
      5.860  0.1203E+02  0.1977E+03
      5.963  0.1084E+01  0.1982E+03
      6.066  0.1423E+02  0.1997E+03
      6.168  0.1315E+02  0.2012E+03
      6.271  0.1371E+02  0.2029E+03
      6.373  0.1623E+02  0.2046E+03
      6.476  0.1883E+02  0.2072E+03
      6.578  0.1478E+02  0.2097E+03
      6.681  0.2477E+02  0.2123E+03
      6.784  0.2183E+02  0.2146E+03
      6.886  0.2313E+02  0.2173E+03
      6.989  0.1641E+02  0.2198E+03
      7.091  0.2003E+02  0.2231E+03
      7.194  0.4333E+01  0.2236E+03
      7.296  0.4333E+01  0.2240E+03
      7.399  0.0000E+00  0.2240E+03
      7.502  0.0000E+00  0.2240E+03
      7.604  0.0000E+00  0.2240E+03
      7.707  0.0000E+00  0.2240E+03
      7.809  0.0000E+00  0.2240E+03
      7.912  0.0000E+00  0.2240E+03
      8.014  0.0000E+00  0.2240E+03
      8.117  0.0000E+00  0.2240E+03
      8.220  0.0000E+00  0.2240E+03
      8.322  0.0000E+00  0.2240E+03
      8.425  0.0000E+00  0.2240E+03
      8.527  0.0000E+00  0.2240E+03
      8.630  0.0000E+00  0.2240E+03
      8.62982597    -22.14191850  301      0.55224305      1.00000000
    -22.142  0.0000E+00  0.0000E+00  0.0000E+00
    -22.039  0.0000E+00  0.0000E+00  0.0000E+00
    -21.937  0.0000E+00  0.0000E+00  0.0000E+00
    -21.834  0.0000E+00  0.0000E+00  0.0000E+00
    -21.732  0.0000E+00  0.0000E+00  0.0000E+00
    -21.629  0.0000E+00  0.0000E+00  0.0000E+00
    -21.526  0.0000E+00  0.0000E+00  0.0000E+00
    -21.424  0.0000E+00  0.0000E+00  0.0000E+00
    -21.321  0.0000E+00  0.0000E+00  0.0000E+00
    -21.219  0.0000E+00  0.0000E+00  0.0000E+00
    -21.116  0.0000E+00  0.0000E+00  0.0000E+00
    -21.014  0.0000E+00  0.0000E+00  0.0000E+00
    -20.911  0.0000E+00  0.0000E+00  0.0000E+00
    -20.808  0.0000E+00  0.0000E+00  0.0000E+00
    -20.706  0.1731E+02  0.7557E-05  0.2611E-05
    -20.603  0.0000E+00  0.0000E+00  0.0000E+00
    -20.501  0.0000E+00  0.0000E+00  0.0000E+00
    -20.398  0.0000E+00  0.0000E+00  0.0000E+00
    -20.296  0.0000E+00  0.0000E+00  0.0000E+00
    -20.193  0.0000E+00  0.0000E+00  0.0000E+00
    -20.090  0.0000E+00  0.0000E+00  0.0000E+00
    -19.988  0.0000E+00  0.0000E+00  0.0000E+00
    -19.885  0.0000E+00  0.0000E+00  0.0000E+00
    -19.783  0.0000E+00  0.0000E+00  0.0000E+00
    -19.680  0.0000E+00  0.0000E+00  0.0000E+00
    -19.578  0.0000E+00  0.0000E+00  0.0000E+00
    -19.475  0.0000E+00  0.0000E+00  0.0000E+00
    -19.372  0.0000E+00  0.0000E+00  0.0000E+00
    -19.270  0.0000E+00  0.0000E+00  0.0000E+00
    -19.167  0.0000E+00  0.0000E+00  0.0000E+00
    -19.065  0.0000E+00  0.0000E+00  0.0000E+00
    -18.962  0.0000E+00  0.0000E+00  0.0000E+00
    -18.860  0.0000E+00  0.0000E+00  0.0000E+00
    -18.757  0.0000E+00  0.0000E+00  0.0000E+00
    -18.654  0.0000E+00  0.0000E+00  0.0000E+00
    -18.552  0.0000E+00  0.0000E+00  0.0000E+00
    -18.449  0.0000E+00  0.0000E+00  0.0000E+00
    -18.347  0.0000E+00  0.0000E+00  0.0000E+00
    -18.244  0.0000E+00  0.0000E+00  0.0000E+00
    -18.142  0.0000E+00  0.0000E+00  0.0000E+00
    -18.039  0.0000E+00  0.0000E+00  0.0000E+00
    -17.936  0.0000E+00  0.0000E+00  0.0000E+00
    -17.834  0.0000E+00  0.0000E+00  0.0000E+00
    -17.731  0.0000E+00  0.0000E+00  0.0000E+00
    -17.629  0.0000E+00  0.0000E+00  0.0000E+00
    -17.526  0.0000E+00  0.0000E+00  0.0000E+00
    -17.424  0.0000E+00  0.0000E+00  0.0000E+00
    -17.321  0.0000E+00  0.0000E+00  0.0000E+00
    -17.218  0.0000E+00  0.0000E+00  0.0000E+00
    -17.116  0.0000E+00  0.0000E+00  0.0000E+00
    -17.013  0.0000E+00  0.0000E+00  0.0000E+00
    -16.911  0.0000E+00  0.0000E+00  0.0000E+00
    -16.808  0.0000E+00  0.0000E+00  0.0000E+00
    -16.706  0.0000E+00  0.0000E+00  0.0000E+00
    -16.603  0.0000E+00  0.0000E+00  0.0000E+00
    -16.500  0.1529E-20  0.2770E-20  0.3890E-21
    -16.398  0.1053E-03  0.7978E-04  0.1825E-04
    -16.295  0.1103E-04  0.1529E-04  0.2346E-05
    -16.193  0.0000E+00  0.0000E+00  0.0000E+00
    -16.090  0.0000E+00  0.0000E+00  0.0000E+00
    -15.988  0.0000E+00  0.0000E+00  0.0000E+00
    -15.885  0.0000E+00  0.0000E+00  0.0000E+00
    -15.782  0.0000E+00  0.0000E+00  0.0000E+00
    -15.680  0.0000E+00  0.0000E+00  0.0000E+00
    -15.577  0.0000E+00  0.0000E+00  0.0000E+00
    -15.475  0.0000E+00  0.0000E+00  0.0000E+00
    -15.372  0.0000E+00  0.0000E+00  0.0000E+00
    -15.270  0.0000E+00  0.0000E+00  0.0000E+00
    -15.167  0.0000E+00  0.0000E+00  0.0000E+00
    -15.064  0.0000E+00  0.0000E+00  0.0000E+00
    -14.962  0.0000E+00  0.0000E+00  0.0000E+00
    -14.859  0.0000E+00  0.0000E+00  0.0000E+00
    -14.757  0.0000E+00  0.0000E+00  0.0000E+00
    -14.654  0.0000E+00  0.0000E+00  0.0000E+00
    -14.552  0.0000E+00  0.0000E+00  0.0000E+00
    -14.449  0.0000E+00  0.0000E+00  0.0000E+00
    -14.346  0.4813E-08  0.3670E-10  0.6222E-11
    -14.244  0.2462E-02  0.5704E-03  0.1055E-04
    -14.141  0.3482E-02  0.3850E-02  0.8591E-04
    -14.039  0.5325E-03  0.4326E-02  0.2207E-03
    -13.936  0.3529E-02  0.7281E-02  0.5924E-03
    -13.834  0.8167E-03  0.3827E-02  0.4140E-03
    -13.731  0.1033E-02  0.2438E-02  0.3821E-03
    -13.628  0.0000E+00  0.0000E+00  0.0000E+00
    -13.526  0.0000E+00  0.0000E+00  0.0000E+00
    -13.423  0.0000E+00  0.0000E+00  0.0000E+00
    -13.321  0.0000E+00  0.0000E+00  0.0000E+00
    -13.218  0.0000E+00  0.0000E+00  0.0000E+00
    -13.116  0.0000E+00  0.0000E+00  0.0000E+00
    -13.013  0.0000E+00  0.0000E+00  0.0000E+00
    -12.910  0.0000E+00  0.0000E+00  0.0000E+00
    -12.808  0.0000E+00  0.0000E+00  0.0000E+00
    -12.705  0.0000E+00  0.0000E+00  0.0000E+00
    -12.603  0.0000E+00  0.0000E+00  0.0000E+00
    -12.500  0.0000E+00  0.0000E+00  0.0000E+00
    -12.398  0.0000E+00  0.0000E+00  0.0000E+00
    -12.295  0.0000E+00  0.0000E+00  0.0000E+00
    -12.192  0.0000E+00  0.0000E+00  0.0000E+00
    -12.090  0.0000E+00  0.0000E+00  0.0000E+00
    -11.987  0.0000E+00  0.0000E+00  0.0000E+00
    -11.885  0.0000E+00  0.0000E+00  0.0000E+00
    -11.782  0.0000E+00  0.0000E+00  0.0000E+00
    -11.680  0.0000E+00  0.0000E+00  0.0000E+00
    -11.577  0.0000E+00  0.0000E+00  0.0000E+00
    -11.474  0.0000E+00  0.0000E+00  0.0000E+00
    -11.372  0.0000E+00  0.0000E+00  0.0000E+00
    -11.269  0.0000E+00  0.0000E+00  0.0000E+00
    -11.167  0.0000E+00  0.0000E+00  0.0000E+00
    -11.064  0.0000E+00  0.0000E+00  0.0000E+00
    -10.962  0.0000E+00  0.0000E+00  0.0000E+00
    -10.859  0.0000E+00  0.0000E+00  0.0000E+00
    -10.756  0.0000E+00  0.0000E+00  0.0000E+00
    -10.654  0.0000E+00  0.0000E+00  0.0000E+00
    -10.551  0.0000E+00  0.0000E+00  0.0000E+00
    -10.449  0.0000E+00  0.0000E+00  0.0000E+00
    -10.346  0.0000E+00  0.0000E+00  0.0000E+00
    -10.244  0.0000E+00  0.0000E+00  0.0000E+00
    -10.141  0.0000E+00  0.0000E+00  0.0000E+00
    -10.038  0.0000E+00  0.0000E+00  0.0000E+00
     -9.936  0.0000E+00  0.0000E+00  0.0000E+00
     -9.833  0.0000E+00  0.0000E+00  0.0000E+00
     -9.731  0.0000E+00  0.0000E+00  0.0000E+00
     -9.628  0.0000E+00  0.0000E+00  0.0000E+00
     -9.526  0.0000E+00  0.0000E+00  0.0000E+00
     -9.423  0.0000E+00  0.0000E+00  0.0000E+00
     -9.320  0.0000E+00  0.0000E+00  0.0000E+00
     -9.218  0.0000E+00  0.0000E+00  0.0000E+00
     -9.115  0.0000E+00  0.0000E+00  0.0000E+00
     -9.013  0.0000E+00  0.0000E+00  0.0000E+00
     -8.910  0.0000E+00  0.0000E+00  0.0000E+00
     -8.807  0.0000E+00  0.0000E+00  0.0000E+00
     -8.705  0.0000E+00  0.0000E+00  0.0000E+00
     -8.602  0.0000E+00  0.0000E+00  0.0000E+00
     -8.500  0.0000E+00  0.0000E+00  0.0000E+00
     -8.397  0.0000E+00  0.0000E+00  0.0000E+00
     -8.295  0.0000E+00  0.0000E+00  0.0000E+00
     -8.192  0.6220E-28  0.1740E-18  0.1006E-16
     -8.089  0.4150E-16  0.1161E-06  0.6714E-05
     -7.987  0.9754E-31  0.4576E-16  0.1393E-18
     -7.884  0.4491E-07  0.5029E-02  0.3480E-04
     -7.782  0.1168E-15  0.4069E-02  0.2861E-04
     -7.679  0.1102E-04  0.2181E-01  0.4394E-04
     -7.577  0.1358E-05  0.9969E-02  0.7039E-05
     -7.474  0.7859E-15  0.1837E-03  0.5778E-07
     -7.371  0.1081E-04  0.7544E-01  0.3972E-04
     -7.269  0.5165E-04  0.3708E+00  0.4343E-04
     -7.166  0.5578E-04  0.6061E+01  0.5256E-04
     -7.064  0.4280E-04  0.2668E+02  0.6580E-04
     -6.961  0.1840E-04  0.1079E+00  0.2394E-04
     -6.859  0.2216E-04  0.1762E-01  0.1405E-04
     -6.756  0.0000E+00  0.0000E+00  0.0000E+00
     -6.653  0.0000E+00  0.0000E+00  0.0000E+00
     -6.551  0.6911E-14  0.1575E-11  0.3462E-15
     -6.448  0.1338E-04  0.3051E-02  0.6705E-06
     -6.346  0.0000E+00  0.0000E+00  0.0000E+00
     -6.243  0.0000E+00  0.0000E+00  0.0000E+00
     -6.141  0.0000E+00  0.0000E+00  0.0000E+00
     -6.038  0.0000E+00  0.0000E+00  0.0000E+00
     -5.935  0.0000E+00  0.0000E+00  0.0000E+00
     -5.833  0.0000E+00  0.0000E+00  0.0000E+00
     -5.730  0.0000E+00  0.0000E+00  0.0000E+00
     -5.628  0.0000E+00  0.0000E+00  0.0000E+00
     -5.525  0.0000E+00  0.0000E+00  0.0000E+00
     -5.423  0.0000E+00  0.0000E+00  0.0000E+00
     -5.320  0.0000E+00  0.0000E+00  0.0000E+00
     -5.217  0.0000E+00  0.0000E+00  0.0000E+00
     -5.115  0.0000E+00  0.0000E+00  0.0000E+00
     -5.012  0.0000E+00  0.0000E+00  0.0000E+00
     -4.910  0.0000E+00  0.0000E+00  0.0000E+00
     -4.807  0.0000E+00  0.0000E+00  0.0000E+00
     -4.705  0.0000E+00  0.0000E+00  0.0000E+00
     -4.602  0.0000E+00  0.0000E+00  0.0000E+00
     -4.499  0.0000E+00  0.0000E+00  0.0000E+00
     -4.397  0.0000E+00  0.0000E+00  0.0000E+00
     -4.294  0.0000E+00  0.0000E+00  0.0000E+00
     -4.192  0.0000E+00  0.0000E+00  0.0000E+00
     -4.089  0.0000E+00  0.0000E+00  0.0000E+00
     -3.987  0.0000E+00  0.0000E+00  0.0000E+00
     -3.884  0.0000E+00  0.0000E+00  0.0000E+00
     -3.781  0.0000E+00  0.0000E+00  0.0000E+00
     -3.679  0.0000E+00  0.0000E+00  0.0000E+00
     -3.576  0.0000E+00  0.0000E+00  0.0000E+00
     -3.474  0.0000E+00  0.0000E+00  0.0000E+00
     -3.371  0.0000E+00  0.0000E+00  0.0000E+00
     -3.269  0.6066E-10  0.1811E-02  0.1196E-04
     -3.166  0.2177E-03  0.2537E-01  0.1957E-02
     -3.063  0.1554E-03  0.1161E-01  0.1852E-02
     -2.961  0.1988E-04  0.2185E-02  0.5585E-03
     -2.858  0.2701E-03  0.1344E-01  0.7482E-03
     -2.756  0.3179E-03  0.2185E-01  0.1449E-02
     -2.653  0.4407E-03  0.8945E-02  0.7995E-03
     -2.551  0.0000E+00  0.0000E+00  0.0000E+00
     -2.448  0.3079E-03  0.1871E-01  0.1112E-02
     -2.345  0.1463E-02  0.1302E-01  0.2305E-02
     -2.243  0.7704E-03  0.2717E-02  0.4081E-03
     -2.140  0.4291E-02  0.1052E-01  0.1058E-02
     -2.038  0.1928E-01  0.3428E-01  0.3979E-02
     -1.935  0.2174E-01  0.5392E-01  0.6664E-02
     -1.833  0.1079E-02  0.3402E-01  0.1000E-02
     -1.730  0.1318E-02  0.5775E-01  0.2622E-02
     -1.627  0.3181E-02  0.1421E+00  0.1327E-01
     -1.525  0.5078E-03  0.2807E-01  0.2044E-02
     -1.422  0.4050E-02  0.6283E-01  0.1422E-01
     -1.320  0.5854E-02  0.1001E+00  0.2994E-01
     -1.217  0.5170E-02  0.6678E-01  0.1259E-01
     -1.115  0.2226E-02  0.8281E-01  0.1290E-01
     -1.012  0.2216E-02  0.8246E-01  0.1638E-01
     -0.909  0.2565E-03  0.8474E-02  0.1509E-02
     -0.807  0.1321E-03  0.1122E-01  0.3167E-02
     -0.704  0.1096E-02  0.1976E-01  0.3612E-02
     -0.602  0.6624E-03  0.5403E-02  0.8798E-03
     -0.499  0.5731E-03  0.4906E-02  0.1566E-02
     -0.397  0.3349E-24  0.7618E-11  0.6950E-13
     -0.294  0.1350E-15  0.3072E-02  0.2803E-04
     -0.191  0.0000E+00  0.0000E+00  0.0000E+00
     -0.089  0.1446E-05  0.4650E-03  0.4346E-03
      0.014  0.4398E-08  0.1221E-02  0.1184E-02
      0.116  0.0000E+00  0.0000E+00  0.0000E+00
      0.219  0.0000E+00  0.0000E+00  0.0000E+00
      0.321  0.0000E+00  0.0000E+00  0.0000E+00
      0.424  0.1009E-29  0.2816E-18  0.1306E-17
      0.527  0.6910E-16  0.1929E-04  0.8949E-04
      0.629  0.0000E+00  0.0000E+00  0.0000E+00
      0.732  0.0000E+00  0.0000E+00  0.0000E+00
      0.834  0.0000E+00  0.0000E+00  0.0000E+00
      0.937  0.0000E+00  0.0000E+00  0.0000E+00
      1.039  0.0000E+00  0.0000E+00  0.0000E+00
      1.142  0.0000E+00  0.0000E+00  0.0000E+00
      1.245  0.0000E+00  0.0000E+00  0.0000E+00
      1.347  0.0000E+00  0.0000E+00  0.0000E+00
      1.450  0.0000E+00  0.0000E+00  0.0000E+00
      1.552  0.0000E+00  0.0000E+00  0.0000E+00
      1.655  0.0000E+00  0.0000E+00  0.0000E+00
      1.757  0.0000E+00  0.0000E+00  0.0000E+00
      1.860  0.0000E+00  0.0000E+00  0.0000E+00
      1.963  0.0000E+00  0.0000E+00  0.0000E+00
      2.065  0.0000E+00  0.0000E+00  0.0000E+00
      2.168  0.0000E+00  0.0000E+00  0.0000E+00
      2.270  0.0000E+00  0.0000E+00  0.0000E+00
      2.373  0.0000E+00  0.0000E+00  0.0000E+00
      2.475  0.0000E+00  0.0000E+00  0.0000E+00
      2.578  0.0000E+00  0.0000E+00  0.0000E+00
      2.681  0.0000E+00  0.0000E+00  0.0000E+00
      2.783  0.4176E-10  0.2722E-04  0.8896E-03
      2.886  0.2990E-04  0.1872E-03  0.5863E-03
      2.988  0.4952E-03  0.7938E-03  0.3359E-02
      3.091  0.1532E-04  0.1141E-02  0.2364E-02
      3.193  0.3064E-03  0.5112E-03  0.1689E-02
      3.296  0.1043E-02  0.5008E-02  0.3098E-02
      3.399  0.3222E-03  0.1665E-02  0.1083E-02
      3.501  0.6630E-03  0.1545E-02  0.1850E-02
      3.604  0.2899E-06  0.7470E-03  0.1646E-02
      3.706  0.3032E-05  0.6688E-03  0.4729E-02
      3.809  0.7089E-05  0.5161E-03  0.2658E-02
      3.911  0.5255E-03  0.1408E-02  0.4103E-02
      4.014  0.2478E-03  0.1549E-02  0.3305E-02
      4.117  0.4369E-03  0.2697E-02  0.3981E-02
      4.219  0.1652E-03  0.9028E-03  0.5531E-03
      4.322  0.8341E-04  0.1309E-02  0.1190E-02
      4.424  0.2596E-04  0.3160E-03  0.3104E-02
      4.527  0.7493E-03  0.2793E-02  0.1004E-01
      4.629  0.8249E-05  0.3650E-02  0.7733E-02
      4.732  0.1264E-02  0.1878E-02  0.3969E-02
      4.835  0.2123E-02  0.3589E-02  0.4862E-02
      4.937  0.2751E-02  0.1315E-02  0.7559E-02
      5.040  0.2012E-14  0.1984E-12  0.5352E-12
      5.142  0.1340E-02  0.4661E-02  0.1702E-01
      5.245  0.1043E-01  0.6204E-02  0.1446E-01
      5.348  0.1471E-01  0.1148E-01  0.1055E-01
      5.450  0.1504E-02  0.3134E-03  0.5367E-02
      5.553  0.1544E-21  0.1042E-09  0.1132E-07
      5.655  0.1845E-01  0.3428E-02  0.1682E-01
      5.758  0.8740E-03  0.2132E-03  0.2563E-02
      5.860  0.8475E-02  0.2307E-02  0.2485E-01
      5.963  0.5161E-05  0.1747E-03  0.2257E-02
      6.066  0.3794E-01  0.1837E-01  0.3674E-01
      6.168  0.6654E-01  0.1336E-01  0.1155E+00
      6.271  0.7641E-02  0.4454E-02  0.1597E+00
      6.373  0.6354E-01  0.2901E-01  0.2511E+00
      6.476  0.3390E-01  0.2088E-01  0.4903E+00
      6.578  0.2494E-01  0.9400E-02  0.3830E+00
      6.681  0.5559E-01  0.3912E-01  0.6708E+00
      6.784  0.4181E-01  0.3268E-01  0.5368E+00
      6.886  0.9451E-02  0.5510E-01  0.7301E+00
      6.989  0.3810E-02  0.2664E-01  0.6067E+00
      7.091  0.1473E-01  0.4659E-01  0.5388E+00
      7.194  0.4779E-02  0.1299E-01  0.1117E+00
      7.296  0.1641E-04  0.2789E-02  0.5047E-01
      7.399  0.0000E+00  0.0000E+00  0.0000E+00
      7.502  0.0000E+00  0.0000E+00  0.0000E+00
      7.604  0.0000E+00  0.0000E+00  0.0000E+00
      7.707  0.0000E+00  0.0000E+00  0.0000E+00
      7.809  0.0000E+00  0.0000E+00  0.0000E+00
      7.912  0.0000E+00  0.0000E+00  0.0000E+00
      8.014  0.0000E+00  0.0000E+00  0.0000E+00
      8.117  0.0000E+00  0.0000E+00  0.0000E+00
      8.220  0.0000E+00  0.0000E+00  0.0000E+00
      8.322  0.0000E+00  0.0000E+00  0.0000E+00
      8.425  0.0000E+00  0.0000E+00  0.0000E+00
      8.527  0.0000E+00  0.0000E+00  0.0000E+00
      8.630  0.0000E+00  0.0000E+00  0.0000E+00
      8.62982597    -22.14191850  301      0.55224305      1.00000000
    -22.142  0.0000E+00  0.0000E+00  0.0000E+00
    -22.039  0.0000E+00  0.0000E+00  0.0000E+00
    -21.937  0.0000E+00  0.0000E+00  0.0000E+00
    -21.834  0.0000E+00  0.0000E+00  0.0000E+00
    -21.732  0.0000E+00  0.0000E+00  0.0000E+00
    -21.629  0.0000E+00  0.0000E+00  0.0000E+00
    -21.526  0.0000E+00  0.0000E+00  0.0000E+00
    -21.424  0.0000E+00  0.0000E+00  0.0000E+00
    -21.321  0.0000E+00  0.0000E+00  0.0000E+00
    -21.219  0.0000E+00  0.0000E+00  0.0000E+00
    -21.116  0.0000E+00  0.0000E+00  0.0000E+00
    -21.014  0.0000E+00  0.0000E+00  0.0000E+00
    -20.911  0.0000E+00  0.0000E+00  0.0000E+00
    -20.808  0.0000E+00  0.0000E+00  0.0000E+00
    -20.706  0.1731E+02  0.7551E-05  0.2611E-05
    -20.603  0.0000E+00  0.0000E+00  0.0000E+00
    -20.501  0.0000E+00  0.0000E+00  0.0000E+00
    -20.398  0.0000E+00  0.0000E+00  0.0000E+00
    -20.296  0.0000E+00  0.0000E+00  0.0000E+00
    -20.193  0.0000E+00  0.0000E+00  0.0000E+00
    -20.090  0.0000E+00  0.0000E+00  0.0000E+00
    -19.988  0.0000E+00  0.0000E+00  0.0000E+00
    -19.885  0.0000E+00  0.0000E+00  0.0000E+00
    -19.783  0.0000E+00  0.0000E+00  0.0000E+00
    -19.680  0.0000E+00  0.0000E+00  0.0000E+00
    -19.578  0.0000E+00  0.0000E+00  0.0000E+00
    -19.475  0.0000E+00  0.0000E+00  0.0000E+00
    -19.372  0.0000E+00  0.0000E+00  0.0000E+00
    -19.270  0.0000E+00  0.0000E+00  0.0000E+00
    -19.167  0.0000E+00  0.0000E+00  0.0000E+00
    -19.065  0.0000E+00  0.0000E+00  0.0000E+00
    -18.962  0.0000E+00  0.0000E+00  0.0000E+00
    -18.860  0.0000E+00  0.0000E+00  0.0000E+00
    -18.757  0.0000E+00  0.0000E+00  0.0000E+00
    -18.654  0.0000E+00  0.0000E+00  0.0000E+00
    -18.552  0.0000E+00  0.0000E+00  0.0000E+00
    -18.449  0.0000E+00  0.0000E+00  0.0000E+00
    -18.347  0.0000E+00  0.0000E+00  0.0000E+00
    -18.244  0.0000E+00  0.0000E+00  0.0000E+00
    -18.142  0.0000E+00  0.0000E+00  0.0000E+00
    -18.039  0.0000E+00  0.0000E+00  0.0000E+00
    -17.936  0.0000E+00  0.0000E+00  0.0000E+00
    -17.834  0.0000E+00  0.0000E+00  0.0000E+00
    -17.731  0.0000E+00  0.0000E+00  0.0000E+00
    -17.629  0.0000E+00  0.0000E+00  0.0000E+00
    -17.526  0.0000E+00  0.0000E+00  0.0000E+00
    -17.424  0.0000E+00  0.0000E+00  0.0000E+00
    -17.321  0.0000E+00  0.0000E+00  0.0000E+00
    -17.218  0.0000E+00  0.0000E+00  0.0000E+00
    -17.116  0.0000E+00  0.0000E+00  0.0000E+00
    -17.013  0.0000E+00  0.0000E+00  0.0000E+00
    -16.911  0.0000E+00  0.0000E+00  0.0000E+00
    -16.808  0.0000E+00  0.0000E+00  0.0000E+00
    -16.706  0.0000E+00  0.0000E+00  0.0000E+00
    -16.603  0.0000E+00  0.0000E+00  0.0000E+00
    -16.500  0.2530E-21  0.2788E-20  0.4071E-21
    -16.398  0.1110E-03  0.6896E-04  0.1631E-04
    -16.295  0.1234E-04  0.2313E-04  0.2619E-05
    -16.193  0.0000E+00  0.0000E+00  0.0000E+00
    -16.090  0.0000E+00  0.0000E+00  0.0000E+00
    -15.988  0.0000E+00  0.0000E+00  0.0000E+00
    -15.885  0.0000E+00  0.0000E+00  0.0000E+00
    -15.782  0.0000E+00  0.0000E+00  0.0000E+00
    -15.680  0.0000E+00  0.0000E+00  0.0000E+00
    -15.577  0.0000E+00  0.0000E+00  0.0000E+00
    -15.475  0.0000E+00  0.0000E+00  0.0000E+00
    -15.372  0.0000E+00  0.0000E+00  0.0000E+00
    -15.270  0.0000E+00  0.0000E+00  0.0000E+00
    -15.167  0.0000E+00  0.0000E+00  0.0000E+00
    -15.064  0.0000E+00  0.0000E+00  0.0000E+00
    -14.962  0.0000E+00  0.0000E+00  0.0000E+00
    -14.859  0.0000E+00  0.0000E+00  0.0000E+00
    -14.757  0.0000E+00  0.0000E+00  0.0000E+00
    -14.654  0.0000E+00  0.0000E+00  0.0000E+00
    -14.552  0.0000E+00  0.0000E+00  0.0000E+00
    -14.449  0.0000E+00  0.0000E+00  0.0000E+00
    -14.346  0.4813E-08  0.3670E-10  0.6222E-11
    -14.244  0.2462E-02  0.5704E-03  0.1055E-04
    -14.141  0.4068E-02  0.3009E-02  0.8651E-04
    -14.039  0.5766E-03  0.5829E-02  0.2272E-03
    -13.936  0.1750E-02  0.4866E-02  0.4621E-03
    -13.834  0.1718E-02  0.4990E-02  0.4851E-03
    -13.731  0.1079E-02  0.2278E-02  0.3113E-03
    -13.628  0.0000E+00  0.0000E+00  0.0000E+00
    -13.526  0.0000E+00  0.0000E+00  0.0000E+00
    -13.423  0.0000E+00  0.0000E+00  0.0000E+00
    -13.321  0.0000E+00  0.0000E+00  0.0000E+00
    -13.218  0.0000E+00  0.0000E+00  0.0000E+00
    -13.116  0.0000E+00  0.0000E+00  0.0000E+00
    -13.013  0.0000E+00  0.0000E+00  0.0000E+00