 vasp.5.4.4.18Apr17-6-g9f103f2a35 (build Jun 22 2020 09:27:21) complex           
 executed on tx2_gcc-7.3_libsci-1 date 2021.09.20  15:14:35
 running on   64 total cores
 distrk:  each k-point on   64 cores,    1 groups
 distr:  one band on NCORES_PER_BAND=   8 cores,    8 groups


--------------------------------------------------------------------------------------------------------


 INCAR:
 POTCAR:    PAW_PBE Cs_sv 08Apr2002               
 POTCAR:    PAW_PBE Pb_d 06Sep2000                
 POTCAR:    PAW_PBE Br 06Sep2000                  
 POTCAR:    PAW_PBE Cs_sv 08Apr2002               
   SHA256 =  c1463496f0f6037ed62c6012a8013a89ee9ad6ffb38599dcd6c079e7ed31779b Cs
   COPYR  = (c) Copyright 08Apr2002 Georg Kresse                                
   COPYR  = This file is part of the software VASP. Any use, copying, and all ot
   COPYR  = If you do not have a valid VASP license, you may not use, copy or di
   VRHFIN =Cs: 5s5p6s                                                           
   LEXCH  = PE                                                                  
   EATOM  =   555.6835 eV,   40.8416 Ry                                         
                                                                                
   TITEL  = PAW_PBE Cs_sv 08Apr2002                                             
   LULTRA =        F    use ultrasoft PP ?                                      
   IUNSCR =        1    unscreen: 0-lin 1-nonlin 2-no                           
   RPACOR =    2.200    partial core radius                                     
   POMASS =  132.900; ZVAL   =    9.000    mass and valenz                      
   RCORE  =    2.500    outmost cutoff radius                                   
   RWIGS  =    2.500; RWIGS  =    1.323    wigner-seitz radius (au A)           
   ENMAX  =  220.318; ENMIN  =  165.238 eV                                      
   RCLOC  =    2.207    cutoff for local pot                                    
   LCOR   =        T    correct aug charges                                     
   LPAW   =        T    paw PP                                                  
   EAUG   =  407.933                                                            
   DEXC   =    0.000                                                            
   RMAX   =    2.554    core radius for proj-oper                               
   RAUG   =    1.300    factor for augmentation sphere                          
   RDEP   =    2.590    radius for radial grids                                 
   RDEPT  =    2.117    core radius for aug-charge                              
                                                                                
   Atomic configuration                                                         
   13 entries                                                                   
     n  l   j            E        occ.                                          
     1  0  0.50    -35790.1377   2.0000                                         
     2  0  0.50     -5613.6201   2.0000                                         
     2  1  1.50     -5035.0101   6.0000                                         
     3  0  0.50     -1167.0767   2.0000                                         
     3  1  1.50      -980.9754   6.0000                                         
     3  2  2.50      -708.0703  10.0000                                         
     4  0  0.50      -220.2386   2.0000                                         
     4  1  1.50      -160.7596   6.0000                                         
     4  2  2.50       -74.2354  10.0000                                         
     5  0  0.50       -26.7287   2.0000                                         
     6  0  0.50        -2.0862   1.0000                                         
     5  1  1.50       -13.5159   6.0000                                         
     5  2  2.50        -0.4136   0.0000                                         
   Description                                                                  
     l       E           TYP  RCUT    TYP  RCUT                                 
     0    -26.7287425     23  1.900                                             
     0     -2.0862306     23  1.900                                             
     1    -13.5158719     23  2.500                                             
     1     -2.7211652     23  2.500                                             
     2     -0.4136171     23  2.500                                             
  local pseudopotential read in
  partial core-charges read in
  partial kinetic energy density read in
  atomic valenz-charges read in
  non local Contribution for L=           0  read in
    real space projection operators read in
  non local Contribution for L=           0  read in
    real space projection operators read in
  non local Contribution for L=           1  read in
    real space projection operators read in
  non local Contribution for L=           1  read in
    real space projection operators read in
  non local Contribution for L=           2  read in
    real space projection operators read in
    PAW grid and wavefunctions read in

   number of l-projection  operators is LMAX  =           5
   number of lm-projection operators is LMMAX =          13

 POTCAR:    PAW_PBE Pb_d 06Sep2000                
   SHA256 =  fb885b08f0fba73a15f6a6b0e39bd200c13ec96ef97cf3ecd8e63bade5137abd Pb
   COPYR  = (c) Copyright 06Sep2000 Georg Kresse                                
   COPYR  = This file is part of the software VASP. Any use, copying, and all ot
   COPYR  = If you do not have a valid VASP license, you may not use, copy or di
   VRHFIN =Pb:                                                                  
   LEXCH  = PE                                                                  
   EATOM  =  1661.6185 eV,  122.1255 Ry                                         
                                                                                
   TITEL  = PAW_PBE Pb_d 06Sep2000                                              
   LULTRA =        F    use ultrasoft PP ?                                      
   IUNSCR =        1    unscreen: 0-lin 1-nonlin 2-no                           
   RPACOR =    2.200    partial core radius                                     
   POMASS =  207.200; ZVAL   =   14.000    mass and valenz                      
   RCORE  =    2.500    outmost cutoff radius                                   
   RWIGS  =    3.260; RWIGS  =    1.725    wigner-seitz radius (au A)           
   ENMAX  =  237.835; ENMIN  =  178.376 eV                                      
   ICORE  =        3    local potential                                         
   LCOR   =        T    correct aug charges                                     
   LPAW   =        T    paw PP                                                  
   EAUG   =  391.914                                                            
   DEXC   =    0.000                                                            
   RMAX   =    2.565    core radius for proj-oper                               
   RAUG   =    1.300    factor for augmentation sphere                          
   RDEP   =    2.643    radius for radial grids                                 
   RDEPT  =    2.092    core radius for aug-charge                              
                                                                                
   Atomic configuration                                                         
   16 entries                                                                   
     n  l   j            E        occ.                                          
     1  0  0.50    -88091.8466   2.0000                                         
     2  0  0.50    -15753.4197   2.0000                                         
     2  1  1.50    -13508.1797   6.0000                                         
     3  0  0.50     -3781.7194   2.0000                                         
     3  1  1.50     -3138.2529   6.0000                                         
     3  2  2.50     -2483.2977  10.0000                                         
     4  0  0.50      -856.2895   2.0000                                         
     4  1  1.50      -645.4942   6.0000                                         
     4  2  2.50      -401.8768  10.0000                                         
     4  3  3.50      -132.9059  14.0000                                         
     5  0  0.50      -144.0950   2.0000                                         
     5  1  1.50       -85.7879   6.0000                                         
     5  2  2.50       -21.1769  10.0000                                         
     6  0  0.50       -12.0372   2.0000                                         
     6  1  1.50        -3.4971   2.0000                                         
     5  3  2.50        -2.7212   0.0000                                         
   Description                                                                  
     l       E           TYP  RCUT    TYP  RCUT                                 
     2    -21.1768523     23  2.500                                             
     2      1.3605826     23  2.500                                             
     0    -12.0371562     23  2.500                                             
     0     13.6058260     23  2.500                                             
     1     -3.4971339     23  2.500                                             
     1     13.6058260     23  2.500                                             
     3     -1.3605826      7  2.500                                             
  local pseudopotential read in
  partial core-charges read in
  partial kinetic energy density read in
  atomic valenz-charges read in
  non local Contribution for L=           2  read in
    real space projection operators read in
  non local Contribution for L=           2  read in
    real space projection operators read in
  non local Contribution for L=           0  read in
    real space projection operators read in
  non local Contribution for L=           0  read in
    real space projection operators read in
  non local Contribution for L=           1  read in
    real space projection operators read in
  non local Contribution for L=           1  read in
    real space projection operators read in
    PAW grid and wavefunctions read in

   number of l-projection  operators is LMAX  =           6
   number of lm-projection operators is LMMAX =          18

 POTCAR:    PAW_PBE Br 06Sep2000                  
   SHA256 =  96a73d2954943bbee26f4990d676cc6c3bf44b8dd2c75cd4b3b825d8403f0103 Br
   COPYR  = (c) Copyright 06Sep2000 Georg Kresse                                
   COPYR  = This file is part of the software VASP. Any use, copying, and all ot
   COPYR  = If you do not have a valid VASP license, you may not use, copy or di
   VRHFIN =Br: s2p5                                                             
   LEXCH  = PE                                                                  
   EATOM  =   368.4488 eV,   27.0802 Ry                                         
                                                                                
   TITEL  = PAW_PBE Br 06Sep2000                                                
   LULTRA =        F    use ultrasoft PP ?                                      
   IUNSCR =        1    unscreen: 0-lin 1-nonlin 2-no                           
   RPACOR =    1.900    partial core radius                                     
   POMASS =   79.904; ZVAL   =    7.000    mass and valenz                      
   RCORE  =    2.100    outmost cutoff radius                                   
   RWIGS  =    2.200; RWIGS  =    1.164    wigner-seitz radius (au A)           
   ENMAX  =  216.285; ENMIN  =  162.214 eV                                      
   ICORE  =        3    local potential                                         
   LCOR   =        T    correct aug charges                                     
   LPAW   =        T    paw PP                                                  
   EAUG   =  503.852                                                            
   DEXC   =    0.000                                                            
   RMAX   =    2.139    core radius for proj-oper                               
   RAUG   =    1.300    factor for augmentation sphere                          
   RDEP   =    2.186    radius for radial grids                                 
   RDEPT  =    1.890    core radius for aug-charge                              
                                                                                
   Atomic configuration                                                         
   10 entries                                                                   
     n  l   j            E        occ.                                          
     1  0  0.50    -13316.2796   2.0000                                         
     2  0  0.50     -1732.8239   2.0000                                         
     2  1  1.50     -1528.2193   6.0000                                         
     3  0  0.50      -238.0460   2.0000                                         
     3  1  1.50      -173.4609   6.0000                                         
     3  2  2.50       -66.7132  10.0000                                         
     4  0  0.50       -20.1334   2.0000                                         
     4  1  0.50        -7.8591   5.0000                                         
     4  2  2.50        -8.1635   0.0000                                         
     4  3  2.50        -8.1635   0.0000                                         
   Description                                                                  
     l       E           TYP  RCUT    TYP  RCUT                                 
     0    -20.1333652     23  2.100                                             
     0    -21.4939478     23  2.100                                             
     1     -7.8591052     23  2.100                                             
     1     -3.1608434     23  2.100                                             
     2     -8.1634956     23  2.100                                             
     3     -1.3605826      7  2.100                                             
  local pseudopotential read in
  partial core-charges read in
  partial kinetic energy density read in
  atomic valenz-charges read in
  non local Contribution for L=           0  read in
    real space projection operators read in
  non local Contribution for L=           0  read in
    real space projection operators read in
  non local Contribution for L=           1  read in
    real space projection operators read in
  non local Contribution for L=           1  read in
    real space projection operators read in
  non local Contribution for L=           2  read in
    real space projection operators read in
    PAW grid and wavefunctions read in

   number of l-projection  operators is LMAX  =           5
   number of lm-projection operators is LMMAX =          13

 Optimization of the real space projectors (new method)

 maximal supplied QI-value         = 15.12
 optimisation between [QCUT,QGAM] = [  8.77, 17.69] = [ 21.53, 87.61] Ry 
 Optimized for a Real-space Cutoff    1.85 Angstroem

   l    n(q)    QCUT    max X(q) W(low)/X(q) W(high)/X(q)  e(spline) 
   0     10     8.768    25.322    0.81E-04    0.51E-04    0.48E-06
   0     10     8.768    99.187    0.78E-04    0.50E-04    0.47E-06
   1      9     8.768    11.761    0.21E-03    0.20E-03    0.37E-06
   1      9     8.768     8.275    0.24E-03    0.22E-03    0.41E-06
   2      9     8.768     3.829    0.23E-04    0.15E-03    0.18E-06
 Optimization of the real space projectors (new method)

 maximal supplied QI-value         = 15.12
 optimisation between [QCUT,QGAM] = [  8.77, 17.69] = [ 21.53, 87.61] Ry 
 Optimized for a Real-space Cutoff    1.59 Angstroem

   l    n(q)    QCUT    max X(q) W(low)/X(q) W(high)/X(q)  e(spline) 
   2      7     8.768     3.846    0.48E-04    0.11E-03    0.11E-06
   2      7     8.768     8.593    0.20E-03    0.22E-04    0.24E-06
   0      8     8.768    20.082    0.68E-04    0.88E-04    0.41E-07
   0      8     8.768     8.597    0.89E-04    0.13E-03    0.59E-07
   1      8     8.768    33.223    0.15E-03    0.53E-04    0.87E-07
   1      8     8.768    15.899    0.14E-03    0.44E-04    0.78E-07
 Optimization of the real space projectors (new method)

 maximal supplied QI-value         = 17.95
 optimisation between [QCUT,QGAM] = [  8.80, 17.59] = [ 21.67, 86.68] Ry 
 Optimized for a Real-space Cutoff    1.59 Angstroem

   l    n(q)    QCUT    max X(q) W(low)/X(q) W(high)/X(q)  e(spline) 
   0      8     8.797   175.082    0.82E-04    0.14E-03    0.89E-07
   0      8     8.797   174.004    0.79E-04    0.14E-03    0.86E-07
   1      8     8.797    54.315    0.16E-03    0.14E-04    0.30E-06
   1      8     8.797    42.441    0.16E-03    0.14E-04    0.30E-06
   2      7     8.797     3.596    0.92E-04    0.15E-03    0.85E-07
  PAW_PBE Cs_sv 08Apr2002               :
 energy of atom  1       EATOM= -555.6835
 kinetic energy error for atom=    0.0069 (will be added to EATOM!!)
  PAW_PBE Pb_d 06Sep2000                :
 energy of atom  2       EATOM=-1661.6185
 kinetic energy error for atom=    0.0498 (will be added to EATOM!!)
  PAW_PBE Br 06Sep2000                  :
 energy of atom  3       EATOM= -368.4488
 kinetic energy error for atom=    0.0072 (will be added to EATOM!!)


 POSCAR: Cs4 Pb4 Br12                            
  positions in direct lattice
  velocities in cartesian coordinates

 METAGGA = SCAN     LMAXTAU =  6    LMIXTAU =  F

 exchange correlation table for  LEXCH =        8
   RHO(1)=    0.500       N(1)  =     2000
   RHO(2)=  100.500       N(2)  =     4000

 VTST: version 3.2, (02/03/18)

 CHAIN: initializing optimizer
 
 OPT: Using VASP Conjugate-Gradient optimizer
 CHAIN: Read ICHAIN            0

 POSCAR: Cs4 Pb4 Br12                            
  positions in direct lattice
  velocities in cartesian coordinates



--------------------------------------------------------------------------------------------------------


 ion  position               nearest neighbor table
   1  0.064  0.250  0.480-
   2  0.436  0.750  0.980-
   3  0.564  0.250  0.020-
   4  0.936  0.750  0.520-
   5  0.000  0.000  0.000-  10 2.99  11 2.99  15 3.00  18 3.00  17 3.01  16 3.01
   6  0.500  0.000  0.500-   9 2.99  12 2.99  16 3.00  17 3.00  15 3.01  18 3.01
   7  0.500  0.500  0.500-   9 2.99  12 2.99  13 3.00  19 3.00  14 3.01  20 3.01
   8  0.000  0.500  0.000-  10 2.99  11 2.99  14 3.00  20 3.00  19 3.01  13 3.01
   9  0.506  0.750  0.432-   6 2.99   7 2.99
  10  0.994  0.250  0.932-   5 2.99   8 2.99
  11  0.006  0.750  0.068-   5 2.99   8 2.99
  12  0.494  0.250  0.568-   6 2.99   7 2.99
  13  0.299  0.466  0.197-   7 3.00   8 3.01
  14  0.201  0.534  0.697-   8 3.00   7 3.01
  15  0.799  0.034  0.303-   5 3.00   6 3.01
  16  0.701  0.966  0.803-   6 3.00   5 3.01
  17  0.299  0.034  0.197-   6 3.00   5 3.01
  18  0.201  0.966  0.697-   5 3.00   6 3.01
  19  0.701  0.534  0.803-   7 3.00   8 3.01
  20  0.799  0.466  0.303-   8 3.00   7 3.01

  LATTYP: Found a simple orthorhombic cell.
 ALAT       =     8.0779805537
 B/A-ratio  =     1.0423418999
 C/A-ratio  =     1.4562807754
  
  Lattice vectors:
  
 A1 = (   0.0000000000,   0.0000000000,   8.0779805537)
 A2 = (  -8.4200175979,   0.0000000000,   0.0000000000)
 A3 = (   0.0000000000, -11.7638077846,   0.0000000000)


Analysis of symmetry for initial positions (statically):
=====================================================================
 Subroutine PRICEL returns:
 Original cell was already a primitive cell.
 

 Routine SETGRP: Setting up the symmetry group for a 
 simple orthorhombic supercell.


 Subroutine GETGRP returns: Found  8 space group operations
 (whereof  2 operations were pure point group operations)
 out of a pool of  8 trial point group operations.


The static configuration has the point symmetry S_2 .
 The point group associated with its full space group is D_2h.


Analysis of symmetry for dynamics (positions and initial velocities):
=====================================================================
 Subroutine PRICEL returns:
 Original cell was already a primitive cell.
 

 Routine SETGRP: Setting up the symmetry group for a 
 simple orthorhombic supercell.


 Subroutine GETGRP returns: Found  8 space group operations
 (whereof  2 operations were pure point group operations)
 out of a pool of  8 trial point group operations.


The dynamic configuration has the point symmetry S_2 .
 The point group associated with its full space group is D_2h.


 Subroutine INISYM returns: Found  8 space group operations
 (whereof  2 operations are pure point group operations),
 and found     1 'primitive' translations



 KPOINTS: 1x1x1                                   

Automatic generation of k-mesh.
Space group operators:
 irot       det(A)        alpha          n_x          n_y          n_z        tau_x        tau_y        tau_z
    1     1.000000     0.000000     1.000000     0.000000     0.000000     0.000000     0.000000     0.000000
    2    -1.000000     0.000000     1.000000     0.000000     0.000000     0.000000     0.000000     0.000000
    3     1.000000   180.000000     0.000000     1.000000     0.000000     0.000000    -0.500000     0.000000
    4    -1.000000   180.000000     0.000000     1.000000     0.000000     0.000000    -0.500000     0.000000
    5     1.000000   180.000000     1.000000     0.000000     0.000000    -0.500000    -0.500000     0.500000
    6    -1.000000   180.000000     1.000000     0.000000     0.000000    -0.500000    -0.500000     0.500000
    7     1.000000   180.000000     0.000000     0.000000     1.000000    -0.500000     0.000000     0.500000
    8    -1.000000   180.000000     0.000000     0.000000     1.000000    -0.500000     0.000000     0.500000
 
 Subroutine IBZKPT returns following result:
 ===========================================
 
 Found      8 irreducible k-points:
 
 Following reciprocal coordinates:
            Coordinates               Weight
  0.000000  0.000000  0.000000      1.000000
  0.333333  0.000000  0.000000      2.000000
  0.000000  0.500000  0.000000      1.000000
  0.333333  0.500000  0.000000      2.000000
  0.000000  0.000000  0.333333      2.000000
  0.333333  0.000000  0.333333      4.000000
  0.000000  0.500000  0.333333      2.000000
  0.333333  0.500000  0.333333      4.000000
 
 Following cartesian coordinates:
            Coordinates               Weight
  0.000000  0.000000  0.000000      1.000000
  0.039588  0.000000  0.000000      2.000000
  0.000000  0.042503  0.000000      1.000000
  0.039588  0.042503  0.000000      2.000000
  0.000000  0.000000  0.041264      2.000000
  0.039588  0.000000  0.041264      4.000000
  0.000000  0.042503  0.041264      2.000000
  0.039588  0.042503  0.041264      4.000000
 


--------------------------------------------------------------------------------------------------------




 Dimension of arrays:
   k-points           NKPTS =      8   k-points in BZ     NKDIM =      8   number of bands    NBANDS=    112
   number of dos      NEDOS =    301   number of ions     NIONS =     20
   non local maximal  LDIM  =      6   non local SUM 2l+1 LMDIM =     18
   total plane-waves  NPLWV = 161280
   max r-space proj   IRMAX =   5378   max aug-charges    IRDMAX=  85802
   dimension x,y,z NGX =    48 NGY =   70 NGZ =   48
   dimension x,y,z NGXF=    96 NGYF=  140 NGZF=   96
   support grid    NGXF=   192 NGYF=  280 NGZF=  192
   ions per type =               4   4  12
   NGX,Y,Z   is equivalent  to a cutoff of   9.48,  9.89,  9.88 a.u.
   NGXF,Y,Z  is equivalent  to a cutoff of  18.95, 19.78, 19.76 a.u.

 SYSTEM =  CsPbBr3 cubic bulk                      
 POSCAR =  Cs4 Pb4 Br12                            

 Startparameter for this run:
   NWRITE =      2    write-flag & timer
   PREC   = accura    normal or accurate (medium, high low for compatibility)
   ISTART =      0    job   : 0-new  1-cont  2-samecut
   ICHARG =      2    charge: 1-file 2-atom 10-const
   ISPIN  =      1    spin polarized calculation?
   LNONCOLLINEAR =      F non collinear calculations
   LSORBIT =      F    spin-orbit coupling
   INIWAV =      1    electr: 0-lowe 1-rand  2-diag
   LASPH  =      T    aspherical Exc in radial PAW
   METAGGA=      F    non-selfconsistent MetaGGA calc.

 Electronic Relaxation 1
   ENCUT  =  300.0 eV  22.05 Ry    4.70 a.u.  11.89 16.61 11.41*2*pi/ulx,y,z
   ENINI  =  300.0     initial cutoff
   ENAUG  =  503.9 eV  augmentation charge cutoff
   NELM   =    200;   NELMIN=  2; NELMDL=  0     # of ELM steps 
   EDIFF  = 0.1E-05   stopping-criterion for ELM
   LREAL  =      T    real-space projection
   NLSPLINE    = F    spline interpolate recip. space projectors
   LCOMPAT=      F    compatible to vasp.4.4
   GGA_COMPAT  = T    GGA compatible to vasp.4.4-vasp.4.6
   LMAXPAW     = -100 max onsite density
   LMAXMIX     =    2 max onsite mixed and CHGCAR
   VOSKOWN=      0    Vosko Wilk Nusair interpolation
   ROPT   =   -0.00025  -0.00025  -0.00025
 Ionic relaxation
   EDIFFG = -.1E-01   stopping-criterion for IOM
   NSW    =      0    number of steps for IOM
   NBLOCK =      1;   KBLOCK =      1    inner block; outer block 
   IBRION =     -1    ionic relax: 0-MD 1-quasi-New 2-CG
   NFREE  =      1    steps in history (QN), initial steepest desc. (CG)
   ISIF   =      3    stress and relaxation
   IWAVPR =     10    prediction:  0-non 1-charg 2-wave 3-comb
   ISYM   =      2    0-nonsym 1-usesym 2-fastsym
   LCORR  =      T    Harris-Foulkes like correction to forces

   POTIM  = 0.5000    time-step for ionic-motion
   TEIN   =    0.0    initial temperature
   TEBEG  =    0.0;   TEEND  =   0.0 temperature during run
   SMASS  =  -3.00    Nose mass-parameter (am)
   estimated Nose-frequenzy (Omega)   =  0.10E-29 period in steps =****** mass=  -0.162E-26a.u.
   SCALEE = 1.0000    scale energy and forces
   NPACO  =    256;   APACO  = 16.0  distance and # of slots for P.C.
   PSTRESS=    0.0 pullay stress

  Mass of Ions in am
   POMASS = 132.90207.20 79.90
  Ionic Valenz
   ZVAL   =   9.00 14.00  7.00
  Atomic Wigner-Seitz radii
   RWIGS  =  -1.00 -1.00 -1.00
  virtual crystal weights 
   VCA    =   1.00  1.00  1.00
   NELECT =     176.0000    total number of electrons
   NUPDOWN=      -1.0000    fix difference up-down

 DOS related values:
   EMIN   =  10.00;   EMAX   =-10.00  energy-range for DOS
   EFERMI =   0.00
   ISMEAR =     0;   SIGMA  =   0.01  broadening in eV -4-tet -1-fermi 0-gaus

 Electronic relaxation 2 (details)
   IALGO  =     38    algorithm
   LDIAG  =      T    sub-space diagonalisation (order eigenvalues)
   LSUBROT=      F    optimize rotation matrix (better conditioning)
   TURBO    =      0    0=normal 1=particle mesh
   IRESTART =      0    0=no restart 2=restart with 2 vectors
   NREBOOT  =      0    no. of reboots
   NMIN     =      0    reboot dimension
   EREF     =   0.00    reference energy to select bands
   IMIX   =      4    mixing-type and parameters
     AMIX     =   0.40;   BMIX     =  1.00
     AMIX_MAG =   1.60;   BMIX_MAG =  1.00
     AMIN     =   0.10
     WC   =   100.;   INIMIX=   1;  MIXPRE=   1;  MAXMIX= -45

 Intra band minimization:
   WEIMIN = 0.0000     energy-eigenvalue tresh-hold
   EBREAK =  0.22E-08  absolut break condition
   DEPER  =   0.30     relativ break condition  

   TIME   =   0.40     timestep for ELM

  volume/ion in A,a.u.               =      40.01       269.98
  Fermi-wavevector in a.u.,A,eV,Ry     =   0.988229  1.867483 13.287416  0.976598
  Thomas-Fermi vector in A             =   2.119741

 Write flags
   LWAVE        =      F    write WAVECAR
   LDOWNSAMPLE  =      F    k-point downsampling of WAVECAR
   LCHARG       =      T    write CHGCAR
   LVTOT        =      F    write LOCPOT, total local potential
   LVHAR        =      T    write LOCPOT, Hartree potential only
   LELF         =      F    write electronic localiz. function (ELF)
   LORBIT       =     10    0 simple, 1 ext, 2 COOP (PROOUT), +10 PAW based schemes


 Dipole corrections
   LMONO  =      F    monopole corrections only (constant potential shift)
   LDIPOL =      F    correct potential (dipole corrections)
   IDIPOL =      0    1-x, 2-y, 3-z, 4-all directions 
   EPSILON=  1.0000000 bulk dielectric constant

 Exchange correlation treatment:
   GGA     =    --    GGA type
   LEXCH   =     8    internal setting for exchange type
   VOSKOWN=      0    Vosko Wilk Nusair interpolation
   LHFCALC =     F    Hartree Fock is set to
   LHFONE  =     F    Hartree Fock one center treatment
   AEXX    =    0.0000 exact exchange contribution

 Linear response parameters
   LEPSILON=     F    determine dielectric tensor
   LRPA    =     F    only Hartree local field effects (RPA)
   LNABLA  =     F    use nabla operator in PAW spheres
   LVEL    =     F    velocity operator in full k-point grid
   LINTERFAST=   F  fast interpolation
   KINTER  =     0    interpolate to denser k-point grid
   CSHIFT  =0.1000    complex shift for real part using Kramers Kronig
   OMEGAMAX=  -1.0    maximum frequency
   DEG_THRESHOLD= 0.2000000E-02 threshold for treating states as degnerate
   RTIME   =   -0.100 relaxation time in fs
  (WPLASMAI=    0.000 imaginary part of plasma frequency in eV, 0.658/RTIME)
   DFIELD  = 0.0000000 0.0000000 0.0000000 field for delta impulse in time

 Orbital magnetization related:
   ORBITALMAG=     F  switch on orbital magnetization
   LCHIMAG   =     F  perturbation theory with respect to B field
   DQ        =  0.001000  dq finite difference perturbation B field
   LLRAUG    =     F  two centre corrections for induced B field



--------------------------------------------------------------------------------------------------------


 Static calculation
 charge density and potential will be updated during run
 non-spin polarized calculation
 Variant of blocked Davidson
 Davidson routine will perform the subspace rotation
 perform sub-space diagonalisation
    after iterative eigenvector-optimisation
 modified Broyden-mixing scheme, WC =      100.0
 initial mixing is a Kerker type mixing with AMIX =  0.4000 and BMIX =      1.0000
 Hartree-type preconditioning will be used
 using additional bands           24
 real space projection scheme for non local part
 use partial core corrections
 calculate Harris-corrections to forces   (improved forces if not selfconsistent)
 use gradient corrections 
 use of overlap-Matrix (Vanderbilt PP)
 Gauss-broadening in eV      SIGMA  =   0.01


--------------------------------------------------------------------------------------------------------


  energy-cutoff  :      300.00
  volume of cell :      800.14
      direct lattice vectors                 reciprocal lattice vectors
     8.420017598  0.000000000 -0.000000000     0.118764597  0.000000000  0.000000000
     0.000000000 11.763807785  0.000000000    -0.000000000  0.085006489  0.000000000
     0.000000000  0.000000000  8.077980554     0.000000000 -0.000000000  0.123793316

  length of vectors
     8.420017598 11.763807785  8.077980554     0.118764597  0.085006489  0.123793316



 k-points in units of 2pi/SCALE and weight: 1x1x1                                   
   0.00000000  0.00000000  0.00000000       0.056
   0.03958820  0.00000000  0.00000000       0.111
   0.00000000  0.04250324  0.00000000       0.056
   0.03958820  0.04250324  0.00000000       0.111
   0.00000000  0.00000000  0.04126444       0.111
   0.03958820  0.00000000  0.04126444       0.222
   0.00000000  0.04250324  0.04126444       0.111
   0.03958820  0.04250324  0.04126444       0.222

 k-points in reciprocal lattice and weights: 1x1x1                                   
   0.00000000  0.00000000  0.00000000       0.056
   0.33333333  0.00000000  0.00000000       0.111
   0.00000000  0.50000000  0.00000000       0.056
   0.33333333  0.50000000  0.00000000       0.111
   0.00000000  0.00000000  0.33333333       0.111
   0.33333333  0.00000000  0.33333333       0.222
   0.00000000  0.50000000  0.33333333       0.111
   0.33333333  0.50000000  0.33333333       0.222

 position of ions in fractional coordinates (direct lattice) 
   0.06388952  0.25000000  0.48036129
   0.43611048  0.75000000  0.98036129
   0.56388952  0.25000000  0.01963871
   0.93611048  0.75000000  0.51963871
   0.00000000  0.00000000  0.00000000
   0.50000000  0.00000000  0.50000000
   0.50000000  0.50000000  0.50000000
   0.00000000  0.50000000  0.00000000
   0.50629358  0.75000000  0.43225468
   0.99370642  0.25000000  0.93225468
   0.00629358  0.75000000  0.06774532
   0.49370642  0.25000000  0.56774532
   0.29891910  0.46553729  0.19744105
   0.20108090  0.53446271  0.69744105
   0.79891910  0.03446271  0.30255895
   0.70108090  0.96553729  0.80255895
   0.29891910  0.03446271  0.19744105
   0.20108090  0.96553729  0.69744105
   0.70108090  0.53446271  0.80255895
   0.79891910  0.46553729  0.30255895

 position of ions in cartesian coordinates  (Angst):
   0.53795088  2.94095195  3.88034915
   3.67205792  8.82285584  7.91933942
   4.74795968  2.94095195  0.15864113
   7.88206672  8.82285584  4.19763141
   0.00000000  0.00000000  0.00000000
   4.21000880  0.00000000  4.03899028
   4.21000880  5.88190389  4.03899028
   0.00000000  5.88190389  0.00000000
   4.26300082  8.82285584  3.49174490
   8.36702558  2.94095195  7.53073517
   0.05299202  8.82285584  0.54724538
   4.15701678  2.94095195  4.58623566
   2.51690408  5.47649123  1.59492496
   1.69310472  6.28731655  5.63391523
   6.72691288  0.40541266  2.44406532
   5.90311352 11.35839512  6.48305560
   2.51690408  0.40541266  1.59492496
   1.69310472 11.35839512  5.63391523
   5.90311352  6.28731655  6.48305560
   6.72691288  5.47649123  2.44406532



--------------------------------------------------------------------------------------------------------


 k-point  1 :   0.0000 0.0000 0.0000  plane waves:    9457
 k-point  2 :   0.3333 0.0000 0.0000  plane waves:    9454
 k-point  3 :   0.0000 0.5000 0.0000  plane waves:    9426
 k-point  4 :   0.3333 0.5000 0.0000  plane waves:    9446
 k-point  5 :   0.0000 0.0000 0.3333  plane waves:    9423
 k-point  6 :   0.3333 0.0000 0.3333  plane waves:    9450
 k-point  7 :   0.0000 0.5000 0.3333  plane waves:    9438
 k-point  8 :   0.3333 0.5000 0.3333  plane waves:    9438

 maximum and minimum number of plane-waves per node :      1208     1158

 maximum number of plane-waves:      9457
 maximum index in each direction: 
   IXMAX=   11   IYMAX=   16   IZMAX=   11
   IXMIN=  -12   IYMIN=  -17   IZMIN=  -11


 real space projection operators:
  total allocation   :       7977.69 KBytes
  max/ min on nodes  :       1040.81        962.19


 parallel 3D FFT for wavefunctions:
    minimum data exchange during FFTs selected (reduces bandwidth)
 parallel 3D FFT for charge:
    minimum data exchange during FFTs selected (reduces bandwidth)


 total amount of memory used by VASP MPI-rank0    42368. kBytes
=======================================================================

   base      :      30000. kBytes
   nonlr-proj:       3009. kBytes
   fftplans  :       3667. kBytes
   grid      :       3424. kBytes
   one-center:         46. kBytes
   wavefun   :       2222. kBytes

     INWAV:  cpu time    0.0000: real time    0.0000
 Broyden mixing: mesh for mixing (old mesh)
   NGX = 23   NGY = 33   NGZ = 23
  (NGX  = 96   NGY  =140   NGZ  = 96)
  gives a total of  17457 points

 initial charge density was supplied:
 charge density of overlapping atoms calculated
 number of electron     176.0000000 magnetization 
 keeping initial charge density in first step


--------------------------------------------------------------------------------------------------------


 Maximum index for non-local projection operator          630
 Maximum index for augmentation-charges         2365 (set IRDMAX)


--------------------------------------------------------------------------------------------------------


 First call to EWALD:  gamma=   0.191
 Maximum number of real-space cells 3x 2x 3
 Maximum number of reciprocal cells 3x 3x 2

    FEWALD:  cpu time    0.0022: real time    0.0022


--------------------------------------- Iteration      1(   1)  ---------------------------------------


    POTLOK:  cpu time    0.1295: real time    0.1499
    SETDIJ:  cpu time    1.1541: real time    1.1542
     EDDAV:  cpu time    3.8872: real time    3.8918
       DOS:  cpu time    0.0005: real time    0.0005
    --------------------------------------------
      LOOP:  cpu time    5.1715: real time    5.1965

 eigenvalue-minimisations  :  1816
 total energy-change (2. order) : 0.6586849E+03  (-0.5615643E+04)
 number of electron     176.0000000 magnetization 
 augmentation part      176.0000000 magnetization 

 Free energy of the ion-electron system (eV)
  ---------------------------------------------------
  alpha Z        PSCENC =       450.93460026
  Ewald energy   TEWEN  =     -9239.55112540
  -Hartree energ DENC   =     -3648.58988337
  -exchange      EXHF   =         0.00000000
  -V(xc)+E(xc)   XCENC  =       462.07523776
  PAW double counting   =     10816.98087266   -11353.96092700
  entropy T*S    EENTRO =        -0.00001701
  eigenvalues    EBANDS =      -119.48392159
  atomic energy  EATOM  =     13290.28009929
  Solvation  Ediel_sol  =         0.00000000
  ---------------------------------------------------
  free energy    TOTEN  =       658.68493559 eV

  energy without entropy =      658.68495260  energy(sigma->0) =      658.68494410


--------------------------------------------------------------------------------------------------------




--------------------------------------- Iteration      1(   2)  ---------------------------------------


     EDDAV:  cpu time    4.4540: real time    4.4905
       DOS:  cpu time    0.0003: real time    0.0003
    --------------------------------------------
      LOOP:  cpu time    4.4542: real time    4.4908

 eigenvalue-minimisations  :  2208
 total energy-change (2. order) :-0.1235328E+04  (-0.1182438E+04)
 number of electron     176.0000000 magnetization 
 augmentation part      176.0000000 magnetization 

 Free energy of the ion-electron system (eV)
  ---------------------------------------------------
  alpha Z        PSCENC =       450.93460026
  Ewald energy   TEWEN  =     -9239.55112540
  -Hartree energ DENC   =     -3648.58988337
  -exchange      EXHF   =         0.00000000
  -V(xc)+E(xc)   XCENC  =       462.07523776
  PAW double counting   =     10816.98087266   -11353.96092700
  entropy T*S    EENTRO =        -0.00000000
  eigenvalues    EBANDS =     -1354.81172645
  atomic energy  EATOM  =     13290.28009929
  Solvation  Ediel_sol  =         0.00000000
  ---------------------------------------------------
  free energy    TOTEN  =      -576.64285226 eV

  energy without entropy =     -576.64285226  energy(sigma->0) =     -576.64285226


--------------------------------------------------------------------------------------------------------




--------------------------------------- Iteration      1(   3)  ---------------------------------------


     EDDAV:  cpu time    4.7134: real time    4.7425
       DOS:  cpu time    0.0003: real time    0.0003
    --------------------------------------------
      LOOP:  cpu time    4.7137: real time    4.7428

 eigenvalue-minimisations  :  2432
 total energy-change (2. order) :-0.1723152E+03  (-0.1712310E+03)
 number of electron     176.0000000 magnetization 
 augmentation part      176.0000000 magnetization 

 Free energy of the ion-electron system (eV)
  ---------------------------------------------------
  alpha Z        PSCENC =       450.93460026
  Ewald energy   TEWEN  =     -9239.55112540
  -Hartree energ DENC   =     -3648.58988337
  -exchange      EXHF   =         0.00000000
  -V(xc)+E(xc)   XCENC  =       462.07523776
  PAW double counting   =     10816.98087266   -11353.96092700
  entropy T*S    EENTRO =        -0.00000000
  eigenvalues    EBANDS =     -1527.12688940
  atomic energy  EATOM  =     13290.28009929
  Solvation  Ediel_sol  =         0.00000000
  ---------------------------------------------------
  free energy    TOTEN  =      -748.95801521 eV

  energy without entropy =     -748.95801521  energy(sigma->0) =     -748.95801521


--------------------------------------------------------------------------------------------------------




--------------------------------------- Iteration      1(   4)  ---------------------------------------


     EDDAV:  cpu time    4.3304: real time    4.3915
       DOS:  cpu time    0.0003: real time    0.0003
    --------------------------------------------
      LOOP:  cpu time    4.3307: real time    4.3918

 eigenvalue-minimisations  :  2136
 total energy-change (2. order) :-0.5561991E+01  (-0.5543650E+01)
 number of electron     176.0000000 magnetization 
 augmentation part      176.0000000 magnetization 

 Free energy of the ion-electron system (eV)
  ---------------------------------------------------
  alpha Z        PSCENC =       450.93460026
  Ewald energy   TEWEN  =     -9239.55112540
  -Hartree energ DENC   =     -3648.58988337
  -exchange      EXHF   =         0.00000000
  -V(xc)+E(xc)   XCENC  =       462.07523776
  PAW double counting   =     10816.98087266   -11353.96092700
  entropy T*S    EENTRO =        -0.00000000
  eigenvalues    EBANDS =     -1532.68888035
  atomic energy  EATOM  =     13290.28009929
  Solvation  Ediel_sol  =         0.00000000
  ---------------------------------------------------
  free energy    TOTEN  =      -754.52000615 eV

  energy without entropy =     -754.52000615  energy(sigma->0) =     -754.52000615


--------------------------------------------------------------------------------------------------------




--------------------------------------- Iteration      1(   5)  ---------------------------------------


     EDDAV:  cpu time    4.6380: real time    4.6557
       DOS:  cpu time    0.0003: real time    0.0003
    CHARGE:  cpu time    0.8642: real time    0.8643
    MIXING:  cpu time    0.0006: real time    0.0006
    --------------------------------------------
      LOOP:  cpu time    5.5032: real time    5.5209

 eigenvalue-minimisations  :  2368
 total energy-change (2. order) :-0.2669474E+00  (-0.2667509E+00)
 number of electron     176.0000001 magnetization 
 augmentation part       -3.2471826 magnetization 

 Broyden mixing:
  rms(total) = 0.70647E+00    rms(broyden)= 0.70621E+00
  rms(prec ) = 0.97537E+00
  weight for this iteration     100.00

 Free energy of the ion-electron system (eV)
  ---------------------------------------------------
  alpha Z        PSCENC =       450.93460026
  Ewald energy   TEWEN  =     -9239.55112540
  -Hartree energ DENC   =     -3648.58988337
  -exchange      EXHF   =         0.00000000
  -V(xc)+E(xc)   XCENC  =       462.07523776
  PAW double counting   =     10816.98087266   -11353.96092700
  entropy T*S    EENTRO =        -0.00000000
  eigenvalues    EBANDS =     -1532.95582776
  atomic energy  EATOM  =     13290.28009929
  Solvation  Ediel_sol  =         0.00000000
  ---------------------------------------------------
  free energy    TOTEN  =      -754.78695357 eV

  energy without entropy =     -754.78695357  energy(sigma->0) =     -754.78695357


--------------------------------------------------------------------------------------------------------




--------------------------------------- Iteration      1(   6)  ---------------------------------------


    POTLOK:  cpu time    0.1314: real time    0.1829
    SETDIJ:  cpu time    1.1519: real time    1.1520
     EDDAV:  cpu time    4.6229: real time    4.6231
       DOS:  cpu time    0.0004: real time    0.0004
    CHARGE:  cpu time    0.8401: real time    0.8401
    MIXING:  cpu time    0.0007: real time    0.0007
    --------------------------------------------
      LOOP:  cpu time    6.7474: real time    6.7992

 eigenvalue-minimisations  :  2384
 total energy-change (2. order) : 0.3976993E+02  (-0.1181812E+01)
 number of electron     176.0000001 magnetization 
 augmentation part       -2.5286324 magnetization 

 Broyden mixing:
  rms(total) = 0.50271E+00    rms(broyden)= 0.50263E+00
  rms(prec ) = 0.62309E+00
  weight for this iteration     100.00

 eigenvalues of (default mixing * dielectric matrix)
  average eigenvalue GAMMA=   1.1738
  1.1738

 Free energy of the ion-electron system (eV)
  ---------------------------------------------------
  alpha Z        PSCENC =       450.93460026
  Ewald energy   TEWEN  =     -9239.55112540
  -Hartree energ DENC   =     -3638.62830832
  -exchange      EXHF   =         0.00000000
  -V(xc)+E(xc)   XCENC  =       477.55413309
  PAW double counting   =     10968.93878529   -11505.08036392
  entropy T*S    EENTRO =        -0.00000000
  eigenvalues    EBANDS =     -1519.46484775
  atomic energy  EATOM  =     13290.28009929
  Solvation  Ediel_sol  =         0.00000000
  ---------------------------------------------------
  free energy    TOTEN  =      -715.01702745 eV

  energy without entropy =     -715.01702745  energy(sigma->0) =     -715.01702745


--------------------------------------------------------------------------------------------------------




--------------------------------------- Iteration      1(   7)  ---------------------------------------


    POTLOK:  cpu time    0.1689: real time    0.1742
    SETDIJ:  cpu time    1.1531: real time    1.1531
     EDDAV:  cpu time    4.4586: real time    4.4589
       DOS:  cpu time    0.0007: real time    0.0007
    CHARGE:  cpu time    0.8278: real time    0.8279
    MIXING:  cpu time    0.0007: real time    0.0007
    --------------------------------------------
      LOOP:  cpu time    6.6098: real time    6.6155

 eigenvalue-minimisations  :  2264
 total energy-change (2. order) : 0.2319063E+00  (-0.3806389E+00)
 number of electron     176.0000001 magnetization 
 augmentation part       -2.2671377 magnetization 

 Broyden mixing:
  rms(total) = 0.25783E+00    rms(broyden)= 0.25782E+00
  rms(prec ) = 0.28240E+00
  weight for this iteration     100.00

 eigenvalues of (default mixing * dielectric matrix)
  average eigenvalue GAMMA=   1.3167
  1.3167  1.3167

 Free energy of the ion-electron system (eV)
  ---------------------------------------------------
  alpha Z        PSCENC =       450.93460026
  Ewald energy   TEWEN  =     -9239.55112540
  -Hartree energ DENC   =     -3658.39548693
  -exchange      EXHF   =         0.00000000
  -V(xc)+E(xc)   XCENC  =       480.19646686
  PAW double counting   =     11278.42570557   -11813.71034937
  entropy T*S    EENTRO =        -0.00000000
  eigenvalues    EBANDS =     -1502.96503144
  atomic energy  EATOM  =     13290.28009929
  Solvation  Ediel_sol  =         0.00000000
  ---------------------------------------------------
  free energy    TOTEN  =      -714.78512116 eV

  energy without entropy =     -714.78512116  energy(sigma->0) =     -714.78512116


--------------------------------------------------------------------------------------------------------




--------------------------------------- Iteration      1(   8)  ---------------------------------------


    POTLOK:  cpu time    0.1620: real time    0.1859
    SETDIJ:  cpu time    1.1519: real time    1.1519
     EDDAV:  cpu time    4.3498: real time    4.3499
       DOS:  cpu time    0.0004: real time    0.0004
    CHARGE:  cpu time    0.8345: real time    0.8346
    MIXING:  cpu time    0.0011: real time    0.0011
    --------------------------------------------
      LOOP:  cpu time    6.4997: real time    6.5238

 eigenvalue-minimisations  :  2176
 total energy-change (2. order) :-0.9523587E-01  (-0.1812498E-01)
 number of electron     176.0000001 magnetization 
 augmentation part       -2.3072220 magnetization 

 Broyden mixing:
  rms(total) = 0.14837E+00    rms(broyden)= 0.14837E+00
  rms(prec ) = 0.16381E+00
  weight for this iteration     100.00

 eigenvalues of (default mixing * dielectric matrix)
  average eigenvalue GAMMA=   1.7222
  1.1080  1.3036  2.7549

 Free energy of the ion-electron system (eV)
  ---------------------------------------------------
  alpha Z        PSCENC =       450.93460026
  Ewald energy   TEWEN  =     -9239.55112540
  -Hartree energ DENC   =     -3660.67650038
  -exchange      EXHF   =         0.00000000
  -V(xc)+E(xc)   XCENC  =       480.59937439
  PAW double counting   =     11401.47943441   -11936.93272191
  entropy T*S    EENTRO =        -0.00000000
  eigenvalues    EBANDS =     -1501.01351769
  atomic energy  EATOM  =     13290.28009929
  Solvation  Ediel_sol  =         0.00000000
  ---------------------------------------------------
  free energy    TOTEN  =      -714.88035703 eV

  energy without entropy =     -714.88035703  energy(sigma->0) =     -714.88035703


--------------------------------------------------------------------------------------------------------




--------------------------------------- Iteration      1(   9)  ---------------------------------------


    POTLOK:  cpu time    0.1640: real time    0.1738
    SETDIJ:  cpu time    1.1531: real time    1.1532
     EDDAV:  cpu time    4.1263: real time    4.1265
       DOS:  cpu time    0.0006: real time    0.0006
    CHARGE:  cpu time    0.8306: real time    0.8306
    MIXING:  cpu time    0.0007: real time    0.0007
    --------------------------------------------
      LOOP:  cpu time    6.2754: real time    6.2854

 eigenvalue-minimisations  :  2008
 total energy-change (2. order) :-0.3960510E-01  (-0.7992028E-02)
 number of electron     176.0000001 magnetization 
 augmentation part       -2.3291229 magnetization 

 Broyden mixing:
  rms(total) = 0.32597E-01    rms(broyden)= 0.32594E-01
  rms(prec ) = 0.34928E-01
  weight for this iteration     100.00

 eigenvalues of (default mixing * dielectric matrix)
  average eigenvalue GAMMA=   1.4677
  2.5576  1.2428  1.2428  0.8275

 Free energy of the ion-electron system (eV)
  ---------------------------------------------------
  alpha Z        PSCENC =       450.93460026
  Ewald energy   TEWEN  =     -9239.55112540
  -Hartree energ DENC   =     -3663.16455838
  -exchange      EXHF   =         0.00000000
  -V(xc)+E(xc)   XCENC  =       481.59705599
  PAW double counting   =     11576.71615393   -12112.55776378
  entropy T*S    EENTRO =        -0.00000000
  eigenvalues    EBANDS =     -1499.17442403
  atomic energy  EATOM  =     13290.28009929
  Solvation  Ediel_sol  =         0.00000000
  ---------------------------------------------------
  free energy    TOTEN  =      -714.91996213 eV

  energy without entropy =     -714.91996213  energy(sigma->0) =     -714.91996213


--------------------------------------------------------------------------------------------------------




--------------------------------------- Iteration      1(  10)  ---------------------------------------


    POTLOK:  cpu time    0.1255: real time    0.1868
    SETDIJ:  cpu time    1.1509: real time    1.1509
     EDDAV:  cpu time    4.7971: real time    4.7973
       DOS:  cpu time    0.0004: real time    0.0004
    CHARGE:  cpu time    0.8348: real time    0.8348
    MIXING:  cpu time    0.0008: real time    0.0008
    --------------------------------------------
      LOOP:  cpu time    6.9094: real time    6.9710

 eigenvalue-minimisations  :  2520
 total energy-change (2. order) :-0.7316803E-03  (-0.4454877E-03)
 number of electron     176.0000001 magnetization 
 augmentation part       -2.3225154 magnetization 

 Broyden mixing:
  rms(total) = 0.18156E-01    rms(broyden)= 0.18155E-01
  rms(prec ) = 0.20199E-01
  weight for this iteration     100.00

 eigenvalues of (default mixing * dielectric matrix)
  average eigenvalue GAMMA=   1.5919
  2.4204  2.4204  1.1319  1.1319  0.8550

 Free energy of the ion-electron system (eV)
  ---------------------------------------------------
  alpha Z        PSCENC =       450.93460026
  Ewald energy   TEWEN  =     -9239.55112540
  -Hartree energ DENC   =     -3662.23867610
  -exchange      EXHF   =         0.00000000
  -V(xc)+E(xc)   XCENC  =       481.48735892
  PAW double counting   =     11558.01418892   -12093.89094119
  entropy T*S    EENTRO =        -0.00000000
  eigenvalues    EBANDS =     -1499.95619851
  atomic energy  EATOM  =     13290.28009929
  Solvation  Ediel_sol  =         0.00000000
  ---------------------------------------------------
  free energy    TOTEN  =      -714.92069381 eV

  energy without entropy =     -714.92069381  energy(sigma->0) =     -714.92069381


--------------------------------------------------------------------------------------------------------




--------------------------------------- Iteration      1(  11)  ---------------------------------------


    POTLOK:  cpu time    0.1422: real time    0.1525
    SETDIJ:  cpu time    1.1526: real time    1.1526
     EDDAV:  cpu time    4.1397: real time    4.1398
       DOS:  cpu time    0.0004: real time    0.0004
    CHARGE:  cpu time    0.8304: real time    0.8304
    MIXING:  cpu time    0.0008: real time    0.0008
    --------------------------------------------
      LOOP:  cpu time    6.2660: real time    6.2765

 eigenvalue-minimisations  :  2024
 total energy-change (2. order) :-0.1419077E-02  (-0.1553113E-03)
 number of electron     176.0000001 magnetization 
 augmentation part       -2.3220063 magnetization 

 Broyden mixing:
  rms(total) = 0.64742E-02    rms(broyden)= 0.64739E-02
  rms(prec ) = 0.79353E-02
  weight for this iteration     100.00

 eigenvalues of (default mixing * dielectric matrix)
  average eigenvalue GAMMA=   1.5792
  2.5787  2.5787  1.2338  1.2338  0.9252  0.9252

 Free energy of the ion-electron system (eV)
  ---------------------------------------------------
  alpha Z        PSCENC =       450.93460026
  Ewald energy   TEWEN  =     -9239.55112540
  -Hartree energ DENC   =     -3660.93660681
  -exchange      EXHF   =         0.00000000
  -V(xc)+E(xc)   XCENC  =       481.44006145
  PAW double counting   =     11543.82680534   -12079.85331524
  entropy T*S    EENTRO =        -0.00000000
  eigenvalues    EBANDS =     -1501.06263178
  atomic energy  EATOM  =     13290.28009929
  Solvation  Ediel_sol  =         0.00000000
  ---------------------------------------------------
  free energy    TOTEN  =      -714.92211288 eV

  energy without entropy =     -714.92211288  energy(sigma->0) =     -714.92211288


--------------------------------------------------------------------------------------------------------




--------------------------------------- Iteration      1(  12)  ---------------------------------------


    POTLOK:  cpu time    0.1371: real time    0.1836
    SETDIJ:  cpu time    1.1528: real time    1.1528
     EDDAV:  cpu time    4.2550: real time    4.2552
       DOS:  cpu time    0.0004: real time    0.0004
    CHARGE:  cpu time    0.8292: real time    0.8293
    MIXING:  cpu time    0.0008: real time    0.0008
    --------------------------------------------
      LOOP:  cpu time    6.3755: real time    6.4222

 eigenvalue-minimisations  :  2104
 total energy-change (2. order) :-0.8473244E-04  (-0.4364142E-04)
 number of electron     176.0000001 magnetization 
 augmentation part       -2.3237126 magnetization 

 Broyden mixing:
  rms(total) = 0.23046E-02    rms(broyden)= 0.23041E-02
  rms(prec ) = 0.25690E-02
  weight for this iteration     100.00

 eigenvalues of (default mixing * dielectric matrix)
  average eigenvalue GAMMA=   1.6340
  3.0491  2.3271  1.8979  1.1765  1.0566  0.9654  0.9654

 Free energy of the ion-electron system (eV)
  ---------------------------------------------------
  alpha Z        PSCENC =       450.93460026
  Ewald energy   TEWEN  =     -9239.55112540
  -Hartree energ DENC   =     -3661.05820690
  -exchange      EXHF   =         0.00000000
  -V(xc)+E(xc)   XCENC  =       481.50031060
  PAW double counting   =     11548.96947632   -12085.04590038
  entropy T*S    EENTRO =        -0.00000000
  eigenvalues    EBANDS =     -1500.95145142
  atomic energy  EATOM  =     13290.28009929
  Solvation  Ediel_sol  =         0.00000000
  ---------------------------------------------------
  free energy    TOTEN  =      -714.92219761 eV

  energy without entropy =     -714.92219761  energy(sigma->0) =     -714.92219761


--------------------------------------------------------------------------------------------------------




--------------------------------------- Iteration      1(  13)  ---------------------------------------


    POTLOK:  cpu time    0.1737: real time    0.1834
    SETDIJ:  cpu time    1.1517: real time    1.1517
     EDDAV:  cpu time    4.5240: real time    4.5242
       DOS:  cpu time    0.0004: real time    0.0004
    CHARGE:  cpu time    0.8290: real time    0.8290
    MIXING:  cpu time    0.0010: real time    0.0010
    --------------------------------------------
      LOOP:  cpu time    6.6798: real time    6.6898

 eigenvalue-minimisations  :  2312
 total energy-change (2. order) :-0.1558656E-04  (-0.3754405E-05)
 number of electron     176.0000001 magnetization 
 augmentation part       -2.3236360 magnetization 

 Broyden mixing:
  rms(total) = 0.66896E-03    rms(broyden)= 0.66828E-03
  rms(prec ) = 0.72737E-03
  weight for this iteration     100.00

 eigenvalues of (default mixing * dielectric matrix)
  average eigenvalue GAMMA=   1.6454
  2.9670  2.3172  2.3172  1.3076  1.3076  0.9466  0.9999  0.9999

 Free energy of the ion-electron system (eV)
  ---------------------------------------------------
  alpha Z        PSCENC =       450.93460026
  Ewald energy   TEWEN  =     -9239.55112540
  -Hartree energ DENC   =     -3661.19177310
  -exchange      EXHF   =         0.00000000
  -V(xc)+E(xc)   XCENC  =       481.51205777
  PAW double counting   =     11547.56600412   -12083.64806627
  entropy T*S    EENTRO =        -0.00000000
  eigenvalues    EBANDS =     -1500.82400988
  atomic energy  EATOM  =     13290.28009929
  Solvation  Ediel_sol  =         0.00000000
  ---------------------------------------------------
  free energy    TOTEN  =      -714.92221320 eV

  energy without entropy =     -714.92221320  energy(sigma->0) =     -714.92221320


--------------------------------------------------------------------------------------------------------




--------------------------------------- Iteration      1(  14)  ---------------------------------------


    POTLOK:  cpu time    0.1609: real time    0.1795
    SETDIJ:  cpu time    1.1518: real time    1.1518
     EDDAV:  cpu time    3.8015: real time    3.8017
       DOS:  cpu time    0.0004: real time    0.0004
    CHARGE:  cpu time    0.8344: real time    0.8345
    MIXING:  cpu time    0.0009: real time    0.0009
    --------------------------------------------
      LOOP:  cpu time    5.9499: real time    5.9688

 eigenvalue-minimisations  :  1728
 total energy-change (2. order) :-0.9836839E-05  (-0.2883310E-06)
 number of electron     176.0000001 magnetization 
 augmentation part       -2.3234705 magnetization 

 Broyden mixing:
  rms(total) = 0.21334E-03    rms(broyden)= 0.21140E-03
  rms(prec ) = 0.25668E-03
  weight for this iteration     100.00

 eigenvalues of (default mixing * dielectric matrix)
  average eigenvalue GAMMA=   1.6430
  2.8175  2.8175  2.0210  2.0210  0.9079  0.9791  0.9791  1.1222  1.1222

 Free energy of the ion-electron system (eV)
  ---------------------------------------------------
  alpha Z        PSCENC =       450.93460026
  Ewald energy   TEWEN  =     -9239.55112540
  -Hartree energ DENC   =     -3661.20834050
  -exchange      EXHF   =         0.00000000
  -V(xc)+E(xc)   XCENC  =       481.51237366
  PAW double counting   =     11547.25417671   -12083.33610260
  entropy T*S    EENTRO =        -0.00000000
  eigenvalues    EBANDS =     -1500.80790446
  atomic energy  EATOM  =     13290.28009929
  Solvation  Ediel_sol  =         0.00000000
  ---------------------------------------------------
  free energy    TOTEN  =      -714.92222304 eV

  energy without entropy =     -714.92222304  energy(sigma->0) =     -714.92222304


--------------------------------------------------------------------------------------------------------




--------------------------------------- Iteration      1(  15)  ---------------------------------------


    POTLOK:  cpu time    0.1364: real time    0.1839
    SETDIJ:  cpu time    1.1533: real time    1.1534
     EDDAV:  cpu time    3.3129: real time    3.3131
       DOS:  cpu time    0.0003: real time    0.0003
    CHARGE:  cpu time    0.8347: real time    0.8348
    MIXING:  cpu time    0.0009: real time    0.0009
    --------------------------------------------
      LOOP:  cpu time    5.4387: real time    5.4863

 eigenvalue-minimisations  :  1336
 total energy-change (2. order) :-0.4085751E-05  (-0.8169771E-07)
 number of electron     176.0000001 magnetization 
 augmentation part       -2.3234582 magnetization 

 Broyden mixing:
  rms(total) = 0.11324E-03    rms(broyden)= 0.10961E-03
  rms(prec ) = 0.12070E-03
  weight for this iteration     100.00

 eigenvalues of (default mixing * dielectric matrix)
  average eigenvalue GAMMA=   1.5968
  2.9082  2.8298  2.1529  2.1529  1.1612  1.1612  1.0054  1.0054  0.9256  0.6654

 Free energy of the ion-electron system (eV)
  ---------------------------------------------------
  alpha Z        PSCENC =       450.93460026
  Ewald energy   TEWEN  =     -9239.55112540
  -Hartree energ DENC   =     -3661.19443310
  -exchange      EXHF   =         0.00000000
  -V(xc)+E(xc)   XCENC  =       481.51126484
  PAW double counting   =     11547.17878681   -12083.25873559
  entropy T*S    EENTRO =        -0.00000000
  eigenvalues    EBANDS =     -1500.82268423
  atomic energy  EATOM  =     13290.28009929
  Solvation  Ediel_sol  =         0.00000000
  ---------------------------------------------------
  free energy    TOTEN  =      -714.92222712 eV

  energy without entropy =     -714.92222712  energy(sigma->0) =     -714.92222712


--------------------------------------------------------------------------------------------------------




--------------------------------------- Iteration      1(  16)  ---------------------------------------


    POTLOK:  cpu time    0.1544: real time    0.1753
    SETDIJ:  cpu time    1.1513: real time    1.1514
     EDDAV:  cpu time    3.1602: real time    3.1603
       DOS:  cpu time    0.0003: real time    0.0003
    --------------------------------------------
      LOOP:  cpu time    4.4663: real time    4.4874

 eigenvalue-minimisations  :  1216
 total energy-change (2. order) : 0.9965493E-06  (-0.1569992E-07)
 number of electron     176.0000001 magnetization 
 augmentation part       -2.3234582 magnetization 

 Free energy of the ion-electron system (eV)
  ---------------------------------------------------
  alpha Z        PSCENC =       450.93460026
  Ewald energy   TEWEN  =     -9239.55112540
  -Hartree energ DENC   =     -3661.19337084
  -exchange      EXHF   =         0.00000000
  -V(xc)+E(xc)   XCENC  =       481.51137928
  PAW double counting   =     11547.20836178   -12083.28862989
  entropy T*S    EENTRO =        -0.00000000
  eigenvalues    EBANDS =     -1500.82354061
  atomic energy  EATOM  =     13290.28009929
  Solvation  Ediel_sol  =         0.00000000
  ---------------------------------------------------
  free energy    TOTEN  =      -714.92222613 eV

  energy without entropy =     -714.92222613  energy(sigma->0) =     -714.92222613


--------------------------------------------------------------------------------------------------------




 average (electrostatic) potential at core
  the test charge radii are     1.1312  1.1541  1.0178
  (the norm of the test charge is              1.0000)
       1 -55.2107       2 -55.2106       3 -55.2107       4 -55.2106       5-101.6223
       6-101.6223       7-101.6223       8-101.6223       9 -68.9627      10 -68.9627
      11 -68.9627      12 -68.9627      13 -68.9587      14 -68.9587      15 -68.9587
      16 -68.9587      17 -68.9587      18 -68.9587      19 -68.9587      20 -68.9587



 E-fermi :   0.5522     XC(G=0):  -8.0929     alpha+bet : -7.0744


 k-point     1 :       0.0000    0.0000    0.0000
  band No.  band energies     occupation 
      1     -20.7432      2.00000
      2     -20.7415      2.00000
      3     -20.7392      2.00000
      4     -20.7381      2.00000
      5     -16.4443      2.00000
      6     -16.4348      2.00000
      7     -16.4346      2.00000
      8     -16.4183      2.00000
      9     -16.3861      2.00000
     10     -16.3540      2.00000
     11     -16.3474      2.00000
     12     -16.3473      2.00000
     13     -16.2850      2.00000
     14     -16.2849      2.00000
     15     -16.2842      2.00000
     16     -16.2840      2.00000
     17     -16.2835      2.00000
     18     -16.2829      2.00000
     19     -16.2827      2.00000
     20     -16.2824      2.00000
     21     -16.2760      2.00000
     22     -16.2755      2.00000
     23     -16.2747      2.00000
     24     -16.2743      2.00000
     25     -14.3162      2.00000
     26     -14.1349      2.00000
     27     -14.0020      2.00000
     28     -13.9972      2.00000
     29     -13.9897      2.00000
     30     -13.9801      2.00000
     31     -13.9719      2.00000
     32     -13.9646      2.00000
     33     -13.9356      2.00000
     34     -13.7201      2.00000
     35     -13.7170      2.00000
     36     -13.7135      2.00000
     37      -8.1427      2.00000
     38      -7.6408      2.00000
     39      -7.1905      2.00000
     40      -7.1763      2.00000
     41      -7.1752      2.00000
     42      -7.1690      2.00000
     43      -7.1505      2.00000
     44      -7.1501      2.00000
     45      -7.1484      2.00000
     46      -7.1426      2.00000
     47      -7.1354      2.00000
     48      -7.1295      2.00000
     49      -7.1180      2.00000
     50      -7.1096      2.00000
     51      -7.0851      2.00000
     52      -6.5077      2.00000
     53      -3.2801      2.00000
     54      -3.2354      2.00000
     55      -3.2332      2.00000
     56      -3.1280      2.00000
     57      -3.1266      2.00000
     58      -3.0635      2.00000
     59      -2.1112      2.00000
     60      -1.8901      2.00000
     61      -1.8464      2.00000
     62      -1.8358      2.00000
     63      -1.8276      2.00000
     64      -1.7431      2.00000
     65      -1.5976      2.00000
     66      -1.4896      2.00000
     67      -1.4770      2.00000
     68      -1.4677      2.00000
     69      -1.3958      2.00000
     70      -1.3859      2.00000
     71      -1.3858      2.00000
     72      -1.3708      2.00000
     73      -1.3288      2.00000
     74      -1.3283      2.00000
     75      -1.3109      2.00000
     76      -1.3025      2.00000
     77      -1.2964      2.00000
     78      -1.1764      2.00000
     79      -1.1041      2.00000
     80      -1.0922      2.00000
     81      -1.0608      2.00000
     82      -1.0347      2.00000
     83      -0.9923      2.00000
     84      -0.9548      2.00000
     85      -0.7821      2.00000
     86      -0.5970      2.00000
     87      -0.1303      2.00000
     88       0.4778      2.00000
     89       2.7552      0.00000
     90       2.8163      0.00000
     91       2.9118      0.00000
     92       3.1406      0.00000
     93       3.3489      0.00000
     94       3.5549      0.00000
     95       4.9465      0.00000
     96       5.7090      0.00000
     97       5.8729      0.00000
     98       5.9253      0.00000
     99       6.0737      0.00000
    100       6.1280      0.00000
    101       6.1322      0.00000
    102       6.2518      0.00000
    103       6.3465      0.00000
    104       6.4023      0.00000
    105       6.5478      0.00000
    106       6.5707      0.00000
    107       6.6129      0.00000
    108       6.7819      0.00000
    109       6.8634      0.00000
    110       6.9310      0.00000
    111       6.9702      0.00000
    112       7.0914      0.00000

 k-point     2 :       0.3333    0.0000    0.0000
  band No.  band energies     occupation 
      1     -20.7423      2.00000
      2     -20.7406      2.00000
      3     -20.7402      2.00000
      4     -20.7390      2.00000
      5     -16.4376      2.00000
      6     -16.4246      2.00000
      7     -16.4141      2.00000
      8     -16.4140      2.00000
      9     -16.3779      2.00000
     10     -16.3704      2.00000
     11     -16.3703      2.00000
     12     -16.3618      2.00000
     13     -16.2849      2.00000
     14     -16.2849      2.00000
     15     -16.2840      2.00000
     16     -16.2839      2.00000
     17     -16.2834      2.00000
     18     -16.2831      2.00000
     19     -16.2827      2.00000
     20     -16.2826      2.00000
     21     -16.2757      2.00000
     22     -16.2752      2.00000
     23     -16.2750      2.00000
     24     -16.2747      2.00000
     25     -14.2673      2.00000
     26     -14.1350      2.00000
     27     -14.0987      2.00000
     28     -14.0214      2.00000
     29     -14.0011      2.00000
     30     -13.9983      2.00000
     31     -13.9083      2.00000
     32     -13.9015      2.00000
     33     -13.8199      2.00000
     34     -13.7809      2.00000
     35     -13.7761      2.00000
     36     -13.7427      2.00000
     37      -7.9335      2.00000
     38      -7.4571      2.00000
     39      -7.4291      2.00000
     40      -7.1958      2.00000
     41      -7.1659      2.00000
     42      -7.1639      2.00000
     43      -7.1576      2.00000
     44      -7.1456      2.00000
     45      -7.1409      2.00000
     46      -7.1301      2.00000
     47      -7.1298      2.00000
     48      -7.1180      2.00000
     49      -7.1139      2.00000
     50      -7.1085      2.00000
     51      -7.1026      2.00000
     52      -6.8513      2.00000
     53      -3.2295      2.00000
     54      -3.1333      2.00000
     55      -2.9415      2.00000
     56      -2.8137      2.00000
     57      -2.7071      2.00000
     58      -2.6849      2.00000
     59      -2.2061      2.00000
     60      -2.0864      2.00000
     61      -2.0403      2.00000
     62      -1.9474      2.00000
     63      -1.9459      2.00000
     64      -1.9084      2.00000
     65      -1.7807      2.00000
     66      -1.6645      2.00000
     67      -1.6273      2.00000
     68      -1.5847      2.00000
     69      -1.4243      2.00000
     70      -1.3914      2.00000
     71      -1.3790      2.00000
     72      -1.3558      2.00000
     73      -1.3518      2.00000
     74      -1.3411      2.00000
     75      -1.2728      2.00000
     76      -1.2671      2.00000
     77      -1.2132      2.00000
     78      -1.1684      2.00000
     79      -1.1671      2.00000
     80      -1.1521      2.00000
     81      -1.0868      2.00000
     82      -1.0818      2.00000
     83      -1.0185      2.00000
     84      -0.9766      2.00000
     85      -0.7720      2.00000
     86      -0.6363      2.00000
     87      -0.4835      2.00000
     88      -0.0560      2.00000
     89       2.9874      0.00000
     90       3.3320      0.00000
     91       3.5599      0.00000
     92       3.7876      0.00000
     93       3.9107      0.00000
     94       4.1583      0.00000
     95       5.0835      0.00000
     96       5.1735      0.00000
     97       5.2446      0.00000
     98       5.3936      0.00000
     99       5.8502      0.00000
    100       5.8642      0.00000
    101       6.2018      0.00000
    102       6.2639      0.00000
    103       6.4626      0.00000
    104       6.4632      0.00000
    105       6.5165      0.00000
    106       6.5566      0.00000
    107       6.5627      0.00000
    108       6.7690      0.00000
    109       6.9020      0.00000
    110       7.0467      0.00000
    111       7.1346      0.00000
    112       7.1399      0.00000

 k-point     3 :       0.0000    0.5000    0.0000
  band No.  band energies     occupation 
      1     -20.7424      2.00000
      2     -20.7424      2.00000
      3     -20.7386      2.00000
      4     -20.7386      2.00000
      5     -16.4347      2.00000
      6     -16.4347      2.00000
      7     -16.4153      2.00000
      8     -16.4153      2.00000
      9     -16.3866      2.00000
     10     -16.3866      2.00000
     11     -16.3474      2.00000
     12     -16.3474      2.00000
     13     -16.2845      2.00000
     14     -16.2845      2.00000
     15     -16.2844      2.00000
     16     -16.2844      2.00000
     17     -16.2830      2.00000
     18     -16.2830      2.00000
     19     -16.2826      2.00000
     20     -16.2826      2.00000
     21     -16.2757      2.00000
     22     -16.2757      2.00000
     23     -16.2745      2.00000
     24     -16.2745      2.00000
     25     -14.2593      2.00000
     26     -14.2593      2.00000
     27     -13.9855      2.00000
     28     -13.9855      2.00000
     29     -13.9683      2.00000
     30     -13.9683      2.00000
     31     -13.9651      2.00000
     32     -13.9651      2.00000
     33     -13.8267      2.00000
     34     -13.8267      2.00000
     35     -13.7152      2.00000
     36     -13.7152      2.00000
     37      -7.9111      2.00000
     38      -7.9111      2.00000
     39      -7.1837      2.00000
     40      -7.1836      2.00000
     41      -7.1680      2.00000
     42      -7.1680      2.00000
     43      -7.1446      2.00000
     44      -7.1446      2.00000
     45      -7.1351      2.00000
     46      -7.1351      2.00000
     47      -7.1278      2.00000
     48      -7.1278      2.00000
     49      -7.1175      2.00000
     50      -7.1174      2.00000
     51      -6.8674      2.00000
     52      -6.8674      2.00000
     53      -3.1918      2.00000
     54      -3.1918      2.00000
     55      -3.1830      2.00000
     56      -3.1830      2.00000
     57      -2.4449      2.00000
     58      -2.4449      2.00000
     59      -2.2999      2.00000
     60      -2.2999      2.00000
     61      -1.9843      2.00000
     62      -1.9843      2.00000
     63      -1.7783      2.00000
     64      -1.7783      2.00000
     65      -1.7430      2.00000
     66      -1.7430      2.00000
     67      -1.4582      2.00000
     68      -1.4582      2.00000
     69      -1.4412      2.00000
     70      -1.4412      2.00000
     71      -1.3456      2.00000
     72      -1.3456      2.00000
     73      -1.3135      2.00000
     74      -1.3135      2.00000
     75      -1.2793      2.00000
     76      -1.2793      2.00000
     77      -1.1690      2.00000
     78      -1.1690      2.00000
     79      -1.1475      2.00000
     80      -1.1475      2.00000
     81      -1.0777      2.00000
     82      -1.0777      2.00000
     83      -1.0639      2.00000
     84      -1.0639      2.00000
     85      -0.8038      2.00000
     86      -0.8038      2.00000
     87       0.0122      2.00000
     88       0.0122      2.00000
     89       2.9619      0.00000
     90       2.9619      0.00000
     91       3.1266      0.00000
     92       3.1266      0.00000
     93       4.3461      0.00000
     94       4.3461      0.00000
     95       4.9139      0.00000
     96       4.9139      0.00000
     97       5.6158      0.00000
     98       5.6158      0.00000
     99       6.0654      0.00000
    100       6.0654      0.00000
    101       6.1017      0.00000
    102       6.1017      0.00000
    103       6.3282      0.00000
    104       6.3282      0.00000
    105       6.3886      0.00000
    106       6.3886      0.00000
    107       6.7098      0.00000
    108       6.7098      0.00000
    109       6.9027      0.00000
    110       6.9029      0.00000
    111       7.0364      0.00000
    112       7.0406      0.00000

 k-point     4 :       0.3333    0.5000    0.0000
  band No.  band energies     occupation 
      1     -20.7414      2.00000
      2     -20.7414      2.00000
      3     -20.7396      2.00000
      4     -20.7396      2.00000
      5     -16.4140      2.00000
      6     -16.4140      2.00000
      7     -16.4080      2.00000
      8     -16.4080      2.00000
      9     -16.3937      2.00000
     10     -16.3937      2.00000
     11     -16.3704      2.00000
     12     -16.3704      2.00000
     13     -16.2845      2.00000
     14     -16.2845      2.00000
     15     -16.2844      2.00000
     16     -16.2844      2.00000
     17     -16.2831      2.00000
     18     -16.2831      2.00000
     19     -16.2828      2.00000
     20     -16.2828      2.00000
     21     -16.2755      2.00000
     22     -16.2755      2.00000
     23     -16.2748      2.00000
     24     -16.2748      2.00000
     25     -14.2161      2.00000
     26     -14.2161      2.00000
     27     -14.1047      2.00000
     28     -14.1047      2.00000
     29     -13.9052      2.00000
     30     -13.9052      2.00000
     31     -13.8819      2.00000
     32     -13.8819      2.00000
     33     -13.8380      2.00000
     34     -13.8380      2.00000
     35     -13.7785      2.00000
     36     -13.7785      2.00000
     37      -7.7004      2.00000
     38      -7.7004      2.00000
     39      -7.2370      2.00000
     40      -7.2370      2.00000
     41      -7.1668      2.00000
     42      -7.1668      2.00000
     43      -7.1655      2.00000
     44      -7.1655      2.00000
     45      -7.1379      2.00000
     46      -7.1379      2.00000
     47      -7.1264      2.00000
     48      -7.1264      2.00000
     49      -7.1223      2.00000
     50      -7.1223      2.00000
     51      -7.0770      2.00000
     52      -7.0770      2.00000
     53      -2.8812      2.00000
     54      -2.8812      2.00000
     55      -2.7836      2.00000
     56      -2.7836      2.00000
     57      -2.4123      2.00000
     58      -2.4123      2.00000
     59      -2.3450      2.00000
     60      -2.3450      2.00000
     61      -2.1277      2.00000
     62      -2.1277      2.00000
     63      -2.0146      2.00000
     64      -2.0146      2.00000
     65      -1.6979      2.00000
     66      -1.6979      2.00000
     67      -1.6247      2.00000
     68      -1.6247      2.00000
     69      -1.5061      2.00000
     70      -1.5061      2.00000
     71      -1.4722      2.00000
     72      -1.4722      2.00000
     73      -1.3514      2.00000
     74      -1.3514      2.00000
     75      -1.3313      2.00000
     76      -1.3313      2.00000
     77      -1.1203      2.00000
     78      -1.1203      2.00000
     79      -1.0913      2.00000
     80      -1.0913      2.00000
     81      -1.0764      2.00000
     82      -1.0764      2.00000
     83      -1.0536      2.00000
     84      -1.0536      2.00000
     85      -0.7762      2.00000
     86      -0.7762      2.00000
     87      -0.5202      2.00000
     88      -0.5202      2.00000
     89       3.7247      0.00000
     90       3.7247      0.00000
     91       3.9451      0.00000
     92       3.9451      0.00000
     93       4.4902      0.00000
     94       4.4902      0.00000
     95       4.7557      0.00000
     96       4.7557      0.00000
     97       5.2233      0.00000
     98       5.2233      0.00000
     99       5.2975      0.00000
    100       5.2975      0.00000
    101       6.1177      0.00000
    102       6.1177      0.00000
    103       6.3992      0.00000
    104       6.3992      0.00000
    105       6.5666      0.00000
    106       6.5666      0.00000
[...]
     60      -2.3495      2.00000
     61      -2.1713      2.00000
     62      -2.1713      2.00000
     63      -1.9947      2.00000
     64      -1.9947      2.00000
     65      -1.6651      2.00000
     66      -1.6651      2.00000
     67      -1.6232      2.00000
     68      -1.6232      2.00000
     69      -1.4992      2.00000
     70      -1.4992      2.00000
     71      -1.4179      2.00000
     72      -1.4179      2.00000
     73      -1.3053      2.00000
     74      -1.3053      2.00000
     75      -1.2889      2.00000
     76      -1.2889      2.00000
     77      -1.1624      2.00000
     78      -1.1624      2.00000
     79      -1.1093      2.00000
     80      -1.1093      2.00000
     81      -1.0863      2.00000
     82      -1.0863      2.00000
     83      -1.0516      2.00000
     84      -1.0516      2.00000
     85      -0.8543      2.00000
     86      -0.8543      2.00000
     87      -0.5919      2.00000
     88      -0.5919      2.00000
     89       3.8247      0.00000
     90       3.8247      0.00000
     91       3.8332      0.00000
     92       3.8332      0.00000
     93       4.4805      0.00000
     94       4.4805      0.00000
     95       4.7566      0.00000
     96       4.7566      0.00000
     97       5.2171      0.00000
     98       5.2171      0.00000
     99       5.2894      0.00000
    100       5.2894      0.00000
    101       6.1057      0.00000
    102       6.1057      0.00000
    103       6.3511      0.00000
    104       6.3511      0.00000
    105       6.4977      0.00000
    106       6.4977      0.00000
    107       6.7040      0.00000
    108       6.7040      0.00000
    109       6.8869      0.00000
    110       6.8869      0.00000
    111       7.0529      0.00000
    112       7.0529      0.00000

 k-point     8 :       0.3333    0.5000    0.3333
  band No.  band energies     occupation 
      1     -20.7409      2.00000
      2     -20.7409      2.00000
      3     -20.7399      2.00000
      4     -20.7399      2.00000
      5     -16.4224      2.00000
      6     -16.4224      2.00000
      7     -16.4095      2.00000
      8     -16.4095      2.00000
      9     -16.3853      2.00000
     10     -16.3853      2.00000
     11     -16.3692      2.00000
     12     -16.3692      2.00000
     13     -16.2845      2.00000
     14     -16.2845      2.00000
     15     -16.2844      2.00000
     16     -16.2844      2.00000
     17     -16.2830      2.00000
     18     -16.2830      2.00000
     19     -16.2828      2.00000
     20     -16.2828      2.00000
     21     -16.2753      2.00000
     22     -16.2753      2.00000
     23     -16.2750      2.00000
     24     -16.2750      2.00000
     25     -14.1688      2.00000
     26     -14.1688      2.00000
     27     -14.0832      2.00000
     28     -14.0832      2.00000
     29     -13.9854      2.00000
     30     -13.9854      2.00000
     31     -13.9024      2.00000
     32     -13.9024      2.00000
     33     -13.8131      2.00000
     34     -13.8131      2.00000
     35     -13.7807      2.00000
     36     -13.7807      2.00000
     37      -7.5668      2.00000
     38      -7.5668      2.00000
     39      -7.3236      2.00000
     40      -7.3236      2.00000
     41      -7.1636      2.00000
     42      -7.1636      2.00000
     43      -7.1470      2.00000
     44      -7.1470      2.00000
     45      -7.1311      2.00000
     46      -7.1311      2.00000
     47      -7.1263      2.00000
     48      -7.1263      2.00000
     49      -7.1200      2.00000
     50      -7.1200      2.00000
     51      -7.0971      2.00000
     52      -7.0971      2.00000
     53      -3.1038      2.00000
     54      -3.1038      2.00000
     55      -2.7465      2.00000
     56      -2.7465      2.00000
     57      -2.4884      2.00000
     58      -2.4884      2.00000
     59      -2.3613      2.00000
     60      -2.3613      2.00000
     61      -2.1123      2.00000
     62      -2.1123      2.00000
     63      -1.9691      2.00000
     64      -1.9691      2.00000
     65      -1.6939      2.00000
     66      -1.6939      2.00000
     67      -1.6121      2.00000
     68      -1.6121      2.00000
     69      -1.4669      2.00000
     70      -1.4669      2.00000
     71      -1.3878      2.00000
     72      -1.3878      2.00000
     73      -1.3238      2.00000
     74      -1.3238      2.00000
     75      -1.2393      2.00000
     76      -1.2393      2.00000
     77      -1.2062      2.00000
     78      -1.2062      2.00000
     79      -1.1410      2.00000
     80      -1.1410      2.00000
     81      -1.0856      2.00000
     82      -1.0856      2.00000
     83      -1.0350      2.00000
     84      -1.0350      2.00000
     85      -0.7730      2.00000
     86      -0.7730      2.00000
     87      -0.5107      2.00000
     88      -0.5107      2.00000
     89       3.2886      0.00000
     90       3.2886      0.00000
     91       4.0716      0.00000
     92       4.0716      0.00000
     93       4.5560      0.00000
     94       4.5560      0.00000
     95       4.6887      0.00000
     96       4.6887      0.00000
     97       5.0891      0.00000
     98       5.0891      0.00000
     99       5.8066      0.00000
    100       5.8066      0.00000
    101       6.3561      0.00000
    102       6.3561      0.00000
    103       6.4778      0.00000
    104       6.4778      0.00000
    105       6.6597      0.00000
    106       6.6597      0.00000
    107       6.8124      0.00000
    108       6.8124      0.00000
    109       6.8799      0.00000
    110       6.8799      0.00000
    111       7.0099      0.00000
    112       7.0100      0.00000


--------------------------------------------------------------------------------------------------------


 soft charge-density along one line, spin component           1
         0         1         2         3         4         5         6         7         8         9
 total charge-density along one line

 pseudopotential strength for first ion, spin component:           1
 17.942  -4.697  -0.000  -0.001  -0.001   0.000   0.001   0.002
 -4.697   1.238   0.000   0.000   0.000  -0.000  -0.000  -0.000
 -0.000   0.000   2.253  -0.000  -0.000  -2.692   0.000   0.000
 -0.001   0.000  -0.000   2.254  -0.001   0.000  -2.693   0.001
 -0.001   0.000  -0.000  -0.001   2.253   0.000   0.001  -2.693
  0.000  -0.000  -2.692   0.000   0.000   3.184  -0.000  -0.000
  0.001  -0.000   0.000  -2.693   0.001  -0.000   3.185  -0.001
  0.002  -0.000   0.000   0.001  -2.693  -0.000  -0.001   3.185
 -0.000   0.000   0.000  -0.000   0.000  -0.001   0.000  -0.000
 -0.000   0.000   0.000  -0.000  -0.000  -0.001   0.000   0.000
  0.000  -0.000   0.000  -0.002   0.001  -0.000   0.002  -0.001
 -0.001   0.000  -0.000  -0.000   0.000   0.000   0.000  -0.000
  0.000  -0.000   0.000  -0.000  -0.002  -0.000   0.000   0.003
 total augmentation occupancy for first ion, spin component:           1
  1.911  -0.140   0.000  -0.000  -0.000   0.000  -0.000  -0.000  -0.000   0.000   0.000  -0.001   0.000
 -0.140   0.119   0.000  -0.003  -0.003   0.000   0.001   0.002   0.000   0.000  -0.001   0.005   0.001
  0.000   0.000   2.016   0.000  -0.000   0.003   0.000   0.000   0.002   0.001   0.000  -0.000   0.000
 -0.000  -0.003   0.000   2.018  -0.003   0.000   0.004  -0.002   0.000   0.000  -0.005  -0.000  -0.000
 -0.000  -0.003  -0.000  -0.003   2.017   0.000  -0.002   0.004   0.000   0.000   0.001   0.001  -0.003
  0.000   0.000   0.003   0.000   0.000   0.008   0.000   0.000  -0.001  -0.002   0.000   0.000   0.000
 -0.000   0.001   0.000   0.004  -0.002   0.000   0.008   0.001  -0.000   0.000   0.003  -0.001   0.000
 -0.000   0.002   0.000  -0.002   0.004   0.000   0.001   0.009   0.000   0.000  -0.001  -0.001   0.002
 -0.000   0.000   0.002   0.000   0.000  -0.001  -0.000   0.000   0.006   0.002  -0.000   0.000  -0.000
  0.000   0.000   0.001   0.000   0.000  -0.002   0.000   0.000   0.002   0.005   0.000  -0.000   0.000
  0.000  -0.001   0.000  -0.005   0.001   0.000   0.003  -0.001  -0.000   0.000   0.005  -0.002  -0.001
 -0.001   0.005  -0.000  -0.000   0.001   0.000  -0.001  -0.001   0.000  -0.000  -0.002   0.004   0.001
  0.000   0.001   0.000  -0.000  -0.003   0.000   0.000   0.002  -0.000   0.000  -0.001   0.001   0.004


------------------------ aborting loop because EDIFF is reached ----------------------------------------





 total charge     

# of ion       s       p       d       tot
------------------------------------------
    1        1.786   4.719   0.019   6.523
    2        1.786   4.719   0.018   6.523
    3        1.786   4.719   0.018   6.523
    4        1.786   4.719   0.019   6.523
    5        1.553   0.420   9.833  11.807
    6        1.553   0.420   9.833  11.807
    7        1.553   0.420   9.833  11.807
    8        1.553   0.420   9.833  11.807
    9        1.614   3.286   0.006   4.907
   10        1.614   3.286   0.006   4.907
   11        1.614   3.286   0.006   4.907
   12        1.614   3.286   0.006   4.907
   13        1.615   3.272   0.006   4.893
   14        1.613   3.295   0.006   4.914
   15        1.613   3.295   0.006   4.914
   16        1.615   3.272   0.006   4.893
   17        1.615   3.272   0.006   4.893
   18        1.613   3.295   0.006   4.914
   19        1.615   3.272   0.006   4.893
   20        1.613   3.295   0.006   4.914
--------------------------------------------------
tot         32.728  59.965  39.481 132.174

    CHARGE:  cpu time    0.1254: real time    0.1254
    FORLOC:  cpu time    0.0034: real time    0.0034
    FORNL :  cpu time    0.5434: real time    0.5434
    STRESS:  cpu time   12.1437: real time   12.1442
    FORCOR:  cpu time    0.1068: real time    0.1068
    FORHAR:  cpu time    0.0108: real time    0.0108
    MIXING:  cpu time    0.0009: real time    0.0009
    OFIELD:  cpu time    0.0000: real time    0.0000

  FORCE on cell =-STRESS in cart. coord.  units (eV):
  Direction    XX          YY          ZZ          XY          YZ          ZX
  --------------------------------------------------------------------------------------
  Alpha Z   450.93460   450.93460   450.93460
  Ewald   -3075.79695 -3016.30022 -3147.47983     0.00000     0.00000     0.00000
  Hartree  1227.58648  1253.01183  1180.60255    -0.00000    -0.00000    -0.00000
  E(xc)    -738.93399  -738.93813  -738.98949     0.00000     0.00000    -0.03333
  Local   -1421.49599 -1505.69908 -1303.15930     0.00000     0.00000    -0.00000
  n-local   899.87306   900.18080   899.47641    -0.00000    -0.00001     0.07987
  augment   406.48518   406.17918   406.10967    -0.00000    -0.00004     0.00000
  Kinetic  2250.63247  2250.11680  2251.66289     0.00000     0.00000    -1.60700
  Fock        0.00000     0.00000     0.00000     0.00000     0.00000     0.00000
  -------------------------------------------------------------------------------------
  Total      -0.71513    -0.51423    -0.84250     0.00000     0.00000     0.00000
  in kB      -1.43197    -1.02968    -1.68700     0.00000     0.00000     0.00000
  external pressure =       -1.38 kB  Pullay stress =        0.00 kB


 VOLUME and BASIS-vectors are now :
 -----------------------------------------------------------------------------
  energy-cutoff  :      300.00
  volume of cell :      800.14
      direct lattice vectors                 reciprocal lattice vectors
     8.420017598  0.000000000 -0.000000000     0.118764597  0.000000000  0.000000000
     0.000000000 11.763807785  0.000000000    -0.000000000  0.085006489  0.000000000
     0.000000000  0.000000000  8.077980554     0.000000000 -0.000000000  0.123793316

  length of vectors
     8.420017598 11.763807785  8.077980554     0.118764597  0.085006489  0.123793316


 FORCES acting on ions
    electron-ion (+dipol)            ewald-force                    non-local-force                 convergence-correction
 -----------------------------------------------------------------------------------------------
   0.280E+02 0.103E-12 -.113E+02   -.279E+02 0.000E+00 0.114E+02   -.800E-01 0.000E+00 -.796E-01   -.726E-04 0.751E-13 0.183E-03
   -.280E+02 -.676E-12 -.113E+02   0.279E+02 -.355E-14 0.114E+02   0.800E-01 0.132E-22 -.796E-01   0.726E-04 -.355E-13 0.183E-03
   0.280E+02 0.325E-12 0.113E+02   -.279E+02 0.213E-13 -.114E+02   -.800E-01 -.132E-22 0.796E-01   -.726E-04 0.773E-13 -.183E-03
   -.280E+02 -.462E-11 0.113E+02   0.279E+02 0.711E-14 -.114E+02   0.800E-01 0.000E+00 0.796E-01   0.726E-04 -.372E-13 -.183E-03
   0.156E-12 0.260E-13 0.637E-13   -.799E-14 0.373E-13 -.258E-13   0.000E+00 0.000E+00 0.287E-23   -.696E-13 -.231E-12 -.165E-12
   0.270E-11 -.520E-12 -.846E-11   0.799E-14 0.728E-13 0.338E-13   0.000E+00 0.000E+00 0.574E-23   -.438E-13 -.235E-12 0.234E-12
   0.341E-11 -.173E-11 -.609E-11   0.426E-13 -.178E-13 0.000E+00   0.000E+00 0.000E+00 -.590E-23   -.118E-13 0.172E-12 0.180E-12
   0.239E-12 0.117E-11 -.111E-13   0.142E-13 0.426E-13 0.000E+00   0.000E+00 0.000E+00 -.306E-23   -.819E-13 0.189E-12 -.131E-12
   0.104E+02 -.490E-12 0.360E+02   -.105E+02 -.462E-13 -.363E+02   0.899E-01 0.000E+00 0.267E+00   -.789E-04 -.640E-13 -.123E-03
   -.104E+02 0.129E-11 0.360E+02   0.105E+02 -.639E-13 -.363E+02   -.899E-01 0.000E+00 0.267E+00   0.789E-04 0.280E-13 -.123E-03
   0.104E+02 0.625E-12 -.360E+02   -.105E+02 -.568E-13 0.363E+02   0.899E-01 0.000E+00 -.267E+00   -.789E-04 -.919E-13 0.123E-03
   -.104E+02 0.442E-11 -.360E+02   0.105E+02 -.249E-13 0.363E+02   -.899E-01 0.000E+00 -.267E+00   0.789E-04 0.109E-13 0.123E-03
   -.201E+02 0.176E+02 0.257E+02   0.202E+02 -.178E+02 -.260E+02   -.166E+00 0.138E+00 0.215E+00   -.472E-04 0.850E-04 0.723E-05
   0.201E+02 -.176E+02 0.257E+02   -.202E+02 0.178E+02 -.260E+02   0.166E+00 -.138E+00 0.215E+00   0.472E-04 -.850E-04 0.723E-05
   -.201E+02 -.176E+02 -.257E+02   0.202E+02 0.178E+02 0.260E+02   -.166E+00 -.138E+00 -.215E+00   -.472E-04 -.850E-04 -.723E-05
   0.201E+02 0.176E+02 -.257E+02   -.202E+02 -.178E+02 0.260E+02   0.166E+00 0.138E+00 -.215E+00   0.472E-04 0.850E-04 -.723E-05
   -.201E+02 -.176E+02 0.257E+02   0.202E+02 0.178E+02 -.260E+02   -.166E+00 -.138E+00 0.215E+00   -.472E-04 -.850E-04 0.723E-05
   0.201E+02 0.176E+02 0.257E+02   -.202E+02 -.178E+02 -.260E+02   0.166E+00 0.138E+00 0.215E+00   0.472E-04 0.850E-04 0.723E-05
   0.201E+02 -.176E+02 -.257E+02   -.202E+02 0.178E+02 0.260E+02   0.166E+00 -.138E+00 -.215E+00   0.472E-04 -.850E-04 -.723E-05
   -.201E+02 0.176E+02 -.257E+02   0.202E+02 -.178E+02 0.260E+02   -.166E+00 0.138E+00 -.215E+00   -.472E-04 0.850E-04 -.723E-05
 -----------------------------------------------------------------------------------------------
   -.462E-11 0.107E-13 -.109E-10   -.355E-14 -.178E-13 -.213E-13   0.278E-16 0.000E+00 0.000E+00   -.188E-12 -.152E-12 0.161E-12


 POSITION                                       TOTAL-FORCE (eV/Angst)
 -----------------------------------------------------------------------------------
      0.53795      2.94095      3.88035         0.006677     -0.000000     -0.004647
      3.67206      8.82286      7.91934        -0.006677     -0.000000     -0.004647
      4.74796      2.94095      0.15864         0.006677     -0.000000      0.004647
      7.88207      8.82286      4.19763        -0.006677     -0.000000      0.004647
      0.00000      0.00000      0.00000         0.000000     -0.000000      0.000000
      4.21001      0.00000      4.03899         0.000000     -0.000000      0.000000
      4.21001      5.88190      4.03899         0.000000     -0.000000      0.000000
      0.00000      5.88190      0.00000         0.000000     -0.000000      0.000000
      4.26300      8.82286      3.49174         0.005435     -0.000000     -0.006015
      8.36703      2.94095      7.53074        -0.005435     -0.000000     -0.006015
      0.05299      8.82286      0.54725         0.005435     -0.000000      0.006015
      4.15702      2.94095      4.58624        -0.005435     -0.000000      0.006015
      2.51690      5.47649      1.59492         0.007070     -0.012288      0.000464
      1.69310      6.28732      5.63392        -0.007070      0.012288      0.000464
      6.72691      0.40541      2.44407         0.007070      0.012288     -0.000464
      5.90311     11.35840      6.48306        -0.007070     -0.012288     -0.000464
      2.51690      0.40541      1.59492         0.007070      0.012288      0.000464
      1.69310     11.35840      5.63392        -0.007070     -0.012288      0.000464
      5.90311      6.28732      6.48306        -0.007070      0.012288     -0.000464
      6.72691      5.47649      2.44407         0.007070     -0.012288     -0.000464
 -----------------------------------------------------------------------------------
    total drift:                               -0.000000     -0.000000     -0.000000


--------------------------------------------------------------------------------------------------------



  FREE ENERGIE OF THE ION-ELECTRON SYSTEM (eV)
  ---------------------------------------------------
  free  energy   TOTEN  =      -714.92222613 eV

  energy  without entropy=     -714.92222613  energy(sigma->0) =     -714.92222613



--------------------------------------------------------------------------------------------------------


    POTLOK:  cpu time    1.2603: real time    1.2604


--------------------------------------------------------------------------------------------------------


 stress matrix after NEB project (eV)
     -0.71513      0.00000      0.00000
      0.00000     -0.51423      0.00000
     -0.00000      0.00000     -0.84250
  FORCES: max atom, RMS     0.014184    0.010337
  FORCE total and by dimension    0.046229    0.012288
  Stress total and by dimension    1.218870    0.842498
     LOOP+:  cpu time  109.9876: real time  110.6412
    4ORBIT:  cpu time    0.0000: real time    0.0000



 total charge     

# of ion       s       p       d       tot
------------------------------------------
    1        1.786   4.719   0.019   6.523
    2        1.786   4.719   0.018   6.523
    3        1.786   4.719   0.018   6.523
    4        1.786   4.719   0.019   6.523
    5        1.553   0.420   9.833  11.807
    6        1.553   0.420   9.833  11.807
    7        1.553   0.420   9.833  11.807
    8        1.553   0.420   9.833  11.807
    9        1.614   3.286   0.006   4.907
   10        1.614   3.286   0.006   4.907
   11        1.614   3.286   0.006   4.907
   12        1.614   3.286   0.006   4.907
   13        1.615   3.272   0.006   4.893
   14        1.613   3.295   0.006   4.914
   15        1.613   3.295   0.006   4.914
   16        1.615   3.272   0.006   4.893
   17        1.615   3.272   0.006   4.893
   18        1.613   3.295   0.006   4.914
   19        1.615   3.272   0.006   4.893
   20        1.613   3.295   0.006   4.914
--------------------------------------------------
tot         32.728  59.965  39.481 132.174


 total amount of memory used by VASP MPI-rank0    42368. kBytes
=======================================================================

   base      :      30000. kBytes
   nonlr-proj:       3009. kBytes
   fftplans  :       3667. kBytes
   grid      :       3424. kBytes
   one-center:         46. kBytes
   wavefun   :       2222. kBytes

  
  
 General timing and accounting informations for this job:
 ========================================================
  
                  Total CPU time used (sec):      119.700
                            User time (sec):      118.668
                          System time (sec):        1.032
                         Elapsed time (sec):      120.755
  
                   Maximum memory used (kb):       78216.
                   Average memory used (kb):           0.
  
                          Minor page faults:        19099
                          Major page faults:            2
                 Voluntary context switches:         1479
