<?xml version="1.0" encoding="ISO-8859-1"?>
<modeling>
 <generator>
  <i name="program" type="string">vasp </i>
  <i name="version" type="string">5.4.4.18Apr17-6-g9f103f2a35  </i>
  <i name="subversion" type="string">(build Jun 22 2020 09:27:21) complex            parallel </i>
  <i name="platform" type="string">tx2_gcc-7.3_libsci-18.07_cray-fftw-3.3.8 </i>
  <i name="date" type="string">2021 09 20 </i>
  <i name="time" type="string">15:14:35 </i>
 </generator>
 <incar>
  <i type="string" name="SYSTEM"> CsPbBr3 cubic bulk</i>
  <i type="string" name="PREC">accurate</i>
  <i type="string" name="ALGO"> Normal   ! Electronic minimisation algo</i>
  <i type="logical" name="ADDGRID"> T  </i>
  <i type="int" name="NELM">   200</i>
  <i type="int" name="IBRION">     2</i>
  <i name="EDIFF">      0.00000100</i>
  <i name="EDIFFG">     -0.01000000</i>
  <i type="int" name="NSW">     0</i>
  <i type="int" name="ISIF">     3</i>
  <i type="int" name="ISYM">     2</i>
  <i name="ENCUT">    300.00000000</i>
  <i name="POTIM">      0.50000000</i>
  <i type="string" name="LREAL"> AUTO</i>
  <i type="int" name="ISMEAR">     0</i>
  <i name="SIGMA">      0.01000000</i>
  <i name="PSTRESS">      0.00000000</i>
  <i type="logical" name="LWAVE"> F  </i>
  <i type="logical" name="LCHARG"> T  </i>
  <i type="logical" name="LVHAR"> T  </i>
  <i type="int" name="LORBIT">    10</i>
  <i type="logical" name="LASPH"> T  </i>
  <v type="int" name="KPOINT_BSE">    -1     0     0     0</v>
  <i type="int" name="NELM">   200</i>
  <i type="string" name="METAGGA"> SCAN       ! PBE exchange-correlation</i>
  <i type="logical" name="LASPH"> T  </i>
 </incar>
 <structure name="primitive_cell" >
  <crystal>
   <varray name="basis" >
    <v>       8.42001760       0.00000000      -0.00000000 </v>
    <v>       0.00000000      11.76380778       0.00000000 </v>
    <v>       0.00000000       0.00000000       8.07798055 </v>
   </varray>
   <i name="volume">    800.13583688 </i>
   <varray name="rec_basis" >
    <v>       0.11876460       0.00000000       0.00000000 </v>
    <v>      -0.00000000       0.08500649       0.00000000 </v>
    <v>       0.00000000      -0.00000000       0.12379332 </v>
   </varray>
  </crystal>
  <varray name="positions" >
   <v>       0.06388952       0.25000000       0.48036129 </v>
   <v>      -0.20108090       0.03446271       0.30255895 </v>
   <v>      -0.20108090       0.46553729       0.30255895 </v>
   <v>       0.49370642       0.25000000      -0.43225468 </v>
   <v>      -0.00629358       0.25000000      -0.06774532 </v>
   <v>       0.29891910       0.46553729       0.19744105 </v>
   <v>       0.29891910       0.03446271       0.19744105 </v>
   <v>       0.20108090      -0.46553729      -0.30255895 </v>
   <v>       0.20108090      -0.03446271      -0.30255895 </v>
   <v>      -0.50000000       0.00000000      -0.50000000 </v>
   <v>      -0.50000000      -0.50000000      -0.50000000 </v>
   <v>       0.00000000       0.00000000       0.00000000 </v>
   <v>       0.00000000      -0.50000000       0.00000000 </v>
   <v>      -0.29891910      -0.03446271      -0.19744105 </v>
   <v>      -0.29891910      -0.46553729      -0.19744105 </v>
   <v>      -0.43611048       0.25000000       0.01963871 </v>
   <v>      -0.06388952      -0.25000000      -0.48036129 </v>
   <v>       0.00629358      -0.25000000       0.06774532 </v>
   <v>      -0.49370642      -0.25000000       0.43225468 </v>
   <v>       0.43611048      -0.25000000      -0.01963871 </v>
  </varray>
 </structure>
 <varray name="primitive_index" >
  <v type="int" >        1 </v>
  <v type="int" >       15 </v>
  <v type="int" >       20 </v>
  <v type="int" >       12 </v>
  <v type="int" >       10 </v>
  <v type="int" >       13 </v>
  <v type="int" >       17 </v>
  <v type="int" >       14 </v>
  <v type="int" >       18 </v>
  <v type="int" >        6 </v>
  <v type="int" >        7 </v>
  <v type="int" >        5 </v>
  <v type="int" >        8 </v>
  <v type="int" >       16 </v>
  <v type="int" >       19 </v>
  <v type="int" >        3 </v>
  <v type="int" >        4 </v>
  <v type="int" >       11 </v>
  <v type="int" >        9 </v>
  <v type="int" >        2 </v>
 </varray>
 <kpoints>
  <generation param="Gamma">
   <v type="int" name="divisions">       3        2        3 </v>
   <v name="usershift">      0.00000000       0.00000000       0.00000000 </v>
   <v name="genvec1">      0.33333333       0.00000000       0.00000000 </v>
   <v name="genvec2">      0.00000000       0.50000000       0.00000000 </v>
   <v name="genvec3">      0.00000000       0.00000000       0.33333333 </v>
   <v name="shift">      0.00000000       0.00000000       0.00000000 </v>
  </generation>
  <varray name="kpointlist" >
   <v>       0.00000000       0.00000000       0.00000000 </v>
   <v>       0.33333333       0.00000000       0.00000000 </v>
   <v>       0.00000000       0.50000000       0.00000000 </v>
   <v>       0.33333333       0.50000000       0.00000000 </v>
   <v>       0.00000000       0.00000000       0.33333333 </v>
   <v>       0.33333333       0.00000000       0.33333333 </v>
   <v>       0.00000000       0.50000000       0.33333333 </v>
   <v>       0.33333333       0.50000000       0.33333333 </v>
  </varray>
  <varray name="weights" >
   <v>       0.05555556 </v>
   <v>       0.11111111 </v>
   <v>       0.05555556 </v>
   <v>       0.11111111 </v>
   <v>       0.11111111 </v>
   <v>       0.22222222 </v>
   <v>       0.11111111 </v>
   <v>       0.22222222 </v>
  </varray>
 </kpoints>
 <parameters>
  <separator name="general" >
   <i type="string" name="SYSTEM">CsPbBr3 cubic bulk</i>
   <i type="logical" name="LCOMPAT"> F  </i>
  </separator>
  <separator name="electronic" >
   <i type="string" name="PREC">accura</i>
   <i name="ENMAX">    300.00000000</i>
   <i name="ENAUG">    503.85200000</i>
   <i name="EDIFF">      0.00000100</i>
   <i type="int" name="IALGO">    38</i>
   <i type="int" name="IWAVPR">    10</i>
   <i type="int" name="NBANDS">   112</i>
   <i name="NELECT">    176.00000000</i>
   <i type="int" name="TURBO">     0</i>
   <i type="int" name="IRESTART">     0</i>
   <i type="int" name="NREBOOT">     0</i>
   <i type="int" name="NMIN">     0</i>
   <i name="EREF">      0.00000000</i>
   <separator name="electronic smearing" >
    <i type="int" name="ISMEAR">     0</i>
    <i name="SIGMA">      0.01000000</i>
    <i name="KSPACING">      0.50000000</i>
    <i type="logical" name="KGAMMA"> T  </i>
   </separator>
   <separator name="electronic projectors" >
    <i type="logical" name="LREAL"> T  </i>
    <v name="ROPT">     -0.00025000     -0.00025000     -0.00025000</v>
    <i type="int" name="LMAXPAW">  -100</i>
    <i type="int" name="LMAXMIX">     2</i>
    <i type="logical" name="NLSPLINE"> F  </i>
   </separator>
   <separator name="electronic startup" >
    <i type="int" name="ISTART">     0</i>
    <i type="int" name="ICHARG">     2</i>
    <i type="int" name="INIWAV">     1</i>
   </separator>
   <separator name="electronic spin" >
    <i type="int" name="ISPIN">     1</i>
    <i type="logical" name="LNONCOLLINEAR"> F  </i>
    <v name="MAGMOM">      1.00000000      1.00000000      1.00000000      1.00000000      1.00000000      1.00000000      1.00000000      1.00000000      1.00000000      1.00000000      1.00000000      1.00000000      1.00000000      1.00000000      1.00000000      1.00000000      1.00000000      1.00000000      1.00000000      1.00000000
</v>
    <i name="NUPDOWN">     -1.00000000</i>
    <i type="logical" name="LSORBIT"> F  </i>
    <v name="SAXIS">      0.00000000      0.00000000      1.00000000</v>
    <i type="logical" name="LSPIRAL"> F  </i>
    <v name="QSPIRAL">      0.00000000      0.00000000      0.00000000</v>
    <i type="logical" name="LZEROZ"> F  </i>
   </separator>
   <separator name="electronic exchange-correlation" >
    <i type="logical" name="LASPH"> T  </i>
    <i type="logical" name="LMETAGGA"> F  </i>
   </separator>
   <separator name="electronic convergence" >
    <i type="int" name="NELM">   200</i>
    <i type="int" name="NELMDL">     0</i>
    <i type="int" name="NELMIN">     2</i>
    <i name="ENINI">    300.00000000</i>
    <separator name="electronic convergence detail" >
     <i type="logical" name="LDIAG"> T  </i>
     <i type="logical" name="LSUBROT"> F  </i>
     <i name="WEIMIN">      0.00000000</i>
     <i name="EBREAK">      0.00000000</i>
     <i name="DEPER">      0.30000000</i>
     <i type="int" name="NRMM">     4</i>
     <i name="TIME">      0.40000000</i>
    </separator>
   </separator>
   <separator name="electronic mixer" >
    <i name="AMIX">      0.40000000</i>
    <i name="BMIX">      1.00000000</i>
    <i name="AMIN">      0.10000000</i>
    <i name="AMIX_MAG">      1.60000000</i>
    <i name="BMIX_MAG">      1.00000000</i>
    <separator name="electronic mixer details" >
     <i type="int" name="IMIX">     4</i>
     <i type="logical" name="MIXFIRST"> F  </i>
     <i type="int" name="MAXMIX">   -45</i>
     <i name="WC">    100.00000000</i>
     <i type="int" name="INIMIX">     1</i>
     <i type="int" name="MIXPRE">     1</i>
     <i type="int" name="MREMOVE">     5</i>
    </separator>
   </separator>
   <separator name="electronic dipolcorrection" >
    <i type="logical" name="LDIPOL"> F  </i>
    <i type="logical" name="LMONO"> F  </i>
    <i type="int" name="IDIPOL">     0</i>
    <i name="EPSILON">      1.00000000</i>
    <v name="DIPOL">   -100.00000000   -100.00000000   -100.00000000</v>
    <i name="EFIELD">      0.00000000</i>
   </separator>
  </separator>
  <separator name="grids" >
   <i type="int" name="NGX">    48</i>
   <i type="int" name="NGY">    70</i>
   <i type="int" name="NGZ">    48</i>
   <i type="int" name="NGXF">    96</i>
   <i type="int" name="NGYF">   140</i>
   <i type="int" name="NGZF">    96</i>
   <i type="logical" name="ADDGRID"> T  </i>
  </separator>
  <separator name="ionic" >
   <i type="int" name="NSW">     0</i>
   <i type="int" name="IBRION">    -1</i>
   <i type="int" name="MDALGO">     0</i>
   <i type="int" name="ISIF">     3</i>
   <i name="PSTRESS">      0.00000000</i>
   <i name="EDIFFG">     -0.01000000</i>
   <i type="int" name="NFREE">     1</i>
   <i name="POTIM">      0.50000000</i>
   <i name="SMASS">     -3.00000000</i>
   <i name="SCALEE">      1.00000000</i>
  </separator>
  <separator name="ionic md" >
   <i name="TEBEG">      0.00010000</i>
   <i name="TEEND">      0.00010000</i>
   <i type="int" name="NBLOCK">     1</i>
   <i type="int" name="KBLOCK">     1</i>
   <i type="int" name="NPACO">   256</i>
   <i name="APACO">     16.00000000</i>
  </separator>
  <separator name="symmetry" >
   <i type="int" name="ISYM">     2</i>
   <i name="SYMPREC">      0.00001000</i>
  </separator>
  <separator name="dos" >
   <i type="int" name="LORBIT">    10</i>
   <v name="RWIGS">     -1.00000000     -1.00000000     -1.00000000</v>
   <i type="int" name="NEDOS">   301</i>
   <i name="EMIN">     10.00000000</i>
   <i name="EMAX">    -10.00000000</i>
   <i name="EFERMI">      0.00000000</i>
  </separator>
  <separator name="writing" >
   <i type="int" name="NWRITE">     2</i>
   <i type="logical" name="LWAVE"> F  </i>
   <i type="logical" name="LDOWNSAMPLE"> F  </i>
   <i type="logical" name="LCHARG"> T  </i>
   <i type="logical" name="LPARD"> F  </i>
   <i type="logical" name="LVTOT"> F  </i>
   <i type="logical" name="LVHAR"> T  </i>
   <i type="logical" name="LELF"> F  </i>
   <i type="logical" name="LOPTICS"> F  </i>
   <v name="STM">      0.00000000      0.00000000      0.00000000      0.00000000      0.00000000      0.00000000      0.00000000</v>
  </separator>
  <separator name="performance" >
   <i type="int" name="NPAR">     8</i>
   <i type="int" name="NSIM">     4</i>
   <i type="int" name="NBLK">    -1</i>
   <i type="logical" name="LPLANE"> T  </i>
   <i type="logical" name="LSCALAPACK"> T  </i>
   <i type="logical" name="LSCAAWARE"> F  </i>
   <i type="logical" name="LSCALU"> F  </i>
   <i type="logical" name="LASYNC"> F  </i>
   <i type="logical" name="LORBITALREAL"> F  </i>
  </separator>
  <separator name="miscellaneous" >
   <i type="int" name="IDIOT">     3</i>
   <i type="int" name="ISPECIAL">     0</i>
   <i type="logical" name="LMUSIC"> F  </i>
   <v name="POMASS">    132.90000000    207.20000000     79.90400000</v>
   <v name="DARWINR">      0.00000000      0.00000000      0.00000000</v>
   <v name="DARWINV">      1.00000000      1.00000000      1.00000000</v>
   <i type="logical" name="LCORR"> T  </i>
  </separator>
  <i type="logical" name="GGA_COMPAT"> T  </i>
  <i type="logical" name="LBERRY"> F  </i>
  <i type="int" name="ICORELEVEL">     0</i>
  <i type="logical" name="LDAU"> F  </i>
  <i type="int" name="I_CONSTRAINED_M">     0</i>
  <separator name="electronic exchange-correlation" >
   <i type="string" name="GGA">--</i>
   <i type="int" name="VOSKOWN">     0</i>
   <i type="logical" name="LHFCALC"> F  </i>
   <i type="string" name="PRECFOCK"></i>
   <i type="logical" name="LSYMGRAD"> F  </i>
   <i type="logical" name="LHFONE"> F  </i>
   <i type="logical" name="LRHFCALC"> F  </i>
   <i type="logical" name="LTHOMAS"> F  </i>
   <i type="logical" name="LMODELHF"> F  </i>
   <i name="ENCUT4O">     -1.00000000</i>
   <i type="int" name="EXXOEP">     0</i>
   <i type="int" name="FOURORBIT">     0</i>
   <i name="AEXX">      0.00000000</i>
   <i name="HFALPHA">      0.00000000</i>
   <i name="MCALPHA">      0.00000000</i>
   <i name="ALDAX">      1.00000000</i>
   <i name="AGGAX">      1.00000000</i>
   <i name="ALDAC">      1.00000000</i>
   <i name="AGGAC">      1.00000000</i>
   <i type="int" name="NKREDX">     1</i>
   <i type="int" name="NKREDY">     1</i>
   <i type="int" name="NKREDZ">     1</i>
   <i type="logical" name="SHIFTRED"> F  </i>
   <i type="logical" name="ODDONLY"> F  </i>
   <i type="logical" name="EVENONLY"> F  </i>
   <i type="int" name="LMAXFOCK">     0</i>
   <i type="int" name="NMAXFOCKAE">     0</i>
   <i type="logical" name="LFOCKAEDFT"> F  </i>
   <i name="HFSCREEN">      0.00000000</i>
   <i name="HFSCREENC">      0.00000000</i>
   <i type="int" name="NBANDSGWLOW">     0</i>
  </separator>
  <separator name="vdW DFT" >
   <i type="logical" name="LUSE_VDW"> F  </i>
   <i name="Zab_VDW">     -0.84910000</i>
   <i name="PARAM1">      0.12340000</i>
   <i name="PARAM2">      1.00000000</i>
   <i name="PARAM3">      0.00000000</i>
  </separator>
  <separator name="model GW" >
   <i type="int" name="MODEL_GW">     0</i>
   <i name="MODEL_EPS0">     24.00407511</i>
   <i name="MODEL_ALPHA">      1.00000000</i>
  </separator>
  <separator name="linear response parameters" >
   <i type="logical" name="LEPSILON"> F  </i>
   <i type="logical" name="LRPA"> F  </i>
   <i type="logical" name="LNABLA"> F  </i>
   <i type="logical" name="LVEL"> F  </i>
   <i type="int" name="KINTER">     0</i>
   <i name="CSHIFT">      0.10000000</i>
   <i name="OMEGAMAX">     -1.00000000</i>
   <i name="DEG_THRESHOLD">      0.00200000</i>
   <i name="RTIME">     -0.10000000</i>
   <i name="WPLASMAI">      0.00000000</i>
   <v name="DFIELD">      0.00000000      0.00000000      0.00000000</v>
   <v name="WPLASMA">      0.00000000      0.00000000      0.00000000      0.00000000      0.00000000      0.00000000      0.00000000      0.00000000      0.00000000</v>
  </separator>
  <separator name="orbital magnetization" >
   <i type="logical" name="NUCIND"> F  </i>
   <v name="MAGPOS">      0.00000000      0.00000000      0.00000000</v>
   <i type="logical" name="LNICSALL"> T  </i>
   <i type="logical" name="ORBITALMAG"> F  </i>
   <i type="logical" name="LMAGBLOCH"> F  </i>
   <i type="logical" name="LCHIMAG"> F  </i>
   <i type="logical" name="LGAUGE"> T  </i>
   <i type="int" name="MAGATOM">     0</i>
   <v name="MAGDIPOL">      0.00000000      0.00000000      0.00000000</v>
   <v name="AVECCONST">      0.00000000      0.00000000      0.00000000</v>
  </separator>
  <separator name="response functions" >
   <i type="logical" name="LADDER"> F  </i>
   <i type="logical" name="LRPAFORCE"> F  </i>
   <i type="logical" name="LFXC"> F  </i>
   <i type="logical" name="LHARTREE"> T  </i>
   <i type="int" name="IBSE">     0</i>
   <v type="int" name="KPOINT">    -1     0     0     0</v>
   <i type="logical" name="LTCTE"> F  </i>
   <i type="logical" name="LTETE"> F  </i>
   <i type="logical" name="LTRIPLET"> F  </i>
   <i type="logical" name="LFXCEPS"> F  </i>
   <i type="logical" name="LFXHEG"> F  </i>
   <i type="int" name="NATURALO">     2</i>
   <i type="logical" name="L2ORDER"> F  </i>
   <i type="logical" name="LMP2LT"> F  </i>
   <i type="logical" name="LUSEW"> F  </i>
   <i name="ENCUTGW">     -2.00000000</i>
   <i name="ENCUTGWSOFT">     -2.00000000</i>
   <i name="ENCUTLF">     -1.00000000</i>
   <i type="int" name="LMAXMP2">    -1</i>
   <i name="SCISSOR">      0.00000000</i>
   <i type="int" name="NOMEGA">     0</i>
   <i type="int" name="NOMEGAR">     0</i>
   <i type="int" name="NBANDSGW">    -1</i>
   <i type="int" name="NBANDSO">    -1</i>
   <i type="int" name="NBANDSV">    -1</i>
   <i type="int" name="NELM">   200</i>
   <i type="int" name="NELMHF">     1</i>
   <i type="int" name="DIM">     3</i>
   <i type="int" name="ANTIRES">     0</i>
   <i name="OMEGAMAX">    -30.00000000</i>
   <i name="OMEGAMIN">    -30.00000000</i>
   <i name="OMEGATL">   -200.00000000</i>
   <i type="int" name="OMEGAGRID">   140</i>
   <i name="CSHIFT">     -0.10000000</i>
   <i type="logical" name="SELFENERGY"> F  </i>
   <i type="logical" name="LSPECTRAL"> F  </i>
   <i type="logical" name="LSPECTRALGW"> F  </i>
   <i type="logical" name="LSINGLES"> F  </i>
   <i type="logical" name="LFERMIGW"> F  </i>
   <i type="logical" name="ODDONLYGW"> F  </i>
   <i type="logical" name="EVENONLYGW"> F  </i>
   <i type="int" name="NKREDLFX">     1</i>
   <i type="int" name="NKREDLFY">     1</i>
   <i type="int" name="NKREDLFZ">     1</i>
   <i type="int" name="MAXMEM">  2800</i>
   <i type="int" name="TELESCOPE">     0</i>
   <i type="int" name="TAUPAR">     1</i>
   <i type="int" name="OMEGAPAR">    -1</i>
   <i name="LAMBDA">      1.00000000</i>
  </separator>
  <separator name="External order field" >
   <i name="OFIELD_KAPPA">      0.00000000</i>
   <v name="OFIELD_K">      0.00000000      0.00000000      0.00000000</v>
   <i name="OFIELD_Q6_NEAR">      0.00000000</i>
   <i name="OFIELD_Q6_FAR">      0.00000000</i>
   <i name="OFIELD_A">      0.00000000</i>
  </separator>
 </parameters>
 <atominfo>
  <atoms>      20 </atoms>
  <types>       3 </types>
  <array name="atoms" >
   <dimension dim="1">ion</dimension>
   <field type="string">element</field>
   <field type="int">atomtype</field>
   <set>
    <rc><c>Cs</c><c>   1</c></rc>
    <rc><c>Cs</c><c>   1</c></rc>
    <rc><c>Cs</c><c>   1</c></rc>
    <rc><c>Cs</c><c>   1</c></rc>
    <rc><c>Pb</c><c>   2</c></rc>
    <rc><c>Pb</c><c>   2</c></rc>
    <rc><c>Pb</c><c>   2</c></rc>
    <rc><c>Pb</c><c>   2</c></rc>
    <rc><c>Br</c><c>   3</c></rc>
    <rc><c>Br</c><c>   3</c></rc>
    <rc><c>Br</c><c>   3</c></rc>
    <rc><c>Br</c><c>   3</c></rc>
    <rc><c>Br</c><c>   3</c></rc>
    <rc><c>Br</c><c>   3</c></rc>
    <rc><c>Br</c><c>   3</c></rc>
    <rc><c>Br</c><c>   3</c></rc>
    <rc><c>Br</c><c>   3</c></rc>
    <rc><c>Br</c><c>   3</c></rc>
    <rc><c>Br</c><c>   3</c></rc>
    <rc><c>Br</c><c>   3</c></rc>
   </set>
  </array>
  <array name="atomtypes" >
   <dimension dim="1">type</dimension>
   <field type="int">atomspertype</field>
   <field type="string">element</field>
   <field>mass</field>
   <field>valence</field>
   <field type="string">pseudopotential</field>
   <set>
    <rc><c>   4</c><c>Cs</c><c>    132.90000000</c><c>      9.00000000</c><c>  PAW_PBE Cs_sv 08Apr2002               </c></rc>
    <rc><c>   4</c><c>Pb</c><c>    207.20000000</c><c>     14.00000000</c><c>  PAW_PBE Pb_d 06Sep2000                </c></rc>
    <rc><c>  12</c><c>Br</c><c>     79.90400000</c><c>      7.00000000</c><c>  PAW_PBE Br 06Sep2000                  </c></rc>
   </set>
  </array>
 </atominfo>
 <structure name="initialpos" >
  <crystal>
   <varray name="basis" >
    <v>       8.42001760       0.00000000      -0.00000000 </v>
    <v>       0.00000000      11.76380778       0.00000000 </v>
    <v>       0.00000000       0.00000000       8.07798055 </v>
   </varray>
   <i name="volume">    800.13583688 </i>
   <varray name="rec_basis" >
    <v>       0.11876460       0.00000000       0.00000000 </v>
    <v>      -0.00000000       0.08500649       0.00000000 </v>
    <v>       0.00000000      -0.00000000       0.12379332 </v>
   </varray>
  </crystal>
  <varray name="positions" >
   <v>       0.06388952       0.25000000       0.48036129 </v>
   <v>       0.43611048       0.75000000       0.98036129 </v>
   <v>       0.56388952       0.25000000       0.01963871 </v>
   <v>       0.93611048       0.75000000       0.51963871 </v>
   <v>       0.00000000       0.00000000       0.00000000 </v>
   <v>       0.50000000       0.00000000       0.50000000 </v>
   <v>       0.50000000       0.50000000       0.50000000 </v>
   <v>       0.00000000       0.50000000       0.00000000 </v>
   <v>       0.50629358       0.75000000       0.43225468 </v>
   <v>       0.99370642       0.25000000       0.93225468 </v>
   <v>       0.00629358       0.75000000       0.06774532 </v>
   <v>       0.49370642       0.25000000       0.56774532 </v>
   <v>       0.29891910       0.46553729       0.19744105 </v>
   <v>       0.20108090       0.53446271       0.69744105 </v>
   <v>       0.79891910       0.03446271       0.30255895 </v>
   <v>       0.70108090       0.96553729       0.80255895 </v>
   <v>       0.29891910       0.03446271       0.19744105 </v>
   <v>       0.20108090       0.96553729       0.69744105 </v>
   <v>       0.70108090       0.53446271       0.80255895 </v>
   <v>       0.79891910       0.46553729       0.30255895 </v>
  </varray>
 </structure>
 <calculation>
  <scstep>
   <time name="dav">    3.89    3.89</time>
   <time name="total">    5.17    5.20</time>
   <energy>
    <i name="alphaZ">    450.93460026 </i>
    <i name="ewald">  -9239.55112540 </i>
    <i name="hartreedc">  -3648.58988337 </i>
    <i name="XCdc">    462.07523776 </i>
    <i name="pawpsdc">  10816.98087266 </i>
    <i name="pawaedc"> -11353.96092700 </i>
    <i name="eentropy">     -0.00001701 </i>
    <i name="bandstr">   -119.48392159 </i>
    <i name="atom">  13290.28009929 </i>
    <i name="e_fr_energy">    658.68493559 </i>
    <i name="e_wo_entrp">    658.68495260 </i>
    <i name="e_0_energy">    658.68494410 </i>
   </energy>
  </scstep>
  <scstep>
   <time name="dav">    4.45    4.49</time>
   <time name="total">    4.45    4.49</time>
   <energy>
    <i name="e_fr_energy">   -576.64285226 </i>
    <i name="e_wo_entrp">   -576.64285226 </i>
    <i name="e_0_energy">   -576.64285226 </i>
   </energy>
  </scstep>
  <scstep>
   <time name="dav">    4.71    4.74</time>
   <time name="total">    4.71    4.74</time>
   <energy>
    <i name="e_fr_energy">   -748.95801521 </i>
    <i name="e_wo_entrp">   -748.95801521 </i>
    <i name="e_0_energy">   -748.95801521 </i>
   </energy>
  </scstep>
  <scstep>
   <time name="dav">    4.33    4.39</time>
   <time name="total">    4.33    4.39</time>
   <energy>
    <i name="e_fr_energy">   -754.52000615 </i>
    <i name="e_wo_entrp">   -754.52000615 </i>
    <i name="e_0_energy">   -754.52000615 </i>
   </energy>
  </scstep>
  <scstep>
   <time name="dav">    4.64    4.66</time>
   <time name="total">    5.50    5.52</time>
   <energy>
    <i name="e_fr_energy">   -754.78695357 </i>
    <i name="e_wo_entrp">   -754.78695357 </i>
    <i name="e_0_energy">   -754.78695357 </i>
   </energy>
  </scstep>
  <scstep>
   <time name="dav">    4.62    4.62</time>
   <time name="total">    6.75    6.80</time>
   <energy>
    <i name="e_fr_energy">   -715.01702745 </i>
    <i name="e_wo_entrp">   -715.01702745 </i>
    <i name="e_0_energy">   -715.01702745 </i>
   </energy>
  </scstep>
  <scstep>
   <time name="dav">    4.46    4.46</time>
   <time name="total">    6.61    6.62</time>
   <energy>
    <i name="e_fr_energy">   -714.78512116 </i>
    <i name="e_wo_entrp">   -714.78512116 </i>
    <i name="e_0_energy">   -714.78512116 </i>
   </energy>
  </scstep>
  <scstep>
   <time name="dav">    4.35    4.35</time>
   <time name="total">    6.50    6.52</time>
   <energy>
    <i name="e_fr_energy">   -714.88035703 </i>
    <i name="e_wo_entrp">   -714.88035703 </i>
    <i name="e_0_energy">   -714.88035703 </i>
   </energy>
  </scstep>
  <scstep>
   <time name="dav">    4.13    4.13</time>
   <time name="total">    6.28    6.29</time>
   <energy>
    <i name="e_fr_energy">   -714.91996213 </i>
    <i name="e_wo_entrp">   -714.91996213 </i>
    <i name="e_0_energy">   -714.91996213 </i>
   </energy>
  </scstep>
  <scstep>
   <time name="dav">    4.80    4.80</time>
   <time name="total">    6.91    6.97</time>
   <energy>
    <i name="e_fr_energy">   -714.92069381 </i>
    <i name="e_wo_entrp">   -714.92069381 </i>
    <i name="e_0_energy">   -714.92069381 </i>
   </energy>
  </scstep>
  <scstep>
   <time name="dav">    4.14    4.14</time>
   <time name="total">    6.27    6.28</time>
   <energy>
    <i name="e_fr_energy">   -714.92211288 </i>
    <i name="e_wo_entrp">   -714.92211288 </i>
    <i name="e_0_energy">   -714.92211288 </i>
   </energy>
  </scstep>
  <scstep>
   <time name="dav">    4.26    4.26</time>
   <time name="total">    6.38    6.42</time>
   <energy>
    <i name="e_fr_energy">   -714.92219761 </i>
    <i name="e_wo_entrp">   -714.92219761 </i>
    <i name="e_0_energy">   -714.92219761 </i>
   </energy>
  </scstep>
  <scstep>
   <time name="dav">    4.52    4.52</time>
   <time name="total">    6.68    6.69</time>
   <energy>
    <i name="e_fr_energy">   -714.92221320 </i>
    <i name="e_wo_entrp">   -714.92221320 </i>
    <i name="e_0_energy">   -714.92221320 </i>
   </energy>
  </scstep>
  <scstep>
   <time name="dav">    3.80    3.80</time>
   <time name="total">    5.95    5.97</time>
   <energy>
    <i name="e_fr_energy">   -714.92222304 </i>
    <i name="e_wo_entrp">   -714.92222304 </i>
    <i name="e_0_energy">   -714.92222304 </i>
   </energy>
  </scstep>
  <scstep>
   <time name="dav">    3.31    3.31</time>
   <time name="total">    5.44    5.49</time>
   <energy>
    <i name="e_fr_energy">   -714.92222712 </i>
    <i name="e_wo_entrp">   -714.92222712 </i>
    <i name="e_0_energy">   -714.92222712 </i>
   </energy>
  </scstep>
  <scstep>
   <time name="dav">    3.16    3.16</time>
   <time name="total">    4.47    4.49</time>
   <energy>
    <i name="alphaZ">    450.93460026 </i>
    <i name="ewald">  -9239.55112540 </i>
    <i name="hartreedc">  -3661.19337084 </i>
    <i name="XCdc">    481.51137928 </i>
    <i name="pawpsdc">  11547.20836178 </i>
    <i name="pawaedc"> -12083.28862989 </i>
    <i name="eentropy">     -0.00000000 </i>
    <i name="bandstr">  -1500.82354061 </i>
    <i name="atom">  13290.28009929 </i>
    <i name="e_fr_energy">   -714.92222613 </i>
    <i name="e_wo_entrp">   -714.92222613 </i>
    <i name="e_0_energy">   -714.92222613 </i>
   </energy>
  </scstep>
  <structure>
   <crystal>
    <varray name="basis" >
     <v>       8.42001760       0.00000000      -0.00000000 </v>
     <v>       0.00000000      11.76380778       0.00000000 </v>
     <v>       0.00000000       0.00000000       8.07798055 </v>
    </varray>
    <i name="volume">    800.13583688 </i>
    <varray name="rec_basis" >
     <v>       0.11876460       0.00000000       0.00000000 </v>
     <v>      -0.00000000       0.08500649       0.00000000 </v>
     <v>       0.00000000      -0.00000000       0.12379332 </v>
    </varray>
   </crystal>
   <varray name="positions" >
    <v>       0.06388952       0.25000000       0.48036129 </v>
    <v>       0.43611048       0.75000000       0.98036129 </v>
    <v>       0.56388952       0.25000000       0.01963871 </v>
    <v>       0.93611048       0.75000000       0.51963871 </v>
    <v>       0.00000000       0.00000000       0.00000000 </v>
    <v>       0.50000000       0.00000000       0.50000000 </v>
    <v>       0.50000000       0.50000000       0.50000000 </v>
    <v>       0.00000000       0.50000000       0.00000000 </v>
    <v>       0.50629358       0.75000000       0.43225468 </v>
    <v>       0.99370642       0.25000000       0.93225468 </v>
    <v>       0.00629358       0.75000000       0.06774532 </v>
    <v>       0.49370642       0.25000000       0.56774532 </v>
    <v>       0.29891910       0.46553729       0.19744105 </v>
    <v>       0.20108090       0.53446271       0.69744105 </v>
    <v>       0.79891910       0.03446271       0.30255895 </v>
    <v>       0.70108090       0.96553729       0.80255895 </v>
    <v>       0.29891910       0.03446271       0.19744105 </v>
    <v>       0.20108090       0.96553729       0.69744105 </v>
    <v>       0.70108090       0.53446271       0.80255895 </v>
    <v>       0.79891910       0.46553729       0.30255895 </v>
   </varray>
  </structure>
  <varray name="forces" >
   <v>       0.00667727      -0.00000000      -0.00464669 </v>
   <v>      -0.00667727      -0.00000000      -0.00464669 </v>
   <v>       0.00667727      -0.00000000       0.00464669 </v>
   <v>      -0.00667727      -0.00000000       0.00464669 </v>
   <v>       0.00000000      -0.00000000       0.00000000 </v>
   <v>       0.00000000      -0.00000000       0.00000000 </v>
   <v>       0.00000000      -0.00000000       0.00000000 </v>
   <v>       0.00000000      -0.00000000       0.00000000 </v>
   <v>       0.00543546      -0.00000000      -0.00601479 </v>
   <v>      -0.00543546      -0.00000000      -0.00601479 </v>
   <v>       0.00543546      -0.00000000       0.00601479 </v>
   <v>      -0.00543546      -0.00000000       0.00601479 </v>
   <v>       0.00707016      -0.01228771       0.00046406 </v>
   <v>      -0.00707016       0.01228771       0.00046406 </v>
   <v>       0.00707016       0.01228771      -0.00046406 </v>
   <v>      -0.00707016      -0.01228771      -0.00046406 </v>
   <v>       0.00707016       0.01228771       0.00046406 </v>
   <v>      -0.00707016      -0.01228771       0.00046406 </v>
   <v>      -0.00707016       0.01228771      -0.00046406 </v>
   <v>       0.00707016      -0.01228771      -0.00046406 </v>
  </varray>
  <varray name="stress" >
   <v>      -1.43196691       0.00000000       0.00000000 </v>
   <v>       0.00000000      -1.02967507       0.00000000 </v>
   <v>      -0.00000000       0.00000000      -1.68700176 </v>
  </varray>
  <energy>
   <i name="e_fr_energy">   -714.92222613 </i>
   <i name="e_wo_entrp">   -714.92222613 </i>
   <i name="e_0_energy">     -0.00000000 </i>
  </energy>
  <time name="totalsc">  109.99  110.64</time>
  <eigenvalues>
   <array>
    <dimension dim="1">band</dimension>
    <dimension dim="2">kpoint</dimension>
    <dimension dim="3">spin</dimension>
    <field>eigene</field>
    <field>occ</field>
    <set>
     <set comment="spin 1">
      <set comment="kpoint 1">
       <r>  -20.7432    1.0000 </r>
       <r>  -20.7415    1.0000 </r>
       <r>  -20.7392    1.0000 </r>
       <r>  -20.7381    1.0000 </r>
       <r>  -16.4443    1.0000 </r>
       <r>  -16.4348    1.0000 </r>
       <r>  -16.4346    1.0000 </r>
       <r>  -16.4183    1.0000 </r>
       <r>  -16.3861    1.0000 </r>
       <r>  -16.3540    1.0000 </r>
       <r>  -16.3474    1.0000 </r>
       <r>  -16.3473    1.0000 </r>
       <r>  -16.2850    1.0000 </r>
       <r>  -16.2849    1.0000 </r>
       <r>  -16.2842    1.0000 </r>
       <r>  -16.2840    1.0000 </r>
       <r>  -16.2835    1.0000 </r>
       <r>  -16.2829    1.0000 </r>
       <r>  -16.2827    1.0000 </r>
       <r>  -16.2824    1.0000 </r>
       <r>  -16.2760    1.0000 </r>
       <r>  -16.2755    1.0000 </r>
       <r>  -16.2747    1.0000 </r>
       <r>  -16.2743    1.0000 </r>
       <r>  -14.3162    1.0000 </r>
       <r>  -14.1349    1.0000 </r>
       <r>  -14.0020    1.0000 </r>
       <r>  -13.9972    1.0000 </r>
       <r>  -13.9897    1.0000 </r>
       <r>  -13.9801    1.0000 </r>
       <r>  -13.9719    1.0000 </r>
       <r>  -13.9646    1.0000 </r>
       <r>  -13.9356    1.0000 </r>
       <r>  -13.7201    1.0000 </r>
       <r>  -13.7170    1.0000 </r>
       <r>  -13.7135    1.0000 </r>
       <r>   -8.1427    1.0000 </r>
       <r>   -7.6408    1.0000 </r>
       <r>   -7.1905    1.0000 </r>
       <r>   -7.1763    1.0000 </r>
       <r>   -7.1752    1.0000 </r>
       <r>   -7.1690    1.0000 </r>
       <r>   -7.1505    1.0000 </r>
       <r>   -7.1501    1.0000 </r>
       <r>   -7.1484    1.0000 </r>
       <r>   -7.1426    1.0000 </r>
       <r>   -7.1354    1.0000 </r>
       <r>   -7.1295    1.0000 </r>
       <r>   -7.1180    1.0000 </r>
       <r>   -7.1096    1.0000 </r>
       <r>   -7.0851    1.0000 </r>
       <r>   -6.5077    1.0000 </r>
       <r>   -3.2801    1.0000 </r>
       <r>   -3.2354    1.0000 </r>
       <r>   -3.2332    1.0000 </r>
       <r>   -3.1280    1.0000 </r>
       <r>   -3.1266    1.0000 </r>
       <r>   -3.0635    1.0000 </r>
       <r>   -2.1112    1.0000 </r>
       <r>   -1.8901    1.0000 </r>
       <r>   -1.8464    1.0000 </r>
       <r>   -1.8358    1.0000 </r>
       <r>   -1.8276    1.0000 </r>
       <r>   -1.7431    1.0000 </r>
       <r>   -1.5976    1.0000 </r>
       <r>   -1.4896    1.0000 </r>
       <r>   -1.4770    1.0000 </r>
       <r>   -1.4677    1.0000 </r>
       <r>   -1.3958    1.0000 </r>
       <r>   -1.3859    1.0000 </r>
       <r>   -1.3858    1.0000 </r>
       <r>   -1.3708    1.0000 </r>
       <r>   -1.3288    1.0000 </r>
       <r>   -1.3283    1.0000 </r>
       <r>   -1.3109    1.0000 </r>
       <r>   -1.3025    1.0000 </r>
       <r>   -1.2964    1.0000 </r>
       <r>   -1.1764    1.0000 </r>
       <r>   -1.1041    1.0000 </r>
       <r>   -1.0922    1.0000 </r>
       <r>   -1.0608    1.0000 </r>
       <r>   -1.0347    1.0000 </r>
       <r>   -0.9923    1.0000 </r>
       <r>   -0.9548    1.0000 </r>
       <r>   -0.7821    1.0000 </r>
       <r>   -0.5970    1.0000 </r>
       <r>   -0.1303    1.0000 </r>
       <r>    0.4778    1.0000 </r>
       <r>    2.7552    0.0000 </r>
       <r>    2.8163    0.0000 </r>
       <r>    2.9118    0.0000 </r>
       <r>    3.1406    0.0000 </r>
       <r>    3.3489    0.0000 </r>
       <r>    3.5549    0.0000 </r>
       <r>    4.9465    0.0000 </r>
       <r>    5.7090    0.0000 </r>
       <r>    5.8729    0.0000 </r>
       <r>    5.9253    0.0000 </r>
       <r>    6.0737    0.0000 </r>
       <r>    6.1280    0.0000 </r>
       <r>    6.1322    0.0000 </r>
       <r>    6.2518    0.0000 </r>
       <r>    6.3465    0.0000 </r>
       <r>    6.4023    0.0000 </r>
       <r>    6.5478    0.0000 </r>
       <r>    6.5707    0.0000 </r>
       <r>    6.6129    0.0000 </r>
       <r>    6.7819    0.0000 </r>
       <r>    6.8634    0.0000 </r>
       <r>    6.9310    0.0000 </r>
       <r>    6.9702    0.0000 </r>
       <r>    7.0914    0.0000 </r>
      </set>
      <set comment="kpoint 2">
       <r>  -20.7423    1.0000 </r>
       <r>  -20.7406    1.0000 </r>
       <r>  -20.7402    1.0000 </r>
       <r>  -20.7390    1.0000 </r>
       <r>  -16.4376    1.0000 </r>
       <r>  -16.4246    1.0000 </r>
       <r>  -16.4141    1.0000 </r>
       <r>  -16.4140    1.0000 </r>
       <r>  -16.3779    1.0000 </r>
       <r>  -16.3704    1.0000 </r>
       <r>  -16.3703    1.0000 </r>
       <r>  -16.3618    1.0000 </r>
       <r>  -16.2849    1.0000 </r>
       <r>  -16.2849    1.0000 </r>
       <r>  -16.2840    1.0000 </r>
       <r>  -16.2839    1.0000 </r>
       <r>  -16.2834    1.0000 </r>
       <r>  -16.2831    1.0000 </r>
       <r>  -16.2827    1.0000 </r>
       <r>  -16.2826    1.0000 </r>
       <r>  -16.2757    1.0000 </r>
       <r>  -16.2752    1.0000 </r>
       <r>  -16.2750    1.0000 </r>
       <r>  -16.2747    1.0000 </r>
       <r>  -14.2673    1.0000 </r>
       <r>  -14.1350    1.0000 </r>
       <r>  -14.0987    1.0000 </r>
       <r>  -14.0214    1.0000 </r>
       <r>  -14.0011    1.0000 </r>
       <r>  -13.9983    1.0000 </r>
       <r>  -13.9083    1.0000 </r>
       <r>  -13.9015    1.0000 </r>
       <r>  -13.8199    1.0000 </r>
       <r>  -13.7809    1.0000 </r>
       <r>  -13.7761    1.0000 </r>
       <r>  -13.7427    1.0000 </r>
       <r>   -7.9335    1.0000 </r>
       <r>   -7.4571    1.0000 </r>
       <r>   -7.4291    1.0000 </r>
       <r>   -7.1958    1.0000 </r>
       <r>   -7.1659    1.0000 </r>
       <r>   -7.1639    1.0000 </r>
       <r>   -7.1576    1.0000 </r>
       <r>   -7.1456    1.0000 </r>
       <r>   -7.1409    1.0000 </r>
       <r>   -7.1301    1.0000 </r>
       <r>   -7.1298    1.0000 </r>
       <r>   -7.1180    1.0000 </r>
       <r>   -7.1139    1.0000 </r>
       <r>   -7.1085    1.0000 </r>
       <r>   -7.1026    1.0000 </r>
       <r>   -6.8513    1.0000 </r>
       <r>   -3.2295    1.0000 </r>
       <r>   -3.1333    1.0000 </r>
       <r>   -2.9415    1.0000 </r>
       <r>   -2.8137    1.0000 </r>
       <r>   -2.7071    1.0000 </r>
       <r>   -2.6849    1.0000 </r>
       <r>   -2.2061    1.0000 </r>
       <r>   -2.0864    1.0000 </r>
       <r>   -2.0403    1.0000 </r>
       <r>   -1.9474    1.0000 </r>
       <r>   -1.9459    1.0000 </r>
       <r>   -1.9084    1.0000 </r>
       <r>   -1.7807    1.0000 </r>
       <r>   -1.6645    1.0000 </r>
       <r>   -1.6273    1.0000 </r>
       <r>   -1.5847    1.0000 </r>
       <r>   -1.4243    1.0000 </r>
       <r>   -1.3914    1.0000 </r>
       <r>   -1.3790    1.0000 </r>
       <r>   -1.3558    1.0000 </r>
       <r>   -1.3518    1.0000 </r>
       <r>   -1.3411    1.0000 </r>
       <r>   -1.2728    1.0000 </r>
       <r>   -1.2671    1.0000 </r>
       <r>   -1.2132    1.0000 </r>
       <r>   -1.1684    1.0000 </r>
       <r>   -1.1671    1.0000 </r>
       <r>   -1.1521    1.0000 </r>
       <r>   -1.0868    1.0000 </r>
       <r>   -1.0818    1.0000 </r>
       <r>   -1.0185    1.0000 </r>
       <r>   -0.9766    1.0000 </r>
       <r>   -0.7720    1.0000 </r>
       <r>   -0.6363    1.0000 </r>
       <r>   -0.4835    1.0000 </r>
       <r>   -0.0560    1.0000 </r>
       <r>    2.9874    0.0000 </r>
       <r>    3.3320    0.0000 </r>
       <r>    3.5599    0.0000 </r>
       <r>    3.7876    0.0000 </r>
       <r>    3.9107    0.0000 </r>
       <r>    4.1583    0.0000 </r>
       <r>    5.0835    0.0000 </r>
       <r>    5.1735    0.0000 </r>
       <r>    5.2446    0.0000 </r>
       <r>    5.3936    0.0000 </r>
       <r>    5.8502    0.0000 </r>
       <r>    5.8642    0.0000 </r>
       <r>    6.2018    0.0000 </r>
       <r>    6.2639    0.0000 </r>
       <r>    6.4626    0.0000 </r>
       <r>    6.4632    0.0000 </r>
       <r>    6.5165    0.0000 </r>
       <r>    6.5566    0.0000 </r>
       <r>    6.5627    0.0000 </r>
       <r>    6.7690    0.0000 </r>
       <r>    6.9020    0.0000 </r>
       <r>    7.0467    0.0000 </r>
       <r>    7.1346    0.0000 </r>
       <r>    7.1399    0.0000 </r>
      </set>
      <set comment="kpoint 3">
       <r>  -20.7424    1.0000 </r>
       <r>  -20.7424    1.0000 </r>
       <r>  -20.7386    1.0000 </r>
       <r>  -20.7386    1.0000 </r>
       <r>  -16.4347    1.0000 </r>
       <r>  -16.4347    1.0000 </r>
       <r>  -16.4153    1.0000 </r>
       <r>  -16.4153    1.0000 </r>
       <r>  -16.3866    1.0000 </r>
       <r>  -16.3866    1.0000 </r>
       <r>  -16.3474    1.0000 </r>
       <r>  -16.3474    1.0000 </r>
       <r>  -16.2845    1.0000 </r>
       <r>  -16.2845    1.0000 </r>
       <r>  -16.2844    1.0000 </r>
       <r>  -16.2844    1.0000 </r>
       <r>  -16.2830    1.0000 </r>
       <r>  -16.2830    1.0000 </r>
       <r>  -16.2826    1.0000 </r>
       <r>  -16.2826    1.0000 </r>
       <r>  -16.2757    1.0000 </r>
       <r>  -16.2757    1.0000 </r>
       <r>  -16.2745    1.0000 </r>
       <r>  -16.2745    1.0000 </r>
       <r>  -14.2593    1.0000 </r>
       <r>  -14.2593    1.0000 </r>
       <r>  -13.9855    1.0000 </r>
       <r>  -13.9855    1.0000 </r>
       <r>  -13.9683    1.0000 </r>
       <r>  -13.9683    1.0000 </r>
       <r>  -13.9651    1.0000 </r>
       <r>  -13.9651    1.0000 </r>
       <r>  -13.8267    1.0000 </r>
       <r>  -13.8267    1.0000 </r>
       <r>  -13.7152    1.0000 </r>
       <r>  -13.7152    1.0000 </r>
       <r>   -7.9111    1.0000 </r>
       <r>   -7.9111    1.0000 </r>
       <r>   -7.1837    1.0000 </r>
       <r>   -7.1836    1.0000 </r>
       <r>   -7.1680    1.0000 </r>
       <r>   -7.1680    1.0000 </r>
       <r>   -7.1446    1.0000 </r>
       <r>   -7.1446    1.0000 </r>
       <r>   -7.1351    1.0000 </r>
       <r>   -7.1351    1.0000 </r>
       <r>   -7.1278    1.0000 </r>
       <r>   -7.1278    1.0000 </r>
       <r>   -7.1175    1.0000 </r>
       <r>   -7.1174    1.0000 </r>
       <r>   -6.8674    1.0000 </r>
       <r>   -6.8674    1.0000 </r>
       <r>   -3.1918    1.0000 </r>
       <r>   -3.1918    1.0000 </r>
       <r>   -3.1830    1.0000 </r>
       <r>   -3.1830    1.0000 </r>
       <r>   -2.4449    1.0000 </r>
       <r>   -2.4449    1.0000 </r>
       <r>   -2.2999    1.0000 </r>
       <r>   -2.2999    1.0000 </r>
       <r>   -1.9843    1.0000 </r>
       <r>   -1.9843    1.0000 </r>
       <r>   -1.7783    1.0000 </r>
       <r>   -1.7783    1.0000 </r>
       <r>   -1.7430    1.0000 </r>
       <r>   -1.7430    1.0000 </r>
       <r>   -1.4582    1.0000 </r>
       <r>   -1.4582    1.0000 </r>
       <r>   -1.4412    1.0000 </r>
       <r>   -1.4412    1.0000 </r>
       <r>   -1.3456    1.0000 </r>
       <r>   -1.3456    1.0000 </r>
       <r>   -1.3135    1.0000 </r>
       <r>   -1.3135    1.0000 </r>
       <r>   -1.2793    1.0000 </r>
       <r>   -1.2793    1.0000 </r>
       <r>   -1.1690    1.0000 </r>
       <r>   -1.1690    1.0000 </r>
       <r>   -1.1475    1.0000 </r>
       <r>   -1.1475    1.0000 </r>
       <r>   -1.0777    1.0000 </r>
       <r>   -1.0777    1.0000 </r>
       <r>   -1.0639    1.0000 </r>
       <r>   -1.0639    1.0000 </r>
       <r>   -0.8038    1.0000 </r>
       <r>   -0.8038    1.0000 </r>
       <r>    0.0122    1.0000 </r>
       <r>    0.0122    1.0000 </r>
       <r>    2.9619    0.0000 </r>
       <r>    2.9619    0.0000 </r>
       <r>    3.1266    0.0000 </r>
       <r>    3.1266    0.0000 </r>
       <r>    4.3461    0.0000 </r>
       <r>    4.3461    0.0000 </r>
       <r>    4.9139    0.0000 </r>
       <r>    4.9139    0.0000 </r>
       <r>    5.6158    0.0000 </r>
       <r>    5.6158    0.0000 </r>
       <r>    6.0654    0.0000 </r>
       <r>    6.0654    0.0000 </r>
       <r>    6.1017    0.0000 </r>
       <r>    6.1017    0.0000 </r>
       <r>    6.3282    0.0000 </r>
       <r>    6.3282    0.0000 </r>
       <r>    6.3886    0.0000 </r>
       <r>    6.3886    0.0000 </r>
       <r>    6.7098    0.0000 </r>
       <r>    6.7098    0.0000 </r>
       <r>    6.9027    0.0000 </r>
       <r>    6.9029    0.0000 </r>
       <r>    7.0364    0.0000 </r>
       <r>    7.0406    0.0000 </r>
      </set>
      <set comment="kpoint 4">
       <r>  -20.7414    1.0000 </r>
       <r>  -20.7414    1.0000 </r>
       <r>  -20.7396    1.0000 </r>
       <r>  -20.7396    1.0000 </r>
       <r>  -16.4140    1.0000 </r>
       <r>  -16.4140    1.0000 </r>
       <r>  -16.4080    1.0000 </r>
       <r>  -16.4080    1.0000 </r>
       <r>  -16.3937    1.0000 </r>
       <r>  -16.3937    1.0000 </r>
       <r>  -16.3704    1.0000 </r>
       <r>  -16.3704    1.0000 </r>
       <r>  -16.2845    1.0000 </r>
       <r>  -16.2845    1.0000 </r>
       <r>  -16.2844    1.0000 </r>
       <r>  -16.2844    1.0000 </r>
       <r>  -16.2831    1.0000 </r>
       <r>  -16.2831    1.0000 </r>
       <r>  -16.2828    1.0000 </r>
       <r>  -16.2828    1.0000 </r>
       <r>  -16.2755    1.0000 </r>
       <r>  -16.2755    1.0000 </r>
       <r>  -16.2748    1.0000 </r>
       <r>  -16.2748    1.0000 </r>
       <r>  -14.2161    1.0000 </r>
       <r>  -14.2161    1.0000 </r>
       <r>  -14.1047    1.0000 </r>
       <r>  -14.1047    1.0000 </r>
       <r>  -13.9052    1.0000 </r>
       <r>  -13.9052    1.0000 </r>
       <r>  -13.8819    1.0000 </r>
       <r>  -13.8819    1.0000 </r>
       <r>  -13.8380    1.0000 </r>
       <r>  -13.8380    1.0000 </r>
       <r>  -13.7785    1.0000 </r>
       <r>  -13.7785    1.0000 </r>
       <r>   -7.7004    1.0000 </r>
       <r>   -7.7004    1.0000 </r>
       <r>   -7.2370    1.0000 </r>
       <r>   -7.2370    1.0000 </r>
       <r>   -7.1668    1.0000 </r>
       <r>   -7.1668    1.0000 </r>
       <r>   -7.1655    1.0000 </r>
       <r>   -7.1655    1.0000 </r>
       <r>   -7.1379    1.0000 </r>
       <r>   -7.1379    1.0000 </r>
       <r>   -7.1264    1.0000 </r>
       <r>   -7.1264    1.0000 </r>
       <r>   -7.1223    1.0000 </r>
       <r>   -7.1223    1.0000 </r>
       <r>   -7.0770    1.0000 </r>
       <r>   -7.0770    1.0000 </r>
       <r>   -2.8812    1.0000 </r>
       <r>   -2.8812    1.0000 </r>
       <r>   -2.7836    1.0000 </r>
       <r>   -2.7836    1.0000 </r>
       <r>   -2.4123    1.0000 </r>
       <r>   -2.4123    1.0000 </r>
       <r>   -2.3450    1.0000 </r>
       <r>   -2.3450    1.0000 </r>
       <r>   -2.1277    1.0000 </r>
       <r>   -2.1277    1.0000 </r>
       <r>   -2.0146    1.0000 </r>
       <r>   -2.0146    1.0000 </r>
       <r>   -1.6979    1.0000 </r>
       <r>   -1.6979    1.0000 </r>
       <r>   -1.6247    1.0000 </r>
       <r>   -1.6247    1.0000 </r>
       <r>   -1.5061    1.0000 </r>
       <r>   -1.5061    1.0000 </r>
       <r>   -1.4722    1.0000 </r>
       <r>   -1.4722    1.0000 </r>
       <r>   -1.3514    1.0000 </r>
       <r>   -1.3514    1.0000 </r>
       <r>   -1.3313    1.0000 </r>
       <r>   -1.3313    1.0000 </r>
       <r>   -1.1203    1.0000 </r>
       <r>   -1.1203    1.0000 </r>
       <r>   -1.0913    1.0000 </r>
       <r>   -1.0913    1.0000 </r>
       <r>   -1.0764    1.0000 </r>
       <r>   -1.0764    1.0000 </r>
       <r>   -1.0536    1.0000 </r>
       <r>   -1.0536    1.0000 </r>
       <r>   -0.7762    1.0000 </r>
       <r>   -0.7762    1.0000 </r>
       <r>   -0.5202    1.0000 </r>
       <r>   -0.5202    1.0000 </r>
       <r>    3.7247    0.0000 </r>
       <r>    3.7247    0.0000 </r>
       <r>    3.9451    0.0000 </r>
       <r>    3.9451    0.0000 </r>
       <r>    4.4902    0.0000 </r>
       <r>    4.4902    0.0000 </r>
       <r>    4.7557    0.0000 </r>
       <r>    4.7557    0.0000 </r>
       <r>    5.2233    0.0000 </r>
       <r>    5.2233    0.0000 </r>
       <r>    5.2975    0.0000 </r>
       <r>    5.2975    0.0000 </r>
       <r>    6.1177    0.0000 </r>
       <r>    6.1177    0.0000 </r>
       <r>    6.3992    0.0000 </r>
       <r>    6.3992    0.0000 </r>
       <r>    6.5666    0.0000 </r>
       <r>    6.5666    0.0000 </r>
       <r>    6.6638    0.0000 </r>
       <r>    6.6638    0.0000 </r>
       <r>    6.7851    0.0000 </r>
       <r>    6.7851    0.0000 </r>
       <r>    6.9528    0.0000 </r>
       <r>    6.9621    0.0000 </r>
      </set>
      <set comment="kpoint 5">
       <r>  -20.7422    1.0000 </r>
       <r>  -20.7410    1.0000 </r>
       <r>  -20.7398    1.0000 </r>
       <r>  -20.7388    1.0000 </r>
       <r>  -16.4376    1.0000 </r>
       <r>  -16.4245    1.0000 </r>
       <r>  -16.4141    1.0000 </r>
       <r>  -16.4139    1.0000 </r>
       <r>  -16.3778    1.0000 </r>
       <r>  -16.3705    1.0000 </r>
       <r>  -16.3704    1.0000 </r>
       <r>  -16.3617    1.0000 </r>
       <r>  -16.2848    1.0000 </r>
       <r>  -16.2848    1.0000 </r>
       <r>  -16.2841    1.0000 </r>
       <r>  -16.2840    1.0000 </r>
       <r>  -16.2832    1.0000 </r>
       <r>  -16.2831    1.0000 </r>
       <r>  -16.2827    1.0000 </r>
       <r>  -16.2825    1.0000 </r>
       <r>  -16.2756    1.0000 </r>
       <r>  -16.2752    1.0000 </r>
       <r>  -16.2750    1.0000 </r>
       <r>  -16.2746    1.0000 </r>
       <r>  -14.2649    1.0000 </r>
       <r>  -14.1270    1.0000 </r>
       <r>  -14.0952    1.0000 </r>
       <r>  -14.0101    1.0000 </r>
       <r>  -14.0019    1.0000 </r>
       <r>  -13.9992    1.0000 </r>
       <r>  -13.9224    1.0000 </r>
       <r>  -13.9132    1.0000 </r>
       <r>  -13.8161    1.0000 </r>
       <r>  -13.7847    1.0000 </r>
       <r>  -13.7801    1.0000 </r>
       <r>  -13.7415    1.0000 </r>
       <r>   -7.9301    1.0000 </r>
       <r>   -7.4425    1.0000 </r>
       <r>   -7.4247    1.0000 </r>
       <r>   -7.1732    1.0000 </r>
       <r>   -7.1677    1.0000 </r>
       <r>   -7.1629    1.0000 </r>
       <r>   -7.1590    1.0000 </r>
       <r>   -7.1455    1.0000 </r>
       <r>   -7.1416    1.0000 </r>
       <r>   -7.1414    1.0000 </r>
       <r>   -7.1289    1.0000 </r>
       <r>   -7.1189    1.0000 </r>
       <r>   -7.1172    1.0000 </r>
       <r>   -7.1061    1.0000 </r>
       <r>   -7.1009    1.0000 </r>
       <r>   -6.8522    1.0000 </r>
       <r>   -3.2299    1.0000 </r>
       <r>   -3.1321    1.0000 </r>
       <r>   -2.9518    1.0000 </r>
       <r>   -2.8282    1.0000 </r>
       <r>   -2.7179    1.0000 </r>
       <r>   -2.6362    1.0000 </r>
       <r>   -2.2720    1.0000 </r>
       <r>   -2.0574    1.0000 </r>
       <r>   -2.0472    1.0000 </r>
       <r>   -1.9819    1.0000 </r>
       <r>   -1.9354    1.0000 </r>
       <r>   -1.8425    1.0000 </r>
       <r>   -1.7756    1.0000 </r>
       <r>   -1.6737    1.0000 </r>
       <r>   -1.5960    1.0000 </r>
       <r>   -1.5914    1.0000 </r>
       <r>   -1.4160    1.0000 </r>
       <r>   -1.4117    1.0000 </r>
       <r>   -1.3776    1.0000 </r>
       <r>   -1.3360    1.0000 </r>
       <r>   -1.3016    1.0000 </r>
       <r>   -1.2923    1.0000 </r>
       <r>   -1.2727    1.0000 </r>
       <r>   -1.2642    1.0000 </r>
       <r>   -1.2325    1.0000 </r>
       <r>   -1.2119    1.0000 </r>
       <r>   -1.1633    1.0000 </r>
       <r>   -1.1573    1.0000 </r>
       <r>   -1.1016    1.0000 </r>
       <r>   -1.0838    1.0000 </r>
       <r>   -1.0086    1.0000 </r>
       <r>   -0.9822    1.0000 </r>
       <r>   -0.8729    1.0000 </r>
       <r>   -0.6697    1.0000 </r>
       <r>   -0.5137    1.0000 </r>
       <r>   -0.1017    1.0000 </r>
       <r>    2.9846    0.0000 </r>
       <r>    3.3208    0.0000 </r>
       <r>    3.6559    0.0000 </r>
       <r>    3.6699    0.0000 </r>
       <r>    4.0273    0.0000 </r>
       <r>    4.0564    0.0000 </r>
       <r>    5.0867    0.0000 </r>
       <r>    5.1158    0.0000 </r>
       <r>    5.2960    0.0000 </r>
       <r>    5.4531    0.0000 </r>
       <r>    5.7678    0.0000 </r>
       <r>    5.8638    0.0000 </r>
       <r>    6.1786    0.0000 </r>
       <r>    6.2008    0.0000 </r>
       <r>    6.2233    0.0000 </r>
       <r>    6.4719    0.0000 </r>
       <r>    6.5320    0.0000 </r>
       <r>    6.6692    0.0000 </r>
       <r>    6.7113    0.0000 </r>
       <r>    6.9297    0.0000 </r>
       <r>    6.9474    0.0000 </r>
       <r>    7.0166    0.0000 </r>
       <r>    7.0212    0.0000 </r>
       <r>    7.0410    0.0000 </r>
      </set>
      <set comment="kpoint 6">
       <r>  -20.7417    1.0000 </r>
       <r>  -20.7408    1.0000 </r>
       <r>  -20.7401    1.0000 </r>
       <r>  -20.7393    1.0000 </r>
       <r>  -16.4419    1.0000 </r>
       <r>  -16.4335    1.0000 </r>
       <r>  -16.4132    1.0000 </r>
       <r>  -16.3958    1.0000 </r>
       <r>  -16.3950    1.0000 </r>
       <r>  -16.3760    1.0000 </r>
       <r>  -16.3639    1.0000 </r>
       <r>  -16.3521    1.0000 </r>
       <r>  -16.2849    1.0000 </r>
       <r>  -16.2849    1.0000 </r>
       <r>  -16.2841    1.0000 </r>
       <r>  -16.2840    1.0000 </r>
       <r>  -16.2832    1.0000 </r>
       <r>  -16.2832    1.0000 </r>
       <r>  -16.2826    1.0000 </r>
       <r>  -16.2825    1.0000 </r>
       <r>  -16.2755    1.0000 </r>
       <r>  -16.2752    1.0000 </r>
       <r>  -16.2751    1.0000 </r>
       <r>  -16.2748    1.0000 </r>
       <r>  -14.2155    1.0000 </r>
       <r>  -14.1196    1.0000 </r>
       <r>  -14.0557    1.0000 </r>
       <r>  -14.0042    1.0000 </r>
       <r>  -14.0013    1.0000 </r>
       <r>  -13.9856    1.0000 </r>
       <r>  -13.9823    1.0000 </r>
       <r>  -13.9295    1.0000 </r>
       <r>  -13.8870    1.0000 </r>
       <r>  -13.8354    1.0000 </r>
       <r>  -13.7440    1.0000 </r>
       <r>  -13.7099    1.0000 </r>
       <r>   -7.8030    1.0000 </r>
       <r>   -7.5617    1.0000 </r>
       <r>   -7.2920    1.0000 </r>
       <r>   -7.1653    1.0000 </r>
       <r>   -7.1582    1.0000 </r>
       <r>   -7.1515    1.0000 </r>
       <r>   -7.1468    1.0000 </r>
       <r>   -7.1442    1.0000 </r>
       <r>   -7.1372    1.0000 </r>
       <r>   -7.1280    1.0000 </r>
       <r>   -7.1280    1.0000 </r>
       <r>   -7.1241    1.0000 </r>
       <r>   -7.1148    1.0000 </r>
       <r>   -7.1105    1.0000 </r>
       <r>   -7.0956    1.0000 </r>
       <r>   -6.9674    1.0000 </r>
       <r>   -3.2185    1.0000 </r>
       <r>   -3.1760    1.0000 </r>
       <r>   -3.1632    1.0000 </r>
       <r>   -3.0271    1.0000 </r>
       <r>   -2.7843    1.0000 </r>
       <r>   -2.6396    1.0000 </r>
       <r>   -2.1854    1.0000 </r>
       <r>   -2.0539    1.0000 </r>
       <r>   -2.0442    1.0000 </r>
       <r>   -2.0388    1.0000 </r>
       <r>   -1.9481    1.0000 </r>
       <r>   -1.7060    1.0000 </r>
       <r>   -1.6834    1.0000 </r>
       <r>   -1.6274    1.0000 </r>
       <r>   -1.5046    1.0000 </r>
       <r>   -1.4786    1.0000 </r>
       <r>   -1.4229    1.0000 </r>
       <r>   -1.3854    1.0000 </r>
       <r>   -1.3690    1.0000 </r>
       <r>   -1.3472    1.0000 </r>
       <r>   -1.3380    1.0000 </r>
       <r>   -1.3295    1.0000 </r>
       <r>   -1.2851    1.0000 </r>
       <r>   -1.2600    1.0000 </r>
       <r>   -1.2521    1.0000 </r>
       <r>   -1.2292    1.0000 </r>
       <r>   -1.2175    1.0000 </r>
       <r>   -1.1796    1.0000 </r>
       <r>   -1.1730    1.0000 </r>
       <r>   -1.0969    1.0000 </r>
       <r>   -1.0312    1.0000 </r>
       <r>   -1.0019    1.0000 </r>
       <r>   -0.8011    1.0000 </r>
       <r>   -0.6281    1.0000 </r>
       <r>   -0.3552    1.0000 </r>
       <r>   -0.0538    1.0000 </r>
       <r>    3.0670    0.0000 </r>
       <r>    3.1008    0.0000 </r>
       <r>    3.2385    0.0000 </r>
       <r>    3.4927    0.0000 </r>
       <r>    3.9222    0.0000 </r>
       <r>    4.2668    0.0000 </r>
       <r>    4.8679    0.0000 </r>
       <r>    5.2763    0.0000 </r>
       <r>    5.5864    0.0000 </r>
       <r>    5.9884    0.0000 </r>
       <r>    6.0087    0.0000 </r>
       <r>    6.0192    0.0000 </r>
       <r>    6.1910    0.0000 </r>
       <r>    6.3925    0.0000 </r>
       <r>    6.4226    0.0000 </r>
       <r>    6.6051    0.0000 </r>
       <r>    6.6516    0.0000 </r>
       <r>    6.7323    0.0000 </r>
       <r>    6.7672    0.0000 </r>
       <r>    6.8434    0.0000 </r>
       <r>    6.9807    0.0000 </r>
       <r>    6.9902    0.0000 </r>
       <r>    7.0620    0.0000 </r>
       <r>    7.2311    0.0000 </r>
      </set>
      <set comment="kpoint 7">
       <r>  -20.7415    1.0000 </r>
       <r>  -20.7415    1.0000 </r>
       <r>  -20.7394    1.0000 </r>
       <r>  -20.7394    1.0000 </r>
       <r>  -16.4141    1.0000 </r>
       <r>  -16.4141    1.0000 </r>
       <r>  -16.4080    1.0000 </r>
       <r>  -16.4080    1.0000 </r>
       <r>  -16.3936    1.0000 </r>
       <r>  -16.3936    1.0000 </r>
       <r>  -16.3705    1.0000 </r>
       <r>  -16.3705    1.0000 </r>
       <r>  -16.2845    1.0000 </r>
       <r>  -16.2845    1.0000 </r>
       <r>  -16.2844    1.0000 </r>
       <r>  -16.2844    1.0000 </r>
       <r>  -16.2830    1.0000 </r>
       <r>  -16.2830    1.0000 </r>
       <r>  -16.2828    1.0000 </r>
       <r>  -16.2828    1.0000 </r>
       <r>  -16.2754    1.0000 </r>
       <r>  -16.2754    1.0000 </r>
       <r>  -16.2748    1.0000 </r>
       <r>  -16.2748    1.0000 </r>
       <r>  -14.2138    1.0000 </r>
       <r>  -14.2138    1.0000 </r>
       <r>  -14.0975    1.0000 </r>
       <r>  -14.0975    1.0000 </r>
       <r>  -13.9183    1.0000 </r>
       <r>  -13.9183    1.0000 </r>
       <r>  -13.8781    1.0000 </r>
       <r>  -13.8781    1.0000 </r>
       <r>  -13.8367    1.0000 </r>
       <r>  -13.8367    1.0000 </r>
       <r>  -13.7825    1.0000 </r>
       <r>  -13.7825    1.0000 </r>
       <r>   -7.6968    1.0000 </r>
       <r>   -7.6968    1.0000 </r>
       <r>   -7.2154    1.0000 </r>
       <r>   -7.2154    1.0000 </r>
       <r>   -7.1767    1.0000 </r>
       <r>   -7.1767    1.0000 </r>
       <r>   -7.1530    1.0000 </r>
       <r>   -7.1530    1.0000 </r>
       <r>   -7.1324    1.0000 </r>
       <r>   -7.1324    1.0000 </r>
       <r>   -7.1283    1.0000 </r>
       <r>   -7.1283    1.0000 </r>
       <r>   -7.1096    1.0000 </r>
       <r>   -7.1096    1.0000 </r>
       <r>   -7.1057    1.0000 </r>
       <r>   -7.1057    1.0000 </r>
       <r>   -2.8942    1.0000 </r>
       <r>   -2.8942    1.0000 </r>
       <r>   -2.7646    1.0000 </r>
       <r>   -2.7646    1.0000 </r>
       <r>   -2.4304    1.0000 </r>
       <r>   -2.4304    1.0000 </r>
       <r>   -2.3495    1.0000 </r>
       <r>   -2.3495    1.0000 </r>
       <r>   -2.1713    1.0000 </r>
       <r>   -2.1713    1.0000 </r>
       <r>   -1.9947    1.0000 </r>
       <r>   -1.9947    1.0000 </r>
       <r>   -1.6651    1.0000 </r>
       <r>   -1.6651    1.0000 </r>
       <r>   -1.6232    1.0000 </r>
       <r>   -1.6232    1.0000 </r>
       <r>   -1.4992    1.0000 </r>
       <r>   -1.4992    1.0000 </r>
       <r>   -1.4179    1.0000 </r>
       <r>   -1.4179    1.0000 </r>
       <r>   -1.3053    1.0000 </r>
       <r>   -1.3053    1.0000 </r>
       <r>   -1.2889    1.0000 </r>
       <r>   -1.2889    1.0000 </r>
       <r>   -1.1624    1.0000 </r>
       <r>   -1.1624    1.0000 </r>
       <r>   -1.1093    1.0000 </r>
       <r>   -1.1093    1.0000 </r>
       <r>   -1.0863    1.0000 </r>
       <r>   -1.0863    1.0000 </r>
       <r>   -1.0516    1.0000 </r>
       <r>   -1.0516    1.0000 </r>
       <r>   -0.8543    1.0000 </r>
       <r>   -0.8543    1.0000 </r>
       <r>   -0.5919    1.0000 </r>
       <r>   -0.5919    1.0000 </r>
       <r>    3.8247    0.0000 </r>
       <r>    3.8247    0.0000 </r>
       <r>    3.8332    0.0000 </r>
       <r>    3.8332    0.0000 </r>
       <r>    4.4805    0.0000 </r>
       <r>    4.4805    0.0000 </r>
       <r>    4.7566    0.0000 </r>
       <r>    4.7566    0.0000 </r>
       <r>    5.2171    0.0000 </r>
       <r>    5.2171    0.0000 </r>
       <r>    5.2894    0.0000 </r>
       <r>    5.2894    0.0000 </r>
       <r>    6.1057    0.0000 </r>
       <r>    6.1057    0.0000 </r>
       <r>    6.3511    0.0000 </r>
       <r>    6.3511    0.0000 </r>
       <r>    6.4977    0.0000 </r>
       <r>    6.4977    0.0000 </r>
       <r>    6.7040    0.0000 </r>
       <r>    6.7040    0.0000 </r>
       <r>    6.8869    0.0000 </r>
       <r>    6.8869    0.0000 </r>
       <r>    7.0529    0.0000 </r>
       <r>    7.0529    0.0000 </r>
      </set>
      <set comment="kpoint 8">
       <r>  -20.7409    1.0000 </r>
       <r>  -20.7409    1.0000 </r>
       <r>  -20.7399    1.0000 </r>
       <r>  -20.7399    1.0000 </r>
       <r>  -16.4224    1.0000 </r>
       <r>  -16.4224    1.0000 </r>
       <r>  -16.4095    1.0000 </r>
       <r>  -16.4095    1.0000 </r>
       <r>  -16.3853    1.0000 </r>
       <r>  -16.3853    1.0000 </r>
       <r>  -16.3692    1.0000 </r>
       <r>  -16.3692    1.0000 </r>
       <r>  -16.2845    1.0000 </r>
       <r>  -16.2845    1.0000 </r>
       <r>  -16.2844    1.0000 </r>
       <r>  -16.2844    1.0000 </r>
       <r>  -16.2830    1.0000 </r>
       <r>  -16.2830    1.0000 </r>
       <r>  -16.2828    1.0000 </r>
       <r>  -16.2828    1.0000 </r>
       <r>  -16.2753    1.0000 </r>
       <r>  -16.2753    1.0000 </r>
       <r>  -16.2750    1.0000 </r>
       <r>  -16.2750    1.0000 </r>
       <r>  -14.1688    1.0000 </r>
       <r>  -14.1688    1.0000 </r>
       <r>  -14.0832    1.0000 </r>
       <r>  -14.0832    1.0000 </r>
       <r>  -13.9854    1.0000 </r>
       <r>  -13.9854    1.0000 </r>
       <r>  -13.9024    1.0000 </r>
       <r>  -13.9024    1.0000 </r>
       <r>  -13.8131    1.0000 </r>
       <r>  -13.8131    1.0000 </r>
       <r>  -13.7807    1.0000 </r>
       <r>  -13.7807    1.0000 </r>
       <r>   -7.5668    1.0000 </r>
       <r>   -7.5668    1.0000 </r>
       <r>   -7.3236    1.0000 </r>
       <r>   -7.3236    1.0000 </r>
       <r>   -7.1636    1.0000 </r>
       <r>   -7.1636    1.0000 </r>
       <r>   -7.1470    1.0000 </r>
       <r>   -7.1470    1.0000 </r>
       <r>   -7.1311    1.0000 </r>
       <r>   -7.1311    1.0000 </r>
       <r>   -7.1263    1.0000 </r>
       <r>   -7.1263    1.0000 </r>
       <r>   -7.1200    1.0000 </r>
       <r>   -7.1200    1.0000 </r>
       <r>   -7.0971    1.0000 </r>
       <r>   -7.0971    1.0000 </r>
       <r>   -3.1038    1.0000 </r>
       <r>   -3.1038    1.0000 </r>
       <r>   -2.7465    1.0000 </r>
       <r>   -2.7465    1.0000 </r>
       <r>   -2.4884    1.0000 </r>
       <r>   -2.4884    1.0000 </r>
       <r>   -2.3613    1.0000 </r>
       <r>   -2.3613    1.0000 </r>
       <r>   -2.1123    1.0000 </r>
       <r>   -2.1123    1.0000 </r>
       <r>   -1.9691    1.0000 </r>
       <r>   -1.9691    1.0000 </r>
       <r>   -1.6939    1.0000 </r>
       <r>   -1.6939    1.0000 </r>
       <r>   -1.6121    1.0000 </r>
       <r>   -1.6121    1.0000 </r>
       <r>   -1.4669    1.0000 </r>
       <r>   -1.4669    1.0000 </r>
       <r>   -1.3878    1.0000 </r>
       <r>   -1.3878    1.0000 </r>
       <r>   -1.3238    1.0000 </r>
       <r>   -1.3238    1.0000 </r>
       <r>   -1.2393    1.0000 </r>
       <r>   -1.2393    1.0000 </r>
       <r>   -1.2062    1.0000 </r>
       <r>   -1.2062    1.0000 </r>
       <r>   -1.1410    1.0000 </r>
       <r>   -1.1410    1.0000 </r>
       <r>   -1.0856    1.0000 </r>
       <r>   -1.0856    1.0000 </r>
       <r>   -1.0350    1.0000 </r>
       <r>   -1.0350    1.0000 </r>
       <r>   -0.7730    1.0000 </r>
       <r>   -0.7730    1.0000 </r>
       <r>   -0.5107    1.0000 </r>
       <r>   -0.5107    1.0000 </r>
       <r>    3.2886    0.0000 </r>
       <r>    3.2886    0.0000 </r>
       <r>    4.0716    0.0000 </r>
       <r>    4.0716    0.0000 </r>
       <r>    4.5560    0.0000 </r>
       <r>    4.5560    0.0000 </r>
       <r>    4.6887    0.0000 </r>
       <r>    4.6887    0.0000 </r>
       <r>    5.0891    0.0000 </r>
       <r>    5.0891    0.0000 </r>
       <r>    5.8066    0.0000 </r>
       <r>    5.8066    0.0000 </r>
       <r>    6.3561    0.0000 </r>
       <r>    6.3561    0.0000 </r>
       <r>    6.4778    0.0000 </r>
       <r>    6.4778    0.0000 </r>
       <r>    6.6597    0.0000 </r>
       <r>    6.6597    0.0000 </r>
       <r>    6.8124    0.0000 </r>
       <r>    6.8124    0.0000 </r>
       <r>    6.8799    0.0000 </r>
       <r>    6.8799    0.0000 </r>
       <r>    7.0099    0.0000 </r>
       <r>    7.0100    0.0000 </r>
      </set>
     </set>
    </set>
   </array>
  </eigenvalues>
  <separator name="orbital magnetization" >
   <v name="MAGDIPOLOUT">      0.00000000      0.00000000      0.00000000</v>
  </separator>
  <dos>
   <i name="efermi">      0.55224305 </i>
   <total>
    <array>
     <dimension dim="1">gridpoints</dimension>
     <dimension dim="2">spin</dimension>
     <field>energy</field>
     <field>total</field>
     <field>integrated</field>
     <set>
      <set comment="spin 1">
       <r>   -22.1419     0.0000     0.0000 </r>
       <r>   -22.0393     0.0000     0.0000 </r>
       <r>   -21.9368     0.0000     0.0000 </r>
       <r>   -21.8342     0.0000     0.0000 </r>
       <r>   -21.7316     0.0000     0.0000 </r>
       <r>   -21.6291     0.0000     0.0000 </r>
       <r>   -21.5265     0.0000     0.0000 </r>
       <r>   -21.4239     0.0000     0.0000 </r>
       <r>   -21.3213     0.0000     0.0000 </r>
       <r>   -21.2188     0.0000     0.0000 </r>
       <r>   -21.1162     0.0000     0.0000 </r>
       <r>   -21.0136     0.0000     0.0000 </r>
       <r>   -20.9110     0.0000     0.0000 </r>
       <r>   -20.8085     0.0000     0.0000 </r>
       <r>   -20.7059    77.9936     8.0000 </r>
       <r>   -20.6033     0.0000     8.0000 </r>
       <r>   -20.5008     0.0000     8.0000 </r>
       <r>   -20.3982     0.0000     8.0000 </r>
       <r>   -20.2956     0.0000     8.0000 </r>
       <r>   -20.1930     0.0000     8.0000 </r>
       <r>   -20.0905     0.0000     8.0000 </r>
       <r>   -19.9879     0.0000     8.0000 </r>
       <r>   -19.8853     0.0000     8.0000 </r>
       <r>   -19.7828     0.0000     8.0000 </r>
       <r>   -19.6802     0.0000     8.0000 </r>
       <r>   -19.5776     0.0000     8.0000 </r>
       <r>   -19.4750     0.0000     8.0000 </r>
       <r>   -19.3725     0.0000     8.0000 </r>
       <r>   -19.2699     0.0000     8.0000 </r>
       <r>   -19.1673     0.0000     8.0000 </r>
       <r>   -19.0647     0.0000     8.0000 </r>
       <r>   -18.9622     0.0000     8.0000 </r>
       <r>   -18.8596     0.0000     8.0000 </r>
       <r>   -18.7570     0.0000     8.0000 </r>
       <r>   -18.6545     0.0000     8.0000 </r>
       <r>   -18.5519     0.0000     8.0000 </r>
       <r>   -18.4493     0.0000     8.0000 </r>
       <r>   -18.3467     0.0000     8.0000 </r>
       <r>   -18.2442     0.0000     8.0000 </r>
       <r>   -18.1416     0.0000     8.0000 </r>
       <r>   -18.0390     0.0000     8.0000 </r>
       <r>   -17.9364     0.0000     8.0000 </r>
       <r>   -17.8339     0.0000     8.0000 </r>
       <r>   -17.7313     0.0000     8.0000 </r>
       <r>   -17.6287     0.0000     8.0000 </r>
       <r>   -17.5262     0.0000     8.0000 </r>
       <r>   -17.4236     0.0000     8.0000 </r>
       <r>   -17.3210     0.0000     8.0000 </r>
       <r>   -17.2184     0.0000     8.0000 </r>
       <r>   -17.1159     0.0000     8.0000 </r>
       <r>   -17.0133     0.0000     8.0000 </r>
       <r>   -16.9107     0.0000     8.0000 </r>
       <r>   -16.8081     0.0000     8.0000 </r>
       <r>   -16.7056     0.0000     8.0000 </r>
       <r>   -16.6030     0.0000     8.0000 </r>
       <r>   -16.5004     0.0000     8.0000 </r>
       <r>   -16.3979    78.3682    16.0384 </r>
       <r>   -16.2953    52.6119    24.8411 </r>
       <r>   -16.1927     0.0000    48.0000 </r>
       <r>   -16.0901     0.0000    48.0000 </r>
       <r>   -15.9876     0.0000    48.0000 </r>
       <r>   -15.8850     0.0000    48.0000 </r>
       <r>   -15.7824     0.0000    48.0000 </r>
       <r>   -15.6799     0.0000    48.0000 </r>
       <r>   -15.5773     0.0000    48.0000 </r>
       <r>   -15.4747     0.0000    48.0000 </r>
       <r>   -15.3721     0.0000    48.0000 </r>
       <r>   -15.2696     0.0000    48.0000 </r>
       <r>   -15.1670     0.0000    48.0000 </r>
       <r>   -15.0644     0.0000    48.0000 </r>
       <r>   -14.9618     0.0000    48.0000 </r>
       <r>   -14.8593     0.0000    48.0000 </r>
       <r>   -14.7567     0.0000    48.0000 </r>
       <r>   -14.6541     0.0000    48.0000 </r>
       <r>   -14.5516     0.0000    48.0000 </r>
       <r>   -14.4490     0.0000    48.0000 </r>
       <r>   -14.3464     0.0000    48.0000 </r>
       <r>   -14.2438     7.5479    48.7742 </r>
       <r>   -14.1413    22.3230    51.0675 </r>
       <r>   -14.0387    25.9788    54.6647 </r>
       <r>   -13.9361    51.1724    60.1378 </r>
       <r>   -13.8335    41.6292    65.4924 </r>
       <r>   -13.7310    34.4010    70.9730 </r>
       <r>   -13.6284     0.0000    72.0000 </r>
       <r>   -13.5258     0.0000    72.0000 </r>
       <r>   -13.4233     0.0000    72.0000 </r>
       <r>   -13.3207     0.0000    72.0000 </r>
       <r>   -13.2181     0.0000    72.0000 </r>
       <r>   -13.1155     0.0000    72.0000 </r>
       <r>   -13.0130     0.0000    72.0000 </r>
       <r>   -12.9104     0.0000    72.0000 </r>
       <r>   -12.8078     0.0000    72.0000 </r>
       <r>   -12.7053     0.0000    72.0000 </r>
       <r>   -12.6027     0.0000    72.0000 </r>
       <r>   -12.5001     0.0000    72.0000 </r>
       <r>   -12.3975     0.0000    72.0000 </r>
       <r>   -12.2950     0.0000    72.0000 </r>
       <r>   -12.1924     0.0000    72.0000 </r>
       <r>   -12.0898     0.0000    72.0000 </r>
       <r>   -11.9872     0.0000    72.0000 </r>
       <r>   -11.8847     0.0000    72.0000 </r>
       <r>   -11.7821     0.0000    72.0000 </r>
       <r>   -11.6795     0.0000    72.0000 </r>
       <r>   -11.5770     0.0000    72.0000 </r>
       <r>   -11.4744     0.0000    72.0000 </r>
       <r>   -11.3718     0.0000    72.0000 </r>
       <r>   -11.2692     0.0000    72.0000 </r>
       <r>   -11.1667     0.0000    72.0000 </r>
       <r>   -11.0641     0.0000    72.0000 </r>
       <r>   -10.9615     0.0000    72.0000 </r>
       <r>   -10.8589     0.0000    72.0000 </r>
       <r>   -10.7564     0.0000    72.0000 </r>
       <r>   -10.6538     0.0000    72.0000 </r>
       <r>   -10.5512     0.0000    72.0000 </r>
       <r>   -10.4487     0.0000    72.0000 </r>
       <r>   -10.3461     0.0000    72.0000 </r>
       <r>   -10.2435     0.0000    72.0000 </r>
       <r>   -10.1409     0.0000    72.0000 </r>
       <r>   -10.0384     0.0000    72.0000 </r>
       <r>    -9.9358     0.0000    72.0000 </r>
       <r>    -9.8332     0.0000    72.0000 </r>
       <r>    -9.7306     0.0000    72.0000 </r>
       <r>    -9.6281     0.0000    72.0000 </r>
       <r>    -9.5255     0.0000    72.0000 </r>
       <r>    -9.4229     0.0000    72.0000 </r>
       <r>    -9.3204     0.0000    72.0000 </r>
       <r>    -9.2178     0.0000    72.0000 </r>
       <r>    -9.1152     0.0000    72.0000 </r>
       <r>    -9.0126     0.0000    72.0000 </r>
       <r>    -8.9101     0.0000    72.0000 </r>
       <r>    -8.8075     0.0000    72.0000 </r>
       <r>    -8.7049     0.0000    72.0000 </r>
       <r>    -8.6024     0.0000    72.0000 </r>
       <r>    -8.4998     0.0000    72.0000 </r>
       <r>    -8.3972     0.0000    72.0000 </r>
       <r>    -8.2946     0.0000    72.0000 </r>
       <r>    -8.1921     0.0000    72.0000 </r>
       <r>    -8.0895     1.0832    72.1111 </r>
       <r>    -7.9869     0.0000    72.1111 </r>
       <r>    -7.8843     6.4993    72.7778 </r>
       <r>    -7.7818     4.3273    73.2216 </r>
       <r>    -7.6792     8.6326    74.1077 </r>
       <r>    -7.5766     1.8676    74.3027 </r>
       <r>    -7.4741     0.0181    75.5574 </r>
       <r>    -7.3715     6.4995    76.4444 </r>
       <r>    -7.2689    12.9966    77.7775 </r>
       <r>    -7.1663    38.2102    81.6971 </r>
       <r>    -7.0638   142.8534   102.7641 </r>
       <r>    -6.9612     3.5065   103.1374 </r>
       <r>    -6.8586     2.6559   103.4946 </r>
       <r>    -6.7560     0.0000   103.8889 </r>
       <r>    -6.6535     0.0000   103.8889 </r>
       <r>    -6.5509     0.0000   103.8889 </r>
       <r>    -6.4483     1.0832   104.0000 </r>
       <r>    -6.3458     0.0000   104.0000 </r>
       <r>    -6.2432     0.0000   104.0000 </r>
       <r>    -6.1406     0.0000   104.0000 </r>
       <r>    -6.0380     0.0000   104.0000 </r>
       <r>    -5.9355     0.0000   104.0000 </r>
       <r>    -5.8329     0.0000   104.0000 </r>
       <r>    -5.7303     0.0000   104.0000 </r>
       <r>    -5.6277     0.0000   104.0000 </r>
       <r>    -5.5252     0.0000   104.0000 </r>
       <r>    -5.4226     0.0000   104.0000 </r>
       <r>    -5.3200     0.0000   104.0000 </r>
       <r>    -5.2175     0.0000   104.0000 </r>
       <r>    -5.1149     0.0000   104.0000 </r>
       <r>    -5.0123     0.0000   104.0000 </r>
       <r>    -4.9097     0.0000   104.0000 </r>
       <r>    -4.8072     0.0000   104.0000 </r>
       <r>    -4.7046     0.0000   104.0000 </r>
       <r>    -4.6020     0.0000   104.0000 </r>
       <r>    -4.4995     0.0000   104.0000 </r>
       <r>    -4.3969     0.0000   104.0000 </r>
       <r>    -4.2943     0.0000   104.0000 </r>
       <r>    -4.1917     0.0000   104.0000 </r>
       <r>    -4.0892     0.0000   104.0000 </r>
       <r>    -3.9866     0.0000   104.0000 </r>
       <r>    -3.8840     0.0000   104.0000 </r>
       <r>    -3.7814     0.0000   104.0000 </r>
       <r>    -3.6789     0.0000   104.0000 </r>
       <r>    -3.5763     0.0000   104.0000 </r>
       <r>    -3.4737     0.0000   104.0000 </r>
       <r>    -3.3712     0.0000   104.0000 </r>
       <r>    -3.2686     1.0279   104.1054 </r>
       <r>    -3.1660    20.6270   106.2269 </r>
       <r>    -3.0634    15.7116   108.1671 </r>
       <r>    -2.9609     4.5555   108.6895 </r>
       <r>    -2.8583     8.6634   109.9997 </r>
       <r>    -2.7557    17.7251   111.8181 </r>
       <r>    -2.6531     6.6392   113.3477 </r>
       <r>    -2.5506     0.0000   114.0000 </r>
       <r>    -2.4480     9.4126   114.9655 </r>
       <r>    -2.3454    18.0427   117.4062 </r>
       <r>    -2.2429     4.3329   118.2222 </r>
       <r>    -2.1403    10.9943   119.3499 </r>
       <r>    -2.0377    27.7237   122.6215 </r>
       <r>    -1.9351    31.0639   126.1865 </r>
       <r>    -1.8326     7.2932   127.0814 </r>
       <r>    -1.7300     9.6441   128.2114 </r>
       <r>    -1.6274    36.3824   131.9542 </r>
       <r>    -1.5248     7.6097   134.5583 </r>
       <r>    -1.4223    34.6093   138.9945 </r>
       <r>    -1.3197    68.8269   147.0598 </r>
       <r>    -1.2171    50.2535   153.5991 </r>
       <r>    -1.1146    42.5080   159.3602 </r>
       <r>    -1.0120    59.0953   166.7285 </r>
       <r>    -0.9094     5.4162   168.0000 </r>
       <r>    -0.8068     8.1156   168.8324 </r>
       <r>    -0.7043    16.2484   171.0000 </r>
       <r>    -0.6017     9.3007   171.9540 </r>
       <r>    -0.4991    14.7042   173.9527 </r>
       <r>    -0.3966     0.0000   174.2222 </r>
       <r>    -0.2940     4.3330   174.6667 </r>
       <r>    -0.1914     0.0000   174.6667 </r>
       <r>    -0.0888     3.1750   174.9923 </r>
       <r>     0.0137     7.7746   175.7975 </r>
       <r>     0.1163     0.0000   175.8889 </r>
       <r>     0.2189     0.0000   175.8889 </r>
       <r>     0.3215     0.0000   175.8889 </r>
       <r>     0.4240     0.0000   175.8889 </r>
       <r>     0.5266     1.0832   176.0000 </r>
       <r>     0.6292     0.0000   176.0000 </r>
       <r>     0.7317     0.0000   176.0000 </r>
       <r>     0.8343     0.0000   176.0000 </r>
       <r>     0.9369     0.0000   176.0000 </r>
       <r>     1.0395     0.0000   176.0000 </r>
       <r>     1.1420     0.0000   176.0000 </r>
       <r>     1.2446     0.0000   176.0000 </r>
       <r>     1.3472     0.0000   176.0000 </r>
       <r>     1.4498     0.0000   176.0000 </r>
       <r>     1.5523     0.0000   176.0000 </r>
       <r>     1.6549     0.0000   176.0000 </r>
       <r>     1.7575     0.0000   176.0000 </r>
       <r>     1.8600     0.0000   176.0000 </r>
       <r>     1.9626     0.0000   176.0000 </r>
       <r>     2.0652     0.0000   176.0000 </r>
       <r>     2.1678     0.0000   176.0000 </r>
       <r>     2.2703     0.0000   176.0000 </r>
       <r>     2.3729     0.0000   176.0000 </r>
       <r>     2.4755     0.0000   176.0000 </r>
       <r>     2.5780     0.0000   176.0000 </r>
       <r>     2.6806     0.0000   176.0000 </r>
       <r>     2.7832     1.0832   176.1111 </r>
       <r>     2.8858     1.0834   176.2222 </r>
       <r>     2.9883     5.9628   176.8339 </r>
       <r>     3.0909     4.6792   177.4800 </r>
       <r>     3.1935     3.2497   178.2222 </r>
       <r>     3.2961    11.7294   179.4253 </r>
       <r>     3.3986     5.4157   180.1111 </r>
       <r>     3.5012     3.8413   180.5051 </r>
       <r>     3.6038     3.2497   180.8889 </r>
       <r>     3.7063     4.3535   181.3354 </r>
       <r>     3.8089     2.2207   182.0056 </r>
       <r>     3.9115     5.7906   183.0385 </r>
       <r>     4.0141     4.3984   184.0067 </r>
       <r>     4.1166    10.8324   185.3333 </r>
       <r>     4.2192     2.1665   185.5556 </r>
       <r>     4.3218     4.3336   186.0001 </r>
       <r>     4.4244     2.1658   186.2222 </r>
       <r>     4.5269     8.6661   187.1111 </r>
       <r>     4.6295     8.6658   188.0000 </r>
       <r>     4.7321     8.6689   188.8892 </r>
       <r>     4.8346     8.6630   189.7778 </r>
       <r>     4.9372     6.6009   190.4548 </r>
       <r>     5.0398     0.0000   190.5556 </r>
       <r>     5.1424    15.1653   192.1111 </r>
       <r>     5.2449    11.9561   193.3375 </r>
       <r>     5.3475    15.1654   195.0000 </r>
       <r>     5.4501     2.8929   195.2967 </r>
       <r>     5.5527     0.0000   195.4444 </r>
       <r>     5.6552     6.4995   196.1111 </r>
       <r>     5.7578     1.2519   196.2395 </r>
       <r>     5.8604    12.0262   197.6780 </r>
       <r>     5.9629     1.0839   198.2223 </r>
       <r>     6.0655    14.2265   199.6815 </r>
       <r>     6.1681    13.1517   201.2379 </r>
       <r>     6.2707    13.7089   202.8509 </r>
       <r>     6.3732    16.2250   204.5531 </r>
       <r>     6.4758    18.8328   207.1540 </r>
       <r>     6.5784    14.7764   209.7379 </r>
       <r>     6.6809    24.7661   212.3181 </r>
       <r>     6.7835    21.8312   214.5729 </r>
       <r>     6.8861    23.1336   217.2618 </r>
       <r>     6.9887    16.4068   219.7940 </r>
       <r>     7.0912    20.0281   223.0543 </r>
       <r>     7.1938     4.3330   223.5556 </r>
       <r>     7.2964     4.3330   224.0000 </r>
       <r>     7.3990     0.0000   224.0000 </r>
       <r>     7.5015     0.0000   224.0000 </r>
       <r>     7.6041     0.0000   224.0000 </r>
       <r>     7.7067     0.0000   224.0000 </r>
       <r>     7.8092     0.0000   224.0000 </r>
       <r>     7.9118     0.0000   224.0000 </r>
       <r>     8.0144     0.0000   224.0000 </r>
       <r>     8.1170     0.0000   224.0000 </r>
       <r>     8.2195     0.0000   224.0000 </r>
       <r>     8.3221     0.0000   224.0000 </r>
       <r>     8.4247     0.0000   224.0000 </r>
       <r>     8.5273     0.0000   224.0000 </r>
       <r>     8.6298     0.0000   224.0000 </r>
      </set>
     </set>
    </array>
   </total>
   <partial>
    <array>
     <dimension dim="1">gridpoints</dimension>
     <dimension dim="2">spin</dimension>
     <dimension dim="3">ion</dimension>
     <field>energy</field>
     <field>  s  </field>
     <field>  p  </field>
     <field>  d  </field>
     <set>
      <set comment="ion 1">
       <set comment="spin 1">
        <r>   -22.1419     0.0000     0.0000     0.0000 </r>
        <r>   -22.0393     0.0000     0.0000     0.0000 </r>
        <r>   -21.9368     0.0000     0.0000     0.0000 </r>
        <r>   -21.8342     0.0000     0.0000     0.0000 </r>
        <r>   -21.7316     0.0000     0.0000     0.0000 </r>
        <r>   -21.6291     0.0000     0.0000     0.0000 </r>
        <r>   -21.5265     0.0000     0.0000     0.0000 </r>
        <r>   -21.4239     0.0000     0.0000     0.0000 </r>
        <r>   -21.3213     0.0000     0.0000     0.0000 </r>
        <r>   -21.2188     0.0000     0.0000     0.0000 </r>
[...]
        <r>  0.0000  0.0002  0.0004 </r>
        <r>  0.0002  0.0071  0.0001 </r>
        <r>  0.0000  0.0041  0.0004 </r>
        <r>  0.0031  0.1760  0.0017 </r>
        <r>  0.0029  0.1632  0.0019 </r>
        <r>  0.0004  0.0055  0.0016 </r>
        <r>  0.0003  0.0045  0.0010 </r>
        <r>  0.0002  0.0036  0.0013 </r>
        <r>  0.0006  0.0063  0.0012 </r>
        <r>  0.0137  0.0349  0.0076 </r>
        <r>  0.0008  0.0130  0.0008 </r>
        <r>  0.0000  0.0004  0.0001 </r>
        <r>  0.0004  0.0013  0.0003 </r>
        <r>  0.0005  0.0018  0.0002 </r>
        <r>  0.0000  0.0003  0.0000 </r>
        <r>  0.0137  0.0345  0.0077 </r>
        <r>  0.0008  0.0132  0.0008 </r>
       </set>
       <set comment="band 93">
        <r>  0.0000  0.0001  0.0002 </r>
        <r>  0.0005  0.0002  0.0006 </r>
        <r>  0.0000  0.0000  0.0007 </r>
        <r>  0.0000  0.0007  0.0015 </r>
        <r>  0.0024  0.1064  0.0013 </r>
        <r>  0.0018  0.0732  0.0011 </r>
        <r>  0.0025  0.0576  0.0013 </r>
        <r>  0.0031  0.0805  0.0016 </r>
        <r>  0.0096  0.0013  0.0040 </r>
        <r>  0.0001  0.0716  0.0004 </r>
        <r>  0.0120  0.0019  0.0053 </r>
        <r>  0.0001  0.0546  0.0006 </r>
        <r>  0.0003  0.0066  0.0010 </r>
        <r>  0.0000  0.0013  0.0016 </r>
        <r>  0.0000  0.0013  0.0022 </r>
        <r>  0.0008  0.0040  0.0012 </r>
        <r>  0.0005  0.0078  0.0012 </r>
        <r>  0.0000  0.0015  0.0021 </r>
        <r>  0.0007  0.0028  0.0009 </r>
        <r>  0.0000  0.0010  0.0017 </r>
       </set>
       <set comment="band 94">
        <r>  0.0000  0.0007  0.0015 </r>
        <r>  0.0000  0.0000  0.0007 </r>
        <r>  0.0005  0.0002  0.0006 </r>
        <r>  0.0000  0.0001  0.0002 </r>
        <r>  0.0031  0.0805  0.0016 </r>
        <r>  0.0025  0.0576  0.0013 </r>
        <r>  0.0018  0.0732  0.0011 </r>
        <r>  0.0024  0.1064  0.0013 </r>
        <r>  0.0001  0.0546  0.0006 </r>
        <r>  0.0120  0.0019  0.0053 </r>
        <r>  0.0001  0.0716  0.0004 </r>
        <r>  0.0096  0.0013  0.0040 </r>
        <r>  0.0008  0.0040  0.0012 </r>
        <r>  0.0000  0.0013  0.0022 </r>
        <r>  0.0000  0.0013  0.0016 </r>
        <r>  0.0003  0.0066  0.0010 </r>
        <r>  0.0007  0.0028  0.0009 </r>
        <r>  0.0000  0.0010  0.0017 </r>
        <r>  0.0005  0.0078  0.0012 </r>
        <r>  0.0000  0.0015  0.0021 </r>
       </set>
       <set comment="band 95">
        <r>  0.0000  0.0001  0.0005 </r>
        <r>  0.0001  0.0010  0.0010 </r>
        <r>  0.0000  0.0002  0.0003 </r>
        <r>  0.0003  0.0003  0.0004 </r>
        <r>  0.0026  0.0535  0.0012 </r>
        <r>  0.0035  0.0822  0.0016 </r>
        <r>  0.0026  0.1126  0.0012 </r>
        <r>  0.0020  0.0734  0.0010 </r>
        <r>  0.0125  0.0006  0.0056 </r>
        <r>  0.0001  0.0473  0.0006 </r>
        <r>  0.0089  0.0005  0.0038 </r>
        <r>  0.0001  0.0687  0.0002 </r>
        <r>  0.0006  0.0057  0.0021 </r>
        <r>  0.0002  0.0042  0.0007 </r>
        <r>  0.0003  0.0064  0.0008 </r>
        <r>  0.0001  0.0049  0.0019 </r>
        <r>  0.0005  0.0041  0.0015 </r>
        <r>  0.0001  0.0027  0.0006 </r>
        <r>  0.0002  0.0064  0.0025 </r>
        <r>  0.0003  0.0079  0.0009 </r>
       </set>
       <set comment="band 96">
        <r>  0.0003  0.0003  0.0004 </r>
        <r>  0.0000  0.0002  0.0003 </r>
        <r>  0.0001  0.0010  0.0010 </r>
        <r>  0.0000  0.0001  0.0005 </r>
        <r>  0.0020  0.0734  0.0010 </r>
        <r>  0.0026  0.1126  0.0012 </r>
        <r>  0.0035  0.0822  0.0016 </r>
        <r>  0.0026  0.0535  0.0012 </r>
        <r>  0.0001  0.0687  0.0002 </r>
        <r>  0.0089  0.0005  0.0038 </r>
        <r>  0.0001  0.0473  0.0006 </r>
        <r>  0.0125  0.0006  0.0056 </r>
        <r>  0.0001  0.0049  0.0019 </r>
        <r>  0.0003  0.0064  0.0008 </r>
        <r>  0.0002  0.0042  0.0007 </r>
        <r>  0.0006  0.0057  0.0021 </r>
        <r>  0.0002  0.0064  0.0025 </r>
        <r>  0.0003  0.0079  0.0009 </r>
        <r>  0.0005  0.0041  0.0015 </r>
        <r>  0.0001  0.0027  0.0006 </r>
       </set>
       <set comment="band 97">
        <r>  0.0000  0.0000  0.0018 </r>
        <r>  0.0001  0.0005  0.0009 </r>
        <r>  0.0000  0.0001  0.0028 </r>
        <r>  0.0003  0.0005  0.0007 </r>
        <r>  0.0031  0.0775  0.0008 </r>
        <r>  0.0017  0.0668  0.0008 </r>
        <r>  0.0024  0.0696  0.0009 </r>
        <r>  0.0014  0.0897  0.0012 </r>
        <r>  0.0005  0.0047  0.0005 </r>
        <r>  0.0002  0.0086  0.0033 </r>
        <r>  0.0026  0.0040  0.0013 </r>
        <r>  0.0000  0.0019  0.0030 </r>
        <r>  0.0029  0.0407  0.0019 </r>
        <r>  0.0000  0.0009  0.0021 </r>
        <r>  0.0001  0.0016  0.0018 </r>
        <r>  0.0037  0.0358  0.0013 </r>
        <r>  0.0027  0.0370  0.0016 </r>
        <r>  0.0000  0.0010  0.0020 </r>
        <r>  0.0039  0.0395  0.0016 </r>
        <r>  0.0001  0.0015  0.0020 </r>
       </set>
       <set comment="band 98">
        <r>  0.0003  0.0005  0.0007 </r>
        <r>  0.0000  0.0001  0.0028 </r>
        <r>  0.0001  0.0005  0.0009 </r>
        <r>  0.0000  0.0000  0.0018 </r>
        <r>  0.0014  0.0897  0.0012 </r>
        <r>  0.0024  0.0696  0.0009 </r>
        <r>  0.0017  0.0668  0.0008 </r>
        <r>  0.0031  0.0775  0.0008 </r>
        <r>  0.0000  0.0019  0.0030 </r>
        <r>  0.0026  0.0040  0.0013 </r>
        <r>  0.0002  0.0086  0.0033 </r>
        <r>  0.0005  0.0047  0.0005 </r>
        <r>  0.0037  0.0358  0.0013 </r>
        <r>  0.0001  0.0016  0.0018 </r>
        <r>  0.0000  0.0009  0.0021 </r>
        <r>  0.0029  0.0407  0.0019 </r>
        <r>  0.0039  0.0395  0.0016 </r>
        <r>  0.0001  0.0015  0.0020 </r>
        <r>  0.0027  0.0370  0.0016 </r>
        <r>  0.0000  0.0010  0.0020 </r>
       </set>
       <set comment="band 99">
        <r>  0.0000  0.0002  0.0013 </r>
        <r>  0.0000  0.0001  0.0020 </r>
        <r>  0.0000  0.0002  0.0019 </r>
        <r>  0.0000  0.0000  0.0030 </r>
        <r>  0.0000  0.1264  0.0003 </r>
        <r>  0.0000  0.1379  0.0004 </r>
        <r>  0.0001  0.0223  0.0007 </r>
        <r>  0.0000  0.0207  0.0006 </r>
        <r>  0.0001  0.0012  0.0037 </r>
        <r>  0.0000  0.0033  0.0009 </r>
        <r>  0.0000  0.0008  0.0035 </r>
        <r>  0.0004  0.0016  0.0013 </r>
        <r>  0.0000  0.0003  0.0009 </r>
        <r>  0.0001  0.0142  0.0005 </r>
        <r>  0.0000  0.0865  0.0023 </r>
        <r>  0.0000  0.0017  0.0041 </r>
        <r>  0.0000  0.0016  0.0043 </r>
        <r>  0.0001  0.0873  0.0019 </r>
        <r>  0.0000  0.0004  0.0007 </r>
        <r>  0.0000  0.0134  0.0009 </r>
       </set>
       <set comment="band 100">
        <r>  0.0000  0.0000  0.0030 </r>
        <r>  0.0000  0.0002  0.0019 </r>
        <r>  0.0000  0.0001  0.0020 </r>
        <r>  0.0000  0.0002  0.0013 </r>
        <r>  0.0000  0.0207  0.0006 </r>
        <r>  0.0001  0.0223  0.0007 </r>
        <r>  0.0000  0.1379  0.0004 </r>
        <r>  0.0000  0.1264  0.0003 </r>
        <r>  0.0004  0.0016  0.0013 </r>
        <r>  0.0000  0.0008  0.0035 </r>
        <r>  0.0000  0.0033  0.0009 </r>
        <r>  0.0001  0.0012  0.0037 </r>
        <r>  0.0000  0.0017  0.0041 </r>
        <r>  0.0000  0.0865  0.0023 </r>
        <r>  0.0001  0.0142  0.0005 </r>
        <r>  0.0000  0.0003  0.0009 </r>
        <r>  0.0000  0.0004  0.0007 </r>
        <r>  0.0000  0.0134  0.0009 </r>
        <r>  0.0000  0.0016  0.0043 </r>
        <r>  0.0001  0.0873  0.0019 </r>
       </set>
       <set comment="band 101">
        <r>  0.0119  0.0045  0.0051 </r>
        <r>  0.0000  0.0011  0.0143 </r>
        <r>  0.0129  0.0048  0.0075 </r>
        <r>  0.0000  0.0014  0.0132 </r>
        <r>  0.0002  0.0043  0.0002 </r>
        <r>  0.0003  0.0094  0.0003 </r>
        <r>  0.0003  0.0094  0.0003 </r>
        <r>  0.0002  0.0043  0.0002 </r>
        <r>  0.0000  0.0071  0.0003 </r>
        <r>  0.0033  0.0072  0.0032 </r>
        <r>  0.0000  0.0057  0.0002 </r>
        <r>  0.0024  0.0057  0.0033 </r>
        <r>  0.0023  0.0040  0.0020 </r>
        <r>  0.0034  0.0015  0.0017 </r>
        <r>  0.0054  0.0036  0.0025 </r>
        <r>  0.0007  0.0045  0.0008 </r>
        <r>  0.0023  0.0040  0.0020 </r>
        <r>  0.0034  0.0015  0.0017 </r>
        <r>  0.0007  0.0045  0.0008 </r>
        <r>  0.0055  0.0036  0.0025 </r>
       </set>
       <set comment="band 102">
        <r>  0.0000  0.0014  0.0132 </r>
        <r>  0.0129  0.0048  0.0075 </r>
        <r>  0.0000  0.0011  0.0143 </r>
        <r>  0.0119  0.0045  0.0051 </r>
        <r>  0.0002  0.0043  0.0002 </r>
        <r>  0.0003  0.0094  0.0003 </r>
        <r>  0.0003  0.0094  0.0003 </r>
        <r>  0.0002  0.0043  0.0002 </r>
        <r>  0.0024  0.0057  0.0033 </r>
        <r>  0.0000  0.0057  0.0002 </r>
        <r>  0.0033  0.0072  0.0032 </r>
        <r>  0.0000  0.0071  0.0003 </r>
        <r>  0.0007  0.0045  0.0008 </r>
        <r>  0.0054  0.0036  0.0025 </r>
        <r>  0.0034  0.0015  0.0017 </r>
        <r>  0.0023  0.0040  0.0020 </r>
        <r>  0.0007  0.0045  0.0008 </r>
        <r>  0.0055  0.0036  0.0025 </r>
        <r>  0.0023  0.0040  0.0020 </r>
        <r>  0.0034  0.0015  0.0017 </r>
       </set>
       <set comment="band 103">
        <r>  0.0000  0.0004  0.0043 </r>
        <r>  0.0007  0.0007  0.0582 </r>
        <r>  0.0000  0.0007  0.0019 </r>
        <r>  0.0057  0.0019  0.0415 </r>
        <r>  0.0001  0.0090  0.0004 </r>
        <r>  0.0000  0.0022  0.0004 </r>
        <r>  0.0000  0.0022  0.0004 </r>
        <r>  0.0001  0.0089  0.0004 </r>
        <r>  0.0001  0.0132  0.0066 </r>
        <r>  0.0000  0.0024  0.0006 </r>
        <r>  0.0015  0.0075  0.0068 </r>
        <r>  0.0000  0.0004  0.0001 </r>
        <r>  0.0007  0.0049  0.0012 </r>
        <r>  0.0008  0.0037  0.0018 </r>
        <r>  0.0002  0.0011  0.0013 </r>
        <r>  0.0003  0.0031  0.0022 </r>
        <r>  0.0007  0.0049  0.0012 </r>
        <r>  0.0008  0.0037  0.0018 </r>
        <r>  0.0003  0.0031  0.0022 </r>
        <r>  0.0002  0.0011  0.0013 </r>
       </set>
       <set comment="band 104">
        <r>  0.0057  0.0019  0.0415 </r>
        <r>  0.0000  0.0007  0.0019 </r>
        <r>  0.0007  0.0007  0.0582 </r>
        <r>  0.0000  0.0004  0.0043 </r>
        <r>  0.0001  0.0089  0.0004 </r>
        <r>  0.0000  0.0022  0.0004 </r>
        <r>  0.0000  0.0022  0.0004 </r>
        <r>  0.0001  0.0090  0.0004 </r>
        <r>  0.0000  0.0004  0.0001 </r>
        <r>  0.0015  0.0075  0.0068 </r>
        <r>  0.0000  0.0024  0.0006 </r>
        <r>  0.0001  0.0132  0.0066 </r>
        <r>  0.0003  0.0031  0.0022 </r>
        <r>  0.0002  0.0011  0.0013 </r>
        <r>  0.0008  0.0037  0.0018 </r>
        <r>  0.0007  0.0049  0.0012 </r>
        <r>  0.0003  0.0031  0.0022 </r>
        <r>  0.0002  0.0011  0.0013 </r>
        <r>  0.0007  0.0049  0.0012 </r>
        <r>  0.0008  0.0037  0.0018 </r>
       </set>
       <set comment="band 105">
        <r>  0.0000  0.0004  0.0243 </r>
        <r>  0.0036  0.0032  0.0234 </r>
        <r>  0.0001  0.0008  0.0257 </r>
        <r>  0.0013  0.0004  0.0425 </r>
        <r>  0.0001  0.0034  0.0008 </r>
        <r>  0.0001  0.0054  0.0008 </r>
        <r>  0.0001  0.0068  0.0009 </r>
        <r>  0.0001  0.0049  0.0006 </r>
        <r>  0.0019  0.0040  0.0040 </r>
        <r>  0.0000  0.0014  0.0009 </r>
        <r>  0.0005  0.0070  0.0025 </r>
        <r>  0.0000  0.0010  0.0012 </r>
        <r>  0.0018  0.0005  0.0027 </r>
        <r>  0.0017  0.0019  0.0026 </r>
        <r>  0.0008  0.0015  0.0024 </r>
        <r>  0.0003  0.0061  0.0029 </r>
        <r>  0.0015  0.0009  0.0026 </r>
        <r>  0.0011  0.0020  0.0024 </r>
        <r>  0.0006  0.0057  0.0030 </r>
        <r>  0.0014  0.0013  0.0026 </r>
       </set>
       <set comment="band 106">
        <r>  0.0013  0.0004  0.0424 </r>
        <r>  0.0001  0.0008  0.0257 </r>
        <r>  0.0036  0.0032  0.0234 </r>
        <r>  0.0000  0.0004  0.0243 </r>
        <r>  0.0001  0.0049  0.0006 </r>
        <r>  0.0001  0.0068  0.0009 </r>
        <r>  0.0001  0.0054  0.0008 </r>
        <r>  0.0001  0.0034  0.0008 </r>
        <r>  0.0000  0.0010  0.0012 </r>
        <r>  0.0005  0.0070  0.0025 </r>
        <r>  0.0000  0.0014  0.0009 </r>
        <r>  0.0019  0.0040  0.0040 </r>
        <r>  0.0003  0.0061  0.0029 </r>
        <r>  0.0008  0.0015  0.0024 </r>
        <r>  0.0017  0.0019  0.0026 </r>
        <r>  0.0018  0.0005  0.0027 </r>
        <r>  0.0006  0.0057  0.0030 </r>
        <r>  0.0014  0.0013  0.0026 </r>
        <r>  0.0015  0.0009  0.0026 </r>
        <r>  0.0011  0.0020  0.0024 </r>
       </set>
       <set comment="band 107">
        <r>  0.0001  0.0015  0.0309 </r>
        <r>  0.0015  0.0019  0.0207 </r>
        <r>  0.0002  0.0004  0.0287 </r>
        <r>  0.0005  0.0044  0.0430 </r>
        <r>  0.0001  0.0024  0.0006 </r>
        <r>  0.0000  0.0045  0.0005 </r>
        <r>  0.0001  0.0054  0.0013 </r>
        <r>  0.0001  0.0102  0.0014 </r>
        <r>  0.0001  0.0036  0.0004 </r>
        <r>  0.0002  0.0040  0.0009 </r>
        <r>  0.0015  0.0072  0.0022 </r>
        <r>  0.0000  0.0016  0.0017 </r>
        <r>  0.0009  0.0020  0.0024 </r>
        <r>  0.0008  0.0045  0.0061 </r>
        <r>  0.0009  0.0020  0.0025 </r>
        <r>  0.0004  0.0022  0.0035 </r>
        <r>  0.0001  0.0020  0.0013 </r>
        <r>  0.0005  0.0034  0.0035 </r>
        <r>  0.0012  0.0022  0.0046 </r>
        <r>  0.0012  0.0031  0.0051 </r>
       </set>
       <set comment="band 108">
        <r>  0.0005  0.0044  0.0430 </r>
        <r>  0.0002  0.0004  0.0287 </r>
        <r>  0.0015  0.0019  0.0207 </r>
        <r>  0.0001  0.0015  0.0309 </r>
        <r>  0.0001  0.0102  0.0014 </r>
        <r>  0.0001  0.0054  0.0013 </r>
        <r>  0.0000  0.0045  0.0005 </r>
        <r>  0.0001  0.0024  0.0006 </r>
        <r>  0.0000  0.0016  0.0017 </r>
        <r>  0.0015  0.0071  0.0022 </r>
        <r>  0.0002  0.0040  0.0009 </r>
        <r>  0.0001  0.0036  0.0004 </r>
        <r>  0.0004  0.0022  0.0035 </r>
        <r>  0.0009  0.0019  0.0025 </r>
        <r>  0.0008  0.0045  0.0061 </r>
        <r>  0.0009  0.0020  0.0024 </r>
        <r>  0.0012  0.0022  0.0046 </r>
        <r>  0.0012  0.0031  0.0051 </r>
        <r>  0.0001  0.0020  0.0013 </r>
        <r>  0.0005  0.0034  0.0035 </r>
       </set>
       <set comment="band 109">
        <r>  0.0000  0.0005  0.0134 </r>
        <r>  0.0004  0.0062  0.0357 </r>
        <r>  0.0000  0.0011  0.0249 </r>
        <r>  0.0007  0.0059  0.0349 </r>
        <r>  0.0000  0.0067  0.0006 </r>
        <r>  0.0000  0.0062  0.0009 </r>
        <r>  0.0001  0.0029  0.0010 </r>
        <r>  0.0000  0.0040  0.0007 </r>
        <r>  0.0048  0.0026  0.0045 </r>
        <r>  0.0000  0.0029  0.0011 </r>
        <r>  0.0001  0.0079  0.0040 </r>
        <r>  0.0002  0.0043  0.0014 </r>
        <r>  0.0007  0.0015  0.0011 </r>
        <r>  0.0004  0.0027  0.0038 </r>
        <r>  0.0001  0.0039  0.0006 </r>
        <r>  0.0027  0.0040  0.0049 </r>
        <r>  0.0020  0.0020  0.0019 </r>
        <r>  0.0003  0.0042  0.0034 </r>
        <r>  0.0015  0.0035  0.0041 </r>
        <r>  0.0002  0.0024  0.0009 </r>
       </set>
       <set comment="band 110">
        <r>  0.0007  0.0059  0.0350 </r>
        <r>  0.0000  0.0011  0.0249 </r>
        <r>  0.0004  0.0062  0.0357 </r>
        <r>  0.0000  0.0005  0.0134 </r>
        <r>  0.0000  0.0040  0.0007 </r>
        <r>  0.0001  0.0029  0.0010 </r>
        <r>  0.0000  0.0062  0.0009 </r>
        <r>  0.0000  0.0067  0.0006 </r>
        <r>  0.0002  0.0043  0.0014 </r>
        <r>  0.0001  0.0079  0.0040 </r>
        <r>  0.0000  0.0029  0.0011 </r>
        <r>  0.0048  0.0026  0.0045 </r>
        <r>  0.0027  0.0040  0.0049 </r>
        <r>  0.0001  0.0039  0.0006 </r>
        <r>  0.0004  0.0027  0.0038 </r>
        <r>  0.0007  0.0015  0.0011 </r>
        <r>  0.0015  0.0035  0.0041 </r>
        <r>  0.0002  0.0024  0.0009 </r>
        <r>  0.0020  0.0020  0.0019 </r>
        <r>  0.0003  0.0042  0.0034 </r>
       </set>
       <set comment="band 111">
        <r>  0.0053  0.0031  0.0286 </r>
        <r>  0.0002  0.0012  0.0114 </r>
        <r>  0.0025  0.0030  0.0362 </r>
        <r>  0.0004  0.0011  0.0398 </r>
        <r>  0.0000  0.0049  0.0011 </r>
        <r>  0.0001  0.0046  0.0008 </r>
        <r>  0.0001  0.0071  0.0012 </r>
        <r>  0.0001  0.0022  0.0016 </r>
        <r>  0.0000  0.0011  0.0005 </r>
        <r>  0.0011  0.0071  0.0026 </r>
        <r>  0.0001  0.0005  0.0028 </r>
        <r>  0.0002  0.0154  0.0019 </r>
        <r>  0.0010  0.0054  0.0030 </r>
        <r>  0.0002  0.0028  0.0022 </r>
        <r>  0.0011  0.0052  0.0044 </r>
        <r>  0.0005  0.0006  0.0027 </r>
        <r>  0.0004  0.0039  0.0021 </r>
        <r>  0.0007  0.0027  0.0015 </r>
        <r>  0.0011  0.0021  0.0036 </r>
        <r>  0.0006  0.0053  0.0051 </r>
       </set>
       <set comment="band 112">
        <r>  0.0004  0.0011  0.0399 </r>
        <r>  0.0025  0.0030  0.0365 </r>
        <r>  0.0002  0.0012  0.0113 </r>
        <r>  0.0053  0.0031  0.0287 </r>
        <r>  0.0001  0.0022  0.0016 </r>
        <r>  0.0001  0.0071  0.0012 </r>
        <r>  0.0001  0.0046  0.0008 </r>
        <r>  0.0000  0.0049  0.0011 </r>
        <r>  0.0002  0.0154  0.0019 </r>
        <r>  0.0001  0.0005  0.0028 </r>
        <r>  0.0011  0.0071  0.0026 </r>
        <r>  0.0000  0.0011  0.0005 </r>
        <r>  0.0005  0.0006  0.0027 </r>
        <r>  0.0011  0.0053  0.0044 </r>
        <r>  0.0002  0.0028  0.0022 </r>
        <r>  0.0010  0.0054  0.0030 </r>
        <r>  0.0011  0.0021  0.0036 </r>
        <r>  0.0006  0.0053  0.0051 </r>
        <r>  0.0004  0.0039  0.0021 </r>
        <r>  0.0007  0.0027  0.0015 </r>
       </set>
      </set>
     </set>
    </set>
   </array>
  </projected>
 </calculation>
 <structure name="finalpos" >
  <crystal>
   <varray name="basis" >
    <v>       8.42001760       0.00000000      -0.00000000 </v>
    <v>       0.00000000      11.76380778       0.00000000 </v>
    <v>       0.00000000       0.00000000       8.07798055 </v>
   </varray>
   <i name="volume">    800.13583688 </i>
   <varray name="rec_basis" >
    <v>       0.11876460       0.00000000       0.00000000 </v>
    <v>      -0.00000000       0.08500649       0.00000000 </v>
    <v>       0.00000000      -0.00000000       0.12379332 </v>
   </varray>
  </crystal>
  <varray name="positions" >
   <v>       0.06388952       0.25000000       0.48036129 </v>
   <v>       0.43611048       0.75000000       0.98036129 </v>
   <v>       0.56388952       0.25000000       0.01963871 </v>
   <v>       0.93611048       0.75000000       0.51963871 </v>
   <v>       0.00000000       0.00000000       0.00000000 </v>
   <v>       0.50000000       0.00000000       0.50000000 </v>
   <v>       0.50000000       0.50000000       0.50000000 </v>
   <v>       0.00000000       0.50000000       0.00000000 </v>
   <v>       0.50629358       0.75000000       0.43225468 </v>
   <v>       0.99370642       0.25000000       0.93225468 </v>
   <v>       0.00629358       0.75000000       0.06774532 </v>
   <v>       0.49370642       0.25000000       0.56774532 </v>
   <v>       0.29891910       0.46553729       0.19744105 </v>
   <v>       0.20108090       0.53446271       0.69744105 </v>
   <v>       0.79891910       0.03446271       0.30255895 </v>
   <v>       0.70108090       0.96553729       0.80255895 </v>
   <v>       0.29891910       0.03446271       0.19744105 </v>
   <v>       0.20108090       0.96553729       0.69744105 </v>
   <v>       0.70108090       0.53446271       0.80255895 </v>
   <v>       0.79891910       0.46553729       0.30255895 </v>
  </varray>
 </structure>
</modeling>
