 running on   64 total cores
 distrk:  each k-point on   64 cores,    1 groups
 distr:  one band on    8 cores,    8 groups
 using from now: INCAR     
 vasp.5.4.4.18Apr17-6-g9f103f2a35 (build Jun 22 2020 09:27:21) complex           
 POSCAR found type information on POSCAR  Cs Pb Br
 POSCAR found :  3 types and      20 ions
 scaLAPACK will be used
 LDA part: xc-table for Pade appr. of Perdew
 POSCAR found type information on POSCAR  Cs Pb Br
 POSCAR found :  3 types and      20 ions
 POSCAR, INCAR and KPOINTS ok, starting setup
 FFT: planning ...
 WAVECAR not read
 WARNING: random wavefunctions but no delay for mixing, default for NELMDL
 entering main loop
       N       E                     dE             d eps       ncg     rms          rms(c)
DAV:   1     0.658684935593E+03    0.65868E+03   -0.56156E+04  1816   0.923E+02
DAV:   2    -0.576642852255E+03   -0.12353E+04   -0.11824E+04  2208   0.285E+02
DAV:   3    -0.748958015206E+03   -0.17232E+03   -0.17123E+03  2432   0.127E+02
DAV:   4    -0.754520006148E+03   -0.55620E+01   -0.55436E+01  2136   0.301E+01
DAV:   5    -0.754786953566E+03   -0.26695E+00   -0.26675E+00  2368   0.519E+00    0.706E+00
DAV:   6    -0.715017027446E+03    0.39770E+02   -0.11818E+01  2384   0.283E+01    0.503E+00
DAV:   7    -0.714785121161E+03    0.23191E+00   -0.38064E+00  2264   0.483E+00    0.258E+00
DAV:   8    -0.714880357028E+03   -0.95236E-01   -0.18125E-01  2176   0.170E+00    0.148E+00
DAV:   9    -0.714919962125E+03   -0.39605E-01   -0.79920E-02  2008   0.118E+00    0.326E-01
DAV:  10    -0.714920693805E+03   -0.73168E-03   -0.44549E-03  2520   0.315E-01    0.182E-01
DAV:  11    -0.714922112882E+03   -0.14191E-02   -0.15531E-03  2024   0.160E-01    0.647E-02
DAV:  12    -0.714922197615E+03   -0.84732E-04   -0.43641E-04  2104   0.900E-02    0.230E-02
DAV:  13    -0.714922213201E+03   -0.15587E-04   -0.37544E-05  2312   0.233E-02    0.669E-03
DAV:  14    -0.714922223038E+03   -0.98368E-05   -0.28833E-06  1728   0.531E-03    0.213E-03
DAV:  15    -0.714922227124E+03   -0.40858E-05   -0.81698E-07  1336   0.375E-03    0.113E-03
DAV:  16    -0.714922226127E+03    0.99655E-06   -0.15700E-07  1216   0.173E-03
   1 F= -.71492223E+03 E0= -.71492223E+03  d E =-.260324E-27
Application 1865597 resources: utime ~7638s, stime ~72s, Rss ~78216, inblocks ~1438, outblocks ~127320
