CsPbBr3 cubic bulk                      
           1
     8.420018    0.000000   -0.000000
     0.000000   11.763808    0.000000
     0.000000    0.000000    8.077981
   Cs   Pb   Br
   4   4  12
Direct configuration=     1
   0.06388952  0.25000000  0.48036129
   0.43611048  0.75000000  0.98036129
   0.56388952  0.25000000  0.01963871
   0.93611048  0.75000000  0.51963871
   0.00000000  0.00000000  0.00000000
   0.50000000  0.00000000  0.50000000
   0.50000000  0.50000000  0.50000000
   0.00000000  0.50000000  0.00000000
   0.50629358  0.75000000  0.43225468
   0.99370642  0.25000000  0.93225468
   0.00629358  0.75000000  0.06774532
   0.49370642  0.25000000  0.56774532
   0.29891910  0.46553729  0.19744105
   0.20108090  0.53446271  0.69744105
   0.79891910  0.03446271  0.30255895
   0.70108090  0.96553729  0.80255895
   0.29891910  0.03446271  0.19744105
   0.20108090  0.96553729  0.69744105
   0.70108090  0.53446271  0.80255895
   0.79891910  0.46553729  0.30255895
