  10  10   1   0
  0.4023725E+02  0.8189466E-09  0.8338346E-09  0.8338346E-09  0.5000000E-15
   1.0000000000000000E-004
  CAR 
 CsPbBr3 cubic bulk                      
      8.64636848    -22.26861012  301      0.63423652      1.00000000
    -22.269  0.0000E+00  0.0000E+00
    -22.166  0.0000E+00  0.0000E+00
    -22.063  0.0000E+00  0.0000E+00
    -21.959  0.0000E+00  0.0000E+00
    -21.856  0.0000E+00  0.0000E+00
    -21.753  0.0000E+00  0.0000E+00
    -21.650  0.0000E+00  0.0000E+00
    -21.547  0.0000E+00  0.0000E+00
    -21.444  0.0000E+00  0.0000E+00
    -21.341  0.0000E+00  0.0000E+00
    -21.238  0.0000E+00  0.0000E+00
    -21.135  0.0000E+00  0.0000E+00
    -21.032  0.0000E+00  0.0000E+00
    -20.929  0.0000E+00  0.0000E+00
    -20.826  0.3882E+02  0.4000E+01
    -20.723  0.0000E+00  0.4000E+01
    -20.620  0.0000E+00  0.4000E+01
    -20.517  0.0000E+00  0.4000E+01
    -20.414  0.0000E+00  0.4000E+01
    -20.311  0.0000E+00  0.4000E+01
    -20.208  0.0000E+00  0.4000E+01
    -20.105  0.0000E+00  0.4000E+01
    -20.002  0.0000E+00  0.4000E+01
    -19.898  0.0000E+00  0.4000E+01
    -19.795  0.0000E+00  0.4000E+01
    -19.692  0.0000E+00  0.4000E+01
    -19.589  0.0000E+00  0.4000E+01
    -19.486  0.0000E+00  0.4000E+01
    -19.383  0.0000E+00  0.4000E+01
    -19.280  0.0000E+00  0.4000E+01
    -19.177  0.0000E+00  0.4000E+01
    -19.074  0.0000E+00  0.4000E+01
    -18.971  0.0000E+00  0.4000E+01
    -18.868  0.0000E+00  0.4000E+01
    -18.765  0.0000E+00  0.4000E+01
    -18.662  0.0000E+00  0.4000E+01
    -18.559  0.0000E+00  0.4000E+01
    -18.456  0.0000E+00  0.4000E+01
    -18.353  0.0000E+00  0.4000E+01
    -18.250  0.0000E+00  0.4000E+01
    -18.147  0.0000E+00  0.4000E+01
    -18.044  0.0000E+00  0.4000E+01
    -17.941  0.0000E+00  0.4000E+01
    -17.837  0.0000E+00  0.4000E+01
    -17.734  0.0000E+00  0.4000E+01
    -17.631  0.0000E+00  0.4000E+01
    -17.528  0.0000E+00  0.4000E+01
    -17.425  0.0000E+00  0.4000E+01
    -17.322  0.0000E+00  0.4000E+01
    -17.219  0.0000E+00  0.4000E+01
    -17.116  0.0000E+00  0.4000E+01
    -17.013  0.0000E+00  0.4000E+01
    -16.910  0.0000E+00  0.4000E+01
    -16.807  0.0000E+00  0.4000E+01
    -16.704  0.0000E+00  0.4000E+01
    -16.601  0.0000E+00  0.4000E+01
    -16.498  0.0000E+00  0.4000E+01
    -16.395  0.3166E+01  0.4326E+01
    -16.292  0.4241E+02  0.1193E+02
    -16.189  0.1164E+03  0.2400E+02
    -16.086  0.0000E+00  0.2400E+02
    -15.983  0.0000E+00  0.2400E+02
    -15.880  0.0000E+00  0.2400E+02
    -15.776  0.0000E+00  0.2400E+02
    -15.673  0.0000E+00  0.2400E+02
    -15.570  0.0000E+00  0.2400E+02
    -15.467  0.0000E+00  0.2400E+02
    -15.364  0.0000E+00  0.2400E+02
    -15.261  0.0000E+00  0.2400E+02
    -15.158  0.0000E+00  0.2400E+02
    -15.055  0.0000E+00  0.2400E+02
    -14.952  0.0000E+00  0.2400E+02
    -14.849  0.0000E+00  0.2400E+02
    -14.746  0.0000E+00  0.2400E+02
    -14.643  0.0000E+00  0.2400E+02
    -14.540  0.0000E+00  0.2400E+02
    -14.437  0.0000E+00  0.2400E+02
    -14.334  0.1036E+00  0.2401E+02
    -14.231  0.6150E+01  0.2471E+02
    -14.128  0.5697E+01  0.2570E+02
    -14.025  0.1150E+02  0.2748E+02
    -13.922  0.2377E+02  0.2993E+02
    -13.819  0.4346E+01  0.3245E+02
    -13.715  0.2020E+02  0.3542E+02
    -13.612  0.2875E+01  0.3600E+02
    -13.509  0.0000E+00  0.3600E+02
    -13.406  0.0000E+00  0.3600E+02
    -13.303  0.0000E+00  0.3600E+02
    -13.200  0.0000E+00  0.3600E+02
    -13.097  0.0000E+00  0.3600E+02
    -12.994  0.0000E+00  0.3600E+02
    -12.891  0.0000E+00  0.3600E+02
    -12.788  0.0000E+00  0.3600E+02
    -12.685  0.0000E+00  0.3600E+02
    -12.582  0.0000E+00  0.3600E+02
    -12.479  0.0000E+00  0.3600E+02
    -12.376  0.0000E+00  0.3600E+02
    -12.273  0.0000E+00  0.3600E+02
    -12.170  0.0000E+00  0.3600E+02
    -12.067  0.0000E+00  0.3600E+02
    -11.964  0.0000E+00  0.3600E+02
    -11.861  0.0000E+00  0.3600E+02
    -11.758  0.0000E+00  0.3600E+02
    -11.654  0.0000E+00  0.3600E+02
    -11.551  0.0000E+00  0.3600E+02
    -11.448  0.0000E+00  0.3600E+02
    -11.345  0.0000E+00  0.3600E+02
    -11.242  0.0000E+00  0.3600E+02
    -11.139  0.0000E+00  0.3600E+02
    -11.036  0.0000E+00  0.3600E+02
    -10.933  0.0000E+00  0.3600E+02
    -10.830  0.0000E+00  0.3600E+02
    -10.727  0.0000E+00  0.3600E+02
    -10.624  0.0000E+00  0.3600E+02
    -10.521  0.0000E+00  0.3600E+02
    -10.418  0.0000E+00  0.3600E+02
    -10.315  0.0000E+00  0.3600E+02
    -10.212  0.0000E+00  0.3600E+02
    -10.109  0.0000E+00  0.3600E+02
    -10.006  0.0000E+00  0.3600E+02
     -9.903  0.0000E+00  0.3600E+02
     -9.800  0.0000E+00  0.3600E+02
     -9.697  0.0000E+00  0.3600E+02
     -9.593  0.0000E+00  0.3600E+02
     -9.490  0.0000E+00  0.3600E+02
     -9.387  0.0000E+00  0.3600E+02
     -9.284  0.0000E+00  0.3600E+02
     -9.181  0.0000E+00  0.3600E+02
     -9.078  0.0000E+00  0.3600E+02
     -8.975  0.0000E+00  0.3600E+02
     -8.872  0.0000E+00  0.3600E+02
     -8.769  0.0000E+00  0.3600E+02
     -8.666  0.0000E+00  0.3600E+02
     -8.563  0.0000E+00  0.3600E+02
     -8.460  0.0000E+00  0.3600E+02
     -8.357  0.0000E+00  0.3600E+02
     -8.254  0.0000E+00  0.3600E+02
     -8.151  0.2185E+00  0.3602E+02
     -8.048  0.0000E+00  0.3607E+02
     -7.945  0.0000E+00  0.3607E+02
     -7.842  0.3526E-04  0.3607E+02
     -7.739  0.1006E+02  0.3711E+02
     -7.636  0.0000E+00  0.3711E+02
     -7.532  0.0000E+00  0.3711E+02
     -7.429  0.3169E+01  0.3744E+02
     -7.326  0.8626E+01  0.3889E+02
     -7.223  0.8548E+02  0.4785E+02
     -7.120  0.2875E+01  0.5089E+02
     -7.017  0.9196E-02  0.5089E+02
     -6.914  0.4313E+01  0.5193E+02
     -6.811  0.0000E+00  0.5193E+02
     -6.708  0.0000E+00  0.5193E+02
     -6.605  0.0000E+00  0.5193E+02
     -6.502  0.7502E-14  0.5193E+02
     -6.399  0.7188E+00  0.5200E+02
     -6.296  0.0000E+00  0.5200E+02
     -6.193  0.0000E+00  0.5200E+02
     -6.090  0.0000E+00  0.5200E+02
     -5.987  0.0000E+00  0.5200E+02
     -5.884  0.0000E+00  0.5200E+02
     -5.781  0.0000E+00  0.5200E+02
     -5.678  0.0000E+00  0.5200E+02
     -5.575  0.0000E+00  0.5200E+02
     -5.471  0.0000E+00  0.5200E+02
     -5.368  0.0000E+00  0.5200E+02
     -5.265  0.0000E+00  0.5200E+02
     -5.162  0.0000E+00  0.5200E+02
     -5.059  0.0000E+00  0.5200E+02
     -4.956  0.0000E+00  0.5200E+02
     -4.853  0.0000E+00  0.5200E+02
     -4.750  0.0000E+00  0.5200E+02
     -4.647  0.0000E+00  0.5200E+02
     -4.544  0.0000E+00  0.5200E+02
     -4.441  0.0000E+00  0.5200E+02
     -4.338  0.0000E+00  0.5200E+02
     -4.235  0.0000E+00  0.5200E+02
     -4.132  0.0000E+00  0.5200E+02
     -4.029  0.0000E+00  0.5200E+02
     -3.926  0.0000E+00  0.5200E+02
     -3.823  0.0000E+00  0.5200E+02
     -3.720  0.0000E+00  0.5200E+02
     -3.617  0.0000E+00  0.5200E+02
     -3.514  0.0000E+00  0.5200E+02
     -3.410  0.0000E+00  0.5200E+02
     -3.307  0.9678E-03  0.5200E+02
     -3.204  0.7115E+01  0.5281E+02
     -3.101  0.9330E+01  0.5378E+02
     -2.998  0.7661E-14  0.5400E+02
     -2.895  0.1384E+02  0.5543E+02
     -2.792  0.5751E+01  0.5607E+02
     -2.689  0.2871E+01  0.5637E+02
     -2.586  0.7795E+01  0.5777E+02
     -2.483  0.0000E+00  0.5800E+02
     -2.380  0.0000E+00  0.5800E+02
     -2.277  0.1685E-05  0.5800E+02
     -2.174  0.5898E+01  0.5861E+02
     -2.071  0.1347E+02  0.6057E+02
     -1.968  0.2003E+02  0.6273E+02
     -1.865  0.1213E+01  0.6346E+02
     -1.762  0.2800E+01  0.6384E+02
     -1.659  0.2587E+02  0.6652E+02
     -1.556  0.7969E+01  0.6734E+02
     -1.453  0.1355E+02  0.6880E+02
     -1.349  0.3329E+02  0.7291E+02
     -1.246  0.1923E+02  0.7509E+02
     -1.143  0.2209E+02  0.7805E+02
     -1.040  0.2024E+02  0.8164E+02
     -0.937  0.1797E+02  0.8363E+02
     -0.834  0.7231E+01  0.8437E+02
     -0.731  0.8032E+00  0.8505E+02
     -0.628  0.1924E+00  0.8513E+02
     -0.525  0.5751E+01  0.8659E+02
     -0.422  0.6054E-02  0.8659E+02
     -0.319  0.5750E+01  0.8748E+02
     -0.216  0.0000E+00  0.8748E+02
     -0.113  0.0000E+00  0.8748E+02
     -0.010  0.5063E-01  0.8749E+02
      0.093  0.1438E+01  0.8793E+02
      0.196  0.0000E+00  0.8793E+02
      0.299  0.0000E+00  0.8793E+02
      0.402  0.0000E+00  0.8793E+02
      0.505  0.0000E+00  0.8793E+02
      0.608  0.7183E+00  0.8800E+02
      0.712  0.0000E+00  0.8800E+02
      0.815  0.0000E+00  0.8800E+02
      0.918  0.0000E+00  0.8800E+02
      1.021  0.0000E+00  0.8800E+02
      1.124  0.0000E+00  0.8800E+02
      1.227  0.0000E+00  0.8800E+02
      1.330  0.0000E+00  0.8800E+02
      1.433  0.0000E+00  0.8800E+02
      1.536  0.0000E+00  0.8800E+02
      1.639  0.0000E+00  0.8800E+02
      1.742  0.0000E+00  0.8800E+02
      1.845  0.0000E+00  0.8800E+02
      1.948  0.0000E+00  0.8800E+02
      2.051  0.0000E+00  0.8800E+02
      2.154  0.0000E+00  0.8800E+02
      2.257  0.0000E+00  0.8800E+02
      2.360  0.0000E+00  0.8800E+02
      2.463  0.0000E+00  0.8800E+02
      2.566  0.0000E+00  0.8800E+02
      2.669  0.5576E+00  0.8806E+02
      2.773  0.0000E+00  0.8807E+02
      2.876  0.0000E+00  0.8807E+02
      2.979  0.1891E+01  0.8827E+02
      3.082  0.0000E+00  0.8852E+02
      3.185  0.2703E-01  0.8852E+02
      3.288  0.3086E+01  0.8913E+02
      3.391  0.1392E-10  0.8941E+02
      3.494  0.5751E+01  0.9000E+02
      3.597  0.0000E+00  0.9000E+02
      3.700  0.1283E-03  0.9000E+02
      3.803  0.1052E+02  0.9108E+02
      3.906  0.0000E+00  0.9119E+02
      4.009  0.7558E+01  0.9196E+02
      4.112  0.1527E-08  0.9267E+02
      4.215  0.8626E+01  0.9356E+02
      4.318  0.1142E+01  0.9367E+02
      4.421  0.2875E+01  0.9400E+02
      4.524  0.0000E+00  0.9400E+02
      4.627  0.0000E+00  0.9400E+02
      4.730  0.6768E+00  0.9407E+02
      4.834  0.0000E+00  0.9407E+02
      4.937  0.0000E+00  0.9407E+02
      5.040  0.2097E+01  0.9429E+02
      5.143  0.0000E+00  0.9452E+02
      5.246  0.5785E+01  0.9511E+02
      5.349  0.8634E+01  0.9659E+02
      5.452  0.3980E-07  0.9689E+02
      5.555  0.1280E+02  0.9821E+02
      5.658  0.0000E+00  0.9830E+02
      5.761  0.2736E-06  0.9830E+02
      5.864  0.2994E+01  0.9860E+02
      5.967  0.1210E+02  0.9999E+02
      6.070  0.0000E+00  0.1008E+03
      6.173  0.1317E+01  0.1010E+03
      6.276  0.7860E+01  0.1022E+03
      6.379  0.5862E+01  0.1029E+03
      6.482  0.9380E+01  0.1042E+03
      6.585  0.3236E+01  0.1048E+03
      6.688  0.1147E+02  0.1063E+03
      6.791  0.9218E+01  0.1072E+03
      6.895  0.3797E+01  0.1084E+03
      6.998  0.1779E+02  0.1104E+03
      7.101  0.8626E+01  0.1114E+03
      7.204  0.3340E-06  0.1114E+03
      7.307  0.5751E+01  0.1120E+03
      7.410  0.0000E+00  0.1120E+03
      7.513  0.0000E+00  0.1120E+03
      7.616  0.0000E+00  0.1120E+03
      7.719  0.0000E+00  0.1120E+03
      7.822  0.0000E+00  0.1120E+03
      7.925  0.0000E+00  0.1120E+03
      8.028  0.0000E+00  0.1120E+03
      8.131  0.0000E+00  0.1120E+03
      8.234  0.0000E+00  0.1120E+03
      8.337  0.0000E+00  0.1120E+03
      8.440  0.0000E+00  0.1120E+03
      8.543  0.0000E+00  0.1120E+03
      8.646  0.0000E+00  0.1120E+03
      8.64636848    -22.26861012  301      0.63423652      1.00000000
    -22.269  0.0000E+00  0.0000E+00  0.0000E+00
    -22.166  0.0000E+00  0.0000E+00  0.0000E+00
    -22.063  0.0000E+00  0.0000E+00  0.0000E+00
    -21.959  0.0000E+00  0.0000E+00  0.0000E+00
    -21.856  0.0000E+00  0.0000E+00  0.0000E+00
    -21.753  0.0000E+00  0.0000E+00  0.0000E+00
    -21.650  0.0000E+00  0.0000E+00  0.0000E+00
    -21.547  0.0000E+00  0.0000E+00  0.0000E+00
    -21.444  0.0000E+00  0.0000E+00  0.0000E+00
    -21.341  0.0000E+00  0.0000E+00  0.0000E+00
    -21.238  0.0000E+00  0.0000E+00  0.0000E+00
    -21.135  0.0000E+00  0.0000E+00  0.0000E+00
    -21.032  0.0000E+00  0.0000E+00  0.0000E+00
    -20.929  0.0000E+00  0.0000E+00  0.0000E+00
    -20.826  0.1723E+02  0.1382E-06  0.1053E-04
    -20.723  0.0000E+00  0.0000E+00  0.0000E+00
    -20.620  0.0000E+00  0.0000E+00  0.0000E+00
    -20.517  0.0000E+00  0.0000E+00  0.0000E+00
    -20.414  0.0000E+00  0.0000E+00  0.0000E+00
    -20.311  0.0000E+00  0.0000E+00  0.0000E+00
    -20.208  0.0000E+00  0.0000E+00  0.0000E+00
    -20.105  0.0000E+00  0.0000E+00  0.0000E+00
    -20.002  0.0000E+00  0.0000E+00  0.0000E+00
    -19.898  0.0000E+00  0.0000E+00  0.0000E+00
    -19.795  0.0000E+00  0.0000E+00  0.0000E+00
    -19.692  0.0000E+00  0.0000E+00  0.0000E+00
    -19.589  0.0000E+00  0.0000E+00  0.0000E+00
    -19.486  0.0000E+00  0.0000E+00  0.0000E+00
    -19.383  0.0000E+00  0.0000E+00  0.0000E+00
    -19.280  0.0000E+00  0.0000E+00  0.0000E+00
    -19.177  0.0000E+00  0.0000E+00  0.0000E+00
    -19.074  0.0000E+00  0.0000E+00  0.0000E+00
    -18.971  0.0000E+00  0.0000E+00  0.0000E+00
    -18.868  0.0000E+00  0.0000E+00  0.0000E+00
    -18.765  0.0000E+00  0.0000E+00  0.0000E+00
    -18.662  0.0000E+00  0.0000E+00  0.0000E+00
    -18.559  0.0000E+00  0.0000E+00  0.0000E+00
    -18.456  0.0000E+00  0.0000E+00  0.0000E+00
    -18.353  0.0000E+00  0.0000E+00  0.0000E+00
    -18.250  0.0000E+00  0.0000E+00  0.0000E+00
    -18.147  0.0000E+00  0.0000E+00  0.0000E+00
    -18.044  0.0000E+00  0.0000E+00  0.0000E+00
    -17.941  0.0000E+00  0.0000E+00  0.0000E+00
    -17.837  0.0000E+00  0.0000E+00  0.0000E+00
    -17.734  0.0000E+00  0.0000E+00  0.0000E+00
    -17.631  0.0000E+00  0.0000E+00  0.0000E+00
    -17.528  0.0000E+00  0.0000E+00  0.0000E+00
    -17.425  0.0000E+00  0.0000E+00  0.0000E+00
    -17.322  0.0000E+00  0.0000E+00  0.0000E+00
    -17.219  0.0000E+00  0.0000E+00  0.0000E+00
    -17.116  0.0000E+00  0.0000E+00  0.0000E+00
    -17.013  0.0000E+00  0.0000E+00  0.0000E+00
    -16.910  0.0000E+00  0.0000E+00  0.0000E+00
    -16.807  0.0000E+00  0.0000E+00  0.0000E+00
    -16.704  0.0000E+00  0.0000E+00  0.0000E+00
    -16.601  0.0000E+00  0.0000E+00  0.0000E+00
    -16.498  0.0000E+00  0.0000E+00  0.0000E+00
    -16.395  0.1517E-04  0.6512E-05  0.1174E-05
    -16.292  0.1712E-04  0.5676E-04  0.6574E-05
    -16.189  0.3092E-04  0.1863E-04  0.2030E-05
    -16.086  0.0000E+00  0.0000E+00  0.0000E+00
    -15.983  0.0000E+00  0.0000E+00  0.0000E+00
    -15.880  0.0000E+00  0.0000E+00  0.0000E+00
    -15.776  0.0000E+00  0.0000E+00  0.0000E+00
    -15.673  0.0000E+00  0.0000E+00  0.0000E+00
    -15.570  0.0000E+00  0.0000E+00  0.0000E+00
    -15.467  0.0000E+00  0.0000E+00  0.0000E+00
    -15.364  0.0000E+00  0.0000E+00  0.0000E+00
    -15.261  0.0000E+00  0.0000E+00  0.0000E+00
    -15.158  0.0000E+00  0.0000E+00  0.0000E+00
    -15.055  0.0000E+00  0.0000E+00  0.0000E+00
    -14.952  0.0000E+00  0.0000E+00  0.0000E+00
    -14.849  0.0000E+00  0.0000E+00  0.0000E+00
    -14.746  0.0000E+00  0.0000E+00  0.0000E+00
    -14.643  0.0000E+00  0.0000E+00  0.0000E+00
    -14.540  0.0000E+00  0.0000E+00  0.0000E+00
    -14.437  0.0000E+00  0.0000E+00  0.0000E+00
    -14.334  0.7001E-04  0.4301E-16  0.3686E-06
    -14.231  0.2343E-02  0.1109E-02  0.3679E-04
    -14.128  0.7532E-03  0.1764E-02  0.5427E-04
    -14.025  0.2715E-03  0.3019E-02  0.1757E-03
    -13.922  0.1792E-02  0.4475E-02  0.3667E-03
    -13.819  0.3188E-03  0.1154E-02  0.5829E-04
    -13.715  0.9770E-03  0.2647E-02  0.3241E-03
    -13.612  0.2515E-05  0.1032E-03  0.3736E-04
    -13.509  0.0000E+00  0.0000E+00  0.0000E+00
    -13.406  0.0000E+00  0.0000E+00  0.0000E+00
    -13.303  0.0000E+00  0.0000E+00  0.0000E+00
    -13.200  0.0000E+00  0.0000E+00  0.0000E+00
    -13.097  0.0000E+00  0.0000E+00  0.0000E+00
    -12.994  0.0000E+00  0.0000E+00  0.0000E+00
    -12.891  0.0000E+00  0.0000E+00  0.0000E+00
    -12.788  0.0000E+00  0.0000E+00  0.0000E+00
    -12.685  0.0000E+00  0.0000E+00  0.0000E+00
    -12.582  0.0000E+00  0.0000E+00  0.0000E+00
    -12.479  0.0000E+00  0.0000E+00  0.0000E+00
    -12.376  0.0000E+00  0.0000E+00  0.0000E+00
    -12.273  0.0000E+00  0.0000E+00  0.0000E+00
    -12.170  0.0000E+00  0.0000E+00  0.0000E+00
    -12.067  0.0000E+00  0.0000E+00  0.0000E+00
    -11.964  0.0000E+00  0.0000E+00  0.0000E+00
    -11.861  0.0000E+00  0.0000E+00  0.0000E+00
    -11.758  0.0000E+00  0.0000E+00  0.0000E+00
    -11.654  0.0000E+00  0.0000E+00  0.0000E+00
    -11.551  0.0000E+00  0.0000E+00  0.0000E+00
    -11.448  0.0000E+00  0.0000E+00  0.0000E+00
    -11.345  0.0000E+00  0.0000E+00  0.0000E+00
    -11.242  0.0000E+00  0.0000E+00  0.0000E+00
    -11.139  0.0000E+00  0.0000E+00  0.0000E+00
    -11.036  0.0000E+00  0.0000E+00  0.0000E+00
    -10.933  0.0000E+00  0.0000E+00  0.0000E+00
    -10.830  0.0000E+00  0.0000E+00  0.0000E+00
    -10.727  0.0000E+00  0.0000E+00  0.0000E+00
    -10.624  0.0000E+00  0.0000E+00  0.0000E+00
    -10.521  0.0000E+00  0.0000E+00  0.0000E+00
    -10.418  0.0000E+00  0.0000E+00  0.0000E+00
    -10.315  0.0000E+00  0.0000E+00  0.0000E+00
    -10.212  0.0000E+00  0.0000E+00  0.0000E+00
    -10.109  0.0000E+00  0.0000E+00  0.0000E+00
    -10.006  0.0000E+00  0.0000E+00  0.0000E+00
     -9.903  0.0000E+00  0.0000E+00  0.0000E+00
     -9.800  0.0000E+00  0.0000E+00  0.0000E+00
     -9.697  0.0000E+00  0.0000E+00  0.0000E+00
     -9.593  0.0000E+00  0.0000E+00  0.0000E+00
     -9.490  0.0000E+00  0.0000E+00  0.0000E+00
     -9.387  0.0000E+00  0.0000E+00  0.0000E+00
     -9.284  0.0000E+00  0.0000E+00  0.0000E+00
     -9.181  0.0000E+00  0.0000E+00  0.0000E+00
     -9.078  0.0000E+00  0.0000E+00  0.0000E+00
     -8.975  0.0000E+00  0.0000E+00  0.0000E+00
     -8.872  0.0000E+00  0.0000E+00  0.0000E+00
     -8.769  0.0000E+00  0.0000E+00  0.0000E+00
     -8.666  0.0000E+00  0.0000E+00  0.0000E+00
     -8.563  0.0000E+00  0.0000E+00  0.0000E+00
     -8.460  0.0000E+00  0.0000E+00  0.0000E+00
     -8.357  0.0000E+00  0.0000E+00  0.0000E+00
     -8.254  0.0000E+00  0.0000E+00  0.0000E+00
     -8.151  0.4371E-16  0.2773E-11  0.2939E-15
     -8.048  0.0000E+00  0.0000E+00  0.0000E+00
     -7.945  0.0000E+00  0.0000E+00  0.0000E+00
     -7.842  0.2702E-10  0.7021E-07  0.8334E-10
     -7.739  0.4406E-05  0.2520E-01  0.2036E-04
     -7.636  0.0000E+00  0.0000E+00  0.0000E+00
     -7.532  0.0000E+00  0.0000E+00  0.0000E+00
     -7.429  0.2451E-05  0.1493E+00  0.1179E-04
     -7.326  0.7667E-05  0.8278E-01  0.7195E-04
     -7.223  0.2524E-04  0.3266E+02  0.4600E-04
     -7.120  0.2072E-11  0.1017E+01  0.3166E-05
     -7.017  0.1490E-06  0.4990E-04  0.8754E-07
     -6.914  0.4218E-04  0.2792E-01  0.4632E-04
     -6.811  0.0000E+00  0.0000E+00  0.0000E+00
     -6.708  0.0000E+00  0.0000E+00  0.0000E+00
     -6.605  0.0000E+00  0.0000E+00  0.0000E+00
     -6.502  0.2139E-18  0.7079E-26  0.6822E-19
     -6.399  0.2050E-04  0.6783E-12  0.6537E-05
     -6.296  0.0000E+00  0.0000E+00  0.0000E+00
     -6.193  0.0000E+00  0.0000E+00  0.0000E+00
     -6.090  0.0000E+00  0.0000E+00  0.0000E+00
     -5.987  0.0000E+00  0.0000E+00  0.0000E+00
     -5.884  0.0000E+00  0.0000E+00  0.0000E+00
     -5.781  0.0000E+00  0.0000E+00  0.0000E+00
     -5.678  0.0000E+00  0.0000E+00  0.0000E+00
     -5.575  0.0000E+00  0.0000E+00  0.0000E+00
     -5.471  0.0000E+00  0.0000E+00  0.0000E+00
     -5.368  0.0000E+00  0.0000E+00  0.0000E+00
     -5.265  0.0000E+00  0.0000E+00  0.0000E+00
     -5.162  0.0000E+00  0.0000E+00  0.0000E+00
     -5.059  0.0000E+00  0.0000E+00  0.0000E+00
     -4.956  0.0000E+00  0.0000E+00  0.0000E+00
     -4.853  0.0000E+00  0.0000E+00  0.0000E+00
     -4.750  0.0000E+00  0.0000E+00  0.0000E+00
     -4.647  0.0000E+00  0.0000E+00  0.0000E+00
     -4.544  0.0000E+00  0.0000E+00  0.0000E+00
     -4.441  0.0000E+00  0.0000E+00  0.0000E+00
     -4.338  0.0000E+00  0.0000E+00  0.0000E+00
     -4.235  0.0000E+00  0.0000E+00  0.0000E+00
     -4.132  0.0000E+00  0.0000E+00  0.0000E+00
     -4.029  0.0000E+00  0.0000E+00  0.0000E+00
     -3.926  0.0000E+00  0.0000E+00  0.0000E+00
     -3.823  0.0000E+00  0.0000E+00  0.0000E+00
     -3.720  0.0000E+00  0.0000E+00  0.0000E+00
     -3.617  0.0000E+00  0.0000E+00  0.0000E+00
     -3.514  0.0000E+00  0.0000E+00  0.0000E+00
     -3.410  0.0000E+00  0.0000E+00  0.0000E+00
     -3.307  0.1420E-17  0.5623E-05  0.1409E-07
     -3.204  0.8074E-07  0.1469E-01  0.1172E-02
     -3.101  0.6900E-12  0.6238E-02  0.1375E-02
     -2.998  0.1127E-18  0.2533E-16  0.7289E-18
     -2.895  0.2336E-03  0.4113E-01  0.1541E-02
     -2.792  0.3220E-11  0.1141E-02  0.1281E-02
     -2.689  0.7025E-12  0.3566E-02  0.6731E-03
     -2.586  0.8211E-03  0.6251E-02  0.1089E-02
     -2.483  0.0000E+00  0.0000E+00  0.0000E+00
     -2.380  0.0000E+00  0.0000E+00  0.0000E+00
     -2.277  0.4269E-09  0.4936E-08  0.5624E-09
     -2.174  0.1463E-02  0.1728E-01  0.1924E-02
     -2.071  0.1161E-01  0.2810E-01  0.4154E-02
     -1.968  0.2146E-01  0.5104E-01  0.5805E-02
     -1.865  0.3188E-12  0.1893E-01  0.1712E-03
     -1.762  0.1643E-02  0.4523E-02  0.2459E-02
     -1.659  0.1953E-02  0.1977E+00  0.1765E-01
     -1.556  0.4630E-03  0.6795E-01  0.5105E-02
     -1.453  0.1181E-02  0.6555E-01  0.1233E-01
     -1.349  0.1079E-01  0.7318E-01  0.1758E-01
     -1.246  0.3086E-02  0.4230E-01  0.7316E-02
     -1.143  0.5300E-02  0.2696E-01  0.1347E-01
     -1.040  0.7947E-03  0.5579E-01  0.7530E-02
     -0.937  0.7856E-03  0.3467E-01  0.1104E-01
     -0.834  0.1502E-03  0.7216E-02  0.4783E-02
     -0.731  0.1647E-04  0.3285E-02  0.1729E-03
     -0.628  0.1273E-04  0.2551E-03  0.2140E-04
     -0.525  0.9960E-11  0.4697E-02  0.4807E-03
     -0.422  0.6577E-14  0.1581E-05  0.1193E-06
     -0.319  0.5357E-04  0.1787E-02  0.2087E-03
     -0.216  0.0000E+00  0.0000E+00  0.0000E+00
     -0.113  0.0000E+00  0.0000E+00  0.0000E+00
     -0.010  0.4337E-13  0.1127E-04  0.1065E-04
      0.093  0.5897E-12  0.3071E-11  0.2650E-03
      0.196  0.0000E+00  0.0000E+00  0.0000E+00
      0.299  0.0000E+00  0.0000E+00  0.0000E+00
      0.402  0.0000E+00  0.0000E+00  0.0000E+00
      0.505  0.0000E+00  0.0000E+00  0.0000E+00
      0.608  0.3379E-14  0.3386E-11  0.1265E-12
      0.712  0.0000E+00  0.0000E+00  0.0000E+00
      0.815  0.0000E+00  0.0000E+00  0.0000E+00
      0.918  0.0000E+00  0.0000E+00  0.0000E+00
      1.021  0.0000E+00  0.0000E+00  0.0000E+00
      1.124  0.0000E+00  0.0000E+00  0.0000E+00
      1.227  0.0000E+00  0.0000E+00  0.0000E+00
      1.330  0.0000E+00  0.0000E+00  0.0000E+00
      1.433  0.0000E+00  0.0000E+00  0.0000E+00
      1.536  0.0000E+00  0.0000E+00  0.0000E+00
      1.639  0.0000E+00  0.0000E+00  0.0000E+00
      1.742  0.0000E+00  0.0000E+00  0.0000E+00
      1.845  0.0000E+00  0.0000E+00  0.0000E+00
      1.948  0.0000E+00  0.0000E+00  0.0000E+00
      2.051  0.0000E+00  0.0000E+00  0.0000E+00
      2.154  0.0000E+00  0.0000E+00  0.0000E+00
      2.257  0.0000E+00  0.0000E+00  0.0000E+00
      2.360  0.0000E+00  0.0000E+00  0.0000E+00
      2.463  0.0000E+00  0.0000E+00  0.0000E+00
      2.566  0.0000E+00  0.0000E+00  0.0000E+00
      2.669  0.8479E-12  0.2475E-12  0.6629E-03
      2.773  0.0000E+00  0.0000E+00  0.0000E+00
      2.876  0.0000E+00  0.0000E+00  0.0000E+00
      2.979  0.2211E-10  0.5454E-04  0.2804E-02
      3.082  0.0000E+00  0.0000E+00  0.0000E+00
      3.185  0.8772E-05  0.5092E-05  0.2943E-04
      3.288  0.7928E-05  0.3219E-03  0.1254E-02
      3.391  0.1180E-14  0.1448E-13  0.4555E-14
      3.494  0.4875E-03  0.5984E-02  0.1882E-02
      3.597  0.0000E+00  0.0000E+00  0.0000E+00
      3.700  0.5228E-10  0.2101E-07  0.1817E-06
      3.803  0.1229E-02  0.2114E-02  0.1461E-01
      3.906  0.0000E+00  0.0000E+00  0.0000E+00
      4.009  0.3807E-03  0.3632E-02  0.1535E-01
      4.112  0.3345E-13  0.7875E-12  0.8371E-13
      4.215  0.1648E-02  0.4417E-02  0.3526E-02
      4.318  0.9133E-04  0.2947E-03  0.1061E-02
      4.421  0.4426E-03  0.3019E-02  0.1883E-03
      4.524  0.0000E+00  0.0000E+00  0.0000E+00
      4.627  0.0000E+00  0.0000E+00  0.0000E+00
      4.730  0.1506E-01  0.1934E-11  0.2141E-02
      4.834  0.0000E+00  0.0000E+00  0.0000E+00
      4.937  0.0000E+00  0.0000E+00  0.0000E+00
      5.040  0.3267E-10  0.3462E-06  0.9623E-02
      5.143  0.0000E+00  0.0000E+00  0.0000E+00
      5.246  0.6328E-01  0.2389E-01  0.2243E-01
      5.349  0.3032E-02  0.1156E-01  0.1513E-01
      5.452  0.1005E-10  0.1632E-10  0.2341E-10
      5.555  0.2387E-01  0.5953E-02  0.4661E-01
      5.658  0.0000E+00  0.0000E+00  0.0000E+00
      5.761  0.4791E-08  0.2017E-08  0.2056E-08
      5.864  0.5068E-01  0.2146E-01  0.2796E-01
      5.967  0.4547E-01  0.3281E-02  0.6723E-01
      6.070  0.0000E+00  0.0000E+00  0.0000E+00
      6.173  0.2251E-02  0.6016E-03  0.8814E-02
      6.276  0.7900E-03  0.2951E-01  0.1663E+00
      6.379  0.5573E-01  0.4019E-01  0.1863E+00
      6.482  0.6035E-01  0.2655E-01  0.4671E+00
      6.585  0.4767E-01  0.6595E-03  0.1193E+00
      6.688  0.3924E-01  0.2477E-01  0.6786E+00
      6.791  0.1421E-02  0.1122E+00  0.3663E+00
      6.895  0.1926E-05  0.9365E-02  0.2636E+00
      6.998  0.4780E-02  0.5657E-01  0.1303E+01
      7.101  0.8749E-02  0.4006E-01  0.5854E+00
      7.204  0.8871E-09  0.5057E-09  0.2337E-07
      7.307  0.1527E-01  0.8707E-02  0.4025E+00
      7.410  0.0000E+00  0.0000E+00  0.0000E+00
      7.513  0.0000E+00  0.0000E+00  0.0000E+00
      7.616  0.0000E+00  0.0000E+00  0.0000E+00
      7.719  0.0000E+00  0.0000E+00  0.0000E+00
      7.822  0.0000E+00  0.0000E+00  0.0000E+00
      7.925  0.0000E+00  0.0000E+00  0.0000E+00
      8.028  0.0000E+00  0.0000E+00  0.0000E+00
      8.131  0.0000E+00  0.0000E+00  0.0000E+00
      8.234  0.0000E+00  0.0000E+00  0.0000E+00
      8.337  0.0000E+00  0.0000E+00  0.0000E+00
      8.440  0.0000E+00  0.0000E+00  0.0000E+00
      8.543  0.0000E+00  0.0000E+00  0.0000E+00
      8.646  0.0000E+00  0.0000E+00  0.0000E+00
      8.64636848    -22.26861012  301      0.63423652      1.00000000
    -22.269  0.0000E+00  0.0000E+00  0.0000E+00
    -22.166  0.0000E+00  0.0000E+00  0.0000E+00
    -22.063  0.0000E+00  0.0000E+00  0.0000E+00
    -21.959  0.0000E+00  0.0000E+00  0.0000E+00
    -21.856  0.0000E+00  0.0000E+00  0.0000E+00
    -21.753  0.0000E+00  0.0000E+00  0.0000E+00
    -21.650  0.0000E+00  0.0000E+00  0.0000E+00
    -21.547  0.0000E+00  0.0000E+00  0.0000E+00
    -21.444  0.0000E+00  0.0000E+00  0.0000E+00
    -21.341  0.0000E+00  0.0000E+00  0.0000E+00
    -21.238  0.0000E+00  0.0000E+00  0.0000E+00
    -21.135  0.0000E+00  0.0000E+00  0.0000E+00
    -21.032  0.0000E+00  0.0000E+00  0.0000E+00
    -20.929  0.0000E+00  0.0000E+00  0.0000E+00
    -20.826  0.1723E+02  0.1382E-06  0.1053E-04
    -20.723  0.0000E+00  0.0000E+00  0.0000E+00
    -20.620  0.0000E+00  0.0000E+00  0.0000E+00
    -20.517  0.0000E+00  0.0000E+00  0.0000E+00
    -20.414  0.0000E+00  0.0000E+00  0.0000E+00
    -20.311  0.0000E+00  0.0000E+00  0.0000E+00
    -20.208  0.0000E+00  0.0000E+00  0.0000E+00
    -20.105  0.0000E+00  0.0000E+00  0.0000E+00
    -20.002  0.0000E+00  0.0000E+00  0.0000E+00
    -19.898  0.0000E+00  0.0000E+00  0.0000E+00
    -19.795  0.0000E+00  0.0000E+00  0.0000E+00
    -19.692  0.0000E+00  0.0000E+00  0.0000E+00
    -19.589  0.0000E+00  0.0000E+00  0.0000E+00
    -19.486  0.0000E+00  0.0000E+00  0.0000E+00
    -19.383  0.0000E+00  0.0000E+00  0.0000E+00
    -19.280  0.0000E+00  0.0000E+00  0.0000E+00
    -19.177  0.0000E+00  0.0000E+00  0.0000E+00
    -19.074  0.0000E+00  0.0000E+00  0.0000E+00
    -18.971  0.0000E+00  0.0000E+00  0.0000E+00
    -18.868  0.0000E+00  0.0000E+00  0.0000E+00
    -18.765  0.0000E+00  0.0000E+00  0.0000E+00
    -18.662  0.0000E+00  0.0000E+00  0.0000E+00
    -18.559  0.0000E+00  0.0000E+00  0.0000E+00
    -18.456  0.0000E+00  0.0000E+00  0.0000E+00
    -18.353  0.0000E+00  0.0000E+00  0.0000E+00
    -18.250  0.0000E+00  0.0000E+00  0.0000E+00
    -18.147  0.0000E+00  0.0000E+00  0.0000E+00
    -18.044  0.0000E+00  0.0000E+00  0.0000E+00
    -17.941  0.0000E+00  0.0000E+00  0.0000E+00
    -17.837  0.0000E+00  0.0000E+00  0.0000E+00
    -17.734  0.0000E+00  0.0000E+00  0.0000E+00
    -17.631  0.0000E+00  0.0000E+00  0.0000E+00
    -17.528  0.0000E+00  0.0000E+00  0.0000E+00
    -17.425  0.0000E+00  0.0000E+00  0.0000E+00
    -17.322  0.0000E+00  0.0000E+00  0.0000E+00
    -17.219  0.0000E+00  0.0000E+00  0.0000E+00
    -17.116  0.0000E+00  0.0000E+00  0.0000E+00
    -17.013  0.0000E+00  0.0000E+00  0.0000E+00
    -16.910  0.0000E+00  0.0000E+00  0.0000E+00
    -16.807  0.0000E+00  0.0000E+00  0.0000E+00
    -16.704  0.0000E+00  0.0000E+00  0.0000E+00
    -16.601  0.0000E+00  0.0000E+00  0.0000E+00
    -16.498  0.0000E+00  0.0000E+00  0.0000E+00
    -16.395  0.1517E-04  0.6512E-05  0.1174E-05
    -16.292  0.1712E-04  0.5676E-04  0.6574E-05
    -16.189  0.3092E-04  0.1863E-04  0.2030E-05
    -16.086  0.0000E+00  0.0000E+00  0.0000E+00
    -15.983  0.0000E+00  0.0000E+00  0.0000E+00
    -15.880  0.0000E+00  0.0000E+00  0.0000E+00
    -15.776  0.0000E+00  0.0000E+00  0.0000E+00
    -15.673  0.0000E+00  0.0000E+00  0.0000E+00
    -15.570  0.0000E+00  0.0000E+00  0.0000E+00
    -15.467  0.0000E+00  0.0000E+00  0.0000E+00
    -15.364  0.0000E+00  0.0000E+00  0.0000E+00
    -15.261  0.0000E+00  0.0000E+00  0.0000E+00
    -15.158  0.0000E+00  0.0000E+00  0.0000E+00
    -15.055  0.0000E+00  0.0000E+00  0.0000E+00
    -14.952  0.0000E+00  0.0000E+00  0.0000E+00
    -14.849  0.0000E+00  0.0000E+00  0.0000E+00
    -14.746  0.0000E+00  0.0000E+00  0.0000E+00
    -14.643  0.0000E+00  0.0000E+00  0.0000E+00
    -14.540  0.0000E+00  0.0000E+00  0.0000E+00
    -14.437  0.0000E+00  0.0000E+00  0.0000E+00
    -14.334  0.7001E-04  0.3588E-16  0.3686E-06
    -14.231  0.2343E-02  0.1109E-02  0.3679E-04
    -14.128  0.7532E-03  0.1764E-02  0.5427E-04
    -14.025  0.2715E-03  0.3019E-02  0.1757E-03
    -13.922  0.1792E-02  0.4475E-02  0.3667E-03
    -13.819  0.3188E-03  0.1154E-02  0.5829E-04
    -13.715  0.9770E-03  0.2647E-02  0.3241E-03
    -13.612  0.2515E-05  0.1032E-03  0.3736E-04
    -13.509  0.0000E+00  0.0000E+00  0.0000E+00
    -13.406  0.0000E+00  0.0000E+00  0.0000E+00
    -13.303  0.0000E+00  0.0000E+00  0.0000E+00
    -13.200  0.0000E+00  0.0000E+00  0.0000E+00
    -13.097  0.0000E+00  0.0000E+00  0.0000E+00