 vasp.5.4.4.18Apr17-6-g9f103f2a35 (build Jun 22 2020 09:27:21) complex           
 executed on tx2_gcc-7.3_libsci-1 date 2021.09.20  15:14:56
 running on   64 total cores
 distrk:  each k-point on   64 cores,    1 groups
 distr:  one band on NCORES_PER_BAND=   8 cores,    8 groups


--------------------------------------------------------------------------------------------------------


 INCAR:
 POTCAR:    PAW_PBE Cs_sv 08Apr2002               
 POTCAR:    PAW_PBE Pb_d 06Sep2000                
 POTCAR:    PAW_PBE Br 06Sep2000                  
 POTCAR:    PAW_PBE Cs_sv 08Apr2002               
   VRHFIN =Cs: 5s5p6s                                                           
   LEXCH  = PE                                                                  
   EATOM  =   555.6835 eV,   40.8416 Ry                                         
                                                                                
   TITEL  = PAW_PBE Cs_sv 08Apr2002                                             
   LULTRA =        F    use ultrasoft PP ?                                      
   IUNSCR =        1    unscreen: 0-lin 1-nonlin 2-no                           
   RPACOR =    2.200    partial core radius                                     
   POMASS =  132.900; ZVAL   =    9.000    mass and valenz                      
   RCORE  =    2.500    outmost cutoff radius                                   
   RWIGS  =    2.500; RWIGS  =    1.323    wigner-seitz radius (au A)           
   ENMAX  =  220.318; ENMIN  =  165.238 eV                                      
   RCLOC  =    2.207    cutoff for local pot                                    
   LCOR   =        T    correct aug charges                                     
   LPAW   =        T    paw PP                                                  
   EAUG   =  407.933                                                            
   DEXC   =    0.000                                                            
   RMAX   =    2.554    core radius for proj-oper                               
   RAUG   =    1.300    factor for augmentation sphere                          
   RDEP   =    2.590    radius for radial grids                                 
   RDEPT  =    2.117    core radius for aug-charge                              
                                                                                
   Atomic configuration                                                         
   13 entries                                                                   
     n  l   j            E        occ.                                          
     1  0  0.50    -35790.1377   2.0000                                         
     2  0  0.50     -5613.6201   2.0000                                         
     2  1  1.50     -5035.0101   6.0000                                         
     3  0  0.50     -1167.0767   2.0000                                         
     3  1  1.50      -980.9754   6.0000                                         
     3  2  2.50      -708.0703  10.0000                                         
     4  0  0.50      -220.2386   2.0000                                         
     4  1  1.50      -160.7596   6.0000                                         
     4  2  2.50       -74.2354  10.0000                                         
     5  0  0.50       -26.7287   2.0000                                         
     6  0  0.50        -2.0862   1.0000                                         
     5  1  1.50       -13.5159   6.0000                                         
     5  2  2.50        -0.4136   0.0000                                         
   Description                                                                  
     l       E           TYP  RCUT    TYP  RCUT                                 
     0    -26.7287425     23  1.900                                             
     0     -2.0862306     23  1.900                                             
     1    -13.5158719     23  2.500                                             
     1     -2.7211652     23  2.500                                             
     2     -0.4136171     23  2.500                                             
  local pseudopotential read in
  partial core-charges read in
  partial kinetic energy density read in
  atomic valenz-charges read in
  non local Contribution for L=           0  read in
    real space projection operators read in
  non local Contribution for L=           0  read in
    real space projection operators read in
  non local Contribution for L=           1  read in
    real space projection operators read in
  non local Contribution for L=           1  read in
    real space projection operators read in
  non local Contribution for L=           2  read in
    real space projection operators read in
    PAW grid and wavefunctions read in

   number of l-projection  operators is LMAX  =           5
   number of lm-projection operators is LMMAX =          13

 POTCAR:    PAW_PBE Pb_d 06Sep2000                
   VRHFIN =Pb:                                                                  
   LEXCH  = PE                                                                  
   EATOM  =  1661.6185 eV,  122.1255 Ry                                         
                                                                                
   TITEL  = PAW_PBE Pb_d 06Sep2000                                              
   LULTRA =        F    use ultrasoft PP ?                                      
   IUNSCR =        1    unscreen: 0-lin 1-nonlin 2-no                           
   RPACOR =    2.200    partial core radius                                     
   POMASS =  207.200; ZVAL   =   14.000    mass and valenz                      
   RCORE  =    2.500    outmost cutoff radius                                   
   RWIGS  =    3.260; RWIGS  =    1.725    wigner-seitz radius (au A)           
   ENMAX  =  237.835; ENMIN  =  178.376 eV                                      
   ICORE  =        3    local potential                                         
   LCOR   =        T    correct aug charges                                     
   LPAW   =        T    paw PP                                                  
   EAUG   =  391.914                                                            
   DEXC   =    0.000                                                            
   RMAX   =    2.565    core radius for proj-oper                               
   RAUG   =    1.300    factor for augmentation sphere                          
   RDEP   =    2.643    radius for radial grids                                 
   RDEPT  =    2.092    core radius for aug-charge                              
                                                                                
   Atomic configuration                                                         
   16 entries                                                                   
     n  l   j            E        occ.                                          
     1  0  0.50    -88091.8466   2.0000                                         
     2  0  0.50    -15753.4197   2.0000                                         
     2  1  1.50    -13508.1797   6.0000                                         
     3  0  0.50     -3781.7194   2.0000                                         
     3  1  1.50     -3138.2529   6.0000                                         
     3  2  2.50     -2483.2977  10.0000                                         
     4  0  0.50      -856.2895   2.0000                                         
     4  1  1.50      -645.4942   6.0000                                         
     4  2  2.50      -401.8768  10.0000                                         
     4  3  3.50      -132.9059  14.0000                                         
     5  0  0.50      -144.0950   2.0000                                         
     5  1  1.50       -85.7879   6.0000                                         
     5  2  2.50       -21.1769  10.0000                                         
     6  0  0.50       -12.0372   2.0000                                         
     6  1  1.50        -3.4971   2.0000                                         
     5  3  2.50        -2.7212   0.0000                                         
   Description                                                                  
     l       E           TYP  RCUT    TYP  RCUT                                 
     2    -21.1768523     23  2.500                                             
     2      1.3605826     23  2.500                                             
     0    -12.0371562     23  2.500                                             
     0     13.6058260     23  2.500                                             
     1     -3.4971339     23  2.500                                             
     1     13.6058260     23  2.500                                             
     3     -1.3605826      7  2.500                                             
  local pseudopotential read in
  partial core-charges read in
  partial kinetic energy density read in
  atomic valenz-charges read in
  non local Contribution for L=           2  read in
    real space projection operators read in
  non local Contribution for L=           2  read in
    real space projection operators read in
  non local Contribution for L=           0  read in
    real space projection operators read in
  non local Contribution for L=           0  read in
    real space projection operators read in
  non local Contribution for L=           1  read in
    real space projection operators read in
  non local Contribution for L=           1  read in
    real space projection operators read in
    PAW grid and wavefunctions read in

   number of l-projection  operators is LMAX  =           6
   number of lm-projection operators is LMMAX =          18

 POTCAR:    PAW_PBE Br 06Sep2000                  
   VRHFIN =Br: s2p5                                                             
   LEXCH  = PE                                                                  
   EATOM  =   368.4488 eV,   27.0802 Ry                                         
                                                                                
   TITEL  = PAW_PBE Br 06Sep2000                                                
   LULTRA =        F    use ultrasoft PP ?                                      
   IUNSCR =        1    unscreen: 0-lin 1-nonlin 2-no                           
   RPACOR =    1.900    partial core radius                                     
   POMASS =   79.904; ZVAL   =    7.000    mass and valenz                      
   RCORE  =    2.100    outmost cutoff radius                                   
   RWIGS  =    2.200; RWIGS  =    1.164    wigner-seitz radius (au A)           
   ENMAX  =  216.285; ENMIN  =  162.214 eV                                      
   ICORE  =        3    local potential                                         
   LCOR   =        T    correct aug charges                                     
   LPAW   =        T    paw PP                                                  
   EAUG   =  503.852                                                            
   DEXC   =    0.000                                                            
   RMAX   =    2.139    core radius for proj-oper                               
   RAUG   =    1.300    factor for augmentation sphere                          
   RDEP   =    2.186    radius for radial grids                                 
   RDEPT  =    1.890    core radius for aug-charge                              
                                                                                
   Atomic configuration                                                         
   10 entries                                                                   
     n  l   j            E        occ.                                          
     1  0  0.50    -13316.2796   2.0000                                         
     2  0  0.50     -1732.8239   2.0000                                         
     2  1  1.50     -1528.2193   6.0000                                         
     3  0  0.50      -238.0460   2.0000                                         
     3  1  1.50      -173.4609   6.0000                                         
     3  2  2.50       -66.7132  10.0000                                         
     4  0  0.50       -20.1334   2.0000                                         
     4  1  0.50        -7.8591   5.0000                                         
     4  2  2.50        -8.1635   0.0000                                         
     4  3  2.50        -8.1635   0.0000                                         
   Description                                                                  
     l       E           TYP  RCUT    TYP  RCUT                                 
     0    -20.1333652     23  2.100                                             
     0    -21.4939478     23  2.100                                             
     1     -7.8591052     23  2.100                                             
     1     -3.1608434     23  2.100                                             
     2     -8.1634956     23  2.100                                             
     3     -1.3605826      7  2.100                                             
  local pseudopotential read in
  partial core-charges read in
  partial kinetic energy density read in
  atomic valenz-charges read in
  non local Contribution for L=           0  read in
    real space projection operators read in
  non local Contribution for L=           0  read in
    real space projection operators read in
  non local Contribution for L=           1  read in
    real space projection operators read in
  non local Contribution for L=           1  read in
    real space projection operators read in
  non local Contribution for L=           2  read in
    real space projection operators read in
    PAW grid and wavefunctions read in

   number of l-projection  operators is LMAX  =           5
   number of lm-projection operators is LMMAX =          13

 Optimization of the real space projectors (new method)

 maximal supplied QI-value         = 15.12
 optimisation between [QCUT,QGAM] = [  8.77, 17.69] = [ 21.53, 87.61] Ry 
 Optimized for a Real-space Cutoff    1.85 Angstroem

   l    n(q)    QCUT    max X(q) W(low)/X(q) W(high)/X(q)  e(spline) 
   0     10     8.768    25.322    0.81E-04    0.51E-04    0.48E-06
   0     10     8.768    99.187    0.78E-04    0.50E-04    0.47E-06
   1      9     8.768    11.761    0.21E-03    0.20E-03    0.37E-06
   1      9     8.768     8.275    0.24E-03    0.22E-03    0.41E-06
   2      9     8.768     3.829    0.23E-04    0.15E-03    0.18E-06
 Optimization of the real space projectors (new method)

 maximal supplied QI-value         = 15.12
 optimisation between [QCUT,QGAM] = [  8.77, 17.69] = [ 21.53, 87.61] Ry 
 Optimized for a Real-space Cutoff    1.59 Angstroem

   l    n(q)    QCUT    max X(q) W(low)/X(q) W(high)/X(q)  e(spline) 
   2      7     8.768     3.846    0.48E-04    0.11E-03    0.11E-06
   2      7     8.768     8.593    0.20E-03    0.22E-04    0.24E-06
   0      8     8.768    20.082    0.68E-04    0.88E-04    0.41E-07
   0      8     8.768     8.597    0.89E-04    0.13E-03    0.59E-07
   1      8     8.768    33.223    0.15E-03    0.53E-04    0.87E-07
   1      8     8.768    15.899    0.14E-03    0.44E-04    0.78E-07
 Optimization of the real space projectors (new method)

 maximal supplied QI-value         = 17.95
 optimisation between [QCUT,QGAM] = [  8.80, 17.59] = [ 21.67, 86.68] Ry 
 Optimized for a Real-space Cutoff    1.59 Angstroem

   l    n(q)    QCUT    max X(q) W(low)/X(q) W(high)/X(q)  e(spline) 
   0      8     8.797   175.082    0.82E-04    0.14E-03    0.89E-07
   0      8     8.797   174.004    0.79E-04    0.14E-03    0.86E-07
   1      8     8.797    54.315    0.16E-03    0.14E-04    0.30E-06
   1      8     8.797    42.441    0.16E-03    0.14E-04    0.30E-06
   2      7     8.797     3.596    0.92E-04    0.15E-03    0.85E-07
  PAW_PBE Cs_sv 08Apr2002               :
 energy of atom  1       EATOM= -555.6835
 kinetic energy error for atom=    0.0069 (will be added to EATOM!!)
  PAW_PBE Pb_d 06Sep2000                :
 energy of atom  2       EATOM=-1661.6185
 kinetic energy error for atom=    0.0498 (will be added to EATOM!!)
  PAW_PBE Br 06Sep2000                  :
 energy of atom  3       EATOM= -368.4488
 kinetic energy error for atom=    0.0072 (will be added to EATOM!!)


 POSCAR: Cs2 Pb2 Br6                             
  positions in direct lattice
  velocities in cartesian coordinates

 METAGGA = SCAN     LMAXTAU =  6    LMIXTAU =  F

 exchange correlation table for  LEXCH =        8
   RHO(1)=    0.500       N(1)  =     2000
   RHO(2)=  100.500       N(2)  =     4000

 VTST: version 3.2, (02/03/18)

 CHAIN: initializing optimizer
 
 OPT: Using VASP Conjugate-Gradient optimizer
 CHAIN: Read ICHAIN            0

 POSCAR: Cs2 Pb2 Br6                             
  positions in direct lattice
  velocities in cartesian coordinates



--------------------------------------------------------------------------------------------------------


 ion  position               nearest neighbor table
   1  0.750  0.750  0.750-
   2  0.250  0.250  0.250-
   3  0.000  0.000  0.000-   5 2.98   6 2.98   9 2.98  10 2.98   7 3.00   8 3.00
   4  0.500  0.500  0.500-   5 2.98   6 2.98   9 2.98  10 2.98   7 3.00   8 3.00
   5  0.188  0.688  0.312-   3 2.98   4 2.98
   6  0.812  0.312  0.688-   3 2.98   4 2.98
   7  0.250  0.750  0.750-   3 3.00   4 3.00
   8  0.750  0.250  0.250-   3 3.00   4 3.00
   9  0.312  0.188  0.812-   3 2.98   4 2.98
  10  0.688  0.812  0.188-   3 2.98   4 2.98

  LATTYP: Found a body centered tetragonal cell.
 ALAT       =     8.1894661178
 C/A-ratio  =     1.4651816459
  
  Lattice vectors:
  
 A1 = (   5.7908270262,   0.0000000000,   5.9995277225)
 A2 = (  -5.7908270262,   0.0000000000,   5.9995277225)
 A3 = (   0.0000000000,  -5.7908270262,  -5.9995277225)


Analysis of symmetry for initial positions (statically):
=====================================================================
 Subroutine PRICEL returns:
 Original cell was already a primitive cell.
 

 Routine SETGRP: Setting up the symmetry group for a 
 body centered tetragonal supercell.


 Subroutine GETGRP returns: Found 16 space group operations
 (whereof  8 operations were pure point group operations)
 out of a pool of 16 trial point group operations.


The static configuration has the point symmetry C_4h.
 The point group associated with its full space group is D_4h.


Analysis of symmetry for dynamics (positions and initial velocities):
=====================================================================
 Subroutine PRICEL returns:
 Original cell was already a primitive cell.
 

 Routine SETGRP: Setting up the symmetry group for a 
 body centered tetragonal supercell.


 Subroutine GETGRP returns: Found 16 space group operations
 (whereof  8 operations were pure point group operations)
 out of a pool of 16 trial point group operations.


The dynamic configuration has the point symmetry C_4h.
 The point group associated with its full space group is D_4h.


 Subroutine INISYM returns: Found 16 space group operations
 (whereof  8 operations are pure point group operations),
 and found     1 'primitive' translations



 KPOINTS: 1x1x1                                   

Automatic generation of k-mesh.
Space group operators:
 irot       det(A)        alpha          n_x          n_y          n_z        tau_x        tau_y        tau_z
    1     1.000000     0.000000     1.000000     0.000000     0.000000     0.000000     0.000000     0.000000
    2    -1.000000     0.000000     1.000000     0.000000     0.000000     0.000000     0.000000     0.000000
    3     1.000000    90.000000     0.000000     0.000000    -1.000000     0.000000     0.000000     0.000000
    4    -1.000000    90.000000     0.000000     0.000000    -1.000000     0.000000     0.000000     0.000000
    5     1.000000   180.000000     0.000000    -0.000000     1.000000     0.000000     0.000000     0.000000
    6    -1.000000   180.000000     0.000000    -0.000000     1.000000     0.000000     0.000000     0.000000
    7     1.000000    90.000000     0.000000     0.000000     1.000000     0.000000     0.000000     0.000000
    8    -1.000000    90.000000     0.000000     0.000000     1.000000     0.000000     0.000000     0.000000
    9     1.000000   180.000000    -0.707107     0.707107     0.000000     0.500000    -0.500000    -0.500000
   10    -1.000000   180.000000    -0.707107     0.707107     0.000000     0.500000    -0.500000    -0.500000
   11     1.000000   180.000000     0.000000     1.000000     0.000000     0.500000    -0.500000    -0.500000
   12    -1.000000   180.000000     0.000000     1.000000     0.000000     0.500000    -0.500000    -0.500000
   13     1.000000   180.000000     0.707107     0.707107     0.000000     0.500000    -0.500000    -0.500000
   14    -1.000000   180.000000     0.707107     0.707107     0.000000     0.500000    -0.500000    -0.500000
   15     1.000000   180.000000     1.000000     0.000000     0.000000     0.500000    -0.500000    -0.500000
   16    -1.000000   180.000000     1.000000     0.000000     0.000000     0.500000    -0.500000    -0.500000
 
 Subroutine IBZKPT returns following result:
 ===========================================
 
 Found      6 irreducible k-points:
 
 Following reciprocal coordinates:
            Coordinates               Weight
  0.000000  0.000000  0.000000      1.000000
  0.333333  0.000000  0.000000      8.000000
  0.333333  0.333333  0.000000      4.000000
 -0.333333  0.333333  0.000000      8.000000
  0.000000  0.333333  0.333333      2.000000
 -0.333333  0.333333  0.333333      4.000000
 
 Following cartesian coordinates:
            Coordinates               Weight
  0.000000  0.000000 -0.000000      1.000000
  0.028781  0.028781  0.027780      8.000000
  0.057562  0.000000 -0.000000      4.000000
  0.000000 -0.057562 -0.055560      8.000000
  0.000000  0.000000 -0.055560      2.000000
 -0.028781 -0.028781 -0.083340      4.000000
 


--------------------------------------------------------------------------------------------------------




 Dimension of arrays:
   k-points           NKPTS =      6   k-points in BZ     NKDIM =      6   number of bands    NBANDS=     56
   number of dos      NEDOS =    301   number of ions     NIONS =     10
   non local maximal  LDIM  =      6   non local SUM 2l+1 LMDIM =     18
   total plane-waves  NPLWV = 110592
   max r-space proj   IRMAX =   7315   max aug-charges    IRDMAX= 116925
   dimension x,y,z NGX =    48 NGY =   48 NGZ =   48
   dimension x,y,z NGXF=    96 NGYF=   96 NGZF=   96
   support grid    NGXF=   192 NGYF=  192 NGZF=  192
   ions per type =               2   2   6
   NGX,Y,Z   is equivalent  to a cutoff of   9.74,  9.57,  9.57 a.u.
   NGXF,Y,Z  is equivalent  to a cutoff of  19.49, 19.14, 19.14 a.u.

 SYSTEM =  CsPbBr3 cubic bulk                      
 POSCAR =  Cs2 Pb2 Br6                             

 Startparameter for this run:
   NWRITE =      2    write-flag & timer
   PREC   = accura    normal or accurate (medium, high low for compatibility)
   ISTART =      0    job   : 0-new  1-cont  2-samecut
   ICHARG =      2    charge: 1-file 2-atom 10-const
   ISPIN  =      1    spin polarized calculation?
   LNONCOLLINEAR =      F non collinear calculations
   LSORBIT =      F    spin-orbit coupling
   INIWAV =      1    electr: 0-lowe 1-rand  2-diag
   LASPH  =      T    aspherical Exc in radial PAW
   METAGGA=      F    non-selfconsistent MetaGGA calc.

 Electronic Relaxation 1
   ENCUT  =  300.0 eV  22.05 Ry    4.70 a.u.  11.57 11.78 11.78*2*pi/ulx,y,z
   ENINI  =  300.0     initial cutoff
   ENAUG  =  503.9 eV  augmentation charge cutoff
   NELM   =    200;   NELMIN=  2; NELMDL=  0     # of ELM steps 
   EDIFF  = 0.1E-05   stopping-criterion for ELM
   LREAL  =      T    real-space projection
   NLSPLINE    = F    spline interpolate recip. space projectors
   LCOMPAT=      F    compatible to vasp.4.4
   GGA_COMPAT  = T    GGA compatible to vasp.4.4-vasp.4.6
   LMAXPAW     = -100 max onsite density
   LMAXMIX     =    2 max onsite mixed and CHGCAR
   VOSKOWN=      0    Vosko Wilk Nusair interpolation
   ROPT   =   -0.00025  -0.00025  -0.00025
 Ionic relaxation
   EDIFFG = -.1E-01   stopping-criterion for IOM
   NSW    =      0    number of steps for IOM
   NBLOCK =      1;   KBLOCK =      1    inner block; outer block 
   IBRION =     -1    ionic relax: 0-MD 1-quasi-New 2-CG
   NFREE  =      1    steps in history (QN), initial steepest desc. (CG)
   ISIF   =      3    stress and relaxation
   IWAVPR =     10    prediction:  0-non 1-charg 2-wave 3-comb
   ISYM   =      2    0-nonsym 1-usesym 2-fastsym
   LCORR  =      T    Harris-Foulkes like correction to forces

   POTIM  = 0.5000    time-step for ionic-motion
   TEIN   =    0.0    initial temperature
   TEBEG  =    0.0;   TEEND  =   0.0 temperature during run
   SMASS  =  -3.00    Nose mass-parameter (am)
   estimated Nose-frequenzy (Omega)   =  0.10E-29 period in steps =****** mass=  -0.153E-26a.u.
   SCALEE = 1.0000    scale energy and forces
   NPACO  =    256;   APACO  = 16.0  distance and # of slots for P.C.
   PSTRESS=    0.0 pullay stress

  Mass of Ions in am
   POMASS = 132.90207.20 79.90
  Ionic Valenz
   ZVAL   =   9.00 14.00  7.00
  Atomic Wigner-Seitz radii
   RWIGS  =  -1.00 -1.00 -1.00
  virtual crystal weights 
   VCA    =   1.00  1.00  1.00
   NELECT =      88.0000    total number of electrons
   NUPDOWN=      -1.0000    fix difference up-down

 DOS related values:
   EMIN   =  10.00;   EMAX   =-10.00  energy-range for DOS
   EFERMI =   0.00
   ISMEAR =     0;   SIGMA  =   0.01  broadening in eV -4-tet -1-fermi 0-gaus

 Electronic relaxation 2 (details)
   IALGO  =     38    algorithm
   LDIAG  =      T    sub-space diagonalisation (order eigenvalues)
   LSUBROT=      F    optimize rotation matrix (better conditioning)
   TURBO    =      0    0=normal 1=particle mesh
   IRESTART =      0    0=no restart 2=restart with 2 vectors
   NREBOOT  =      0    no. of reboots
   NMIN     =      0    reboot dimension
   EREF     =   0.00    reference energy to select bands
   IMIX   =      4    mixing-type and parameters
     AMIX     =   0.40;   BMIX     =  1.00
     AMIX_MAG =   1.60;   BMIX_MAG =  1.00
     AMIN     =   0.10
     WC   =   100.;   INIMIX=   1;  MIXPRE=   1;  MAXMIX= -45

 Intra band minimization:
   WEIMIN = 0.0000     energy-eigenvalue tresh-hold
   EBREAK =  0.45E-08  absolut break condition
   DEPER  =   0.30     relativ break condition  

   TIME   =   0.40     timestep for ELM

  volume/ion in A,a.u.               =      40.24       271.53
  Fermi-wavevector in a.u.,A,eV,Ry     =   0.986339  1.863911 13.236633  0.972865
  Thomas-Fermi vector in A             =   2.117713

 Write flags
   LWAVE        =      F    write WAVECAR
   LDOWNSAMPLE  =      F    k-point downsampling of WAVECAR
   LCHARG       =      F    write CHGCAR
   LVTOT        =      F    write LOCPOT, total local potential
   LVHAR        =      T    write LOCPOT, Hartree potential only
   LELF         =      F    write electronic localiz. function (ELF)
   LORBIT       =     10    0 simple, 1 ext, 2 COOP (PROOUT), +10 PAW based schemes


 Dipole corrections
   LMONO  =      F    monopole corrections only (constant potential shift)
   LDIPOL =      F    correct potential (dipole corrections)
   IDIPOL =      0    1-x, 2-y, 3-z, 4-all directions 
   EPSILON=  1.0000000 bulk dielectric constant

 Exchange correlation treatment:
   GGA     =    --    GGA type
   LEXCH   =     8    internal setting for exchange type
   VOSKOWN=      0    Vosko Wilk Nusair interpolation
   LHFCALC =     F    Hartree Fock is set to
   LHFONE  =     F    Hartree Fock one center treatment
   AEXX    =    0.0000 exact exchange contribution

 Linear response parameters
   LEPSILON=     F    determine dielectric tensor
   LRPA    =     F    only Hartree local field effects (RPA)
   LNABLA  =     F    use nabla operator in PAW spheres
   LVEL    =     F    velocity operator in full k-point grid
   LINTERFAST=   F  fast interpolation
   KINTER  =     0    interpolate to denser k-point grid
   CSHIFT  =0.1000    complex shift for real part using Kramers Kronig
   OMEGAMAX=  -1.0    maximum frequency
   DEG_THRESHOLD= 0.2000000E-02 threshold for treating states as degnerate
   RTIME   =   -0.100 relaxation time in fs
  (WPLASMAI=    0.000 imaginary part of plasma frequency in eV, 0.658/RTIME)
   DFIELD  = 0.0000000 0.0000000 0.0000000 field for delta impulse in time

 Orbital magnetization related:
   ORBITALMAG=     F  switch on orbital magnetization
   LCHIMAG   =     F  perturbation theory with respect to B field
   DQ        =  0.001000  dq finite difference perturbation B field
   LLRAUG    =     F  two centre corrections for induced B field



--------------------------------------------------------------------------------------------------------


 Static calculation
 charge density and potential will be updated during run
 non-spin polarized calculation
 Variant of blocked Davidson
 Davidson routine will perform the subspace rotation
 perform sub-space diagonalisation
    after iterative eigenvector-optimisation
 modified Broyden-mixing scheme, WC =      100.0
 initial mixing is a Kerker type mixing with AMIX =  0.4000 and BMIX =      1.0000
 Hartree-type preconditioning will be used
 using additional bands           12
 real space projection scheme for non local part
 use partial core corrections
 calculate Harris-corrections to forces   (improved forces if not selfconsistent)
 use gradient corrections 
 use of overlap-Matrix (Vanderbilt PP)
 Gauss-broadening in eV      SIGMA  =   0.01


--------------------------------------------------------------------------------------------------------


  energy-cutoff  :      300.00
  volume of cell :      402.37
      direct lattice vectors                 reciprocal lattice vectors
     5.790827026  5.790827026 -0.000000000     0.086343453  0.086343453  0.083339893
     5.790827026  0.000000000 -5.999527723     0.086343453 -0.086343453 -0.083339893
    -0.000000000  5.790827026 -5.999527723    -0.086343453  0.086343453 -0.083339893

  length of vectors
     8.189466118  8.338345792  8.338345792     0.147837483  0.147837483  0.147837483



 k-points in units of 2pi/SCALE and weight: 1x1x1                                   
   0.00000000  0.00000000 -0.00000000       0.037
   0.02878115  0.02878115  0.02777996       0.296
   0.05756230  0.00000000 -0.00000000       0.148
   0.00000000 -0.05756230 -0.05555993       0.296
   0.00000000  0.00000000 -0.05555993       0.074
  -0.02878115 -0.02878115 -0.08333989       0.148

 k-points in reciprocal lattice and weights: 1x1x1                                   
   0.00000000  0.00000000  0.00000000       0.037
   0.33333333  0.00000000  0.00000000       0.296
   0.33333333  0.33333333  0.00000000       0.148
  -0.33333333  0.33333333  0.00000000       0.296
   0.00000000  0.33333333  0.33333333       0.074
  -0.33333333  0.33333333  0.33333333       0.148

 position of ions in fractional coordinates (direct lattice) 
   0.75000000  0.75000000  0.75000000
   0.25000000  0.25000000  0.25000000
   0.00000000  0.00000000  0.00000000
   0.50000000  0.50000000  0.50000000
   0.18808263  0.68808263  0.31191737
   0.81191737  0.31191737  0.68808263
   0.25000000  0.75000000  0.75000000
   0.75000000  0.25000000  0.25000000
   0.31191737  0.18808263  0.81191737
   0.68808263  0.81191737  0.18808263

 position of ions in cartesian coordinates  (Angst):
   8.68624054  8.68624054 -8.99929158
   2.89541351  2.89541351 -2.99976386
   0.00000000  0.00000000 -0.00000000
   5.79082703  5.79082703 -5.99952772
   5.07372141  2.89541351 -5.99952772
   6.50793264  8.68624054 -5.99952772
   5.79082703  5.79082703 -8.99929158
   5.79082703  5.79082703 -2.99976386
   2.89541351  6.50793264 -5.99952772
   8.68624054  5.07372141 -5.99952772



--------------------------------------------------------------------------------------------------------


 k-point  1 :   0.0000 0.0000 0.0000  plane waves:    4733
 k-point  2 :   0.3333 0.0000 0.0000  plane waves:    4760
 k-point  3 :   0.3333 0.3333 0.0000  plane waves:    4752
 k-point  4 :  -0.3333 0.3333 0.0000  plane waves:    4742
 k-point  5 :   0.0000 0.3333 0.3333  plane waves:    4777
 k-point  6 :  -0.3333 0.3333 0.3333  plane waves:    4740

 maximum and minimum number of plane-waves per node :       609      579

 maximum number of plane-waves:      4777
 maximum index in each direction: 
   IXMAX=   11   IYMAX=   11   IZMAX=   11
   IXMIN=  -11   IYMIN=  -12   IZMIN=  -12


 real space projection operators:
  total allocation   :       5435.38 KBytes
  max/ min on nodes  :        689.12        676.28


 parallel 3D FFT for wavefunctions:
    minimum data exchange during FFTs selected (reduces bandwidth)
 parallel 3D FFT for charge:
    minimum data exchange during FFTs selected (reduces bandwidth)


 total amount of memory used by VASP MPI-rank0    37373. kBytes
=======================================================================

   base      :      30000. kBytes
   nonlr-proj:       2072. kBytes
   fftplans  :       2499. kBytes
   grid      :       2347. kBytes
   one-center:         31. kBytes
   wavefun   :        424. kBytes

     INWAV:  cpu time    0.0000: real time    0.0000
 Broyden mixing: mesh for mixing (old mesh)
   NGX = 23   NGY = 23   NGZ = 23
  (NGX  = 96   NGY  = 96   NGZ  = 96)
  gives a total of  12167 points

 initial charge density was supplied:
 charge density of overlapping atoms calculated
 number of electron      88.0000000 magnetization 
 keeping initial charge density in first step


--------------------------------------------------------------------------------------------------------


 Maximum index for non-local projection operator          846
 Maximum index for augmentation-charges         2593 (set IRDMAX)


--------------------------------------------------------------------------------------------------------


 First call to EWALD:  gamma=   0.240
 Maximum number of real-space cells 3x 3x 3
 Maximum number of reciprocal cells 3x 3x 3

    FEWALD:  cpu time    0.0018: real time    0.0018


--------------------------------------- Iteration      1(   1)  ---------------------------------------


    POTLOK:  cpu time    0.0924: real time    0.1289
    SETDIJ:  cpu time    1.1422: real time    1.1422
     EDDAV:  cpu time    0.9684: real time    0.9734
       DOS:  cpu time    0.0005: real time    0.0005
    --------------------------------------------
      LOOP:  cpu time    2.2035: real time    2.2450

 eigenvalue-minimisations  :   680
 total energy-change (2. order) : 0.3249972E+03  (-0.2813693E+04)
 number of electron      88.0000000 magnetization 
 augmentation part       88.0000000 magnetization 

 Free energy of the ion-electron system (eV)
  ---------------------------------------------------
  alpha Z        PSCENC =       224.17596381
  Ewald energy   TEWEN  =     -4608.29204336
  -Hartree energ DENC   =     -1832.53849837
  -exchange      EXHF   =         0.00000000
  -V(xc)+E(xc)   XCENC  =       230.97781891
  PAW double counting   =      5408.49043633    -5676.98046350
  entropy T*S    EENTRO =        -0.00126119
  eigenvalues    EBANDS =       -65.97482417
  atomic energy  EATOM  =      6645.14004964
  Solvation  Ediel_sol  =         0.00000000
  ---------------------------------------------------
  free energy    TOTEN  =       324.99717809 eV

  energy without entropy =      324.99843929  energy(sigma->0) =      324.99780869


--------------------------------------------------------------------------------------------------------




--------------------------------------- Iteration      1(   2)  ---------------------------------------


     EDDAV:  cpu time    1.1326: real time    1.1669
       DOS:  cpu time    0.0002: real time    0.0002
    --------------------------------------------
      LOOP:  cpu time    1.1329: real time    1.1671

 eigenvalue-minimisations  :   840
 total energy-change (2. order) :-0.6234578E+03  (-0.6069676E+03)
 number of electron      88.0000000 magnetization 
 augmentation part       88.0000000 magnetization 

 Free energy of the ion-electron system (eV)
  ---------------------------------------------------
  alpha Z        PSCENC =       224.17596381
  Ewald energy   TEWEN  =     -4608.29204336
  -Hartree energ DENC   =     -1832.53849837
  -exchange      EXHF   =         0.00000000
  -V(xc)+E(xc)   XCENC  =       230.97781891
  PAW double counting   =      5408.49043633    -5676.98046350
  entropy T*S    EENTRO =        -0.00000000
  eigenvalues    EBANDS =      -689.43384296
  atomic energy  EATOM  =      6645.14004964
  Solvation  Ediel_sol  =         0.00000000
  ---------------------------------------------------
  free energy    TOTEN  =      -298.46057950 eV

  energy without entropy =     -298.46057950  energy(sigma->0) =     -298.46057950


--------------------------------------------------------------------------------------------------------




--------------------------------------- Iteration      1(   3)  ---------------------------------------


     EDDAV:  cpu time    1.1467: real time    1.1493
       DOS:  cpu time    0.0003: real time    0.0003
    --------------------------------------------
      LOOP:  cpu time    1.1470: real time    1.1496

 eigenvalue-minimisations  :   840
 total energy-change (2. order) :-0.7602753E+02  (-0.7565099E+02)
 number of electron      88.0000000 magnetization 
 augmentation part       88.0000000 magnetization 

 Free energy of the ion-electron system (eV)
  ---------------------------------------------------
  alpha Z        PSCENC =       224.17596381
  Ewald energy   TEWEN  =     -4608.29204336
  -Hartree energ DENC   =     -1832.53849837
  -exchange      EXHF   =         0.00000000
  -V(xc)+E(xc)   XCENC  =       230.97781891
  PAW double counting   =      5408.49043633    -5676.98046350
  entropy T*S    EENTRO =        -0.00000000
  eigenvalues    EBANDS =      -765.46136957
  atomic energy  EATOM  =      6645.14004964
  Solvation  Ediel_sol  =         0.00000000
  ---------------------------------------------------
  free energy    TOTEN  =      -374.48810611 eV

  energy without entropy =     -374.48810611  energy(sigma->0) =     -374.48810611


--------------------------------------------------------------------------------------------------------




--------------------------------------- Iteration      1(   4)  ---------------------------------------


     EDDAV:  cpu time    1.1227: real time    1.1287
       DOS:  cpu time    0.0002: real time    0.0002
    --------------------------------------------
      LOOP:  cpu time    1.1229: real time    1.1289

 eigenvalue-minimisations  :   800
 total energy-change (2. order) :-0.2704194E+01  (-0.2694911E+01)
 number of electron      88.0000000 magnetization 
 augmentation part       88.0000000 magnetization 

 Free energy of the ion-electron system (eV)
  ---------------------------------------------------
  alpha Z        PSCENC =       224.17596381
  Ewald energy   TEWEN  =     -4608.29204336
  -Hartree energ DENC   =     -1832.53849837
  -exchange      EXHF   =         0.00000000
  -V(xc)+E(xc)   XCENC  =       230.97781891
  PAW double counting   =      5408.49043633    -5676.98046350
  entropy T*S    EENTRO =        -0.00000000
  eigenvalues    EBANDS =      -768.16556332
  atomic energy  EATOM  =      6645.14004964
  Solvation  Ediel_sol  =         0.00000000
  ---------------------------------------------------
  free energy    TOTEN  =      -377.19229986 eV

  energy without entropy =     -377.19229986  energy(sigma->0) =     -377.19229986


--------------------------------------------------------------------------------------------------------




--------------------------------------- Iteration      1(   5)  ---------------------------------------


     EDDAV:  cpu time    1.1752: real time    1.2095
       DOS:  cpu time    0.0003: real time    0.0003
    CHARGE:  cpu time    0.3510: real time    0.3511
    MIXING:  cpu time    0.0005: real time    0.0005
    --------------------------------------------
      LOOP:  cpu time    1.5270: real time    1.5614

 eigenvalue-minimisations  :   912
 total energy-change (2. order) :-0.1299927E+00  (-0.1299504E+00)
 number of electron      88.0000000 magnetization 
 augmentation part       -1.6302671 magnetization 

 Broyden mixing:
  rms(total) = 0.50451E+00    rms(broyden)= 0.50435E+00
  rms(prec ) = 0.96447E+00
  weight for this iteration     100.00

 Free energy of the ion-electron system (eV)
  ---------------------------------------------------
  alpha Z        PSCENC =       224.17596381
  Ewald energy   TEWEN  =     -4608.29204336
  -Hartree energ DENC   =     -1832.53849837
  -exchange      EXHF   =         0.00000000
  -V(xc)+E(xc)   XCENC  =       230.97781891
  PAW double counting   =      5408.49043633    -5676.98046350
  entropy T*S    EENTRO =        -0.00000000
  eigenvalues    EBANDS =      -768.29555605
  atomic energy  EATOM  =      6645.14004964
  Solvation  Ediel_sol  =         0.00000000
  ---------------------------------------------------
  free energy    TOTEN  =      -377.32229259 eV

  energy without entropy =     -377.32229259  energy(sigma->0) =     -377.32229259


--------------------------------------------------------------------------------------------------------




--------------------------------------- Iteration      1(   6)  ---------------------------------------


    POTLOK:  cpu time    0.1037: real time    0.1369
    SETDIJ:  cpu time    1.1424: real time    1.1424
     EDDAV:  cpu time    1.1122: real time    1.1122
       DOS:  cpu time    0.0003: real time    0.0003
    CHARGE:  cpu time    0.3281: real time    0.3281
    MIXING:  cpu time    0.0006: real time    0.0006
    --------------------------------------------
      LOOP:  cpu time    2.6873: real time    2.7206

 eigenvalue-minimisations  :   864
 total energy-change (2. order) : 0.1983515E+02  (-0.5876135E+00)
 number of electron      88.0000000 magnetization 
 augmentation part       -1.2694622 magnetization 

 Broyden mixing:
  rms(total) = 0.35931E+00    rms(broyden)= 0.35925E+00
  rms(prec ) = 0.57815E+00
  weight for this iteration     100.00

 eigenvalues of (default mixing * dielectric matrix)
  average eigenvalue GAMMA=   1.1865
  1.1865

 Free energy of the ion-electron system (eV)
  ---------------------------------------------------
  alpha Z        PSCENC =       224.17596381
  Ewald energy   TEWEN  =     -4608.29204336
  -Hartree energ DENC   =     -1828.09598184
  -exchange      EXHF   =         0.00000000
  -V(xc)+E(xc)   XCENC  =       238.76890516
  PAW double counting   =      5487.68376613    -5755.81979569
  entropy T*S    EENTRO =        -0.00000000
  eigenvalues    EBANDS =      -761.04800869
  atomic energy  EATOM  =      6645.14004964
  Solvation  Ediel_sol  =         0.00000000
  ---------------------------------------------------
  free energy    TOTEN  =      -357.48714484 eV

  energy without entropy =     -357.48714484  energy(sigma->0) =     -357.48714484


--------------------------------------------------------------------------------------------------------




--------------------------------------- Iteration      1(   7)  ---------------------------------------


    POTLOK:  cpu time    0.1047: real time    0.1327
    SETDIJ:  cpu time    1.1414: real time    1.1414
     EDDAV:  cpu time    1.1562: real time    1.1563
       DOS:  cpu time    0.0003: real time    0.0003
    CHARGE:  cpu time    0.3222: real time    0.3222
    MIXING:  cpu time    0.0006: real time    0.0006
    --------------------------------------------
      LOOP:  cpu time    2.7254: real time    2.7535

 eigenvalue-minimisations  :   912
 total energy-change (2. order) : 0.1195692E+00  (-0.2067805E+00)
 number of electron      88.0000000 magnetization 
 augmentation part       -1.1310936 magnetization 

 Broyden mixing:
  rms(total) = 0.18017E+00    rms(broyden)= 0.18015E+00
  rms(prec ) = 0.22519E+00
  weight for this iteration     100.00

 eigenvalues of (default mixing * dielectric matrix)
  average eigenvalue GAMMA=   1.3173
  1.3173  1.3173

 Free energy of the ion-electron system (eV)
  ---------------------------------------------------
  alpha Z        PSCENC =       224.17596381
  Ewald energy   TEWEN  =     -4608.29204336
  -Hartree energ DENC   =     -1839.19713516
  -exchange      EXHF   =         0.00000000
  -V(xc)+E(xc)   XCENC  =       240.16131013
  PAW double counting   =      5655.28514317    -5922.99707800
  entropy T*S    EENTRO =        -0.00000000
  eigenvalues    EBANDS =      -751.64378590
  atomic energy  EATOM  =      6645.14004964
  Solvation  Ediel_sol  =         0.00000000
  ---------------------------------------------------
  free energy    TOTEN  =      -357.36757568 eV

  energy without entropy =     -357.36757568  energy(sigma->0) =     -357.36757568


--------------------------------------------------------------------------------------------------------




--------------------------------------- Iteration      1(   8)  ---------------------------------------


    POTLOK:  cpu time    0.0978: real time    0.1374
    SETDIJ:  cpu time    1.1422: real time    1.1422
     EDDAV:  cpu time    1.0536: real time    1.0536
       DOS:  cpu time    0.0003: real time    0.0003
    CHARGE:  cpu time    0.3235: real time    0.3235
    MIXING:  cpu time    0.0006: real time    0.0006
    --------------------------------------------
      LOOP:  cpu time    2.6179: real time    2.6576

 eigenvalue-minimisations  :   800
 total energy-change (2. order) :-0.4211283E-01  (-0.8910336E-02)
 number of electron      88.0000000 magnetization 
 augmentation part       -1.1533560 magnetization 

 Broyden mixing:
  rms(total) = 0.10642E+00    rms(broyden)= 0.10642E+00
  rms(prec ) = 0.13622E+00
  weight for this iteration     100.00

 eigenvalues of (default mixing * dielectric matrix)
  average eigenvalue GAMMA=   1.7004
  1.0738  1.4180  2.6094

 Free energy of the ion-electron system (eV)
  ---------------------------------------------------
  alpha Z        PSCENC =       224.17596381
  Ewald energy   TEWEN  =     -4608.29204336
  -Hartree energ DENC   =     -1839.88922602
  -exchange      EXHF   =         0.00000000
  -V(xc)+E(xc)   XCENC  =       240.25264019
  PAW double counting   =      5712.47554568    -5980.30696898
  entropy T*S    EENTRO =        -0.00000000
  eigenvalues    EBANDS =      -750.96564947
  atomic energy  EATOM  =      6645.14004964
  Solvation  Ediel_sol  =         0.00000000
  ---------------------------------------------------
  free energy    TOTEN  =      -357.40968851 eV

  energy without entropy =     -357.40968851  energy(sigma->0) =     -357.40968851


--------------------------------------------------------------------------------------------------------




--------------------------------------- Iteration      1(   9)  ---------------------------------------


    POTLOK:  cpu time    0.1164: real time    0.1453
    SETDIJ:  cpu time    1.1416: real time    1.1416
     EDDAV:  cpu time    1.0127: real time    1.0127
       DOS:  cpu time    0.0003: real time    0.0003
    CHARGE:  cpu time    0.3230: real time    0.3230
    MIXING:  cpu time    0.0006: real time    0.0006
    --------------------------------------------
      LOOP:  cpu time    2.5946: real time    2.6235

 eigenvalue-minimisations  :   752
 total energy-change (2. order) :-0.2027520E-01  (-0.3682485E-02)
 number of electron      88.0000000 magnetization 
 augmentation part       -1.1672305 magnetization 

 Broyden mixing:
  rms(total) = 0.23027E-01    rms(broyden)= 0.23024E-01
  rms(prec ) = 0.27440E-01
  weight for this iteration     100.00

 eigenvalues of (default mixing * dielectric matrix)
  average eigenvalue GAMMA=   1.4665
  2.5360  1.2491  1.2491  0.8319

 Free energy of the ion-electron system (eV)
  ---------------------------------------------------
  alpha Z        PSCENC =       224.17596381
  Ewald energy   TEWEN  =     -4608.29204336
  -Hartree energ DENC   =     -1841.18150400
  -exchange      EXHF   =         0.00000000
  -V(xc)+E(xc)   XCENC  =       240.75900445
  PAW double counting   =      5798.57668515    -6066.61678573
  entropy T*S    EENTRO =        -0.00000000
  eigenvalues    EBANDS =      -749.99133367
  atomic energy  EATOM  =      6645.14004964
  Solvation  Ediel_sol  =         0.00000000
  ---------------------------------------------------
  free energy    TOTEN  =      -357.42996371 eV

  energy without entropy =     -357.42996371  energy(sigma->0) =     -357.42996371


--------------------------------------------------------------------------------------------------------




--------------------------------------- Iteration      1(  10)  ---------------------------------------


    POTLOK:  cpu time    0.1544: real time    0.1675
    SETDIJ:  cpu time    1.1422: real time    1.1423
     EDDAV:  cpu time    1.1926: real time    1.1926
       DOS:  cpu time    0.0003: real time    0.0003
    CHARGE:  cpu time    0.3246: real time    0.3246
    MIXING:  cpu time    0.0007: real time    0.0007
    --------------------------------------------
      LOOP:  cpu time    2.8147: real time    2.8280

 eigenvalue-minimisations  :   952
 total energy-change (2. order) :-0.3582785E-03  (-0.1890067E-03)
 number of electron      88.0000000 magnetization 
 augmentation part       -1.1635977 magnetization 

 Broyden mixing:
  rms(total) = 0.13273E-01    rms(broyden)= 0.13272E-01
  rms(prec ) = 0.16876E-01
  weight for this iteration     100.00

 eigenvalues of (default mixing * dielectric matrix)
  average eigenvalue GAMMA=   1.6879
  2.6171  2.6171  1.1631  1.1631  0.8792

 Free energy of the ion-electron system (eV)
  ---------------------------------------------------
  alpha Z        PSCENC =       224.17596381
  Ewald energy   TEWEN  =     -4608.29204336
  -Hartree energ DENC   =     -1840.79220985
  -exchange      EXHF   =         0.00000000
  -V(xc)+E(xc)   XCENC  =       240.71702331
  PAW double counting   =      5789.67106874    -6057.72490937
  entropy T*S    EENTRO =        -0.00000000
  eigenvalues    EBANDS =      -750.32526490
  atomic energy  EATOM  =      6645.14004964
  Solvation  Ediel_sol  =         0.00000000
  ---------------------------------------------------
  free energy    TOTEN  =      -357.43032198 eV

  energy without entropy =     -357.43032198  energy(sigma->0) =     -357.43032198


--------------------------------------------------------------------------------------------------------




--------------------------------------- Iteration      1(  11)  ---------------------------------------


    POTLOK:  cpu time    0.0919: real time    0.1500
    SETDIJ:  cpu time    1.1433: real time    1.1433
     EDDAV:  cpu time    1.0649: real time    1.0650
       DOS:  cpu time    0.0004: real time    0.0004
    CHARGE:  cpu time    0.3243: real time    0.3243
    MIXING:  cpu time    0.0007: real time    0.0007
    --------------------------------------------
      LOOP:  cpu time    2.6255: real time    2.6837

 eigenvalue-minimisations  :   808
 total energy-change (2. order) :-0.1013807E-02  (-0.1183330E-03)
 number of electron      88.0000000 magnetization 
 augmentation part       -1.1623095 magnetization 

 Broyden mixing:
  rms(total) = 0.57648E-02    rms(broyden)= 0.57643E-02
  rms(prec ) = 0.81410E-02
  weight for this iteration     100.00

 eigenvalues of (default mixing * dielectric matrix)
  average eigenvalue GAMMA=   1.6080
  2.6773  2.6773  1.2345  1.2345  0.9122  0.9122

 Free energy of the ion-electron system (eV)
  ---------------------------------------------------
  alpha Z        PSCENC =       224.17596381
  Ewald energy   TEWEN  =     -4608.29204336
  -Hartree energ DENC   =     -1840.05307912
  -exchange      EXHF   =         0.00000000
  -V(xc)+E(xc)   XCENC  =       240.69772141
  PAW double counting   =      5778.47355511    -6046.60768543
  entropy T*S    EENTRO =        -0.00000000
  eigenvalues    EBANDS =      -750.96581785
  atomic energy  EATOM  =      6645.14004964
  Solvation  Ediel_sol  =         0.00000000
  ---------------------------------------------------
  free energy    TOTEN  =      -357.43133579 eV

  energy without entropy =     -357.43133579  energy(sigma->0) =     -357.43133579


--------------------------------------------------------------------------------------------------------




--------------------------------------- Iteration      1(  12)  ---------------------------------------


    POTLOK:  cpu time    0.0913: real time    0.1396
    SETDIJ:  cpu time    1.1431: real time    1.1431
     EDDAV:  cpu time    1.1549: real time    1.1549
       DOS:  cpu time    0.0003: real time    0.0003
    CHARGE:  cpu time    0.3259: real time    0.3260
    MIXING:  cpu time    0.0007: real time    0.0007
    --------------------------------------------
      LOOP:  cpu time    2.7163: real time    2.7648

 eigenvalue-minimisations  :   912
 total energy-change (2. order) : 0.1665774E-03  (-0.1909387E-04)
 number of electron      88.0000000 magnetization 
 augmentation part       -1.1636720 magnetization 

 Broyden mixing:
  rms(total) = 0.15528E-02    rms(broyden)= 0.15521E-02
  rms(prec ) = 0.23000E-02
  weight for this iteration     100.00

 eigenvalues of (default mixing * dielectric matrix)
  average eigenvalue GAMMA=   1.6678
  3.0967  2.3450  1.9708  0.9777  0.9777  1.1532  1.1532

 Free energy of the ion-electron system (eV)
  ---------------------------------------------------
  alpha Z        PSCENC =       224.17596381
  Ewald energy   TEWEN  =     -4608.29204336
  -Hartree energ DENC   =     -1840.25965391
  -exchange      EXHF   =         0.00000000
  -V(xc)+E(xc)   XCENC  =       240.72593670
  PAW double counting   =      5782.08231716    -6050.22188309
  entropy T*S    EENTRO =        -0.00000000
  eigenvalues    EBANDS =      -750.78185617
  atomic energy  EATOM  =      6645.14004964
  Solvation  Ediel_sol  =         0.00000000
  ---------------------------------------------------
  free energy    TOTEN  =      -357.43116921 eV

  energy without entropy =     -357.43116921  energy(sigma->0) =     -357.43116921


--------------------------------------------------------------------------------------------------------




--------------------------------------- Iteration      1(  13)  ---------------------------------------


    POTLOK:  cpu time    0.1158: real time    0.1312
    SETDIJ:  cpu time    1.1438: real time    1.1438
     EDDAV:  cpu time    1.0847: real time    1.0847
       DOS:  cpu time    0.0003: real time    0.0003
    CHARGE:  cpu time    0.3256: real time    0.3256
    MIXING:  cpu time    0.0012: real time    0.0012
    --------------------------------------------
      LOOP:  cpu time    2.6713: real time    2.6868

 eigenvalue-minimisations  :   832
 total energy-change (2. order) : 0.2271130E-04  (-0.3179811E-05)
 number of electron      88.0000000 magnetization 
 augmentation part       -1.1636220 magnetization 

 Broyden mixing:
  rms(total) = 0.32766E-03    rms(broyden)= 0.32517E-03
  rms(prec ) = 0.43197E-03
  weight for this iteration     100.00

 eigenvalues of (default mixing * dielectric matrix)
  average eigenvalue GAMMA=   1.5922
  3.0210  2.4371  1.8051  1.1592  1.1592  1.2070  0.9251  1.0239

 Free energy of the ion-electron system (eV)
  ---------------------------------------------------
  alpha Z        PSCENC =       224.17596381
  Ewald energy   TEWEN  =     -4608.29204336
  -Hartree energ DENC   =     -1840.37400113
  -exchange      EXHF   =         0.00000000
  -V(xc)+E(xc)   XCENC  =       240.73372537
  PAW double counting   =      5781.69062473    -6049.82947917
  entropy T*S    EENTRO =        -0.00000000
  eigenvalues    EBANDS =      -750.67598639
  atomic energy  EATOM  =      6645.14004964
  Solvation  Ediel_sol  =         0.00000000
  ---------------------------------------------------
  free energy    TOTEN  =      -357.43114650 eV

  energy without entropy =     -357.43114650  energy(sigma->0) =     -357.43114650


--------------------------------------------------------------------------------------------------------




--------------------------------------- Iteration      1(  14)  ---------------------------------------


    POTLOK:  cpu time    0.1137: real time    0.1370
    SETDIJ:  cpu time    1.1443: real time    1.1443
     EDDAV:  cpu time    0.9203: real time    0.9204
       DOS:  cpu time    0.0003: real time    0.0003
    CHARGE:  cpu time    0.3228: real time    0.3228
    MIXING:  cpu time    0.0008: real time    0.0008
    --------------------------------------------
      LOOP:  cpu time    2.5021: real time    2.5256

 eigenvalue-minimisations  :   632
 total energy-change (2. order) :-0.6544441E-05  (-0.1903001E-06)
 number of electron      88.0000000 magnetization 
 augmentation part       -1.1635817 magnetization 

 Broyden mixing:
  rms(total) = 0.15673E-03    rms(broyden)= 0.15167E-03
  rms(prec ) = 0.22537E-03
  weight for this iteration     100.00

 eigenvalues of (default mixing * dielectric matrix)
  average eigenvalue GAMMA=   1.4945
  3.0110  2.4227  1.8496  1.1869  1.1869  1.2234  1.0487  0.9283  0.5925

 Free energy of the ion-electron system (eV)
  ---------------------------------------------------
  alpha Z        PSCENC =       224.17596381
  Ewald energy   TEWEN  =     -4608.29204336
  -Hartree energ DENC   =     -1840.36727262
  -exchange      EXHF   =         0.00000000
  -V(xc)+E(xc)   XCENC  =       240.73261430
  PAW double counting   =      5781.64814256    -6049.78807328
  entropy T*S    EENTRO =        -0.00000000
  eigenvalues    EBANDS =      -750.68053410
  atomic energy  EATOM  =      6645.14004964
  Solvation  Ediel_sol  =         0.00000000
  ---------------------------------------------------
  free energy    TOTEN  =      -357.43115305 eV

  energy without entropy =     -357.43115305  energy(sigma->0) =     -357.43115305


--------------------------------------------------------------------------------------------------------




--------------------------------------- Iteration      1(  15)  ---------------------------------------


    POTLOK:  cpu time    0.1064: real time    0.1345
    SETDIJ:  cpu time    1.1432: real time    1.1432
     EDDAV:  cpu time    0.7967: real time    0.7968
       DOS:  cpu time    0.0002: real time    0.0002
    --------------------------------------------
      LOOP:  cpu time    2.0466: real time    2.0748

 eigenvalue-minimisations  :   480
 total energy-change (2. order) : 0.4209488E-06  (-0.5548329E-07)
 number of electron      88.0000000 magnetization 
 augmentation part       -1.1635817 magnetization 

 Free energy of the ion-electron system (eV)
  ---------------------------------------------------
  alpha Z        PSCENC =       224.17596381
  Ewald energy   TEWEN  =     -4608.29204336
  -Hartree energ DENC   =     -1840.36992338
  -exchange      EXHF   =         0.00000000
  -V(xc)+E(xc)   XCENC  =       240.73262635
  PAW double counting   =      5781.61322187    -6049.75066581
  entropy T*S    EENTRO =        -0.00000000
  eigenvalues    EBANDS =      -750.68038175
  atomic energy  EATOM  =      6645.14004964
  Solvation  Ediel_sol  =         0.00000000
  ---------------------------------------------------
  free energy    TOTEN  =      -357.43115263 eV

  energy without entropy =     -357.43115263  energy(sigma->0) =     -357.43115263


--------------------------------------------------------------------------------------------------------




 average (electrostatic) potential at core
  the test charge radii are     1.1312  1.1541  1.0178
  (the norm of the test charge is              1.0000)
       1 -55.3437       2 -55.3437       3-101.5657       4-101.5657       5 -68.9425
       6 -68.9425       7 -68.9716       8 -68.9716       9 -68.9425      10 -68.9425



 E-fermi :   0.6342     XC(G=0):  -8.0685     alpha+bet : -7.0339


 k-point     1 :       0.0000    0.0000    0.0000
  band No.  band energies     occupation 
      1     -20.8634      2.00000
      2     -20.8591      2.00000
      3     -16.3958      2.00000
      4     -16.3958      2.00000
      5     -16.3033      2.00000
      6     -16.2972      2.00000
      7     -16.2307      2.00000
      8     -16.2306      2.00000
      9     -16.2290      2.00000
     10     -16.2289      2.00000
     11     -16.2232      2.00000
     12     -16.2211      2.00000
     13     -14.3263      2.00000
     14     -13.9778      2.00000
     15     -13.9684      2.00000
     16     -13.9684      2.00000
     17     -13.7058      2.00000
     18     -13.6999      2.00000
     19      -8.1471      2.00000
     20      -7.3042      2.00000
     21      -7.3041      2.00000
     22      -7.2516      2.00000
     23      -7.2436      2.00000
     24      -7.2435      2.00000
     25      -7.2227      2.00000
     26      -6.4479      2.00000
     27      -3.2862      2.00000
     28      -3.2556      2.00000
     29      -3.2556      2.00000
     30      -1.9207      2.00000
     31      -1.8619      2.00000
     32      -1.8618      2.00000
     33      -1.4034      2.00000
     34      -1.3749      2.00000
     35      -1.3636      2.00000
     36      -1.3170      2.00000
     37      -1.3169      2.00000
     38      -1.1287      2.00000
     39      -1.0823      2.00000
     40      -1.0822      2.00000
     41      -0.9613      2.00000
     42      -0.8903      2.00000
     43      -0.8903      2.00000
     44       0.5861      2.00000
     45       2.6641      0.00000
     46       2.9648      0.00000
     47       2.9649      0.00000
     48       4.7194      0.00000
     49       5.5711      0.00000
     50       6.4555      0.00000
     51       6.4963      0.00000
     52       6.4963      0.00000
     53       6.5035      0.00000
     54       6.5038      0.00000
     55       6.5842      0.00000
     56       6.7186      0.00000

 k-point     2 :       0.3333    0.0000    0.0000
  band No.  band energies     occupation 
      1     -20.8623      2.00000
      2     -20.8602      2.00000
      3     -16.3741      2.00000
      4     -16.3725      2.00000
      5     -16.3280      2.00000
      6     -16.3234      2.00000
      7     -16.2305      2.00000
      8     -16.2302      2.00000
      9     -16.2296      2.00000
     10     -16.2295      2.00000
     11     -16.2227      2.00000
     12     -16.2217      2.00000
     13     -14.2486      2.00000
     14     -14.0724      2.00000
     15     -13.9075      2.00000
     16     -13.9007      2.00000
     17     -13.7695      2.00000
     18     -13.7683      2.00000
     19      -7.8107      2.00000
     20      -7.2880      2.00000
     21      -7.2743      2.00000
     22      -7.2429      2.00000
     23      -7.2402      2.00000
     24      -7.2263      2.00000
     25      -7.2162      2.00000
     26      -6.9964      2.00000
     27      -2.9424      2.00000
     28      -2.9203      2.00000
     29      -2.5880      2.00000
     30      -2.1382      2.00000
     31      -2.0320      2.00000
     32      -1.9824      2.00000
     33      -1.7319      2.00000
     34      -1.7113      2.00000
     35      -1.4644      2.00000
     36      -1.3799      2.00000
     37      -1.3553      2.00000
     38      -1.2778      2.00000
     39      -1.1221      2.00000
     40      -1.1025      2.00000
     41      -1.0140      2.00000
     42      -0.9862      2.00000
     43      -0.8170      2.00000
     44      -0.3497      2.00000
     45       3.7288      0.00000
     46       3.7963      0.00000
     47       3.9660      0.00000
     48       5.2301      0.00000
     49       5.4920      0.00000
     50       5.5196      0.00000
     51       5.9019      0.00000
     52       5.9779      0.00000
     53       6.5855      0.00000
     54       6.6647      0.00000
     55       6.8141      0.00000
     56       6.9359      0.00000

 k-point     3 :       0.3333    0.3333    0.0000
  band No.  band energies     occupation 
      1     -20.8624      2.00000
      2     -20.8599      2.00000
      3     -16.3954      2.00000
      4     -16.3507      2.00000
      5     -16.3495      2.00000
      6     -16.3018      2.00000
      7     -16.2308      2.00000
      8     -16.2301      2.00000
      9     -16.2298      2.00000
     10     -16.2290      2.00000
     11     -16.2225      2.00000
     12     -16.2218      2.00000
     13     -14.2148      2.00000
     14     -13.9911      2.00000
     15     -13.9816      2.00000
     16     -13.9198      2.00000
     17     -13.8824      2.00000
     18     -13.6885      2.00000
     19      -7.7881      2.00000
     20      -7.2793      2.00000
     21      -7.2547      2.00000
     22      -7.2398      2.00000
     23      -7.2382      2.00000
     24      -7.2232      2.00000
     25      -7.2090      2.00000
     26      -6.9493      2.00000
     27      -3.2320      2.00000
     28      -3.1680      2.00000
     29      -2.6596      2.00000
     30      -2.1559      2.00000
     31      -2.0460      2.00000
     32      -1.7754      2.00000
     33      -1.7006      2.00000
     34      -1.4786      2.00000
     35      -1.4230      2.00000
     36      -1.3801      2.00000
     37      -1.2534      2.00000
     38      -1.2325      2.00000
     39      -1.2287      2.00000
     40      -1.1836      2.00000
     41      -1.1015      2.00000
     42      -0.8990      2.00000
     43      -0.8786      2.00000
     44       0.0051      2.00000
     45       2.9854      0.00000
     46       3.2013      0.00000
     47       4.3598      0.00000
     48       5.0398      0.00000
     49       5.7978      0.00000
     50       6.1750      0.00000
     51       6.2150      0.00000
     52       6.2428      0.00000
     53       6.7429      0.00000
     54       6.8339      0.00000
     55       6.9385      0.00000
     56       7.0364      0.00000

 k-point     4 :      -0.3333    0.3333    0.0000
  band No.  band energies     occupation 
      1     -20.8612      2.00000
      2     -20.8610      2.00000
      3     -16.3744      2.00000
      4     -16.3732      2.00000
      5     -16.3269      2.00000
      6     -16.3248      2.00000
      7     -16.2304      2.00000
      8     -16.2302      2.00000
      9     -16.2296      2.00000
     10     -16.2294      2.00000
     11     -16.2224      2.00000
     12     -16.2218      2.00000
     13     -14.1337      2.00000
     14     -14.0898      2.00000
     15     -13.9896      2.00000
     16     -13.9178      2.00000
     17     -13.7965      2.00000
     18     -13.7570      2.00000
     19      -7.4237      2.00000
     20      -7.4033      2.00000
     21      -7.2627      2.00000
     22      -7.2588      2.00000
     23      -7.2295      2.00000
     24      -7.2257      2.00000
     25      -7.2202      2.00000
     26      -7.2004      2.00000
     27      -3.1035      2.00000
     28      -2.8318      2.00000
     29      -2.6706      2.00000
     30      -2.2416      2.00000
     31      -2.0779      2.00000
     32      -1.9647      2.00000
     33      -1.7189      2.00000
     34      -1.5641      2.00000
     35      -1.4527      2.00000
     36      -1.3831      2.00000
     37      -1.3737      2.00000
     38      -1.1930      2.00000
     39      -1.1861      2.00000
     40      -1.1436      2.00000
     41      -1.1331      2.00000
     42      -0.9757      2.00000
     43      -0.6151      2.00000
     44      -0.5774      2.00000
     45       3.4397      0.00000
     46       4.0126      0.00000
     47       4.1660      0.00000
     48       5.2603      0.00000
     49       5.3057      0.00000
     50       5.9371      0.00000
     51       6.3110      0.00000
     52       6.4328      0.00000
     53       6.6703      0.00000
     54       6.7872      0.00000
     55       6.9800      0.00000
     56       7.2411      0.00000

 k-point     5 :       0.0000    0.3333    0.3333
  band No.  band energies     occupation 
      1     -20.8619      2.00000
      2     -20.8606      2.00000
      3     -16.3956      2.00000
      4     -16.3544      2.00000
      5     -16.3509      2.00000
      6     -16.2974      2.00000
      7     -16.2303      2.00000
      8     -16.2302      2.00000
      9     -16.2296      2.00000
     10     -16.2296      2.00000
     11     -16.2234      2.00000
     12     -16.2211      2.00000
     13     -14.2265      2.00000
     14     -13.9704      2.00000
     15     -13.9704      2.00000
     16     -13.9325      2.00000
     17     -13.8795      2.00000
     18     -13.6957      2.00000
     19      -7.7730      2.00000
     20      -7.2808      2.00000
     21      -7.2807      2.00000
     22      -7.2439      2.00000
     23      -7.2438      2.00000
     24      -7.2246      2.00000
     25      -7.2159      2.00000
     26      -6.9440      2.00000
     27      -3.2182      2.00000
     28      -3.2182      2.00000
     29      -2.6631      2.00000
     30      -2.0990      2.00000
     31      -2.0977      2.00000
     32      -1.7119      2.00000
     33      -1.7118      2.00000
     34      -1.4313      2.00000
     35      -1.4313      2.00000
     36      -1.4015      2.00000
     37      -1.3081      2.00000
     38      -1.2155      2.00000
     39      -1.2155      2.00000
     40      -1.1775      2.00000
     41      -1.0484      2.00000
     42      -1.0484      2.00000
     43      -0.7322      2.00000
     44       0.0486      2.00000
     45       3.2132      0.00000
     46       3.2133      0.00000
     47       4.3125      0.00000
     48       5.0400      0.00000
     49       5.5460      0.00000
     50       5.8739      0.00000
     51       6.2718      0.00000
     52       6.2718      0.00000
     53       6.7213      0.00000
     54       6.9698      0.00000
     55       6.9917      0.00000
     56       6.9956      0.00000

 k-point     6 :      -0.3333    0.3333    0.3333
  band No.  band energies     occupation 
      1     -20.8615      2.00000
      2     -20.8607      2.00000
      3     -16.3733      2.00000
      4     -16.3722      2.00000
      5     -16.3307      2.00000
      6     -16.3234      2.00000
      7     -16.2302      2.00000
      8     -16.2300      2.00000
      9     -16.2298      2.00000
     10     -16.2297      2.00000
     11     -16.2227      2.00000
     12     -16.2216      2.00000
     13     -14.1253      2.00000
     14     -14.1101      2.00000
     15     -13.9814      2.00000
     16     -13.9034      2.00000
     17     -13.8019      2.00000
     18     -13.7601      2.00000
     19      -7.4329      2.00000
     20      -7.3889      2.00000
     21      -7.2639      2.00000
     22      -7.2470      2.00000
     23      -7.2466      2.00000
     24      -7.2441      2.00000
     25      -7.2308      2.00000
     26      -7.1781      2.00000
     27      -3.1392      2.00000
     28      -2.9015      2.00000
     29      -2.7055      2.00000
     30      -2.1619      2.00000
     31      -2.0201      2.00000
     32      -1.9649      2.00000
     33      -1.6794      2.00000
     34      -1.6292      2.00000
     35      -1.4580      2.00000
     36      -1.3541      2.00000
     37      -1.2905      2.00000
     38      -1.2790      2.00000
     39      -1.2529      2.00000
     40      -1.1020      2.00000
     41      -1.0815      2.00000
     42      -1.0434      2.00000
     43      -0.6074      2.00000
     44      -0.4018      2.00000
     45       3.2980      0.00000
     46       4.0309      0.00000
     47       4.1553      0.00000
     48       5.3061      0.00000
     49       5.3683      0.00000
     50       5.9769      0.00000
     51       6.1840      0.00000
     52       6.3918      0.00000
     53       6.4046      0.00000
     54       6.8978      0.00000
     55       7.0371      0.00000
     56       7.0625      0.00000


--------------------------------------------------------------------------------------------------------


 soft charge-density along one line, spin component           1
         0         1         2         3         4         5         6         7         8         9
 total charge-density along one line

 pseudopotential strength for first ion, spin component:           1
 17.999  -4.712   0.000  -0.000  -0.000  -0.000   0.000   0.000
 -4.712   1.242  -0.000   0.000   0.000   0.000  -0.000  -0.000
  0.000  -0.000   2.277  -0.000  -0.000  -2.726   0.000   0.000
 -0.000   0.000  -0.000   2.274  -0.000   0.000  -2.722   0.000
 -0.000   0.000  -0.000  -0.000   2.277   0.000   0.000  -2.726
 -0.000   0.000  -2.726   0.000   0.000   3.233  -0.000  -0.000
  0.000  -0.000   0.000  -2.722   0.000  -0.000   3.227  -0.000
  0.000  -0.000   0.000   0.000  -2.726  -0.000  -0.000   3.233
 -0.000   0.000   0.000  -0.000  -0.000  -0.000   0.000   0.000
 -0.000   0.000   0.002   0.000  -0.000  -0.002  -0.000   0.000
 -0.002   0.000   0.000  -0.000  -0.000  -0.000   0.000   0.000
 -0.000   0.000  -0.000  -0.000  -0.002   0.000   0.000   0.002
  0.000  -0.000   0.000  -0.002   0.000  -0.000   0.002  -0.000
 total augmentation occupancy for first ion, spin component:           1
  1.909  -0.144   0.000   0.000   0.000   0.000   0.000  -0.000  -0.000   0.000  -0.003  -0.000   0.000
 -0.144   0.107   0.000   0.000   0.000  -0.000   0.000   0.000  -0.000  -0.000   0.009  -0.000  -0.000
  0.000   0.000   2.019  -0.000   0.000   0.005   0.000  -0.000   0.000   0.004   0.000  -0.000   0.000
  0.000   0.000  -0.000   2.008  -0.000  -0.000  -0.002  -0.000  -0.000   0.000   0.000  -0.000  -0.004
  0.000   0.000   0.000  -0.000   2.019  -0.000  -0.000   0.005   0.000  -0.000  -0.000  -0.004  -0.000
 -0.000   0.000   0.005  -0.000   0.000   0.006  -0.000   0.000  -0.000  -0.003  -0.000   0.000  -0.000
  0.000   0.000   0.000  -0.002  -0.000  -0.000   0.010  -0.000   0.000  -0.000  -0.000   0.000   0.003
  0.000   0.000   0.000  -0.000   0.005   0.000  -0.000   0.006  -0.000   0.000   0.000   0.003  -0.000
  0.000   0.000   0.000  -0.000   0.000   0.000   0.000  -0.000   0.004  -0.000   0.000  -0.000  -0.000
  0.000  -0.000   0.004   0.000  -0.000  -0.003  -0.000   0.000  -0.000   0.005  -0.000   0.000   0.000
 -0.003   0.009   0.000   0.000   0.000  -0.000  -0.000   0.000  -0.000  -0.000   0.005   0.000  -0.000
 -0.000   0.000  -0.000   0.000  -0.004   0.000   0.000   0.003  -0.000   0.000  -0.000   0.005  -0.000
  0.000  -0.000   0.000  -0.004   0.000  -0.000   0.003   0.000  -0.000   0.000  -0.000  -0.000   0.002


------------------------ aborting loop because EDIFF is reached ----------------------------------------





 total charge     

# of ion       s       p       d       tot
------------------------------------------
    1        1.784   4.718   0.016   6.518
    2        1.784   4.718   0.016   6.518
    3        1.553   0.426   9.834  11.813
    4        1.553   0.426   9.834  11.813
    5        1.615   3.283   0.007   4.904
    6        1.615   3.283   0.007   4.904
    7        1.614   3.279   0.006   4.899
    8        1.614   3.279   0.006   4.899
    9        1.615   3.289   0.007   4.910
   10        1.615   3.289   0.007   4.910
--------------------------------------------------
tot         16.361  29.991  19.739  66.090

    CHARGE:  cpu time    0.0558: real time    0.0558
    FORLOC:  cpu time    0.0020: real time    0.0020
    FORNL :  cpu time    0.2099: real time    0.2099
    STRESS:  cpu time    3.1547: real time    3.1548
    FORCOR:  cpu time    0.0736: real time    0.0736
    FORHAR:  cpu time    0.0073: real time    0.0073
    MIXING:  cpu time    0.0008: real time    0.0008
    OFIELD:  cpu time    0.0000: real time    0.0000

  FORCE on cell =-STRESS in cart. coord.  units (eV):
  Direction    XX          YY          ZZ          XY          YZ          ZX
  --------------------------------------------------------------------------------------
  Alpha Z   224.17596   224.17596   224.17596
  Ewald   -1534.71025 -1534.71025 -1538.87932    -0.00000     0.00000    -0.00000
  Hartree   625.33111   625.33111   589.70905     0.00000    -0.00000    -0.00000
  E(xc)    -369.50456  -369.47457  -369.38721    -0.03295    -0.03859    -0.01866
  Local    -724.37504  -724.37504  -684.25548    -0.00028     0.00031     0.00031
  n-local   450.17321   450.37540   449.98606     0.07885     0.03843     0.03039
  augment   203.18493   203.18493   203.00118     0.00041     0.00013     0.00012
  Kinetic  1124.68265  1125.70730  1125.36091    -1.05706    -1.40099    -0.70206
  Fock        0.00000     0.00000     0.00000     0.00000     0.00000     0.00000
  -------------------------------------------------------------------------------------
  Total      -0.41357    -0.41357    -0.28884     0.00000     0.00000    -0.00000
  in kB      -1.64675    -1.64675    -1.15011     0.00000     0.00000    -0.00000
  external pressure =       -1.48 kB  Pullay stress =        0.00 kB


 VOLUME and BASIS-vectors are now :
 -----------------------------------------------------------------------------
  energy-cutoff  :      300.00
  volume of cell :      402.37
      direct lattice vectors                 reciprocal lattice vectors
     5.790827026  5.790827026 -0.000000000     0.086343453  0.086343453  0.083339893
     5.790827026  0.000000000 -5.999527723     0.086343453 -0.086343453 -0.083339893
    -0.000000000  5.790827026 -5.999527723    -0.086343453  0.086343453 -0.083339893

  length of vectors
     8.189466118  8.338345792  8.338345792     0.147837483  0.147837483  0.147837483


 FORCES acting on ions
    electron-ion (+dipol)            ewald-force                    non-local-force                 convergence-correction
 -----------------------------------------------------------------------------------------------
   0.178E-04 -.178E-04 -.158E-07   0.192E-13 0.195E-13 -.320E-13   0.108E-18 0.108E-18 0.000E+00   0.647E-07 -.647E-07 0.106E-10
   -.178E-04 0.178E-04 0.158E-07   -.160E-13 -.711E-14 -.178E-13   0.000E+00 -.108E-18 0.000E+00   -.647E-07 0.647E-07 -.106E-10
   0.111E-14 -.718E-13 0.106E-12   -.142E-13 0.675E-13 -.428E-13   0.000E+00 -.529E-22 -.106E-21   -.778E-14 0.516E-13 0.450E-13
   -.118E-11 -.173E-11 0.427E-11   0.284E-13 -.320E-13 -.420E-13   0.000E+00 0.106E-21 0.000E+00   -.973E-13 -.195E-14 -.920E-14
   0.324E+02 -.576E-05 -.349E-05   -.327E+02 -.115E-13 0.157E-13   0.313E+00 0.347E-17 0.000E+00   0.417E-04 -.121E-07 0.221E-07
   -.324E+02 0.576E-05 0.349E-05   0.327E+02 -.711E-14 0.909E-14   -.313E+00 -.867E-18 0.000E+00   -.417E-04 0.121E-07 -.221E-07
   -.105E-06 0.246E-06 -.569E-07   -.100E-13 0.178E-14 0.405E-13   0.000E+00 -.108E-18 0.000E+00   0.378E-08 -.378E-08 -.214E-13
   0.105E-06 -.246E-06 0.569E-07   0.354E-14 -.266E-14 0.432E-13   0.000E+00 0.108E-18 0.000E+00   -.378E-08 0.378E-08 -.269E-13
   0.582E-05 -.324E+02 0.410E-05   -.211E-13 0.327E+02 -.873E-14   -.173E-17 -.313E+00 0.173E-17   0.121E-07 -.417E-04 -.221E-07
   -.582E-05 0.324E+02 -.410E-05   -.158E-13 -.327E+02 0.383E-13   0.173E-17 0.313E+00 0.347E-17   -.121E-07 0.417E-04 0.221E-07
 -----------------------------------------------------------------------------------------------
   -.286E-11 -.587E-11 0.319E-11   0.639E-14 0.711E-14 0.359E-14   -.555E-16 0.555E-16 0.520E-17   -.973E-13 0.529E-13 0.136E-13


 POSITION                                       TOTAL-FORCE (eV/Angst)
 -----------------------------------------------------------------------------------
      8.68624      8.68624     -8.99929        -0.000000      0.000000      0.000000
      2.89541      2.89541     -2.99976        -0.000000      0.000000     -0.000000
      0.00000      0.00000     -0.00000        -0.000000      0.000000      0.000000
      5.79083      5.79083     -5.99953        -0.000000      0.000000      0.000000
      5.07372      2.89541     -5.99953        -0.007826     -0.000000      0.000000
      6.50793      8.68624     -5.99953         0.007826      0.000000      0.000000
      5.79083      5.79083     -8.99929        -0.000000      0.000000     -0.000000
      5.79083      5.79083     -2.99976        -0.000000     -0.000000     -0.000000
      2.89541      6.50793     -5.99953        -0.000000      0.007826      0.000000
      8.68624      5.07372     -5.99953        -0.000000     -0.007826      0.000000
 -----------------------------------------------------------------------------------
    total drift:                               -0.000000     -0.000000      0.000000


--------------------------------------------------------------------------------------------------------



  FREE ENERGIE OF THE ION-ELECTRON SYSTEM (eV)
  ---------------------------------------------------
  free  energy   TOTEN  =      -357.43115263 eV

  energy  without entropy=     -357.43115263  energy(sigma->0) =     -357.43115263



--------------------------------------------------------------------------------------------------------


    POTLOK:  cpu time    1.2166: real time    1.2166


--------------------------------------------------------------------------------------------------------


 stress matrix after NEB project (eV)
     -0.41357      0.00000     -0.00000
      0.00000     -0.41357      0.00000
     -0.00000      0.00000     -0.28884
  FORCES: max atom, RMS     0.007826    0.004950
  FORCE total and by dimension    0.015653    0.007826
  Stress total and by dimension    0.652305    0.413566
     LOOP+:  cpu time   39.0886: real time   39.6107
    4ORBIT:  cpu time    0.0000: real time    0.0000



 total charge     

# of ion       s       p       d       tot
------------------------------------------
    1        1.784   4.718   0.016   6.518
    2        1.784   4.718   0.016   6.518
    3        1.553   0.426   9.834  11.813
    4        1.553   0.426   9.834  11.813
    5        1.615   3.283   0.007   4.904
    6        1.615   3.283   0.007   4.904
    7        1.614   3.279   0.006   4.899
    8        1.614   3.279   0.006   4.899
    9        1.615   3.289   0.007   4.910
   10        1.615   3.289   0.007   4.910
--------------------------------------------------
tot         16.361  29.991  19.739  66.090


 total amount of memory used by VASP MPI-rank0    37373. kBytes
=======================================================================

   base      :      30000. kBytes
   nonlr-proj:       2072. kBytes
   fftplans  :       2499. kBytes
   grid      :       2347. kBytes
   one-center:         31. kBytes
   wavefun   :        424. kBytes

  
  
 General timing and accounting informations for this job:
 ========================================================
  
                  Total CPU time used (sec):       43.875
                            User time (sec):       43.158
                          System time (sec):        0.716
                         Elapsed time (sec):       44.666
  
                   Maximum memory used (kb):       66068.
                   Average memory used (kb):           0.
  
                          Minor page faults:        15724
                          Major page faults:            1
                 Voluntary context switches:         1507
