PROCAR new format
# of k-points:    6         # of bands:   56         # of ions:   10

 k-point     1 :    0.00000000 0.00000000 0.00000000     weight = 0.03703704

band     1 # energy  -20.86338382 # occ.  2.00000000

ion      s      p      d    tot
    1  0.444  0.000  0.000  0.444
    2  0.444  0.000  0.000  0.444
    3  0.000  0.000  0.000  0.000
    4  0.000  0.000  0.000  0.000
    5  0.000  0.000  0.000  0.000
    6  0.000  0.000  0.000  0.000
    7  0.000  0.000  0.000  0.000
    8  0.000  0.000  0.000  0.000
    9  0.000  0.000  0.000  0.000
   10  0.000  0.000  0.000  0.000
tot    0.887  0.000  0.000  0.887

band     2 # energy  -20.85914252 # occ.  2.00000000

ion      s      p      d    tot
    1  0.444  0.000  0.000  0.444
    2  0.444  0.000  0.000  0.444
    3  0.000  0.000  0.000  0.000
    4  0.000  0.000  0.000  0.000
    5  0.000  0.000  0.000  0.000
    6  0.000  0.000  0.000  0.000
    7  0.000  0.000  0.000  0.000
    8  0.000  0.000  0.000  0.000
    9  0.000  0.000  0.000  0.000
   10  0.000  0.000  0.000  0.000
tot    0.888  0.000  0.000  0.888

band     3 # energy  -16.39580375 # occ.  2.00000000

ion      s      p      d    tot
    1  0.000  0.000  0.000  0.000
    2  0.000  0.000  0.000  0.000
    3  0.000  0.000  0.459  0.459
    4  0.000  0.000  0.459  0.459
    5  0.010  0.000  0.000  0.010
    6  0.010  0.000  0.000  0.010
    7  0.000  0.000  0.000  0.000
    8  0.000  0.000  0.000  0.000
    9  0.010  0.000  0.000  0.010
   10  0.010  0.000  0.000  0.010
tot    0.040  0.000  0.919  0.960

band     4 # energy  -16.39579378 # occ.  2.00000000

ion      s      p      d    tot
    1  0.000  0.000  0.000  0.000
    2  0.000  0.000  0.000  0.000
    3  0.000  0.000  0.461  0.461
    4  0.000  0.000  0.461  0.461
    5  0.003  0.000  0.000  0.003
    6  0.003  0.000  0.000  0.003
    7  0.012  0.000  0.000  0.013
    8  0.012  0.000  0.000  0.013
    9  0.003  0.000  0.000  0.003
   10  0.003  0.000  0.000  0.003
tot    0.038  0.000  0.922  0.961

band     5 # energy  -16.30334695 # occ.  2.00000000

ion      s      p      d    tot
    1  0.000  0.000  0.000  0.000
    2  0.000  0.000  0.000  0.000
    3  0.000  0.000  0.486  0.486
    4  0.000  0.000  0.486  0.486
    5  0.000  0.000  0.000  0.000
    6  0.000  0.000  0.000  0.000
    7  0.000  0.001  0.000  0.001
    8  0.000  0.001  0.000  0.001
    9  0.000  0.000  0.000  0.000
   10  0.000  0.000  0.000  0.000
tot    0.000  0.003  0.972  0.974

band     6 # energy  -16.29717278 # occ.  2.00000000

ion      s      p      d    tot
    1  0.000  0.000  0.000  0.000
    2  0.000  0.000  0.000  0.000
    3  0.000  0.000  0.486  0.486
    4  0.000  0.000  0.486  0.486
    5  0.000  0.001  0.000  0.001
    6  0.000  0.001  0.000  0.001
    7  0.000  0.000  0.000  0.000
    8  0.000  0.000  0.000  0.000
    9  0.000  0.001  0.000  0.001
   10  0.000  0.001  0.000  0.001
tot    0.000  0.003  0.972  0.974

band     7 # energy  -16.23072402 # occ.  2.00000000

ion      s      p      d    tot
    1  0.000  0.000  0.000  0.000
    2  0.000  0.000  0.000  0.000
    3  0.000  0.000  0.489  0.489
    4  0.000  0.000  0.489  0.489
    5  0.000  0.000  0.000  0.000
    6  0.000  0.000  0.000  0.000
    7  0.000  0.000  0.000  0.000
    8  0.000  0.000  0.000  0.000
    9  0.000  0.000  0.000  0.000
   10  0.000  0.000  0.000  0.000
tot    0.000  0.000  0.977  0.978

band     8 # energy  -16.23062483 # occ.  2.00000000

ion      s      p      d    tot
    1  0.000  0.000  0.000  0.000
    2  0.000  0.000  0.000  0.000
    3  0.000  0.000  0.489  0.489
    4  0.000  0.000  0.489  0.489
    5  0.000  0.000  0.000  0.000
    6  0.000  0.000  0.000  0.000
    7  0.000  0.000  0.000  0.000
    8  0.000  0.000  0.000  0.000
    9  0.000  0.000  0.000  0.000
   10  0.000  0.000  0.000  0.000
tot    0.000  0.000  0.977  0.978

band     9 # energy  -16.22901672 # occ.  2.00000000

ion      s      p      d    tot
    1  0.000  0.000  0.000  0.000
    2  0.000  0.000  0.000  0.000
    3  0.000  0.000  0.489  0.489
    4  0.000  0.000  0.489  0.489
    5  0.000  0.000  0.000  0.000
    6  0.000  0.000  0.000  0.000
    7  0.000  0.000  0.000  0.000
    8  0.000  0.000  0.000  0.000
    9  0.000  0.000  0.000  0.000
   10  0.000  0.000  0.000  0.000
tot    0.000  0.000  0.978  0.978

band    10 # energy  -16.22891968 # occ.  2.00000000

ion      s      p      d    tot
    1  0.000  0.000  0.000  0.000
    2  0.000  0.000  0.000  0.000
    3  0.000  0.000  0.489  0.489
    4  0.000  0.000  0.489  0.489
    5  0.000  0.000  0.000  0.000
    6  0.000  0.000  0.000  0.000
    7  0.000  0.000  0.000  0.000
    8  0.000  0.000  0.000  0.000
    9  0.000  0.000  0.000  0.000
   10  0.000  0.000  0.000  0.000
tot    0.000  0.000  0.978  0.978

band    11 # energy  -16.22324657 # occ.  2.00000000

ion      s      p      d    tot
    1  0.000  0.000  0.000  0.000
    2  0.000  0.000  0.000  0.000
    3  0.000  0.000  0.489  0.489
    4  0.000  0.000  0.489  0.489
    5  0.000  0.000  0.000  0.000
    6  0.000  0.000  0.000  0.000
    7  0.000  0.000  0.000  0.000
    8  0.000  0.000  0.000  0.000
    9  0.000  0.000  0.000  0.000
   10  0.000  0.000  0.000  0.000
tot    0.000  0.000  0.977  0.978

band    12 # energy  -16.22108281 # occ.  2.00000000

ion      s      p      d    tot
    1  0.000  0.000  0.000  0.000
    2  0.000  0.000  0.000  0.000
    3  0.000  0.000  0.489  0.489
    4  0.000  0.000  0.489  0.489
    5  0.000  0.000  0.000  0.000
    6  0.000  0.000  0.000  0.000
    7  0.000  0.000  0.000  0.000
    8  0.000  0.000  0.000  0.000
    9  0.000  0.000  0.000  0.000
   10  0.000  0.000  0.000  0.000
tot    0.000  0.000  0.978  0.978

band    13 # energy  -14.32625620 # occ.  2.00000000

ion      s      p      d    tot
    1  0.001  0.000  0.000  0.001
    2  0.001  0.000  0.000  0.001
    3  0.016  0.000  0.000  0.016
    4  0.016  0.000  0.000  0.016
    5  0.124  0.000  0.000  0.124
    6  0.124  0.000  0.000  0.124
    7  0.121  0.000  0.000  0.121
    8  0.121  0.000  0.000  0.121
    9  0.124  0.000  0.000  0.124
   10  0.124  0.000  0.000  0.124
tot    0.770  0.000  0.000  0.770

band    14 # energy  -13.97783175 # occ.  2.00000000

ion      s      p      d    tot
    1  0.000  0.000  0.000  0.000
    2  0.000  0.000  0.000  0.000
    3  0.000  0.002  0.000  0.002
    4  0.000  0.002  0.000  0.002
    5  0.000  0.000  0.000  0.000
    6  0.000  0.000  0.000  0.000
    7  0.397  0.000  0.000  0.398
    8  0.397  0.000  0.000  0.398
    9  0.000  0.000  0.000  0.000
   10  0.000  0.000  0.000  0.000
tot    0.795  0.004  0.000  0.799

band    15 # energy  -13.96837224 # occ.  2.00000000

ion      s      p      d    tot
    1  0.000  0.000  0.000  0.000
    2  0.000  0.000  0.000  0.000
    3  0.000  0.002  0.000  0.002
    4  0.000  0.002  0.000  0.002
    5  0.228  0.000  0.000  0.228
    6  0.228  0.000  0.000  0.228
    7  0.000  0.000  0.000  0.000
    8  0.000  0.000  0.000  0.000
    9  0.169  0.000  0.000  0.169
   10  0.169  0.000  0.000  0.169
tot    0.795  0.005  0.000  0.800

band    16 # energy  -13.96837109 # occ.  2.00000000

ion      s      p      d    tot
    1  0.000  0.000  0.000  0.000
    2  0.000  0.000  0.000  0.000
    3  0.000  0.002  0.000  0.002
    4  0.000  0.002  0.000  0.002
    5  0.169  0.000  0.000  0.169
    6  0.169  0.000  0.000  0.169
    7  0.000  0.000  0.000  0.000
    8  0.000  0.000  0.000  0.000
    9  0.228  0.000  0.000  0.228
   10  0.228  0.000  0.000  0.228
tot    0.795  0.005  0.000  0.800

band    17 # energy  -13.70576710 # occ.  2.00000000

ion      s      p      d    tot
    1  0.000  0.001  0.000  0.001
    2  0.000  0.001  0.000  0.001
    3  0.000  0.000  0.030  0.030
    4  0.000  0.000  0.030  0.030
    5  0.192  0.000  0.000  0.192
    6  0.192  0.000  0.000  0.192
    7  0.000  0.000  0.000  0.000
    8  0.000  0.000  0.000  0.000
    9  0.192  0.000  0.000  0.192
   10  0.192  0.000  0.000  0.192
tot    0.767  0.001  0.061  0.829

band    18 # energy  -13.69992122 # occ.  2.00000000

ion      s      p      d    tot
    1  0.000  0.000  0.000  0.000
    2  0.000  0.000  0.000  0.000
    3  0.000  0.000  0.029  0.029
    4  0.000  0.000  0.029  0.029
    5  0.063  0.000  0.000  0.063
    6  0.063  0.000  0.000  0.063
    7  0.260  0.000  0.000  0.260
    8  0.260  0.000  0.000  0.260
    9  0.063  0.000  0.000  0.063
   10  0.063  0.000  0.000  0.063
tot    0.772  0.000  0.058  0.830

band    19 # energy   -8.14714112 # occ.  2.00000000

ion      s      p      d    tot
    1  0.000  0.000  0.000  0.000
    2  0.000  0.000  0.000  0.000
    3  0.284  0.000  0.000  0.284
    4  0.284  0.000  0.000  0.284
    5  0.000  0.016  0.000  0.017
    6  0.000  0.016  0.000  0.017
    7  0.000  0.017  0.000  0.017
    8  0.000  0.017  0.000  0.017
    9  0.000  0.016  0.000  0.017
   10  0.000  0.016  0.000  0.017
tot    0.569  0.100  0.000  0.669

band    20 # energy   -7.30418040 # occ.  2.00000000

ion      s      p      d    tot
    1  0.000  0.380  0.000  0.380
    2  0.000  0.380  0.000  0.380
    3  0.000  0.000  0.000  0.000
    4  0.000  0.000  0.000  0.000
    5  0.000  0.001  0.000  0.001
    6  0.000  0.001  0.000  0.001
    7  0.000  0.001  0.000  0.001
    8  0.000  0.001  0.000  0.001
    9  0.000  0.001  0.000  0.001
   10  0.000  0.001  0.000  0.001
tot    0.000  0.765  0.000  0.765

band    21 # energy   -7.30406465 # occ.  2.00000000

ion      s      p      d    tot
    1  0.000  0.380  0.000  0.380
    2  0.000  0.380  0.000  0.380
    3  0.000  0.000  0.000  0.000
    4  0.000  0.000  0.000  0.000
    5  0.000  0.001  0.000  0.001
    6  0.000  0.001  0.000  0.001
    7  0.000  0.001  0.000  0.001
    8  0.000  0.001  0.000  0.001
    9  0.000  0.001  0.000  0.001
   10  0.000  0.001  0.000  0.001
tot    0.000  0.765  0.000  0.765

band    22 # energy   -7.25163428 # occ.  2.00000000

ion      s      p      d    tot
    1  0.000  0.380  0.000  0.380
    2  0.000  0.380  0.000  0.380
    3  0.000  0.000  0.000  0.000
    4  0.000  0.000  0.000  0.000
    5  0.000  0.002  0.000  0.002
    6  0.000  0.002  0.000  0.002
    7  0.000  0.000  0.000  0.000
    8  0.000  0.000  0.000  0.000
    9  0.000  0.002  0.000  0.002
   10  0.000  0.002  0.000  0.002
tot    0.000  0.767  0.000  0.767

band    23 # energy   -7.24361569 # occ.  2.00000000

ion      s      p      d    tot
    1  0.000  0.386  0.000  0.386
    2  0.000  0.386  0.000  0.386
    3  0.000  0.000  0.000  0.000
    4  0.000  0.000  0.000  0.000
    5  0.000  0.000  0.000  0.001
    6  0.000  0.000  0.000  0.001
    7  0.000  0.001  0.000  0.001
    8  0.000  0.001  0.000  0.001
    9  0.000  0.000  0.000  0.001
   10  0.000  0.000  0.000  0.001
tot    0.001  0.775  0.000  0.776

band    24 # energy   -7.24349905 # occ.  2.00000000

ion      s      p      d    tot
    1  0.000  0.386  0.000  0.386
    2  0.000  0.386  0.000  0.386
    3  0.000  0.000  0.000  0.000
    4  0.000  0.000  0.000  0.000
    5  0.000  0.000  0.000  0.001
    6  0.000  0.000  0.000  0.001
    7  0.000  0.001  0.000  0.001
    8  0.000  0.001  0.000  0.001
    9  0.000  0.000  0.000  0.001
   10  0.000  0.000  0.000  0.001
tot    0.001  0.775  0.000  0.776

band    25 # energy   -7.22265157 # occ.  2.00000000

ion      s      p      d    tot
    1  0.000  0.380  0.000  0.380
    2  0.000  0.380  0.000  0.380
    3  0.000  0.000  0.000  0.000
    4  0.000  0.000  0.000  0.000
    5  0.001  0.002  0.000  0.003
    6  0.001  0.002  0.000  0.003
    7  0.000  0.000  0.000  0.000
    8  0.000  0.000  0.000  0.000
    9  0.001  0.002  0.000  0.003
   10  0.001  0.002  0.000  0.003
tot    0.004  0.766  0.000  0.771

band    26 # energy   -6.44791398 # occ.  2.00000000

ion      s      p      d    tot
    1  0.000  0.000  0.000  0.000
    2  0.000  0.000  0.000  0.000
    3  0.355  0.000  0.000  0.355
    4  0.355  0.000  0.000  0.355
    5  0.012  0.002  0.001  0.015
    6  0.012  0.002  0.001  0.015
    7  0.012  0.000  0.001  0.013
    8  0.012  0.000  0.001  0.013
    9  0.012  0.002  0.001  0.015
   10  0.012  0.002  0.001  0.015
tot    0.781  0.008  0.005  0.795

band    27 # energy   -3.28620437 # occ.  2.00000000

ion      s      p      d    tot
    1  0.000  0.006  0.000  0.006
    2  0.000  0.006  0.000  0.006
    3  0.000  0.047  0.000  0.047
    4  0.000  0.047  0.000  0.047
    5  0.000  0.015  0.000  0.016
    6  0.000  0.015  0.000  0.016
    7  0.000  0.181  0.000  0.181
    8  0.000  0.181  0.000  0.181
    9  0.000  0.015  0.000  0.016
   10  0.000  0.015  0.000  0.016
tot    0.000  0.529  0.000  0.529

band    28 # energy   -3.25563373 # occ.  2.00000000

ion      s      p      d    tot
    1  0.000  0.004  0.000  0.004
    2  0.000  0.004  0.000  0.004
    3  0.000  0.047  0.000  0.047
    4  0.000  0.047  0.000  0.047
    5  0.000  0.100  0.000  0.100
    6  0.000  0.100  0.000  0.100
    7  0.000  0.014  0.000  0.014
    8  0.000  0.014  0.000  0.014
    9  0.000  0.099  0.000  0.100
   10  0.000  0.099  0.000  0.100
tot    0.000  0.528  0.000  0.529

band    29 # energy   -3.25561632 # occ.  2.00000000

ion      s      p      d    tot
    1  0.000  0.004  0.000  0.004
    2  0.000  0.004  0.000  0.004
    3  0.000  0.047  0.000  0.047
    4  0.000  0.047  0.000  0.047
    5  0.000  0.099  0.000  0.100
    6  0.000  0.099  0.000  0.100
    7  0.000  0.014  0.000  0.014
    8  0.000  0.014  0.000  0.014
    9  0.000  0.100  0.000  0.100
   10  0.000  0.100  0.000  0.100
tot    0.000  0.528  0.000  0.529

band    30 # energy   -1.92068844 # occ.  2.00000000

ion      s      p      d    tot
    1  0.000  0.016  0.000  0.016
    2  0.000  0.016  0.000  0.016
    3  0.000  0.000  0.003  0.003
    4  0.000  0.000  0.003  0.003
    5  0.000  0.127  0.000  0.127
    6  0.000  0.127  0.000  0.127
    7  0.000  0.000  0.000  0.000
    8  0.000  0.000  0.000  0.000
    9  0.000  0.127  0.000  0.127
   10  0.000  0.127  0.000  0.127
tot    0.000  0.539  0.006  0.545

band    31 # energy   -1.86192198 # occ.  2.00000000

ion      s      p      d    tot
    1  0.000  0.016  0.000  0.016
    2  0.000  0.016  0.000  0.016
    3  0.000  0.000  0.002  0.002
    4  0.000  0.000  0.002  0.002
    5  0.000  0.064  0.000  0.064
    6  0.000  0.064  0.000  0.064
    7  0.000  0.129  0.000  0.129
    8  0.000  0.129  0.000  0.129
    9  0.000  0.064  0.000  0.064
   10  0.000  0.064  0.000  0.064
tot    0.000  0.546  0.005  0.552

band    32 # energy   -1.86184557 # occ.  2.00000000

ion      s      p      d    tot
    1  0.000  0.016  0.000  0.016
    2  0.000  0.016  0.000  0.016
    3  0.000  0.000  0.002  0.002
    4  0.000  0.000  0.002  0.002
    5  0.000  0.064  0.000  0.064
    6  0.000  0.064  0.000  0.064
    7  0.000  0.129  0.000  0.129
    8  0.000  0.129  0.000  0.129
    9  0.000  0.064  0.000  0.064
   10  0.000  0.064  0.000  0.064
tot    0.000  0.546  0.005  0.552

band    33 # energy   -1.40338197 # occ.  2.00000000

ion      s      p      d    tot
    1  0.000  0.000  0.000  0.000
    2  0.000  0.000  0.000  0.000
    3  0.000  0.000  0.013  0.013
    4  0.000  0.000  0.013  0.013
    5  0.000  0.154  0.000  0.154
    6  0.000  0.154  0.000  0.154
    7  0.000  0.000  0.000  0.000
    8  0.000  0.000  0.000  0.000
    9  0.000  0.154  0.000  0.154
   10  0.000  0.154  0.000  0.154
tot    0.000  0.615  0.027  0.643

band    34 # energy   -1.37487471 # occ.  2.00000000

ion      s      p      d    tot
    1  0.000  0.000  0.000  0.000
    2  0.000  0.000  0.000  0.000
    3  0.000  0.000  0.013  0.014
    4  0.000  0.000  0.013  0.014
    5  0.000  0.050  0.000  0.050
    6  0.000  0.050  0.000  0.050
    7  0.000  0.210  0.000  0.210
    8  0.000  0.210  0.000  0.210
    9  0.000  0.050  0.000  0.050
   10  0.000  0.050  0.000  0.050
tot    0.000  0.621  0.027  0.649

band    35 # energy   -1.36364246 # occ.  2.00000000

ion      s      p      d    tot
    1  0.001  0.000  0.000  0.002
    2  0.001  0.000  0.000  0.002
    3  0.000  0.000  0.000  0.000
    4  0.000  0.000  0.000  0.000
    5  0.000  0.146  0.000  0.146
    6  0.000  0.146  0.000  0.146
    7  0.000  0.000  0.000  0.000
    8  0.000  0.000  0.000  0.000
    9  0.000  0.146  0.000  0.146
   10  0.000  0.146  0.000  0.146
tot    0.003  0.583  0.001  0.586

band    36 # energy   -1.31703154 # occ.  2.00000000

ion      s      p      d    tot
    1  0.000  0.001  0.000  0.001
    2  0.000  0.001  0.000  0.001
    3  0.000  0.005  0.000  0.005
    4  0.000  0.005  0.000  0.005
    5  0.000  0.048  0.000  0.048
    6  0.000  0.048  0.000  0.048
    7  0.000  0.193  0.000  0.193
    8  0.000  0.193  0.000  0.193
    9  0.000  0.048  0.000  0.048
   10  0.000  0.048  0.000  0.048
tot    0.002  0.588  0.000  0.590

band    37 # energy   -1.31693564 # occ.  2.00000000

ion      s      p      d    tot
    1  0.000  0.001  0.000  0.001
    2  0.000  0.001  0.000  0.001
    3  0.000  0.005  0.000  0.005
    4  0.000  0.005  0.000  0.005
    5  0.000  0.048  0.000  0.048
    6  0.000  0.048  0.000  0.048
    7  0.000  0.193  0.000  0.193
    8  0.000  0.193  0.000  0.193
    9  0.000  0.048  0.000  0.048
   10  0.000  0.048  0.000  0.048
tot    0.002  0.588  0.000  0.590

band    38 # energy   -1.12873129 # occ.  2.00000000

ion      s      p      d    tot
    1  0.000  0.011  0.000  0.011
    2  0.000  0.011  0.000  0.011
    3  0.000  0.002  0.000  0.002
    4  0.000  0.002  0.000  0.002
    5  0.000  0.123  0.000  0.123
    6  0.000  0.123  0.000  0.123
    7  0.000  0.054  0.000  0.054
    8  0.000  0.054  0.000  0.054
    9  0.000  0.123  0.000  0.123
   10  0.000  0.123  0.000  0.123
tot    0.000  0.627  0.001  0.627

band    39 # energy   -1.08229814 # occ.  2.00000000

ion      s      p      d    tot
    1  0.000  0.004  0.000  0.004
    2  0.000  0.004  0.000  0.004
    3  0.000  0.005  0.000  0.005
    4  0.000  0.005  0.000  0.005
    5  0.000  0.112  0.000  0.113
    6  0.000  0.112  0.000  0.113
    7  0.000  0.080  0.000  0.080
    8  0.000  0.080  0.000  0.080
    9  0.000  0.112  0.000  0.112
   10  0.000  0.112  0.000  0.112
tot    0.000  0.625  0.001  0.626

band    40 # energy   -1.08221356 # occ.  2.00000000

ion      s      p      d    tot
    1  0.000  0.004  0.000  0.004
    2  0.000  0.004  0.000  0.004
    3  0.000  0.005  0.000  0.005
    4  0.000  0.005  0.000  0.005
    5  0.000  0.112  0.000  0.112
    6  0.000  0.112  0.000  0.112
    7  0.000  0.080  0.000  0.080
    8  0.000  0.080  0.000  0.080
    9  0.000  0.112  0.000  0.113
   10  0.000  0.112  0.000  0.113
tot    0.000  0.625  0.001  0.626

band    41 # energy   -0.96127337 # occ.  2.00000000

ion      s      p      d    tot
    1  0.001  0.000  0.001  0.002
    2  0.001  0.000  0.001  0.002
    3  0.008  0.000  0.000  0.008
    4  0.008  0.000  0.000  0.008
    5  0.000  0.149  0.000  0.149
    6  0.000  0.149  0.000  0.149
    7  0.000  0.000  0.000  0.000
    8  0.000  0.000  0.000  0.000
    9  0.000  0.149  0.000  0.149
   10  0.000  0.149  0.000  0.149
tot    0.019  0.596  0.003  0.619

band    42 # energy   -0.89033380 # occ.  2.00000000

ion      s      p      d    tot
    1  0.000  0.000  0.001  0.001
    2  0.000  0.000  0.001  0.001
    3  0.000  0.000  0.000  0.000
    4  0.000  0.000  0.000  0.000
    5  0.000  0.079  0.000  0.079
    6  0.000  0.079  0.000  0.079
    7  0.000  0.156  0.000  0.156
    8  0.000  0.156  0.000  0.156
    9  0.000  0.079  0.000  0.079
   10  0.000  0.079  0.000  0.079
tot    0.000  0.630  0.001  0.631

band    43 # energy   -0.89025246 # occ.  2.00000000

ion      s      p      d    tot
    1  0.000  0.000  0.001  0.001
    2  0.000  0.000  0.001  0.001
    3  0.000  0.000  0.000  0.000
    4  0.000  0.000  0.000  0.000
    5  0.000  0.079  0.000  0.079
    6  0.000  0.079  0.000  0.079
    7  0.000  0.156  0.000  0.156
    8  0.000  0.156  0.000  0.156
    9  0.000  0.079  0.000  0.079
   10  0.000  0.079  0.000  0.079
tot    0.000  0.630  0.001  0.631

band    44 # energy    0.58611678 # occ.  2.00000000

ion      s      p      d    tot
    1  0.000  0.000  0.000  0.000
    2  0.000  0.000  0.000  0.000
    3  0.128  0.000  0.000  0.128
    4  0.128  0.000  0.000  0.128
    5  0.000  0.089  0.000  0.089
    6  0.000  0.089  0.000  0.089
    7  0.000  0.082  0.000  0.082
    8  0.000  0.082  0.000  0.082
    9  0.000  0.089  0.000  0.089
   10  0.000  0.089  0.000  0.089
tot    0.257  0.521  0.001  0.779

band    45 # energy    2.66411435 # occ.  0.00000000

ion      s      p      d    tot
    1  0.000  0.000  0.001  0.001
    2  0.000  0.000  0.001  0.001
    3  0.000  0.189  0.000  0.189
    4  0.000  0.189  0.000  0.189
    5  0.000  0.000  0.003  0.003
    6  0.000  0.000  0.003  0.003
    7  0.023  0.000  0.008  0.031
    8  0.023  0.000  0.008  0.031
    9  0.000  0.000  0.003  0.003
   10  0.000  0.000  0.003  0.003
tot    0.045  0.378  0.031  0.454

band    46 # energy    2.96481437 # occ.  0.00000000

ion      s      p      d    tot
    1  0.000  0.000  0.002  0.002
    2  0.000  0.000  0.002  0.002
    3  0.000  0.180  0.000  0.180
    4  0.000  0.180  0.000  0.180
    5  0.011  0.006  0.005  0.023
    6  0.011  0.006  0.005  0.023
    7  0.000  0.003  0.003  0.006
    8  0.000  0.003  0.003  0.006
    9  0.011  0.006  0.005  0.023
   10  0.011  0.006  0.005  0.023
tot    0.044  0.391  0.031  0.466

band    47 # energy    2.96493180 # occ.  0.00000000

ion      s      p      d    tot
    1  0.000  0.000  0.002  0.002
    2  0.000  0.000  0.002  0.002
    3  0.000  0.180  0.000  0.180
    4  0.000  0.180  0.000  0.180
    5  0.011  0.006  0.005  0.023
    6  0.011  0.006  0.005  0.023
    7  0.000  0.003  0.003  0.006
    8  0.000  0.003  0.003  0.006
    9  0.011  0.006  0.005  0.023
   10  0.011  0.006  0.005  0.023
tot    0.044  0.391  0.031  0.466

band    48 # energy    4.71938756 # occ.  0.00000000

ion      s      p      d    tot
    1  0.022  0.000  0.003  0.025
    2  0.022  0.000  0.003  0.025
    3  0.004  0.000  0.000  0.004
    4  0.004  0.000  0.000  0.004
    5  0.007  0.000  0.001  0.009
    6  0.007  0.000  0.001  0.009
    7  0.013  0.000  0.002  0.016
    8  0.013  0.000  0.002  0.016
    9  0.007  0.000  0.001  0.009
   10  0.007  0.000  0.001  0.009
tot    0.107  0.000  0.017  0.124

band    49 # energy    5.57112657 # occ.  0.00000000

ion      s      p      d    tot
    1  0.000  0.000  0.060  0.060
    2  0.000  0.000  0.060  0.060
    3  0.000  0.000  0.000  0.000
    4  0.000  0.000  0.000  0.000
    5  0.002  0.002  0.002  0.007
    6  0.002  0.002  0.002  0.007
    7  0.000  0.000  0.007  0.007
    8  0.000  0.000  0.007  0.007
    9  0.002  0.002  0.002  0.007
   10  0.002  0.002  0.002  0.007
tot    0.010  0.010  0.145  0.164

band    50 # energy    6.45546304 # occ.  0.00000000

ion      s      p      d    tot
    1  0.001  0.000  0.059  0.059
    2  0.001  0.000  0.059  0.059
    3  0.001  0.000  0.000  0.002
    4  0.001  0.000  0.000  0.002
    5  0.006  0.008  0.007  0.021
    6  0.006  0.008  0.007  0.021
    7  0.002  0.000  0.000  0.003
    8  0.002  0.000  0.000  0.003
    9  0.006  0.008  0.007  0.021
   10  0.006  0.008  0.007  0.021
tot    0.033  0.032  0.148  0.213

band    51 # energy    6.49629366 # occ.  0.00000000

ion      s      p      d    tot
    1  0.000  0.002  0.057  0.059
    2  0.000  0.002  0.057  0.059
    3  0.000  0.000  0.009  0.009
    4  0.000  0.000  0.009  0.009
    5  0.000  0.000  0.009  0.009
    6  0.000  0.000  0.009  0.009
    7  0.000  0.006  0.007  0.014
    8  0.000  0.006  0.007  0.014
    9  0.000  0.000  0.009  0.009
   10  0.000  0.000  0.009  0.009
tot    0.000  0.017  0.183  0.200

band    52 # energy    6.49630560 # occ.  0.00000000

ion      s      p      d    tot
    1  0.000  0.002  0.057  0.059
    2  0.000  0.002  0.057  0.060
    3  0.000  0.000  0.009  0.009
    4  0.000  0.000  0.009  0.009
    5  0.000  0.000  0.009  0.009
    6  0.000  0.000  0.009  0.009
    7  0.000  0.006  0.007  0.014
    8  0.000  0.006  0.007  0.014
    9  0.000  0.000  0.009  0.009
   10  0.000  0.000  0.009  0.009
tot    0.000  0.017  0.183  0.200

band    53 # energy    6.50351978 # occ.  0.00000000

ion      s      p      d    tot
    1  0.000  0.000  0.003  0.003
    2  0.000  0.000  0.003  0.003
    3  0.000  0.183  0.000  0.183
    4  0.000  0.182  0.000  0.182
    5  0.001  0.054  0.002  0.056
    6  0.001  0.054  0.002  0.056
    7  0.000  0.007  0.002  0.009
    8  0.000  0.007  0.002  0.009
    9  0.000  0.062  0.002  0.065
   10  0.000  0.062  0.002  0.065
tot    0.002  0.611  0.018  0.632

band    54 # energy    6.50377880 # occ.  0.00000000

ion      s      p      d    tot
    1  0.000  0.000  0.003  0.003
    2  0.000  0.000  0.003  0.003
    3  0.000  0.183  0.000  0.183
    4  0.000  0.183  0.000  0.183
    5  0.000  0.062  0.002  0.065
    6  0.000  0.062  0.002  0.065
    7  0.000  0.007  0.002  0.009
    8  0.000  0.007  0.002  0.009
    9  0.001  0.054  0.002  0.056
   10  0.001  0.054  0.002  0.056
tot    0.002  0.612  0.018  0.632

band    55 # energy    6.58416179 # occ.  0.00000000

ion      s      p      d    tot
    1  0.031  0.000  0.001  0.031
    2  0.031  0.000  0.001  0.031
    3  0.000  0.000  0.000  0.000
    4  0.000  0.000  0.000  0.000
    5  0.000  0.003  0.008  0.011
    6  0.000  0.003  0.008  0.011
    7  0.000  0.000  0.007  0.007
    8  0.000  0.000  0.007  0.007
    9  0.000  0.003  0.008  0.011
   10  0.000  0.003  0.008  0.011
tot    0.061  0.011  0.050  0.122

band    56 # energy    6.71857072 # occ.  0.00000000

ion      s      p      d    tot
    1  0.000  0.000  0.033  0.033
    2  0.000  0.000  0.035  0.035
    3  0.000  0.154  0.000  0.154
    4  0.000  0.108  0.000  0.108
    5  0.000  0.005  0.002  0.007
    6  0.000  0.006  0.002  0.008
    7  0.001  0.072  0.004  0.077
    8  0.001  0.072  0.004  0.077
    9  0.000  0.006  0.002  0.008
   10  0.000  0.005  0.002  0.007
tot    0.003  0.428  0.082  0.514


 k-point     2 :    0.33333333 0.00000000 0.00000000     weight = 0.29629630

band     1 # energy  -20.86227607 # occ.  2.00000000

ion      s      p      d    tot
    1  0.444  0.000  0.000  0.444
    2  0.444  0.000  0.000  0.444
    3  0.000  0.000  0.000  0.000
    4  0.000  0.000  0.000  0.000
    5  0.000  0.000  0.000  0.000
    6  0.000  0.000  0.000  0.000
    7  0.000  0.000  0.000  0.000
    8  0.000  0.000  0.000  0.000
    9  0.000  0.000  0.000  0.000
   10  0.000  0.000  0.000  0.000
tot    0.887  0.000  0.000  0.888

band     2 # energy  -20.86015795 # occ.  2.00000000

ion      s      p      d    tot
    1  0.444  0.000  0.000  0.444
    2  0.444  0.000  0.000  0.444
    3  0.000  0.000  0.000  0.000
    4  0.000  0.000  0.000  0.000
    5  0.000  0.000  0.000  0.000
    6  0.000  0.000  0.000  0.000
    7  0.000  0.000  0.000  0.000
    8  0.000  0.000  0.000  0.000
    9  0.000  0.000  0.000  0.000
   10  0.000  0.000  0.000  0.000
tot    0.888  0.000  0.000  0.888

band     3 # energy  -16.37411807 # occ.  2.00000000

ion      s      p      d    tot
    1  0.000  0.000  0.000  0.000
    2  0.000  0.000  0.000  0.000
    3  0.000  0.000  0.466  0.466
    4  0.000  0.000  0.466  0.466
    5  0.003  0.000  0.000  0.003
    6  0.003  0.000  0.000  0.003
    7  0.010  0.000  0.000  0.010
    8  0.010  0.000  0.000  0.010
    9  0.003  0.000  0.000  0.003
   10  0.003  0.000  0.000  0.003
tot    0.030  0.001  0.933  0.964

band     4 # energy  -16.37251719 # occ.  2.00000000

ion      s      p      d    tot
    1  0.000  0.000  0.000  0.000
    2  0.000  0.000  0.000  0.000
    3  0.000  0.000  0.465  0.465
    4  0.000  0.000  0.465  0.465
    5  0.008  0.000  0.000  0.008
    6  0.008  0.000  0.000  0.008
    7  0.000  0.000  0.000  0.000
    8  0.000  0.000  0.000  0.000
    9  0.008  0.000  0.000  0.008
   10  0.008  0.000  0.000  0.008
tot    0.032  0.001  0.931  0.963

band     5 # energy  -16.32795955 # occ.  2.00000000

ion      s      p      d    tot
    1  0.000  0.000  0.000  0.000
    2  0.000  0.000  0.000  0.000
    3  0.000  0.000  0.479  0.479
    4  0.000  0.000  0.479  0.479
    5  0.001  0.000  0.000  0.001
    6  0.001  0.000  0.000  0.001
    7  0.004  0.001  0.000  0.004
    8  0.004  0.001  0.000  0.004
    9  0.001  0.000  0.000  0.001
   10  0.001  0.000  0.000  0.001
tot    0.011  0.002  0.958  0.970

band     6 # energy  -16.32342902 # occ.  2.00000000

ion      s      p      d    tot
    1  0.000  0.000  0.000  0.000
    2  0.000  0.000  0.000  0.000
    3  0.000  0.000  0.478  0.478
    4  0.000  0.000  0.478  0.478
    5  0.003  0.000  0.000  0.003
    6  0.003  0.000  0.000  0.003
    7  0.000  0.000  0.000  0.000
    8  0.000  0.000  0.000  0.000
    9  0.003  0.000  0.000  0.003
   10  0.003  0.000  0.000  0.003
tot    0.012  0.002  0.957  0.970

band     7 # energy  -16.23045124 # occ.  2.00000000

ion      s      p      d    tot
    1  0.000  0.000  0.000  0.000
    2  0.000  0.000  0.000  0.000
    3  0.000  0.000  0.489  0.489
    4  0.000  0.000  0.489  0.489
    5  0.000  0.000  0.000  0.000
    6  0.000  0.000  0.000  0.000
    7  0.000  0.000  0.000  0.000
    8  0.000  0.000  0.000  0.000
    9  0.000  0.000  0.000  0.000
   10  0.000  0.000  0.000  0.000
tot    0.000  0.000  0.977  0.978

band     8 # energy  -16.23020759 # occ.  2.00000000

ion      s      p      d    tot
    1  0.000  0.000  0.000  0.000
    2  0.000  0.000  0.000  0.000
    3  0.000  0.000  0.489  0.489
    4  0.000  0.000  0.489  0.489
    5  0.000  0.000  0.000  0.000
    6  0.000  0.000  0.000  0.000
    7  0.000  0.000  0.000  0.000
    8  0.000  0.000  0.000  0.000
    9  0.000  0.000  0.000  0.000
   10  0.000  0.000  0.000  0.000
tot    0.000  0.000  0.977  0.978

band     9 # energy  -16.22957813 # occ.  2.00000000

ion      s      p      d    tot
    1  0.000  0.000  0.000  0.000
    2  0.000  0.000  0.000  0.000
    3  0.000  0.000  0.489  0.489
    4  0.000  0.000  0.489  0.489