<?xml version="1.0" encoding="ISO-8859-1"?>
<modeling>
 <generator>
  <i name="program" type="string">vasp </i>
  <i name="version" type="string">5.4.4.18Apr17-6-g9f103f2a35  </i>
  <i name="subversion" type="string">(build Jun 22 2020 09:27:21) complex            parallel </i>
  <i name="platform" type="string">tx2_gcc-7.3_libsci-18.07_cray-fftw-3.3.8 </i>
  <i name="date" type="string">2021 09 20 </i>
  <i name="time" type="string">15:14:56 </i>
 </generator>
 <incar>
  <i type="string" name="SYSTEM"> CsPbBr3 cubic bulk</i>
  <i type="string" name="PREC">accurate</i>
  <i type="string" name="ALGO"> NORMAL   ! Electronic minimisation algo</i>
  <i type="logical" name="ADDGRID"> T  </i>
  <i type="int" name="NELM">   200</i>
  <i type="int" name="IBRION">     2</i>
  <i name="EDIFF">      0.00000100</i>
  <i name="EDIFFG">     -0.01000000</i>
  <i type="int" name="NSW">     0</i>
  <i type="int" name="ISIF">     3</i>
  <i type="int" name="ISYM">     2</i>
  <i name="ENCUT">    300.00000000</i>
  <i name="POTIM">      0.50000000</i>
  <i type="string" name="LREAL"> AUTO</i>
  <i type="int" name="ISMEAR">     0</i>
  <i name="SIGMA">      0.01000000</i>
  <i type="logical" name="LWAVE"> F  </i>
  <i type="logical" name="LCHARG"> F  </i>
  <i type="logical" name="LVHAR"> T  </i>
  <i type="int" name="LORBIT">    10</i>
  <i type="logical" name="LASPH"> T  </i>
  <v type="int" name="KPOINT_BSE">    -1     0     0     0</v>
  <i type="int" name="NELM">   200</i>
  <i type="string" name="METAGGA"> SCAN       ! PBE exchange-correlation</i>
  <i type="logical" name="LASPH"> T  </i>
 </incar>
 <structure name="primitive_cell" >
  <crystal>
   <varray name="basis" >
    <v>       5.79082703       5.79082703      -0.00000000 </v>
    <v>       5.79082703       0.00000000      -5.99952772 </v>
    <v>      -0.00000000       5.79082703      -5.99952772 </v>
   </varray>
   <i name="volume">    402.37245736 </i>
   <varray name="rec_basis" >
    <v>       0.08634345       0.08634345       0.08333989 </v>
    <v>       0.08634345      -0.08634345      -0.08333989 </v>
    <v>      -0.08634345       0.08634345      -0.08333989 </v>
   </varray>
  </crystal>
  <varray name="positions" >
   <v>      -0.25000000      -0.25000000      -0.25000000 </v>
   <v>       0.18808263      -0.31191737       0.31191737 </v>
   <v>      -0.18808263       0.31191737      -0.31191737 </v>
   <v>       0.31191737       0.18808263      -0.18808263 </v>
   <v>      -0.31191737      -0.18808263       0.18808263 </v>
   <v>       0.25000000      -0.25000000      -0.25000000 </v>
   <v>      -0.25000000       0.25000000       0.25000000 </v>
   <v>       0.00000000       0.00000000       0.00000000 </v>
   <v>      -0.50000000      -0.50000000      -0.50000000 </v>
   <v>       0.25000000       0.25000000       0.25000000 </v>
  </varray>
 </structure>
 <varray name="primitive_index" >
  <v type="int" >        1 </v>
  <v type="int" >        5 </v>
  <v type="int" >        6 </v>
  <v type="int" >        9 </v>
  <v type="int" >       10 </v>
  <v type="int" >        7 </v>
  <v type="int" >        8 </v>
  <v type="int" >        3 </v>
  <v type="int" >        4 </v>
  <v type="int" >        2 </v>
 </varray>
 <kpoints>
  <generation param="Gamma">
   <v type="int" name="divisions">       3        3        3 </v>
   <v name="usershift">      0.00000000       0.00000000       0.00000000 </v>
   <v name="genvec1">      0.33333333      -0.00000000      -0.00000000 </v>
   <v name="genvec2">     -0.00000000       0.33333333       0.00000000 </v>
   <v name="genvec3">      0.00000000       0.00000000       0.33333333 </v>
   <v name="shift">      0.00000000       0.00000000       0.00000000 </v>
  </generation>
  <varray name="kpointlist" >
   <v>       0.00000000       0.00000000       0.00000000 </v>
   <v>       0.33333333       0.00000000       0.00000000 </v>
   <v>       0.33333333       0.33333333       0.00000000 </v>
   <v>      -0.33333333       0.33333333       0.00000000 </v>
   <v>       0.00000000       0.33333333       0.33333333 </v>
   <v>      -0.33333333       0.33333333       0.33333333 </v>
  </varray>
  <varray name="weights" >
   <v>       0.03703704 </v>
   <v>       0.29629630 </v>
   <v>       0.14814815 </v>
   <v>       0.29629630 </v>
   <v>       0.07407407 </v>
   <v>       0.14814815 </v>
  </varray>
 </kpoints>
 <parameters>
  <separator name="general" >
   <i type="string" name="SYSTEM">CsPbBr3 cubic bulk</i>
   <i type="logical" name="LCOMPAT"> F  </i>
  </separator>
  <separator name="electronic" >
   <i type="string" name="PREC">accura</i>
   <i name="ENMAX">    300.00000000</i>
   <i name="ENAUG">    503.85200000</i>
   <i name="EDIFF">      0.00000100</i>
   <i type="int" name="IALGO">    38</i>
   <i type="int" name="IWAVPR">    10</i>
   <i type="int" name="NBANDS">    56</i>
   <i name="NELECT">     88.00000000</i>
   <i type="int" name="TURBO">     0</i>
   <i type="int" name="IRESTART">     0</i>
   <i type="int" name="NREBOOT">     0</i>
   <i type="int" name="NMIN">     0</i>
   <i name="EREF">      0.00000000</i>
   <separator name="electronic smearing" >
    <i type="int" name="ISMEAR">     0</i>
    <i name="SIGMA">      0.01000000</i>
    <i name="KSPACING">      0.50000000</i>
    <i type="logical" name="KGAMMA"> T  </i>
   </separator>
   <separator name="electronic projectors" >
    <i type="logical" name="LREAL"> T  </i>
    <v name="ROPT">     -0.00025000     -0.00025000     -0.00025000</v>
    <i type="int" name="LMAXPAW">  -100</i>
    <i type="int" name="LMAXMIX">     2</i>
    <i type="logical" name="NLSPLINE"> F  </i>
   </separator>
   <separator name="electronic startup" >
    <i type="int" name="ISTART">     0</i>
    <i type="int" name="ICHARG">     2</i>
    <i type="int" name="INIWAV">     1</i>
   </separator>
   <separator name="electronic spin" >
    <i type="int" name="ISPIN">     1</i>
    <i type="logical" name="LNONCOLLINEAR"> F  </i>
    <v name="MAGMOM">      1.00000000      1.00000000      1.00000000      1.00000000      1.00000000      1.00000000      1.00000000      1.00000000      1.00000000      1.00000000</v>
    <i name="NUPDOWN">     -1.00000000</i>
    <i type="logical" name="LSORBIT"> F  </i>
    <v name="SAXIS">      0.00000000      0.00000000      1.00000000</v>
    <i type="logical" name="LSPIRAL"> F  </i>
    <v name="QSPIRAL">      0.00000000      0.00000000      0.00000000</v>
    <i type="logical" name="LZEROZ"> F  </i>
   </separator>
   <separator name="electronic exchange-correlation" >
    <i type="logical" name="LASPH"> T  </i>
    <i type="logical" name="LMETAGGA"> F  </i>
   </separator>
   <separator name="electronic convergence" >
    <i type="int" name="NELM">   200</i>
    <i type="int" name="NELMDL">     0</i>
    <i type="int" name="NELMIN">     2</i>
    <i name="ENINI">    300.00000000</i>
    <separator name="electronic convergence detail" >
     <i type="logical" name="LDIAG"> T  </i>
     <i type="logical" name="LSUBROT"> F  </i>
     <i name="WEIMIN">      0.00000000</i>
     <i name="EBREAK">      0.00000000</i>
     <i name="DEPER">      0.30000000</i>
     <i type="int" name="NRMM">     4</i>
     <i name="TIME">      0.40000000</i>
    </separator>
   </separator>
   <separator name="electronic mixer" >
    <i name="AMIX">      0.40000000</i>
    <i name="BMIX">      1.00000000</i>
    <i name="AMIN">      0.10000000</i>
    <i name="AMIX_MAG">      1.60000000</i>
    <i name="BMIX_MAG">      1.00000000</i>
    <separator name="electronic mixer details" >
     <i type="int" name="IMIX">     4</i>
     <i type="logical" name="MIXFIRST"> F  </i>
     <i type="int" name="MAXMIX">   -45</i>
     <i name="WC">    100.00000000</i>
     <i type="int" name="INIMIX">     1</i>
     <i type="int" name="MIXPRE">     1</i>
     <i type="int" name="MREMOVE">     5</i>
    </separator>
   </separator>
   <separator name="electronic dipolcorrection" >
    <i type="logical" name="LDIPOL"> F  </i>
    <i type="logical" name="LMONO"> F  </i>
    <i type="int" name="IDIPOL">     0</i>
    <i name="EPSILON">      1.00000000</i>
    <v name="DIPOL">   -100.00000000   -100.00000000   -100.00000000</v>
    <i name="EFIELD">      0.00000000</i>
   </separator>
  </separator>
  <separator name="grids" >
   <i type="int" name="NGX">    48</i>
   <i type="int" name="NGY">    48</i>
   <i type="int" name="NGZ">    48</i>
   <i type="int" name="NGXF">    96</i>
   <i type="int" name="NGYF">    96</i>
   <i type="int" name="NGZF">    96</i>
   <i type="logical" name="ADDGRID"> T  </i>
  </separator>
  <separator name="ionic" >
   <i type="int" name="NSW">     0</i>
   <i type="int" name="IBRION">    -1</i>
   <i type="int" name="MDALGO">     0</i>
   <i type="int" name="ISIF">     3</i>
   <i name="PSTRESS">      0.00000000</i>
   <i name="EDIFFG">     -0.01000000</i>
   <i type="int" name="NFREE">     1</i>
   <i name="POTIM">      0.50000000</i>
   <i name="SMASS">     -3.00000000</i>
   <i name="SCALEE">      1.00000000</i>
  </separator>
  <separator name="ionic md" >
   <i name="TEBEG">      0.00010000</i>
   <i name="TEEND">      0.00010000</i>
   <i type="int" name="NBLOCK">     1</i>
   <i type="int" name="KBLOCK">     1</i>
   <i type="int" name="NPACO">   256</i>
   <i name="APACO">     16.00000000</i>
  </separator>
  <separator name="symmetry" >
   <i type="int" name="ISYM">     2</i>
   <i name="SYMPREC">      0.00001000</i>
  </separator>
  <separator name="dos" >
   <i type="int" name="LORBIT">    10</i>
   <v name="RWIGS">     -1.00000000     -1.00000000     -1.00000000</v>
   <i type="int" name="NEDOS">   301</i>
   <i name="EMIN">     10.00000000</i>
   <i name="EMAX">    -10.00000000</i>
   <i name="EFERMI">      0.00000000</i>
  </separator>
  <separator name="writing" >
   <i type="int" name="NWRITE">     2</i>
   <i type="logical" name="LWAVE"> F  </i>
   <i type="logical" name="LDOWNSAMPLE"> F  </i>
   <i type="logical" name="LCHARG"> F  </i>
   <i type="logical" name="LPARD"> F  </i>
   <i type="logical" name="LVTOT"> F  </i>
   <i type="logical" name="LVHAR"> T  </i>
   <i type="logical" name="LELF"> F  </i>
   <i type="logical" name="LOPTICS"> F  </i>
   <v name="STM">      0.00000000      0.00000000      0.00000000      0.00000000      0.00000000      0.00000000      0.00000000</v>
  </separator>
  <separator name="performance" >
   <i type="int" name="NPAR">     8</i>
   <i type="int" name="NSIM">     4</i>
   <i type="int" name="NBLK">    -1</i>
   <i type="logical" name="LPLANE"> T  </i>
   <i type="logical" name="LSCALAPACK"> T  </i>
   <i type="logical" name="LSCAAWARE"> F  </i>
   <i type="logical" name="LSCALU"> F  </i>
   <i type="logical" name="LASYNC"> F  </i>
   <i type="logical" name="LORBITALREAL"> F  </i>
  </separator>
  <separator name="miscellaneous" >
   <i type="int" name="IDIOT">     3</i>
   <i type="int" name="ISPECIAL">     0</i>
   <i type="logical" name="LMUSIC"> F  </i>
   <v name="POMASS">    132.90000000    207.20000000     79.90400000</v>
   <v name="DARWINR">      0.00000000      0.00000000      0.00000000</v>
   <v name="DARWINV">      1.00000000      1.00000000      1.00000000</v>
   <i type="logical" name="LCORR"> T  </i>
  </separator>
  <i type="logical" name="GGA_COMPAT"> T  </i>
  <i type="logical" name="LBERRY"> F  </i>
  <i type="int" name="ICORELEVEL">     0</i>
  <i type="logical" name="LDAU"> F  </i>
  <i type="int" name="I_CONSTRAINED_M">     0</i>
  <separator name="electronic exchange-correlation" >
   <i type="string" name="GGA">--</i>
   <i type="int" name="VOSKOWN">     0</i>
   <i type="logical" name="LHFCALC"> F  </i>
   <i type="string" name="PRECFOCK"></i>
   <i type="logical" name="LSYMGRAD"> F  </i>
   <i type="logical" name="LHFONE"> F  </i>
   <i type="logical" name="LRHFCALC"> F  </i>
   <i type="logical" name="LTHOMAS"> F  </i>
   <i type="logical" name="LMODELHF"> F  </i>
   <i name="ENCUT4O">     -1.00000000</i>
   <i type="int" name="EXXOEP">     0</i>
   <i type="int" name="FOURORBIT">     0</i>
   <i name="AEXX">      0.00000000</i>
   <i name="HFALPHA">      0.00000000</i>
   <i name="MCALPHA">      0.00000000</i>
   <i name="ALDAX">      1.00000000</i>
   <i name="AGGAX">      1.00000000</i>
   <i name="ALDAC">      1.00000000</i>
   <i name="AGGAC">      1.00000000</i>
   <i type="int" name="NKREDX">     1</i>
   <i type="int" name="NKREDY">     1</i>
   <i type="int" name="NKREDZ">     1</i>
   <i type="logical" name="SHIFTRED"> F  </i>
   <i type="logical" name="ODDONLY"> F  </i>
   <i type="logical" name="EVENONLY"> F  </i>
   <i type="int" name="LMAXFOCK">     0</i>
   <i type="int" name="NMAXFOCKAE">     0</i>
   <i type="logical" name="LFOCKAEDFT"> F  </i>
   <i name="HFSCREEN">      0.00000000</i>
   <i name="HFSCREENC">      0.00000000</i>
   <i type="int" name="NBANDSGWLOW">     0</i>
  </separator>
  <separator name="vdW DFT" >
   <i type="logical" name="LUSE_VDW"> F  </i>
   <i name="Zab_VDW">     -0.84910000</i>
   <i name="PARAM1">      0.12340000</i>
   <i name="PARAM2">      1.00000000</i>
   <i name="PARAM3">      0.00000000</i>
  </separator>
  <separator name="model GW" >
   <i type="int" name="MODEL_GW">     0</i>
   <i name="MODEL_EPS0">     24.14234744</i>
   <i name="MODEL_ALPHA">      1.00000000</i>
  </separator>
  <separator name="linear response parameters" >
   <i type="logical" name="LEPSILON"> F  </i>
   <i type="logical" name="LRPA"> F  </i>
   <i type="logical" name="LNABLA"> F  </i>
   <i type="logical" name="LVEL"> F  </i>
   <i type="int" name="KINTER">     0</i>
   <i name="CSHIFT">      0.10000000</i>
   <i name="OMEGAMAX">     -1.00000000</i>
   <i name="DEG_THRESHOLD">      0.00200000</i>
   <i name="RTIME">     -0.10000000</i>
   <i name="WPLASMAI">      0.00000000</i>
   <v name="DFIELD">      0.00000000      0.00000000      0.00000000</v>
   <v name="WPLASMA">      0.00000000      0.00000000      0.00000000      0.00000000      0.00000000      0.00000000      0.00000000      0.00000000      0.00000000</v>
  </separator>
  <separator name="orbital magnetization" >
   <i type="logical" name="NUCIND"> F  </i>
   <v name="MAGPOS">      0.00000000      0.00000000      0.00000000</v>
   <i type="logical" name="LNICSALL"> T  </i>
   <i type="logical" name="ORBITALMAG"> F  </i>
   <i type="logical" name="LMAGBLOCH"> F  </i>
   <i type="logical" name="LCHIMAG"> F  </i>
   <i type="logical" name="LGAUGE"> T  </i>
   <i type="int" name="MAGATOM">     0</i>
   <v name="MAGDIPOL">      0.00000000      0.00000000      0.00000000</v>
   <v name="AVECCONST">      0.00000000      0.00000000      0.00000000</v>
  </separator>
  <separator name="response functions" >
   <i type="logical" name="LADDER"> F  </i>
   <i type="logical" name="LRPAFORCE"> F  </i>
   <i type="logical" name="LFXC"> F  </i>
   <i type="logical" name="LHARTREE"> T  </i>
   <i type="int" name="IBSE">     0</i>
   <v type="int" name="KPOINT">    -1     0     0     0</v>
   <i type="logical" name="LTCTE"> F  </i>
   <i type="logical" name="LTETE"> F  </i>
   <i type="logical" name="LTRIPLET"> F  </i>
   <i type="logical" name="LFXCEPS"> F  </i>
   <i type="logical" name="LFXHEG"> F  </i>
   <i type="int" name="NATURALO">     2</i>
   <i type="logical" name="L2ORDER"> F  </i>
   <i type="logical" name="LMP2LT"> F  </i>
   <i type="logical" name="LUSEW"> F  </i>
   <i name="ENCUTGW">     -2.00000000</i>
   <i name="ENCUTGWSOFT">     -2.00000000</i>
   <i name="ENCUTLF">     -1.00000000</i>
   <i type="int" name="LMAXMP2">    -1</i>
   <i name="SCISSOR">      0.00000000</i>
   <i type="int" name="NOMEGA">     0</i>
   <i type="int" name="NOMEGAR">     0</i>
   <i type="int" name="NBANDSGW">    -1</i>
   <i type="int" name="NBANDSO">    -1</i>
   <i type="int" name="NBANDSV">    -1</i>
   <i type="int" name="NELM">   200</i>
   <i type="int" name="NELMHF">     1</i>
   <i type="int" name="DIM">     3</i>
   <i type="int" name="ANTIRES">     0</i>
   <i name="OMEGAMAX">    -30.00000000</i>
   <i name="OMEGAMIN">    -30.00000000</i>
   <i name="OMEGATL">   -200.00000000</i>
   <i type="int" name="OMEGAGRID">   140</i>
   <i name="CSHIFT">     -0.10000000</i>
   <i type="logical" name="SELFENERGY"> F  </i>
   <i type="logical" name="LSPECTRAL"> F  </i>
   <i type="logical" name="LSPECTRALGW"> F  </i>
   <i type="logical" name="LSINGLES"> F  </i>
   <i type="logical" name="LFERMIGW"> F  </i>
   <i type="logical" name="ODDONLYGW"> F  </i>
   <i type="logical" name="EVENONLYGW"> F  </i>
   <i type="int" name="NKREDLFX">     1</i>
   <i type="int" name="NKREDLFY">     1</i>
   <i type="int" name="NKREDLFZ">     1</i>
   <i type="int" name="MAXMEM">  2800</i>
   <i type="int" name="TELESCOPE">     0</i>
   <i type="int" name="TAUPAR">     1</i>
   <i type="int" name="OMEGAPAR">    -1</i>
   <i name="LAMBDA">      1.00000000</i>
  </separator>
  <separator name="External order field" >
   <i name="OFIELD_KAPPA">      0.00000000</i>
   <v name="OFIELD_K">      0.00000000      0.00000000      0.00000000</v>
   <i name="OFIELD_Q6_NEAR">      0.00000000</i>
   <i name="OFIELD_Q6_FAR">      0.00000000</i>
   <i name="OFIELD_A">      0.00000000</i>
  </separator>
 </parameters>
 <atominfo>
  <atoms>      10 </atoms>
  <types>       3 </types>
  <array name="atoms" >
   <dimension dim="1">ion</dimension>
   <field type="string">element</field>
   <field type="int">atomtype</field>
   <set>
    <rc><c>Cs</c><c>   1</c></rc>
    <rc><c>Cs</c><c>   1</c></rc>
    <rc><c>Pb</c><c>   2</c></rc>
    <rc><c>Pb</c><c>   2</c></rc>
    <rc><c>Br</c><c>   3</c></rc>
    <rc><c>Br</c><c>   3</c></rc>
    <rc><c>Br</c><c>   3</c></rc>
    <rc><c>Br</c><c>   3</c></rc>
    <rc><c>Br</c><c>   3</c></rc>
    <rc><c>Br</c><c>   3</c></rc>
   </set>
  </array>
  <array name="atomtypes" >
   <dimension dim="1">type</dimension>
   <field type="int">atomspertype</field>
   <field type="string">element</field>
   <field>mass</field>
   <field>valence</field>
   <field type="string">pseudopotential</field>
   <set>
    <rc><c>   2</c><c>Cs</c><c>    132.90000000</c><c>      9.00000000</c><c>  PAW_PBE Cs_sv 08Apr2002               </c></rc>
    <rc><c>   2</c><c>Pb</c><c>    207.20000000</c><c>     14.00000000</c><c>  PAW_PBE Pb_d 06Sep2000                </c></rc>
    <rc><c>   6</c><c>Br</c><c>     79.90400000</c><c>      7.00000000</c><c>  PAW_PBE Br 06Sep2000                  </c></rc>
   </set>
  </array>
 </atominfo>
 <structure name="initialpos" >
  <crystal>
   <varray name="basis" >
    <v>       5.79082703       5.79082703      -0.00000000 </v>
    <v>       5.79082703       0.00000000      -5.99952772 </v>
    <v>      -0.00000000       5.79082703      -5.99952772 </v>
   </varray>
   <i name="volume">    402.37245736 </i>
   <varray name="rec_basis" >
    <v>       0.08634345       0.08634345       0.08333989 </v>
    <v>       0.08634345      -0.08634345      -0.08333989 </v>
    <v>      -0.08634345       0.08634345      -0.08333989 </v>
   </varray>
  </crystal>
  <varray name="positions" >
   <v>       0.75000000       0.75000000       0.75000000 </v>
   <v>       0.25000000       0.25000000       0.25000000 </v>
   <v>       0.00000000       0.00000000       0.00000000 </v>
   <v>       0.50000000       0.50000000       0.50000000 </v>
   <v>       0.18808263       0.68808263       0.31191737 </v>
   <v>       0.81191737       0.31191737       0.68808263 </v>
   <v>       0.25000000       0.75000000       0.75000000 </v>
   <v>       0.75000000       0.25000000       0.25000000 </v>
   <v>       0.31191737       0.18808263       0.81191737 </v>
   <v>       0.68808263       0.81191737       0.18808263 </v>
  </varray>
 </structure>
 <calculation>
  <scstep>
   <time name="dav">    0.97    0.97</time>
   <time name="total">    2.20    2.25</time>
   <energy>
    <i name="alphaZ">    224.17596381 </i>
    <i name="ewald">  -4608.29204336 </i>
    <i name="hartreedc">  -1832.53849837 </i>
    <i name="XCdc">    230.97781891 </i>
    <i name="pawpsdc">   5408.49043633 </i>
    <i name="pawaedc">  -5676.98046350 </i>
    <i name="eentropy">     -0.00126119 </i>
    <i name="bandstr">    -65.97482417 </i>
    <i name="atom">   6645.14004964 </i>
    <i name="e_fr_energy">    324.99717809 </i>
    <i name="e_wo_entrp">    324.99843929 </i>
    <i name="e_0_energy">    324.99780869 </i>
   </energy>
  </scstep>
  <scstep>
   <time name="dav">    1.13    1.17</time>
   <time name="total">    1.13    1.17</time>
   <energy>
    <i name="e_fr_energy">   -298.46057950 </i>
    <i name="e_wo_entrp">   -298.46057950 </i>
    <i name="e_0_energy">   -298.46057950 </i>
   </energy>
  </scstep>
  <scstep>
   <time name="dav">    1.15    1.15</time>
   <time name="total">    1.15    1.15</time>
   <energy>
    <i name="e_fr_energy">   -374.48810611 </i>
    <i name="e_wo_entrp">   -374.48810611 </i>
    <i name="e_0_energy">   -374.48810611 </i>
   </energy>
  </scstep>
  <scstep>
   <time name="dav">    1.12    1.13</time>
   <time name="total">    1.12    1.13</time>
   <energy>
    <i name="e_fr_energy">   -377.19229986 </i>
    <i name="e_wo_entrp">   -377.19229986 </i>
    <i name="e_0_energy">   -377.19229986 </i>
   </energy>
  </scstep>
  <scstep>
   <time name="dav">    1.18    1.21</time>
   <time name="total">    1.53    1.56</time>
   <energy>
    <i name="e_fr_energy">   -377.32229259 </i>
    <i name="e_wo_entrp">   -377.32229259 </i>
    <i name="e_0_energy">   -377.32229259 </i>
   </energy>
  </scstep>
  <scstep>
   <time name="dav">    1.11    1.11</time>
   <time name="total">    2.69    2.72</time>
   <energy>
    <i name="e_fr_energy">   -357.48714484 </i>
    <i name="e_wo_entrp">   -357.48714484 </i>
    <i name="e_0_energy">   -357.48714484 </i>
   </energy>
  </scstep>
  <scstep>
   <time name="dav">    1.16    1.16</time>
   <time name="total">    2.73    2.75</time>
   <energy>
    <i name="e_fr_energy">   -357.36757568 </i>
    <i name="e_wo_entrp">   -357.36757568 </i>
    <i name="e_0_energy">   -357.36757568 </i>
   </energy>
  </scstep>
  <scstep>
   <time name="dav">    1.05    1.05</time>
   <time name="total">    2.62    2.66</time>
   <energy>
    <i name="e_fr_energy">   -357.40968851 </i>
    <i name="e_wo_entrp">   -357.40968851 </i>
    <i name="e_0_energy">   -357.40968851 </i>
   </energy>
  </scstep>
  <scstep>
   <time name="dav">    1.01    1.01</time>
   <time name="total">    2.59    2.62</time>
   <energy>
    <i name="e_fr_energy">   -357.42996371 </i>
    <i name="e_wo_entrp">   -357.42996371 </i>
    <i name="e_0_energy">   -357.42996371 </i>
   </energy>
  </scstep>
  <scstep>
   <time name="dav">    1.19    1.19</time>
   <time name="total">    2.81    2.83</time>
   <energy>
    <i name="e_fr_energy">   -357.43032198 </i>
    <i name="e_wo_entrp">   -357.43032198 </i>
    <i name="e_0_energy">   -357.43032198 </i>
   </energy>
  </scstep>
  <scstep>
   <time name="dav">    1.06    1.06</time>
   <time name="total">    2.63    2.68</time>
   <energy>
    <i name="e_fr_energy">   -357.43133579 </i>
    <i name="e_wo_entrp">   -357.43133579 </i>
    <i name="e_0_energy">   -357.43133579 </i>
   </energy>
  </scstep>
  <scstep>
   <time name="dav">    1.15    1.15</time>
   <time name="total">    2.72    2.76</time>
   <energy>
    <i name="e_fr_energy">   -357.43116921 </i>
    <i name="e_wo_entrp">   -357.43116921 </i>
    <i name="e_0_energy">   -357.43116921 </i>
   </energy>
  </scstep>
  <scstep>
   <time name="dav">    1.08    1.08</time>
   <time name="total">    2.67    2.69</time>
   <energy>
    <i name="e_fr_energy">   -357.43114650 </i>
    <i name="e_wo_entrp">   -357.43114650 </i>
    <i name="e_0_energy">   -357.43114650 </i>
   </energy>
  </scstep>
  <scstep>
   <time name="dav">    0.92    0.92</time>
   <time name="total">    2.50    2.53</time>
   <energy>
    <i name="e_fr_energy">   -357.43115305 </i>
    <i name="e_wo_entrp">   -357.43115305 </i>
    <i name="e_0_energy">   -357.43115305 </i>
   </energy>
  </scstep>
  <scstep>
   <time name="dav">    0.80    0.80</time>
   <time name="total">    2.05    2.07</time>
   <energy>
    <i name="alphaZ">    224.17596381 </i>
    <i name="ewald">  -4608.29204336 </i>
    <i name="hartreedc">  -1840.36992338 </i>
    <i name="XCdc">    240.73262635 </i>
    <i name="pawpsdc">   5781.61322187 </i>
    <i name="pawaedc">  -6049.75066581 </i>
    <i name="eentropy">     -0.00000000 </i>
    <i name="bandstr">   -750.68038175 </i>
    <i name="atom">   6645.14004964 </i>
    <i name="e_fr_energy">   -357.43115263 </i>
    <i name="e_wo_entrp">   -357.43115263 </i>
    <i name="e_0_energy">   -357.43115263 </i>
   </energy>
  </scstep>
  <structure>
   <crystal>
    <varray name="basis" >
     <v>       5.79082703       5.79082703      -0.00000000 </v>
     <v>       5.79082703       0.00000000      -5.99952772 </v>
     <v>      -0.00000000       5.79082703      -5.99952772 </v>
    </varray>
    <i name="volume">    402.37245736 </i>
    <varray name="rec_basis" >
     <v>       0.08634345       0.08634345       0.08333989 </v>
     <v>       0.08634345      -0.08634345      -0.08333989 </v>
     <v>      -0.08634345       0.08634345      -0.08333989 </v>
    </varray>
   </crystal>
   <varray name="positions" >
    <v>       0.75000000       0.75000000       0.75000000 </v>
    <v>       0.25000000       0.25000000       0.25000000 </v>
    <v>       0.00000000       0.00000000       0.00000000 </v>
    <v>       0.50000000       0.50000000       0.50000000 </v>
    <v>       0.18808263       0.68808263       0.31191737 </v>
    <v>       0.81191737       0.31191737       0.68808263 </v>
    <v>       0.25000000       0.75000000       0.75000000 </v>
    <v>       0.75000000       0.25000000       0.25000000 </v>
    <v>       0.31191737       0.18808263       0.81191737 </v>
    <v>       0.68808263       0.81191737       0.18808263 </v>
   </varray>
  </structure>
  <varray name="forces" >
   <v>      -0.00000000       0.00000000       0.00000000 </v>
   <v>      -0.00000000       0.00000000      -0.00000000 </v>
   <v>      -0.00000000       0.00000000       0.00000000 </v>
   <v>      -0.00000000       0.00000000       0.00000000 </v>
   <v>      -0.00782639      -0.00000000       0.00000000 </v>
   <v>       0.00782639       0.00000000       0.00000000 </v>
   <v>      -0.00000000       0.00000000      -0.00000000 </v>
   <v>      -0.00000000      -0.00000000      -0.00000000 </v>
   <v>      -0.00000000       0.00782639       0.00000000 </v>
   <v>      -0.00000000      -0.00782639       0.00000000 </v>
  </varray>
  <varray name="stress" >
   <v>      -1.64674778       0.00000000      -0.00000000 </v>
   <v>       0.00000000      -1.64674778       0.00000000 </v>
   <v>      -0.00000000       0.00000000      -1.15010964 </v>
  </varray>
  <energy>
   <i name="e_fr_energy">   -357.43115263 </i>
   <i name="e_wo_entrp">   -357.43115263 </i>
   <i name="e_0_energy">     -0.00000000 </i>
  </energy>
  <time name="totalsc">   39.09   39.61</time>
  <eigenvalues>
   <array>
    <dimension dim="1">band</dimension>
    <dimension dim="2">kpoint</dimension>
    <dimension dim="3">spin</dimension>
    <field>eigene</field>
    <field>occ</field>
    <set>
     <set comment="spin 1">
      <set comment="kpoint 1">
       <r>  -20.8634    1.0000 </r>
       <r>  -20.8591    1.0000 </r>
       <r>  -16.3958    1.0000 </r>
       <r>  -16.3958    1.0000 </r>
       <r>  -16.3033    1.0000 </r>
       <r>  -16.2972    1.0000 </r>
       <r>  -16.2307    1.0000 </r>
       <r>  -16.2306    1.0000 </r>
       <r>  -16.2290    1.0000 </r>
       <r>  -16.2289    1.0000 </r>
       <r>  -16.2232    1.0000 </r>
       <r>  -16.2211    1.0000 </r>
       <r>  -14.3263    1.0000 </r>
       <r>  -13.9778    1.0000 </r>
       <r>  -13.9684    1.0000 </r>
       <r>  -13.9684    1.0000 </r>
       <r>  -13.7058    1.0000 </r>
       <r>  -13.6999    1.0000 </r>
       <r>   -8.1471    1.0000 </r>
       <r>   -7.3042    1.0000 </r>
       <r>   -7.3041    1.0000 </r>
       <r>   -7.2516    1.0000 </r>
       <r>   -7.2436    1.0000 </r>
       <r>   -7.2435    1.0000 </r>
       <r>   -7.2227    1.0000 </r>
       <r>   -6.4479    1.0000 </r>
       <r>   -3.2862    1.0000 </r>
       <r>   -3.2556    1.0000 </r>
       <r>   -3.2556    1.0000 </r>
       <r>   -1.9207    1.0000 </r>
       <r>   -1.8619    1.0000 </r>
       <r>   -1.8618    1.0000 </r>
       <r>   -1.4034    1.0000 </r>
       <r>   -1.3749    1.0000 </r>
       <r>   -1.3636    1.0000 </r>
       <r>   -1.3170    1.0000 </r>
       <r>   -1.3169    1.0000 </r>
       <r>   -1.1287    1.0000 </r>
       <r>   -1.0823    1.0000 </r>
       <r>   -1.0822    1.0000 </r>
       <r>   -0.9613    1.0000 </r>
       <r>   -0.8903    1.0000 </r>
       <r>   -0.8903    1.0000 </r>
       <r>    0.5861    1.0000 </r>
       <r>    2.6641    0.0000 </r>
       <r>    2.9648    0.0000 </r>
       <r>    2.9649    0.0000 </r>
       <r>    4.7194    0.0000 </r>
       <r>    5.5711    0.0000 </r>
       <r>    6.4555    0.0000 </r>
       <r>    6.4963    0.0000 </r>
       <r>    6.4963    0.0000 </r>
       <r>    6.5035    0.0000 </r>
       <r>    6.5038    0.0000 </r>
       <r>    6.5842    0.0000 </r>
       <r>    6.7186    0.0000 </r>
      </set>
      <set comment="kpoint 2">
       <r>  -20.8623    1.0000 </r>
       <r>  -20.8602    1.0000 </r>
       <r>  -16.3741    1.0000 </r>
       <r>  -16.3725    1.0000 </r>
       <r>  -16.3280    1.0000 </r>
       <r>  -16.3234    1.0000 </r>
       <r>  -16.2305    1.0000 </r>
       <r>  -16.2302    1.0000 </r>
       <r>  -16.2296    1.0000 </r>
       <r>  -16.2295    1.0000 </r>
       <r>  -16.2227    1.0000 </r>
       <r>  -16.2217    1.0000 </r>
       <r>  -14.2486    1.0000 </r>
       <r>  -14.0724    1.0000 </r>
       <r>  -13.9075    1.0000 </r>
       <r>  -13.9007    1.0000 </r>
       <r>  -13.7695    1.0000 </r>
       <r>  -13.7683    1.0000 </r>
       <r>   -7.8107    1.0000 </r>
       <r>   -7.2880    1.0000 </r>
       <r>   -7.2743    1.0000 </r>
       <r>   -7.2429    1.0000 </r>
       <r>   -7.2402    1.0000 </r>
       <r>   -7.2263    1.0000 </r>
       <r>   -7.2162    1.0000 </r>
       <r>   -6.9964    1.0000 </r>
       <r>   -2.9424    1.0000 </r>
       <r>   -2.9203    1.0000 </r>
       <r>   -2.5880    1.0000 </r>
       <r>   -2.1382    1.0000 </r>
       <r>   -2.0320    1.0000 </r>
       <r>   -1.9824    1.0000 </r>
       <r>   -1.7319    1.0000 </r>
       <r>   -1.7113    1.0000 </r>
       <r>   -1.4644    1.0000 </r>
       <r>   -1.3799    1.0000 </r>
       <r>   -1.3553    1.0000 </r>
       <r>   -1.2778    1.0000 </r>
       <r>   -1.1221    1.0000 </r>
       <r>   -1.1025    1.0000 </r>
       <r>   -1.0140    1.0000 </r>
       <r>   -0.9862    1.0000 </r>
       <r>   -0.8170    1.0000 </r>
       <r>   -0.3497    1.0000 </r>
       <r>    3.7288    0.0000 </r>
       <r>    3.7963    0.0000 </r>
       <r>    3.9660    0.0000 </r>
       <r>    5.2301    0.0000 </r>
       <r>    5.4920    0.0000 </r>
       <r>    5.5196    0.0000 </r>
       <r>    5.9019    0.0000 </r>
       <r>    5.9779    0.0000 </r>
       <r>    6.5855    0.0000 </r>
       <r>    6.6647    0.0000 </r>
       <r>    6.8141    0.0000 </r>
       <r>    6.9359    0.0000 </r>
      </set>
      <set comment="kpoint 3">
       <r>  -20.8624    1.0000 </r>
       <r>  -20.8599    1.0000 </r>
       <r>  -16.3954    1.0000 </r>
       <r>  -16.3507    1.0000 </r>
       <r>  -16.3495    1.0000 </r>
       <r>  -16.3018    1.0000 </r>
       <r>  -16.2308    1.0000 </r>
       <r>  -16.2301    1.0000 </r>
       <r>  -16.2298    1.0000 </r>
       <r>  -16.2290    1.0000 </r>
       <r>  -16.2225    1.0000 </r>
       <r>  -16.2218    1.0000 </r>
       <r>  -14.2148    1.0000 </r>
       <r>  -13.9911    1.0000 </r>
       <r>  -13.9816    1.0000 </r>
       <r>  -13.9198    1.0000 </r>
       <r>  -13.8824    1.0000 </r>
       <r>  -13.6885    1.0000 </r>
       <r>   -7.7881    1.0000 </r>
       <r>   -7.2793    1.0000 </r>
       <r>   -7.2547    1.0000 </r>
       <r>   -7.2398    1.0000 </r>
       <r>   -7.2382    1.0000 </r>
       <r>   -7.2232    1.0000 </r>
       <r>   -7.2090    1.0000 </r>
       <r>   -6.9493    1.0000 </r>
       <r>   -3.2320    1.0000 </r>
       <r>   -3.1680    1.0000 </r>
       <r>   -2.6596    1.0000 </r>
       <r>   -2.1559    1.0000 </r>
       <r>   -2.0460    1.0000 </r>
       <r>   -1.7754    1.0000 </r>
       <r>   -1.7006    1.0000 </r>
       <r>   -1.4786    1.0000 </r>
       <r>   -1.4230    1.0000 </r>
       <r>   -1.3801    1.0000 </r>
       <r>   -1.2534    1.0000 </r>
       <r>   -1.2325    1.0000 </r>
       <r>   -1.2287    1.0000 </r>
       <r>   -1.1836    1.0000 </r>
       <r>   -1.1015    1.0000 </r>
       <r>   -0.8990    1.0000 </r>
       <r>   -0.8786    1.0000 </r>
       <r>    0.0051    1.0000 </r>
       <r>    2.9854    0.0000 </r>
       <r>    3.2013    0.0000 </r>
       <r>    4.3598    0.0000 </r>
       <r>    5.0398    0.0000 </r>
       <r>    5.7978    0.0000 </r>
       <r>    6.1750    0.0000 </r>
       <r>    6.2150    0.0000 </r>
       <r>    6.2428    0.0000 </r>
       <r>    6.7429    0.0000 </r>
       <r>    6.8339    0.0000 </r>
       <r>    6.9385    0.0000 </r>
       <r>    7.0364    0.0000 </r>
      </set>
      <set comment="kpoint 4">
       <r>  -20.8612    1.0000 </r>
       <r>  -20.8610    1.0000 </r>
       <r>  -16.3744    1.0000 </r>
       <r>  -16.3732    1.0000 </r>
       <r>  -16.3269    1.0000 </r>
       <r>  -16.3248    1.0000 </r>
       <r>  -16.2304    1.0000 </r>
       <r>  -16.2302    1.0000 </r>
       <r>  -16.2296    1.0000 </r>
       <r>  -16.2294    1.0000 </r>
       <r>  -16.2224    1.0000 </r>
       <r>  -16.2218    1.0000 </r>
       <r>  -14.1337    1.0000 </r>
       <r>  -14.0898    1.0000 </r>
       <r>  -13.9896    1.0000 </r>
       <r>  -13.9178    1.0000 </r>
       <r>  -13.7965    1.0000 </r>
       <r>  -13.7570    1.0000 </r>
       <r>   -7.4237    1.0000 </r>
       <r>   -7.4033    1.0000 </r>
       <r>   -7.2627    1.0000 </r>
       <r>   -7.2588    1.0000 </r>
       <r>   -7.2295    1.0000 </r>
       <r>   -7.2257    1.0000 </r>
       <r>   -7.2202    1.0000 </r>
       <r>   -7.2004    1.0000 </r>
       <r>   -3.1035    1.0000 </r>
       <r>   -2.8318    1.0000 </r>
       <r>   -2.6706    1.0000 </r>
       <r>   -2.2416    1.0000 </r>
       <r>   -2.0779    1.0000 </r>
       <r>   -1.9647    1.0000 </r>
       <r>   -1.7189    1.0000 </r>
       <r>   -1.5641    1.0000 </r>
       <r>   -1.4527    1.0000 </r>
       <r>   -1.3831    1.0000 </r>
       <r>   -1.3737    1.0000 </r>
       <r>   -1.1930    1.0000 </r>
       <r>   -1.1861    1.0000 </r>
       <r>   -1.1436    1.0000 </r>
       <r>   -1.1331    1.0000 </r>
       <r>   -0.9757    1.0000 </r>
       <r>   -0.6151    1.0000 </r>
       <r>   -0.5774    1.0000 </r>
       <r>    3.4397    0.0000 </r>
       <r>    4.0126    0.0000 </r>
       <r>    4.1660    0.0000 </r>
       <r>    5.2603    0.0000 </r>
       <r>    5.3057    0.0000 </r>
       <r>    5.9371    0.0000 </r>
       <r>    6.3110    0.0000 </r>
       <r>    6.4328    0.0000 </r>
       <r>    6.6703    0.0000 </r>
       <r>    6.7872    0.0000 </r>
       <r>    6.9800    0.0000 </r>
       <r>    7.2411    0.0000 </r>
      </set>
      <set comment="kpoint 5">
       <r>  -20.8619    1.0000 </r>
       <r>  -20.8606    1.0000 </r>
       <r>  -16.3956    1.0000 </r>
       <r>  -16.3544    1.0000 </r>
       <r>  -16.3509    1.0000 </r>
       <r>  -16.2974    1.0000 </r>
       <r>  -16.2303    1.0000 </r>
       <r>  -16.2302    1.0000 </r>
       <r>  -16.2296    1.0000 </r>
       <r>  -16.2296    1.0000 </r>
       <r>  -16.2234    1.0000 </r>
       <r>  -16.2211    1.0000 </r>
       <r>  -14.2265    1.0000 </r>
       <r>  -13.9704    1.0000 </r>
       <r>  -13.9704    1.0000 </r>
       <r>  -13.9325    1.0000 </r>
       <r>  -13.8795    1.0000 </r>
       <r>  -13.6957    1.0000 </r>
       <r>   -7.7730    1.0000 </r>
       <r>   -7.2808    1.0000 </r>
       <r>   -7.2807    1.0000 </r>
       <r>   -7.2439    1.0000 </r>
       <r>   -7.2438    1.0000 </r>
       <r>   -7.2246    1.0000 </r>
       <r>   -7.2159    1.0000 </r>
       <r>   -6.9440    1.0000 </r>
       <r>   -3.2182    1.0000 </r>
       <r>   -3.2182    1.0000 </r>
       <r>   -2.6631    1.0000 </r>
       <r>   -2.0990    1.0000 </r>
       <r>   -2.0977    1.0000 </r>
       <r>   -1.7119    1.0000 </r>
       <r>   -1.7118    1.0000 </r>
       <r>   -1.4313    1.0000 </r>
       <r>   -1.4313    1.0000 </r>
       <r>   -1.4015    1.0000 </r>
       <r>   -1.3081    1.0000 </r>
       <r>   -1.2155    1.0000 </r>
       <r>   -1.2155    1.0000 </r>
       <r>   -1.1775    1.0000 </r>
       <r>   -1.0484    1.0000 </r>
       <r>   -1.0484    1.0000 </r>
       <r>   -0.7322    1.0000 </r>
       <r>    0.0486    1.0000 </r>
       <r>    3.2132    0.0000 </r>
       <r>    3.2133    0.0000 </r>
       <r>    4.3125    0.0000 </r>
       <r>    5.0400    0.0000 </r>
       <r>    5.5460    0.0000 </r>
       <r>    5.8739    0.0000 </r>
       <r>    6.2718    0.0000 </r>
       <r>    6.2718    0.0000 </r>
       <r>    6.7213    0.0000 </r>
       <r>    6.9698    0.0000 </r>
       <r>    6.9917    0.0000 </r>
       <r>    6.9956    0.0000 </r>
      </set>
      <set comment="kpoint 6">
       <r>  -20.8615    1.0000 </r>
       <r>  -20.8607    1.0000 </r>
       <r>  -16.3733    1.0000 </r>
       <r>  -16.3722    1.0000 </r>
       <r>  -16.3307    1.0000 </r>
       <r>  -16.3234    1.0000 </r>
       <r>  -16.2302    1.0000 </r>
       <r>  -16.2300    1.0000 </r>
       <r>  -16.2298    1.0000 </r>
       <r>  -16.2297    1.0000 </r>
       <r>  -16.2227    1.0000 </r>
       <r>  -16.2216    1.0000 </r>
       <r>  -14.1253    1.0000 </r>
       <r>  -14.1101    1.0000 </r>
       <r>  -13.9814    1.0000 </r>
       <r>  -13.9034    1.0000 </r>
       <r>  -13.8019    1.0000 </r>
       <r>  -13.7601    1.0000 </r>
       <r>   -7.4329    1.0000 </r>
       <r>   -7.3889    1.0000 </r>
       <r>   -7.2639    1.0000 </r>
       <r>   -7.2470    1.0000 </r>
       <r>   -7.2466    1.0000 </r>
       <r>   -7.2441    1.0000 </r>
       <r>   -7.2308    1.0000 </r>
       <r>   -7.1781    1.0000 </r>
       <r>   -3.1392    1.0000 </r>
       <r>   -2.9015    1.0000 </r>
       <r>   -2.7055    1.0000 </r>
       <r>   -2.1619    1.0000 </r>
       <r>   -2.0201    1.0000 </r>
       <r>   -1.9649    1.0000 </r>
       <r>   -1.6794    1.0000 </r>
       <r>   -1.6292    1.0000 </r>
       <r>   -1.4580    1.0000 </r>
       <r>   -1.3541    1.0000 </r>
       <r>   -1.2905    1.0000 </r>
       <r>   -1.2790    1.0000 </r>
       <r>   -1.2529    1.0000 </r>
       <r>   -1.1020    1.0000 </r>
       <r>   -1.0815    1.0000 </r>
       <r>   -1.0434    1.0000 </r>
       <r>   -0.6074    1.0000 </r>
       <r>   -0.4018    1.0000 </r>
       <r>    3.2980    0.0000 </r>
       <r>    4.0309    0.0000 </r>
       <r>    4.1553    0.0000 </r>
       <r>    5.3061    0.0000 </r>
       <r>    5.3683    0.0000 </r>
       <r>    5.9769    0.0000 </r>
       <r>    6.1840    0.0000 </r>
       <r>    6.3918    0.0000 </r>
       <r>    6.4046    0.0000 </r>
       <r>    6.8978    0.0000 </r>
       <r>    7.0371    0.0000 </r>
       <r>    7.0625    0.0000 </r>
      </set>
     </set>
    </set>
   </array>
  </eigenvalues>
  <separator name="orbital magnetization" >
   <v name="MAGDIPOLOUT">      0.00000000      0.00000000      0.00000000</v>
  </separator>
  <dos>
   <i name="efermi">      0.63423652 </i>
   <total>
    <array>
     <dimension dim="1">gridpoints</dimension>
     <dimension dim="2">spin</dimension>
     <field>energy</field>
     <field>total</field>
     <field>integrated</field>
     <set>
      <set comment="spin 1">
       <r>   -22.2686     0.0000     0.0000 </r>
       <r>   -22.1656     0.0000     0.0000 </r>
       <r>   -22.0625     0.0000     0.0000 </r>
       <r>   -21.9595     0.0000     0.0000 </r>
       <r>   -21.8564     0.0000     0.0000 </r>
       <r>   -21.7534     0.0000     0.0000 </r>
       <r>   -21.6503     0.0000     0.0000 </r>
       <r>   -21.5473     0.0000     0.0000 </r>
       <r>   -21.4442     0.0000     0.0000 </r>
       <r>   -21.3412     0.0000     0.0000 </r>
       <r>   -21.2381     0.0000     0.0000 </r>
       <r>   -21.1351     0.0000     0.0000 </r>
       <r>   -21.0320     0.0000     0.0000 </r>
       <r>   -20.9290     0.0000     0.0000 </r>
       <r>   -20.8259    38.8161     4.0000 </r>
       <r>   -20.7229     0.0000     4.0000 </r>
       <r>   -20.6198     0.0000     4.0000 </r>
       <r>   -20.5168     0.0000     4.0000 </r>
       <r>   -20.4137     0.0000     4.0000 </r>
       <r>   -20.3107     0.0000     4.0000 </r>
       <r>   -20.2076     0.0000     4.0000 </r>
       <r>   -20.1046     0.0000     4.0000 </r>
       <r>   -20.0015     0.0000     4.0000 </r>
       <r>   -19.8985     0.0000     4.0000 </r>
       <r>   -19.7954     0.0000     4.0000 </r>
       <r>   -19.6924     0.0000     4.0000 </r>
       <r>   -19.5893     0.0000     4.0000 </r>
       <r>   -19.4863     0.0000     4.0000 </r>
       <r>   -19.3832     0.0000     4.0000 </r>
       <r>   -19.2802     0.0000     4.0000 </r>
       <r>   -19.1771     0.0000     4.0000 </r>
       <r>   -19.0741     0.0000     4.0000 </r>
       <r>   -18.9710     0.0000     4.0000 </r>
       <r>   -18.8680     0.0000     4.0000 </r>
       <r>   -18.7649     0.0000     4.0000 </r>
       <r>   -18.6619     0.0000     4.0000 </r>
       <r>   -18.5588     0.0000     4.0000 </r>
       <r>   -18.4558     0.0000     4.0000 </r>
       <r>   -18.3527     0.0000     4.0000 </r>
       <r>   -18.2497     0.0000     4.0000 </r>
       <r>   -18.1466     0.0000     4.0000 </r>
       <r>   -18.0436     0.0000     4.0000 </r>
       <r>   -17.9405     0.0000     4.0000 </r>
       <r>   -17.8375     0.0000     4.0000 </r>
       <r>   -17.7344     0.0000     4.0000 </r>
       <r>   -17.6314     0.0000     4.0000 </r>
       <r>   -17.5283     0.0000     4.0000 </r>
       <r>   -17.4253     0.0000     4.0000 </r>
       <r>   -17.3222     0.0000     4.0000 </r>
       <r>   -17.2192     0.0000     4.0000 </r>
       <r>   -17.1161     0.0000     4.0000 </r>
       <r>   -17.0131     0.0000     4.0000 </r>
       <r>   -16.9100     0.0000     4.0000 </r>
       <r>   -16.8070     0.0000     4.0000 </r>
       <r>   -16.7039     0.0000     4.0000 </r>
       <r>   -16.6009     0.0000     4.0000 </r>
       <r>   -16.4978     0.0000     4.0000 </r>
       <r>   -16.3948     3.1656     4.3262 </r>
       <r>   -16.2917    42.4078    11.9257 </r>
       <r>   -16.1887   116.4484    24.0000 </r>
       <r>   -16.0856     0.0000    24.0000 </r>
       <r>   -15.9826     0.0000    24.0000 </r>
       <r>   -15.8795     0.0000    24.0000 </r>
       <r>   -15.7765     0.0000    24.0000 </r>
       <r>   -15.6734     0.0000    24.0000 </r>
       <r>   -15.5704     0.0000    24.0000 </r>
       <r>   -15.4673     0.0000    24.0000 </r>
       <r>   -15.3643     0.0000    24.0000 </r>
       <r>   -15.2612     0.0000    24.0000 </r>
       <r>   -15.1582     0.0000    24.0000 </r>
       <r>   -15.0551     0.0000    24.0000 </r>
       <r>   -14.9521     0.0000    24.0000 </r>
       <r>   -14.8490     0.0000    24.0000 </r>
       <r>   -14.7460     0.0000    24.0000 </r>
       <r>   -14.6429     0.0000    24.0000 </r>
       <r>   -14.5399     0.0000    24.0000 </r>
       <r>   -14.4368     0.0000    24.0000 </r>
       <r>   -14.3338     0.1036    24.0107 </r>
       <r>   -14.2307     6.1500    24.7078 </r>
       <r>   -14.1277     5.6970    25.6982 </r>
       <r>   -14.0246    11.5011    27.4815 </r>
       <r>   -13.9216    23.7690    29.9309 </r>
       <r>   -13.8185     4.3456    32.4478 </r>
       <r>   -13.7155    20.2020    35.4151 </r>
       <r>   -13.6124     2.8751    36.0000 </r>
       <r>   -13.5094     0.0000    36.0000 </r>
       <r>   -13.4063     0.0000    36.0000 </r>
       <r>   -13.3033     0.0000    36.0000 </r>
       <r>   -13.2002     0.0000    36.0000 </r>
       <r>   -13.0972     0.0000    36.0000 </r>
       <r>   -12.9941     0.0000    36.0000 </r>
       <r>   -12.8911     0.0000    36.0000 </r>
       <r>   -12.7880     0.0000    36.0000 </r>
       <r>   -12.6850     0.0000    36.0000 </r>
       <r>   -12.5819     0.0000    36.0000 </r>
       <r>   -12.4789     0.0000    36.0000 </r>
       <r>   -12.3758     0.0000    36.0000 </r>
       <r>   -12.2728     0.0000    36.0000 </r>
       <r>   -12.1697     0.0000    36.0000 </r>
       <r>   -12.0667     0.0000    36.0000 </r>
       <r>   -11.9636     0.0000    36.0000 </r>
       <r>   -11.8606     0.0000    36.0000 </r>
       <r>   -11.7575     0.0000    36.0000 </r>
       <r>   -11.6545     0.0000    36.0000 </r>
       <r>   -11.5514     0.0000    36.0000 </r>
       <r>   -11.4484     0.0000    36.0000 </r>
       <r>   -11.3453     0.0000    36.0000 </r>
       <r>   -11.2423     0.0000    36.0000 </r>
       <r>   -11.1392     0.0000    36.0000 </r>
       <r>   -11.0362     0.0000    36.0000 </r>
       <r>   -10.9331     0.0000    36.0000 </r>
       <r>   -10.8301     0.0000    36.0000 </r>
       <r>   -10.7270     0.0000    36.0000 </r>
       <r>   -10.6240     0.0000    36.0000 </r>
       <r>   -10.5209     0.0000    36.0000 </r>
       <r>   -10.4179     0.0000    36.0000 </r>
       <r>   -10.3148     0.0000    36.0000 </r>
       <r>   -10.2118     0.0000    36.0000 </r>
       <r>   -10.1087     0.0000    36.0000 </r>
       <r>   -10.0057     0.0000    36.0000 </r>
       <r>    -9.9026     0.0000    36.0000 </r>
       <r>    -9.7996     0.0000    36.0000 </r>
       <r>    -9.6965     0.0000    36.0000 </r>
       <r>    -9.5935     0.0000    36.0000 </r>
       <r>    -9.4904     0.0000    36.0000 </r>
       <r>    -9.3874     0.0000    36.0000 </r>
       <r>    -9.2843     0.0000    36.0000 </r>
       <r>    -9.1813     0.0000    36.0000 </r>
       <r>    -9.0782     0.0000    36.0000 </r>
       <r>    -8.9752     0.0000    36.0000 </r>
       <r>    -8.8721     0.0000    36.0000 </r>
       <r>    -8.7691     0.0000    36.0000 </r>
       <r>    -8.6660     0.0000    36.0000 </r>
       <r>    -8.5630     0.0000    36.0000 </r>
       <r>    -8.4599     0.0000    36.0000 </r>
       <r>    -8.3569     0.0000    36.0000 </r>
       <r>    -8.2538     0.0000    36.0000 </r>
       <r>    -8.1508     0.2185    36.0225 </r>
       <r>    -8.0477     0.0000    36.0741 </r>
       <r>    -7.9447     0.0000    36.0741 </r>
       <r>    -7.8416     0.0000    36.0741 </r>
       <r>    -7.7386    10.0634    37.1111 </r>
       <r>    -7.6355     0.0000    37.1111 </r>
       <r>    -7.5325     0.0000    37.1111 </r>
       <r>    -7.4294     3.1688    37.4377 </r>
       <r>    -7.3264     8.6264    38.8890 </r>
       <r>    -7.2233    85.4791    47.8456 </r>
       <r>    -7.1203     2.8753    50.8889 </r>
       <r>    -7.0172     0.0092    50.8898 </r>
       <r>    -6.9142     4.3129    51.9259 </r>
       <r>    -6.8111     0.0000    51.9259 </r>
       <r>    -6.7081     0.0000    51.9259 </r>
       <r>    -6.6050     0.0000    51.9259 </r>
       <r>    -6.5020     0.0000    51.9259 </r>
       <r>    -6.3989     0.7188    52.0000 </r>
       <r>    -6.2959     0.0000    52.0000 </r>
       <r>    -6.1928     0.0000    52.0000 </r>
       <r>    -6.0898     0.0000    52.0000 </r>
       <r>    -5.9867     0.0000    52.0000 </r>
       <r>    -5.8837     0.0000    52.0000 </r>
       <r>    -5.7806     0.0000    52.0000 </r>
       <r>    -5.6776     0.0000    52.0000 </r>
       <r>    -5.5745     0.0000    52.0000 </r>
       <r>    -5.4715     0.0000    52.0000 </r>
       <r>    -5.3684     0.0000    52.0000 </r>
       <r>    -5.2654     0.0000    52.0000 </r>
       <r>    -5.1623     0.0000    52.0000 </r>
       <r>    -5.0593     0.0000    52.0000 </r>
       <r>    -4.9562     0.0000    52.0000 </r>
       <r>    -4.8532     0.0000    52.0000 </r>
       <r>    -4.7501     0.0000    52.0000 </r>
       <r>    -4.6471     0.0000    52.0000 </r>
       <r>    -4.5440     0.0000    52.0000 </r>
       <r>    -4.4410     0.0000    52.0000 </r>
       <r>    -4.3379     0.0000    52.0000 </r>
       <r>    -4.2349     0.0000    52.0000 </r>
       <r>    -4.1318     0.0000    52.0000 </r>
       <r>    -4.0288     0.0000    52.0000 </r>
       <r>    -3.9257     0.0000    52.0000 </r>
       <r>    -3.8227     0.0000    52.0000 </r>
       <r>    -3.7196     0.0000    52.0000 </r>
       <r>    -3.6166     0.0000    52.0000 </r>
       <r>    -3.5135     0.0000    52.0000 </r>
       <r>    -3.4105     0.0000    52.0000 </r>
       <r>    -3.3074     0.0010    52.0001 </r>
       <r>    -3.2044     7.1147    52.8072 </r>
       <r>    -3.1013     9.3303    53.7763 </r>
       <r>    -2.9983     0.0000    54.0000 </r>
       <r>    -2.8952    13.8366    55.4259 </r>
       <r>    -2.7922     5.7505    56.0741 </r>
       <r>    -2.6891     2.8714    56.3700 </r>
       <r>    -2.5861     7.7949    57.7663 </r>
       <r>    -2.4830     0.0000    58.0000 </r>
       <r>    -2.3800     0.0000    58.0000 </r>
       <r>    -2.2769     0.0000    58.0000 </r>
       <r>    -2.1739     5.8981    58.6078 </r>
       <r>    -2.0708    13.4734    60.5736 </r>
       <r>    -1.9678    20.0266    62.7305 </r>
       <r>    -1.8647     1.2133    63.4584 </r>
       <r>    -1.7617     2.7999    63.8441 </r>
       <r>    -1.6586    25.8726    66.5180 </r>
       <r>    -1.5556     7.9689    67.3397 </r>
       <r>    -1.4525    13.5535    68.8041 </r>
       <r>    -1.3495    33.2910    72.9121 </r>
       <r>    -1.2464    19.2263    75.0924 </r>
       <r>    -1.1434    22.0931    78.0545 </r>
       <r>    -1.0403    20.2435    81.6416 </r>
       <r>    -0.9373    17.9696    83.6296 </r>
       <r>    -0.8342     7.2306    84.3747 </r>
       <r>    -0.7312     0.8032    85.0457 </r>
       <r>    -0.6281     0.1924    85.1309 </r>
       <r>    -0.5251     5.7505    86.5926 </r>
       <r>    -0.4220     0.0061    86.5932 </r>
       <r>    -0.3190     5.7505    87.4815 </r>
       <r>    -0.2159     0.0000    87.4815 </r>
       <r>    -0.1129     0.0000    87.4815 </r>
       <r>    -0.0098     0.0506    87.4867 </r>
       <r>     0.0932     1.4376    87.9259 </r>
       <r>     0.1963     0.0000    87.9259 </r>
       <r>     0.2993     0.0000    87.9259 </r>
       <r>     0.4024     0.0000    87.9259 </r>
       <r>     0.5054     0.0000    87.9259 </r>
       <r>     0.6085     0.7183    87.9999 </r>
       <r>     0.7115     0.0000    88.0000 </r>
       <r>     0.8146     0.0000    88.0000 </r>
       <r>     0.9176     0.0000    88.0000 </r>
       <r>     1.0207     0.0000    88.0000 </r>
       <r>     1.1237     0.0000    88.0000 </r>
       <r>     1.2268     0.0000    88.0000 </r>
       <r>     1.3298     0.0000    88.0000 </r>
       <r>     1.4329     0.0000    88.0000 </r>
       <r>     1.5359     0.0000    88.0000 </r>
       <r>     1.6390     0.0000    88.0000 </r>
       <r>     1.7420     0.0000    88.0000 </r>
       <r>     1.8451     0.0000    88.0000 </r>
       <r>     1.9481     0.0000    88.0000 </r>
       <r>     2.0512     0.0000    88.0000 </r>
       <r>     2.1542     0.0000    88.0000 </r>
       <r>     2.2573     0.0000    88.0000 </r>
       <r>     2.3603     0.0000    88.0000 </r>
       <r>     2.4634     0.0000    88.0000 </r>
       <r>     2.5664     0.0000    88.0000 </r>
       <r>     2.6695     0.5576    88.0575 </r>
       <r>     2.7725     0.0000    88.0741 </r>
       <r>     2.8756     0.0000    88.0741 </r>
       <r>     2.9786     1.8910    88.2689 </r>
       <r>     3.0817     0.0000    88.5185 </r>
       <r>     3.1847     0.0270    88.5213 </r>
       <r>     3.2878     3.0855    89.1328 </r>
       <r>     3.3908     0.0000    89.4074 </r>
       <r>     3.4939     5.7505    90.0000 </r>
       <r>     3.5969     0.0000    90.0000 </r>
       <r>     3.7000     0.0001    90.0000 </r>
       <r>     3.8030    10.5241    91.0845 </r>
       <r>     3.9061     0.0000    91.1852 </r>
       <r>     4.0091     7.5578    91.9640 </r>
       <r>     4.1122     0.0000    92.6667 </r>
       <r>     4.2152     8.6258    93.5556 </r>
       <r>     4.3183     1.1417    93.6732 </r>
       <r>     4.4213     2.8753    94.0000 </r>
       <r>     4.5244     0.0000    94.0000 </r>
       <r>     4.6274     0.0000    94.0000 </r>
       <r>     4.7305     0.6768    94.0697 </r>
       <r>     4.8335     0.0000    94.0741 </r>
       <r>     4.9366     0.0000    94.0741 </r>
       <r>     5.0396     2.0970    94.2902 </r>
       <r>     5.1427     0.0000    94.5185 </r>
       <r>     5.2457     5.7852    95.1147 </r>
       <r>     5.3488     8.6339    96.5934 </r>
       <r>     5.4518     0.0000    96.8889 </r>
       <r>     5.5549    12.7951    98.2074 </r>
       <r>     5.6579     0.0000    98.2963 </r>
       <r>     5.7610     0.0000    98.2963 </r>
       <r>     5.8640     2.9935    98.6048 </r>
       <r>     5.9671    12.1049    99.9882 </r>
       <r>     6.0701     0.0000   100.8148 </r>
       <r>     6.1732     1.3169   100.9505 </r>
       <r>     6.2762     7.8596   102.2173 </r>
       <r>     6.3793     5.8617   102.9003 </r>
       <r>     6.4823     9.3804   104.1519 </r>
       <r>     6.5854     3.2358   104.7779 </r>
       <r>     6.6884    11.4689   106.2930 </r>
       <r>     6.7915     9.2178   107.2462 </r>
       <r>     6.8945     3.7973   108.3913 </r>
       <r>     6.9976    17.7922   110.4261 </r>
       <r>     7.1006     8.6258   111.4074 </r>
       <r>     7.2037     0.0000   111.4074 </r>
       <r>     7.3067     5.7505   112.0000 </r>
       <r>     7.4098     0.0000   112.0000 </r>
       <r>     7.5128     0.0000   112.0000 </r>
       <r>     7.6159     0.0000   112.0000 </r>
       <r>     7.7189     0.0000   112.0000 </r>
       <r>     7.8220     0.0000   112.0000 </r>
       <r>     7.9250     0.0000   112.0000 </r>
       <r>     8.0281     0.0000   112.0000 </r>
       <r>     8.1311     0.0000   112.0000 </r>
       <r>     8.2342     0.0000   112.0000 </r>
       <r>     8.3372     0.0000   112.0000 </r>
       <r>     8.4403     0.0000   112.0000 </r>
       <r>     8.5433     0.0000   112.0000 </r>
       <r>     8.6464     0.0000   112.0000 </r>
      </set>
     </set>
    </array>
   </total>
   <partial>
    <array>
     <dimension dim="1">gridpoints</dimension>
     <dimension dim="2">spin</dimension>
     <dimension dim="3">ion</dimension>
     <field>energy</field>
     <field>  s  </field>
     <field>  p  </field>
     <field>  d  </field>
     <set>
      <set comment="ion 1">
       <set comment="spin 1">
        <r>   -22.2686     0.0000     0.0000     0.0000 </r>
        <r>   -22.1656     0.0000     0.0000     0.0000 </r>
        <r>   -22.0625     0.0000     0.0000     0.0000 </r>
        <r>   -21.9595     0.0000     0.0000     0.0000 </r>
        <r>   -21.8564     0.0000     0.0000     0.0000 </r>
        <r>   -21.7534     0.0000     0.0000     0.0000 </r>
        <r>   -21.6503     0.0000     0.0000     0.0000 </r>
        <r>   -21.5473     0.0000     0.0000     0.0000 </r>
        <r>   -21.4442     0.0000     0.0000     0.0000 </r>
        <r>   -21.3412     0.0000     0.0000     0.0000 </r>
        <r>   -21.2381     0.0000     0.0000     0.0000 </r>
        <r>   -21.1351     0.0000     0.0000     0.0000 </r>
        <r>   -21.0320     0.0000     0.0000     0.0000 </r>
        <r>   -20.9290     0.0000     0.0000     0.0000 </r>
        <r>   -20.8259    17.2262     0.0000     0.0000 </r>
        <r>   -20.7229     0.0000     0.0000     0.0000 </r>
        <r>   -20.6198     0.0000     0.0000     0.0000 </r>
        <r>   -20.5168     0.0000     0.0000     0.0000 </r>
        <r>   -20.4137     0.0000     0.0000     0.0000 </r>
        <r>   -20.3107     0.0000     0.0000     0.0000 </r>
        <r>   -20.2076     0.0000     0.0000     0.0000 </r>
        <r>   -20.1046     0.0000     0.0000     0.0000 </r>
        <r>   -20.0015     0.0000     0.0000     0.0000 </r>
        <r>   -19.8985     0.0000     0.0000     0.0000 </r>
        <r>   -19.7954     0.0000     0.0000     0.0000 </r>
        <r>   -19.6924     0.0000     0.0000     0.0000 </r>
        <r>   -19.5893     0.0000     0.0000     0.0000 </r>
        <r>   -19.4863     0.0000     0.0000     0.0000 </r>
        <r>   -19.3832     0.0000     0.0000     0.0000 </r>
        <r>   -19.2802     0.0000     0.0000     0.0000 </r>
        <r>   -19.1771     0.0000     0.0000     0.0000 </r>
        <r>   -19.0741     0.0000     0.0000     0.0000 </r>
        <r>   -18.9710     0.0000     0.0000     0.0000 </r>
        <r>   -18.8680     0.0000     0.0000     0.0000 </r>
        <r>   -18.7649     0.0000     0.0000     0.0000 </r>
        <r>   -18.6619     0.0000     0.0000     0.0000 </r>
        <r>   -18.5588     0.0000     0.0000     0.0000 </r>
        <r>   -18.4558     0.0000     0.0000     0.0000 </r>
        <r>   -18.3527     0.0000     0.0000     0.0000 </r>
        <r>   -18.2497     0.0000     0.0000     0.0000 </r>
        <r>   -18.1466     0.0000     0.0000     0.0000 </r>
        <r>   -18.0436     0.0000     0.0000     0.0000 </r>
        <r>   -17.9405     0.0000     0.0000     0.0000 </r>
        <r>   -17.8375     0.0000     0.0000     0.0000 </r>
        <r>   -17.7344     0.0000     0.0000     0.0000 </r>
        <r>   -17.6314     0.0000     0.0000     0.0000 </r>
        <r>   -17.5283     0.0000     0.0000     0.0000 </r>
        <r>   -17.4253     0.0000     0.0000     0.0000 </r>
        <r>   -17.3222     0.0000     0.0000     0.0000 </r>
        <r>   -17.2192     0.0000     0.0000     0.0000 </r>
        <r>   -17.1161     0.0000     0.0000     0.0000 </r>
        <r>   -17.0131     0.0000     0.0000     0.0000 </r>
        <r>   -16.9100     0.0000     0.0000     0.0000 </r>
        <r>   -16.8070     0.0000     0.0000     0.0000 </r>
        <r>   -16.7039     0.0000     0.0000     0.0000 </r>
        <r>   -16.6009     0.0000     0.0000     0.0000 </r>
        <r>   -16.4978     0.0000     0.0000     0.0000 </r>
        <r>   -16.3948     0.0000     0.0000     0.0000 </r>
        <r>   -16.2917     0.0000     0.0001     0.0000 </r>
        <r>   -16.1887     0.0000     0.0000     0.0000 </r>
        <r>   -16.0856     0.0000     0.0000     0.0000 </r>
        <r>   -15.9826     0.0000     0.0000     0.0000 </r>
        <r>   -15.8795     0.0000     0.0000     0.0000 </r>
        <r>   -15.7765     0.0000     0.0000     0.0000 </r>
        <r>   -15.6734     0.0000     0.0000     0.0000 </r>
        <r>   -15.5704     0.0000     0.0000     0.0000 </r>
        <r>   -15.4673     0.0000     0.0000     0.0000 </r>
        <r>   -15.3643     0.0000     0.0000     0.0000 </r>
        <r>   -15.2612     0.0000     0.0000     0.0000 </r>
        <r>   -15.1582     0.0000     0.0000     0.0000 </r>
        <r>   -15.0551     0.0000     0.0000     0.0000 </r>
        <r>   -14.9521     0.0000     0.0000     0.0000 </r>
        <r>   -14.8490     0.0000     0.0000     0.0000 </r>
        <r>   -14.7460     0.0000     0.0000     0.0000 </r>
        <r>   -14.6429     0.0000     0.0000     0.0000 </r>
        <r>   -14.5399     0.0000     0.0000     0.0000 </r>
        <r>   -14.4368     0.0000     0.0000     0.0000 </r>
        <r>   -14.3338     0.0001     0.0000     0.0000 </r>
        <r>   -14.2307     0.0023     0.0011     0.0000 </r>
        <r>   -14.1277     0.0008     0.0018     0.0001 </r>
        <r>   -14.0246     0.0003     0.0030     0.0002 </r>
        <r>   -13.9216     0.0018     0.0045     0.0004 </r>
        <r>   -13.8185     0.0003     0.0012     0.0001 </r>
        <r>   -13.7155     0.0010     0.0026     0.0003 </r>
        <r>   -13.6124     0.0000     0.0001     0.0000 </r>
        <r>   -13.5094     0.0000     0.0000     0.0000 </r>
        <r>   -13.4063     0.0000     0.0000     0.0000 </r>
        <r>   -13.3033     0.0000     0.0000     0.0000 </r>
        <r>   -13.2002     0.0000     0.0000     0.0000 </r>
        <r>   -13.0972     0.0000     0.0000     0.0000 </r>
        <r>   -12.9941     0.0000     0.0000     0.0000 </r>
        <r>   -12.8911     0.0000     0.0000     0.0000 </r>
        <r>   -12.7880     0.0000     0.0000     0.0000 </r>
        <r>   -12.6850     0.0000     0.0000     0.0000 </r>
        <r>   -12.5819     0.0000     0.0000     0.0000 </r>
        <r>   -12.4789     0.0000     0.0000     0.0000 </r>
        <r>   -12.3758     0.0000     0.0000     0.0000 </r>
        <r>   -12.2728     0.0000     0.0000     0.0000 </r>
        <r>   -12.1697     0.0000     0.0000     0.0000 </r>
        <r>   -12.0667     0.0000     0.0000     0.0000 </r>
        <r>   -11.9636     0.0000     0.0000     0.0000 </r>
        <r>   -11.8606     0.0000     0.0000     0.0000 </r>
        <r>   -11.7575     0.0000     0.0000     0.0000 </r>
        <r>   -11.6545     0.0000     0.0000     0.0000 </r>
        <r>   -11.5514     0.0000     0.0000     0.0000 </r>
        <r>   -11.4484     0.0000     0.0000     0.0000 </r>
        <r>   -11.3453     0.0000     0.0000     0.0000 </r>
        <r>   -11.2423     0.0000     0.0000     0.0000 </r>
        <r>   -11.1392     0.0000     0.0000     0.0000 </r>
        <r>   -11.0362     0.0000     0.0000     0.0000 </r>
        <r>   -10.9331     0.0000     0.0000     0.0000 </r>
        <r>   -10.8301     0.0000     0.0000     0.0000 </r>
        <r>   -10.7270     0.0000     0.0000     0.0000 </r>
        <r>   -10.6240     0.0000     0.0000     0.0000 </r>
        <r>   -10.5209     0.0000     0.0000     0.0000 </r>
        <r>   -10.4179     0.0000     0.0000     0.0000 </r>
        <r>   -10.3148     0.0000     0.0000     0.0000 </r>
        <r>   -10.2118     0.0000     0.0000     0.0000 </r>
        <r>   -10.1087     0.0000     0.0000     0.0000 </r>
        <r>   -10.0057     0.0000     0.0000     0.0000 </r>
        <r>    -9.9026     0.0000     0.0000     0.0000 </r>
        <r>    -9.7996     0.0000     0.0000     0.0000 </r>
        <r>    -9.6965     0.0000     0.0000     0.0000 </r>
        <r>    -9.5935     0.0000     0.0000     0.0000 </r>
        <r>    -9.4904     0.0000     0.0000     0.0000 </r>
        <r>    -9.3874     0.0000     0.0000     0.0000 </r>
        <r>    -9.2843     0.0000     0.0000     0.0000 </r>
        <r>    -9.1813     0.0000     0.0000     0.0000 </r>
        <r>    -9.0782     0.0000     0.0000     0.0000 </r>
        <r>    -8.9752     0.0000     0.0000     0.0000 </r>
        <r>    -8.8721     0.0000     0.0000     0.0000 </r>
        <r>    -8.7691     0.0000     0.0000     0.0000 </r>
        <r>    -8.6660     0.0000     0.0000     0.0000 </r>
        <r>    -8.5630     0.0000     0.0000     0.0000 </r>
        <r>    -8.4599     0.0000     0.0000     0.0000 </r>
        <r>    -8.3569     0.0000     0.0000     0.0000 </r>
        <r>    -8.2538     0.0000     0.0000     0.0000 </r>
        <r>    -8.1508     0.0000     0.0000     0.0000 </r>
        <r>    -8.0477     0.0000     0.0000     0.0000 </r>
        <r>    -7.9447     0.0000     0.0000     0.0000 </r>
        <r>    -7.8416     0.0000     0.0000     0.0000 </r>
        <r>    -7.7386     0.0000     0.0252     0.0000 </r>
        <r>    -7.6355     0.0000     0.0000     0.0000 </r>
        <r>    -7.5325     0.0000     0.0000     0.0000 </r>
        <r>    -7.4294     0.0000     0.1493     0.0000 </r>
        <r>    -7.3264     0.0000     0.0828     0.0001 </r>
        <r>    -7.2233     0.0000    32.6649     0.0000 </r>
        <r>    -7.1203     0.0000     1.0168     0.0000 </r>
        <r>    -7.0172     0.0000     0.0000     0.0000 </r>
        <r>    -6.9142     0.0000     0.0279     0.0000 </r>
        <r>    -6.8111     0.0000     0.0000     0.0000 </r>
        <r>    -6.7081     0.0000     0.0000     0.0000 </r>
        <r>    -6.6050     0.0000     0.0000     0.0000 </r>
        <r>    -6.5020     0.0000     0.0000     0.0000 </r>
        <r>    -6.3989     0.0000     0.0000     0.0000 </r>
        <r>    -6.2959     0.0000     0.0000     0.0000 </r>
        <r>    -6.1928     0.0000     0.0000     0.0000 </r>
        <r>    -6.0898     0.0000     0.0000     0.0000 </r>
        <r>    -5.9867     0.0000     0.0000     0.0000 </r>
        <r>    -5.8837     0.0000     0.0000     0.0000 </r>
        <r>    -5.7806     0.0000     0.0000     0.0000 </r>
        <r>    -5.6776     0.0000     0.0000     0.0000 </r>
        <r>    -5.5745     0.0000     0.0000     0.0000 </r>
        <r>    -5.4715     0.0000     0.0000     0.0000 </r>
        <r>    -5.3684     0.0000     0.0000     0.0000 </r>
        <r>    -5.2654     0.0000     0.0000     0.0000 </r>
        <r>    -5.1623     0.0000     0.0000     0.0000 </r>
        <r>    -5.0593     0.0000     0.0000     0.0000 </r>
        <r>    -4.9562     0.0000     0.0000     0.0000 </r>
        <r>    -4.8532     0.0000     0.0000     0.0000 </r>
        <r>    -4.7501     0.0000     0.0000     0.0000 </r>
        <r>    -4.6471     0.0000     0.0000     0.0000 </r>
        <r>    -4.5440     0.0000     0.0000     0.0000 </r>
        <r>    -4.4410     0.0000     0.0000     0.0000 </r>
        <r>    -4.3379     0.0000     0.0000     0.0000 </r>
        <r>    -4.2349     0.0000     0.0000     0.0000 </r>
        <r>    -4.1318     0.0000     0.0000     0.0000 </r>
        <r>    -4.0288     0.0000     0.0000     0.0000 </r>
        <r>    -3.9257     0.0000     0.0000     0.0000 </r>
        <r>    -3.8227     0.0000     0.0000     0.0000 </r>
        <r>    -3.7196     0.0000     0.0000     0.0000 </r>
        <r>    -3.6166     0.0000     0.0000     0.0000 </r>
        <r>    -3.5135     0.0000     0.0000     0.0000 </r>
        <r>    -3.4105     0.0000     0.0000     0.0000 </r>
        <r>    -3.3074     0.0000     0.0000     0.0000 </r>
        <r>    -3.2044     0.0000     0.0147     0.0012 </r>
        <r>    -3.1013     0.0000     0.0062     0.0014 </r>
        <r>    -2.9983     0.0000     0.0000     0.0000 </r>
        <r>    -2.8952     0.0002     0.0411     0.0015 </r>
        <r>    -2.7922     0.0000     0.0011     0.0013 </r>
        <r>    -2.6891     0.0000     0.0036     0.0007 </r>
        <r>    -2.5861     0.0008     0.0063     0.0011 </r>
        <r>    -2.4830     0.0000     0.0000     0.0000 </r>
        <r>    -2.3800     0.0000     0.0000     0.0000 </r>
        <r>    -2.2769     0.0000     0.0000     0.0000 </r>
        <r>    -2.1739     0.0015     0.0173     0.0019 </r>
        <r>    -2.0708     0.0116     0.0281     0.0042 </r>
        <r>    -1.9678     0.0215     0.0510     0.0058 </r>
        <r>    -1.8647     0.0000     0.0189     0.0002 </r>
        <r>    -1.7617     0.0016     0.0045     0.0025 </r>
        <r>    -1.6586     0.0020     0.1977     0.0177 </r>
        <r>    -1.5556     0.0005     0.0679     0.0051 </r>
        <r>    -1.4525     0.0012     0.0655     0.0123 </r>
        <r>    -1.3495     0.0108     0.0732     0.0176 </r>
        <r>    -1.2464     0.0031     0.0423     0.0073 </r>
        <r>    -1.1434     0.0053     0.0270     0.0135 </r>
        <r>    -1.0403     0.0008     0.0558     0.0075 </r>
        <r>    -0.9373     0.0008     0.0347     0.0110 </r>
        <r>    -0.8342     0.0002     0.0072     0.0048 </r>
        <r>    -0.7312     0.0000     0.0033     0.0002 </r>
        <r>    -0.6281     0.0000     0.0003     0.0000 </r>
        <r>    -0.5251     0.0000     0.0047     0.0005 </r>
        <r>    -0.4220     0.0000     0.0000     0.0000 </r>
        <r>    -0.3190     0.0001     0.0018     0.0002 </r>
        <r>    -0.2159     0.0000     0.0000     0.0000 </r>
        <r>    -0.1129     0.0000     0.0000     0.0000 </r>
        <r>    -0.0098     0.0000     0.0000     0.0000 </r>
        <r>     0.0932     0.0000     0.0000     0.0003 </r>
        <r>     0.1963     0.0000     0.0000     0.0000 </r>
        <r>     0.2993     0.0000     0.0000     0.0000 </r>
        <r>     0.4024     0.0000     0.0000     0.0000 </r>
        <r>     0.5054     0.0000     0.0000     0.0000 </r>
        <r>     0.6085     0.0000     0.0000     0.0000 </r>
        <r>     0.7115     0.0000     0.0000     0.0000 </r>
        <r>     0.8146     0.0000     0.0000     0.0000 </r>
        <r>     0.9176     0.0000     0.0000     0.0000 </r>
        <r>     1.0207     0.0000     0.0000     0.0000 </r>
        <r>     1.1237     0.0000     0.0000     0.0000 </r>
        <r>     1.2268     0.0000     0.0000     0.0000 </r>
        <r>     1.3298     0.0000     0.0000     0.0000 </r>
        <r>     1.4329     0.0000     0.0000     0.0000 </r>
        <r>     1.5359     0.0000     0.0000     0.0000 </r>
        <r>     1.6390     0.0000     0.0000     0.0000 </r>
        <r>     1.7420     0.0000     0.0000     0.0000 </r>
        <r>     1.8451     0.0000     0.0000     0.0000 </r>
        <r>     1.9481     0.0000     0.0000     0.0000 </r>
        <r>     2.0512     0.0000     0.0000     0.0000 </r>
        <r>     2.1542     0.0000     0.0000     0.0000 </r>
        <r>     2.2573     0.0000     0.0000     0.0000 </r>
        <r>     2.3603     0.0000     0.0000     0.0000 </r>
        <r>     2.4634     0.0000     0.0000     0.0000 </r>
        <r>     2.5664     0.0000     0.0000     0.0000 </r>
        <r>     2.6695     0.0000     0.0000     0.0007 </r>
        <r>     2.7725     0.0000     0.0000     0.0000 </r>
        <r>     2.8756     0.0000     0.0000     0.0000 </r>
        <r>     2.9786     0.0000     0.0001     0.0028 </r>
        <r>     3.0817     0.0000     0.0000     0.0000 </r>
        <r>     3.1847     0.0000     0.0000     0.0000 </r>
        <r>     3.2878     0.0000     0.0003     0.0013 </r>
        <r>     3.3908     0.0000     0.0000     0.0000 </r>
        <r>     3.4939     0.0005     0.0060     0.0019 </r>
        <r>     3.5969     0.0000     0.0000     0.0000 </r>
        <r>     3.7000     0.0000     0.0000     0.0000 </r>
        <r>     3.8030     0.0012     0.0021     0.0146 </r>
        <r>     3.9061     0.0000     0.0000     0.0000 </r>
        <r>     4.0091     0.0004     0.0036     0.0153 </r>
        <r>     4.1122     0.0000     0.0000     0.0000 </r>
        <r>     4.2152     0.0016     0.0044     0.0035 </r>
        <r>     4.3183     0.0001     0.0003     0.0011 </r>
        <r>     4.4213     0.0004     0.0030     0.0002 </r>
        <r>     4.5244     0.0000     0.0000     0.0000 </r>
        <r>     4.6274     0.0000     0.0000     0.0000 </r>
        <r>     4.7305     0.0151     0.0000     0.0021 </r>
        <r>     4.8335     0.0000     0.0000     0.0000 </r>
        <r>     4.9366     0.0000     0.0000     0.0000 </r>
        <r>     5.0396     0.0000     0.0000     0.0096 </r>
        <r>     5.1427     0.0000     0.0000     0.0000 </r>
        <r>     5.2457     0.0633     0.0239     0.0224 </r>
        <r>     5.3488     0.0030     0.0116     0.0151 </r>
        <r>     5.4518     0.0000     0.0000     0.0000 </r>
        <r>     5.5549     0.0239     0.0060     0.0466 </r>
        <r>     5.6579     0.0000     0.0000     0.0000 </r>
        <r>     5.7610     0.0000     0.0000     0.0000 </r>
        <r>     5.8640     0.0507     0.0215     0.0280 </r>
        <r>     5.9671     0.0455     0.0033     0.0672 </r>
        <r>     6.0701     0.0000     0.0000     0.0000 </r>
        <r>     6.1732     0.0023     0.0006     0.0088 </r>
        <r>     6.2762     0.0008     0.0295     0.1663 </r>
        <r>     6.3793     0.0557     0.0402     0.1863 </r>
        <r>     6.4823     0.0604     0.0266     0.4671 </r>
        <r>     6.5854     0.0477     0.0007     0.1193 </r>
        <r>     6.6884     0.0392     0.0248     0.6786 </r>
        <r>     6.7915     0.0014     0.1122     0.3663 </r>
        <r>     6.8945     0.0000     0.0094     0.2636 </r>
        <r>     6.9976     0.0048     0.0566     1.3025 </r>
        <r>     7.1006     0.0087     0.0401     0.5854 </r>
        <r>     7.2037     0.0000     0.0000     0.0000 </r>
        <r>     7.3067     0.0153     0.0087     0.4025 </r>
        <r>     7.4098     0.0000     0.0000     0.0000 </r>
        <r>     7.5128     0.0000     0.0000     0.0000 </r>
        <r>     7.6159     0.0000     0.0000     0.0000 </r>
        <r>     7.7189     0.0000     0.0000     0.0000 </r>
        <r>     7.8220     0.0000     0.0000     0.0000 </r>
        <r>     7.9250     0.0000     0.0000     0.0000 </r>
        <r>     8.0281     0.0000     0.0000     0.0000 </r>
        <r>     8.1311     0.0000     0.0000     0.0000 </r>
        <r>     8.2342     0.0000     0.0000     0.0000 </r>
        <r>     8.3372     0.0000     0.0000     0.0000 </r>
        <r>     8.4403     0.0000     0.0000     0.0000 </r>
        <r>     8.5433     0.0000     0.0000     0.0000 </r>
        <r>     8.6464     0.0000     0.0000     0.0000 </r>
       </set>
      </set>
      <set comment="ion 2">
       <set comment="spin 1">
        <r>   -22.2686     0.0000     0.0000     0.0000 </r>
        <r>   -22.1656     0.0000     0.0000     0.0000 </r>
        <r>   -22.0625     0.0000     0.0000     0.0000 </r>
        <r>   -21.9595     0.0000     0.0000     0.0000 </r>
        <r>   -21.8564     0.0000     0.0000     0.0000 </r>
        <r>   -21.7534     0.0000     0.0000     0.0000 </r>
        <r>   -21.6503     0.0000     0.0000     0.0000 </r>
        <r>   -21.5473     0.0000     0.0000     0.0000 </r>
        <r>   -21.4442     0.0000     0.0000     0.0000 </r>
        <r>   -21.3412     0.0000     0.0000     0.0000 </r>
        <r>   -21.2381     0.0000     0.0000     0.0000 </r>
        <r>   -21.1351     0.0000     0.0000     0.0000 </r>
        <r>   -21.0320     0.0000     0.0000     0.0000 </r>
        <r>   -20.9290     0.0000     0.0000     0.0000 </r>
        <r>   -20.8259    17.2262     0.0000     0.0000 </r>
        <r>   -20.7229     0.0000     0.0000     0.0000 </r>
        <r>   -20.6198     0.0000     0.0000     0.0000 </r>
        <r>   -20.5168     0.0000     0.0000     0.0000 </r>
        <r>   -20.4137     0.0000     0.0000     0.0000 </r>
        <r>   -20.3107     0.0000     0.0000     0.0000 </r>
        <r>   -20.2076     0.0000     0.0000     0.0000 </r>
        <r>   -20.1046     0.0000     0.0000     0.0000 </r>
        <r>   -20.0015     0.0000     0.0000     0.0000 </r>
        <r>   -19.8985     0.0000     0.0000     0.0000 </r>
        <r>   -19.7954     0.0000     0.0000     0.0000 </r>
        <r>   -19.6924     0.0000     0.0000     0.0000 </r>
        <r>   -19.5893     0.0000     0.0000     0.0000 </r>
        <r>   -19.4863     0.0000     0.0000     0.0000 </r>
        <r>   -19.3832     0.0000     0.0000     0.0000 </r>
        <r>   -19.2802     0.0000     0.0000     0.0000 </r>
        <r>   -19.1771     0.0000     0.0000     0.0000 </r>
        <r>   -19.0741     0.0000     0.0000     0.0000 </r>
        <r>   -18.9710     0.0000     0.0000     0.0000 </r>
        <r>   -18.8680     0.0000     0.0000     0.0000 </r>
        <r>   -18.7649     0.0000     0.0000     0.0000 </r>
        <r>   -18.6619     0.0000     0.0000     0.0000 </r>
        <r>   -18.5588     0.0000     0.0000     0.0000 </r>
        <r>   -18.4558     0.0000     0.0000     0.0000 </r>
        <r>   -18.3527     0.0000     0.0000     0.0000 </r>
        <r>   -18.2497     0.0000     0.0000     0.0000 </r>
        <r>   -18.1466     0.0000     0.0000     0.0000 </r>
        <r>   -18.0436     0.0000     0.0000     0.0000 </r>
        <r>   -17.9405     0.0000     0.0000     0.0000 </r>
        <r>   -17.8375     0.0000     0.0000     0.0000 </r>
        <r>   -17.7344     0.0000     0.0000     0.0000 </r>
        <r>   -17.6314     0.0000     0.0000     0.0000 </r>
        <r>   -17.5283     0.0000     0.0000     0.0000 </r>
        <r>   -17.4253     0.0000     0.0000     0.0000 </r>
        <r>   -17.3222     0.0000     0.0000     0.0000 </r>
        <r>   -17.2192     0.0000     0.0000     0.0000 </r>
        <r>   -17.1161     0.0000     0.0000     0.0000 </r>
        <r>   -17.0131     0.0000     0.0000     0.0000 </r>
        <r>   -16.9100     0.0000     0.0000     0.0000 </r>
        <r>   -16.8070     0.0000     0.0000     0.0000 </r>
        <r>   -16.7039     0.0000     0.0000     0.0000 </r>
        <r>   -16.6009     0.0000     0.0000     0.0000 </r>
        <r>   -16.4978     0.0000     0.0000     0.0000 </r>
        <r>   -16.3948     0.0000     0.0000     0.0000 </r>
        <r>   -16.2917     0.0000     0.0001     0.0000 </r>
        <r>   -16.1887     0.0000     0.0000     0.0000 </r>
        <r>   -16.0856     0.0000     0.0000     0.0000 </r>
        <r>   -15.9826     0.0000     0.0000     0.0000 </r>
        <r>   -15.8795     0.0000     0.0000     0.0000 </r>
        <r>   -15.7765     0.0000     0.0000     0.0000 </r>
        <r>   -15.6734     0.0000     0.0000     0.0000 </r>
        <r>   -15.5704     0.0000     0.0000     0.0000 </r>
        <r>   -15.4673     0.0000     0.0000     0.0000 </r>
        <r>   -15.3643     0.0000     0.0000     0.0000 </r>
        <r>   -15.2612     0.0000     0.0000     0.0000 </r>
        <r>   -15.1582     0.0000     0.0000     0.0000 </r>
        <r>   -15.0551     0.0000     0.0000     0.0000 </r>
        <r>   -14.9521     0.0000     0.0000     0.0000 </r>
        <r>   -14.8490     0.0000     0.0000     0.0000 </r>
        <r>   -14.7460     0.0000     0.0000     0.0000 </r>
        <r>   -14.6429     0.0000     0.0000     0.0000 </r>
        <r>   -14.5399     0.0000     0.0000     0.0000 </r>
        <r>   -14.4368     0.0000     0.0000     0.0000 </r>
        <r>   -14.3338     0.0001     0.0000     0.0000 </r>
        <r>   -14.2307     0.0023     0.0011     0.0000 </r>
        <r>   -14.1277     0.0008     0.0018     0.0001 </r>
        <r>   -14.0246     0.0003     0.0030     0.0002 </r>
        <r>   -13.9216     0.0018     0.0045     0.0004 </r>
        <r>   -13.8185     0.0003     0.0012     0.0001 </r>
        <r>   -13.7155     0.0010     0.0026     0.0003 </r>
        <r>   -13.6124     0.0000     0.0001     0.0000 </r>
        <r>   -13.5094     0.0000     0.0000     0.0000 </r>
        <r>   -13.4063     0.0000     0.0000     0.0000 </r>
        <r>   -13.3033     0.0000     0.0000     0.0000 </r>
        <r>   -13.2002     0.0000     0.0000     0.0000 </r>
        <r>   -13.0972     0.0000     0.0000     0.0000 </r>
        <r>   -12.9941     0.0000     0.0000     0.0000 </r>
        <r>   -12.8911     0.0000     0.0000     0.0000 </r>
        <r>   -12.7880     0.0000     0.0000     0.0000 </r>
        <r>   -12.6850     0.0000     0.0000     0.0000 </r>
        <r>   -12.5819     0.0000     0.0000     0.0000 </r>
        <r>   -12.4789     0.0000     0.0000     0.0000 </r>
        <r>   -12.3758     0.0000     0.0000     0.0000 </r>
        <r>   -12.2728     0.0000     0.0000     0.0000 </r>
        <r>   -12.1697     0.0000     0.0000     0.0000 </r>
        <r>   -12.0667     0.0000     0.0000     0.0000 </r>
        <r>   -11.9636     0.0000     0.0000     0.0000 </r>
        <r>   -11.8606     0.0000     0.0000     0.0000 </r>
        <r>   -11.7575     0.0000     0.0000     0.0000 </r>
[...]
       <set comment="band 16">
        <r>  0.0000  0.0003  0.0000 </r>
        <r>  0.0000  0.0003  0.0000 </r>
        <r>  0.0000  0.0017  0.0085 </r>
        <r>  0.0000  0.0017  0.0085 </r>
        <r>  0.1965  0.0000  0.0000 </r>
        <r>  0.1965  0.0000  0.0000 </r>
        <r>  0.0000  0.0000  0.0000 </r>
        <r>  0.0000  0.0000  0.0000 </r>
        <r>  0.1965  0.0000  0.0000 </r>
        <r>  0.1965  0.0000  0.0000 </r>
       </set>
       <set comment="band 17">
        <r>  0.0000  0.0000  0.0000 </r>
        <r>  0.0000  0.0000  0.0000 </r>
        <r>  0.0009  0.0006  0.0206 </r>
        <r>  0.0009  0.0006  0.0206 </r>
        <r>  0.0723  0.0001  0.0000 </r>
        <r>  0.0723  0.0001  0.0000 </r>
        <r>  0.2426  0.0000  0.0000 </r>
        <r>  0.2426  0.0000  0.0000 </r>
        <r>  0.0723  0.0001  0.0000 </r>
        <r>  0.0723  0.0001  0.0000 </r>
       </set>
       <set comment="band 18">
        <r>  0.0002  0.0000  0.0000 </r>
        <r>  0.0002  0.0000  0.0000 </r>
        <r>  0.0000  0.0006  0.0233 </r>
        <r>  0.0000  0.0006  0.0233 </r>
        <r>  0.1914  0.0000  0.0000 </r>
        <r>  0.1914  0.0000  0.0000 </r>
        <r>  0.0046  0.0000  0.0000 </r>
        <r>  0.0046  0.0000  0.0000 </r>
        <r>  0.1914  0.0000  0.0000 </r>
        <r>  0.1914  0.0000  0.0000 </r>
       </set>
       <set comment="band 19">
        <r>  0.0000  0.0494  0.0000 </r>
        <r>  0.0000  0.0494  0.0000 </r>
        <r>  0.2600  0.0008  0.0004 </r>
        <r>  0.2600  0.0008  0.0004 </r>
        <r>  0.0066  0.0075  0.0005 </r>
        <r>  0.0066  0.0075  0.0005 </r>
        <r>  0.0000  0.0188  0.0000 </r>
        <r>  0.0000  0.0188  0.0000 </r>
        <r>  0.0066  0.0075  0.0005 </r>
        <r>  0.0066  0.0075  0.0005 </r>
       </set>
       <set comment="band 20">
        <r>  0.0000  0.0005  0.0000 </r>
        <r>  0.0000  0.0005  0.0000 </r>
        <r>  0.3018  0.0008  0.0006 </r>
        <r>  0.3018  0.0008  0.0006 </r>
        <r>  0.0026  0.0181  0.0002 </r>
        <r>  0.0026  0.0181  0.0002 </r>
        <r>  0.0133  0.0000  0.0007 </r>
        <r>  0.0133  0.0000  0.0007 </r>
        <r>  0.0026  0.0181  0.0002 </r>
        <r>  0.0026  0.0181  0.0002 </r>
       </set>
       <set comment="band 21">
        <r>  0.0000  0.3848  0.0000 </r>
        <r>  0.0000  0.3848  0.0000 </r>
        <r>  0.0000  0.0000  0.0000 </r>
        <r>  0.0000  0.0000  0.0000 </r>
        <r>  0.0000  0.0005  0.0000 </r>
        <r>  0.0000  0.0005  0.0000 </r>
        <r>  0.0000  0.0008  0.0000 </r>
        <r>  0.0000  0.0008  0.0000 </r>
        <r>  0.0000  0.0005  0.0000 </r>
        <r>  0.0000  0.0005  0.0000 </r>
       </set>
       <set comment="band 22">
        <r>  0.0000  0.3870  0.0000 </r>
        <r>  0.0000  0.3870  0.0000 </r>
        <r>  0.0000  0.0000  0.0000 </r>
        <r>  0.0000  0.0000  0.0000 </r>
        <r>  0.0000  0.0005  0.0000 </r>
        <r>  0.0000  0.0005  0.0000 </r>
        <r>  0.0004  0.0001  0.0000 </r>
        <r>  0.0004  0.0001  0.0000 </r>
        <r>  0.0000  0.0005  0.0000 </r>
        <r>  0.0000  0.0005  0.0000 </r>
       </set>
       <set comment="band 23">
        <r>  0.0000  0.3658  0.0000 </r>
        <r>  0.0000  0.3658  0.0000 </r>
        <r>  0.0160  0.0000  0.0000 </r>
        <r>  0.0160  0.0000  0.0000 </r>
        <r>  0.0010  0.0004  0.0000 </r>
        <r>  0.0010  0.0004  0.0000 </r>
        <r>  0.0000  0.0020  0.0000 </r>
        <r>  0.0000  0.0020  0.0000 </r>
        <r>  0.0010  0.0004  0.0000 </r>
        <r>  0.0010  0.0004  0.0000 </r>
       </set>
       <set comment="band 24">
        <r>  0.0000  0.3862  0.0000 </r>
        <r>  0.0000  0.3862  0.0000 </r>
        <r>  0.0002  0.0000  0.0000 </r>
        <r>  0.0002  0.0000  0.0000 </r>
        <r>  0.0005  0.0002  0.0000 </r>
        <r>  0.0005  0.0002  0.0000 </r>
        <r>  0.0005  0.0003  0.0000 </r>
        <r>  0.0005  0.0003  0.0000 </r>
        <r>  0.0005  0.0002  0.0000 </r>
        <r>  0.0005  0.0002  0.0000 </r>
       </set>
       <set comment="band 25">
        <r>  0.0000  0.3834  0.0000 </r>
        <r>  0.0000  0.3834  0.0000 </r>
        <r>  0.0000  0.0000  0.0000 </r>
        <r>  0.0000  0.0000  0.0000 </r>
        <r>  0.0000  0.0012  0.0001 </r>
        <r>  0.0000  0.0012  0.0001 </r>
        <r>  0.0000  0.0000  0.0000 </r>
        <r>  0.0000  0.0000  0.0000 </r>
        <r>  0.0000  0.0012  0.0001 </r>
        <r>  0.0000  0.0012  0.0001 </r>
       </set>
       <set comment="band 26">
        <r>  0.0000  0.3536  0.0000 </r>
        <r>  0.0000  0.3536  0.0000 </r>
        <r>  0.0225  0.0001  0.0001 </r>
        <r>  0.0225  0.0001  0.0001 </r>
        <r>  0.0037  0.0010  0.0000 </r>
        <r>  0.0037  0.0010  0.0000 </r>
        <r>  0.0000  0.0023  0.0000 </r>
        <r>  0.0000  0.0023  0.0000 </r>
        <r>  0.0037  0.0010  0.0000 </r>
        <r>  0.0037  0.0010  0.0000 </r>
       </set>
       <set comment="band 27">
        <r>  0.0000  0.0006  0.0001 </r>
        <r>  0.0000  0.0006  0.0001 </r>
        <r>  0.0000  0.0485  0.0000 </r>
        <r>  0.0000  0.0485  0.0000 </r>
        <r>  0.0000  0.0061  0.0002 </r>
        <r>  0.0000  0.0061  0.0002 </r>
        <r>  0.0000  0.2065  0.0000 </r>
        <r>  0.0000  0.2065  0.0000 </r>
        <r>  0.0000  0.0061  0.0002 </r>
        <r>  0.0000  0.0061  0.0002 </r>
       </set>
       <set comment="band 28">
        <r>  0.0001  0.0007  0.0003 </r>
        <r>  0.0001  0.0007  0.0003 </r>
        <r>  0.0000  0.0414  0.0018 </r>
        <r>  0.0000  0.0414  0.0018 </r>
        <r>  0.0005  0.1101  0.0001 </r>
        <r>  0.0005  0.1101  0.0001 </r>
        <r>  0.0000  0.0036  0.0002 </r>
        <r>  0.0000  0.0036  0.0002 </r>
        <r>  0.0005  0.1101  0.0001 </r>
        <r>  0.0005  0.1101  0.0001 </r>
       </set>
       <set comment="band 29">
        <r>  0.0000  0.0012  0.0002 </r>
        <r>  0.0000  0.0012  0.0002 </r>
        <r>  0.0095  0.0397  0.0020 </r>
        <r>  0.0095  0.0397  0.0020 </r>
        <r>  0.0013  0.0993  0.0002 </r>
        <r>  0.0013  0.0993  0.0002 </r>
        <r>  0.0000  0.0219  0.0002 </r>
        <r>  0.0000  0.0219  0.0002 </r>
        <r>  0.0013  0.0993  0.0002 </r>
        <r>  0.0013  0.0993  0.0002 </r>
       </set>
       <set comment="band 30">
        <r>  0.0000  0.0026  0.0000 </r>
        <r>  0.0000  0.0026  0.0000 </r>
        <r>  0.0003  0.0273  0.0051 </r>
        <r>  0.0003  0.0273  0.0051 </r>
        <r>  0.0011  0.1069  0.0002 </r>
        <r>  0.0011  0.1069  0.0002 </r>
        <r>  0.0000  0.0363  0.0001 </r>
        <r>  0.0000  0.0363  0.0001 </r>
        <r>  0.0011  0.1069  0.0002 </r>
        <r>  0.0011  0.1069  0.0002 </r>
       </set>
       <set comment="band 31">
        <r>  0.0013  0.0000  0.0005 </r>
        <r>  0.0013  0.0000  0.0005 </r>
        <r>  0.0053  0.0084  0.0019 </r>
        <r>  0.0053  0.0084  0.0019 </r>
        <r>  0.0014  0.0991  0.0001 </r>
        <r>  0.0014  0.0991  0.0001 </r>
        <r>  0.0001  0.0443  0.0000 </r>
        <r>  0.0001  0.0443  0.0000 </r>
        <r>  0.0014  0.0991  0.0001 </r>
        <r>  0.0014  0.0991  0.0001 </r>
       </set>
       <set comment="band 32">
        <r>  0.0024  0.0003  0.0001 </r>
        <r>  0.0024  0.0003  0.0001 </r>
        <r>  0.0000  0.0046  0.0011 </r>
        <r>  0.0000  0.0046  0.0011 </r>
        <r>  0.0000  0.0902  0.0000 </r>
        <r>  0.0000  0.0902  0.0000 </r>
        <r>  0.0020  0.0696  0.0000 </r>
        <r>  0.0020  0.0696  0.0000 </r>
        <r>  0.0000  0.0902  0.0000 </r>
        <r>  0.0000  0.0902  0.0000 </r>
       </set>
       <set comment="band 33">
        <r>  0.0000  0.0011  0.0010 </r>
        <r>  0.0000  0.0011  0.0010 </r>
        <r>  0.0064  0.0113  0.0014 </r>
        <r>  0.0064  0.0113  0.0014 </r>
        <r>  0.0006  0.0711  0.0002 </r>
        <r>  0.0006  0.0711  0.0002 </r>
        <r>  0.0001  0.1190  0.0001 </r>
        <r>  0.0001  0.1190  0.0001 </r>
        <r>  0.0006  0.0711  0.0002 </r>
        <r>  0.0006  0.0711  0.0002 </r>
       </set>
       <set comment="band 34">
        <r>  0.0000  0.0098  0.0006 </r>
        <r>  0.0000  0.0098  0.0006 </r>
        <r>  0.0000  0.0001  0.0016 </r>
        <r>  0.0000  0.0001  0.0016 </r>
        <r>  0.0000  0.0620  0.0000 </r>
        <r>  0.0000  0.0620  0.0000 </r>
        <r>  0.0000  0.1460  0.0000 </r>
        <r>  0.0000  0.1460  0.0000 </r>
        <r>  0.0000  0.0620  0.0000 </r>
        <r>  0.0000  0.0620  0.0000 </r>
       </set>
       <set comment="band 35">
        <r>  0.0000  0.0040  0.0015 </r>
        <r>  0.0000  0.0040  0.0015 </r>
        <r>  0.0000  0.0008  0.0011 </r>
        <r>  0.0000  0.0008  0.0011 </r>
        <r>  0.0000  0.1339  0.0000 </r>
        <r>  0.0000  0.1339  0.0000 </r>
        <r>  0.0002  0.0124  0.0001 </r>
        <r>  0.0002  0.0124  0.0001 </r>
        <r>  0.0000  0.1339  0.0000 </r>
        <r>  0.0000  0.1339  0.0000 </r>
       </set>
       <set comment="band 36">
        <r>  0.0000  0.0063  0.0011 </r>
        <r>  0.0000  0.0063  0.0011 </r>
        <r>  0.0000  0.0009  0.0010 </r>
        <r>  0.0000  0.0009  0.0010 </r>
        <r>  0.0000  0.1324  0.0000 </r>
        <r>  0.0000  0.1324  0.0000 </r>
        <r>  0.0000  0.0213  0.0001 </r>
        <r>  0.0000  0.0213  0.0001 </r>
        <r>  0.0000  0.1324  0.0000 </r>
        <r>  0.0000  0.1324  0.0000 </r>
       </set>
       <set comment="band 37">
        <r>  0.0000  0.0025  0.0001 </r>
        <r>  0.0000  0.0025  0.0001 </r>
        <r>  0.0001  0.0007  0.0044 </r>
        <r>  0.0001  0.0007  0.0044 </r>
        <r>  0.0001  0.0856  0.0000 </r>
        <r>  0.0001  0.0856  0.0000 </r>
        <r>  0.0000  0.1274  0.0000 </r>
        <r>  0.0000  0.1274  0.0000 </r>
        <r>  0.0001  0.0856  0.0000 </r>
        <r>  0.0001  0.0856  0.0000 </r>
       </set>
       <set comment="band 38">
        <r>  0.0000  0.0071  0.0003 </r>
        <r>  0.0000  0.0071  0.0003 </r>
        <r>  0.0000  0.0004  0.0006 </r>
        <r>  0.0000  0.0004  0.0006 </r>
        <r>  0.0001  0.0875  0.0001 </r>
        <r>  0.0001  0.0875  0.0001 </r>
        <r>  0.0000  0.1145  0.0000 </r>
        <r>  0.0000  0.1145  0.0000 </r>
        <r>  0.0001  0.0875  0.0001 </r>
        <r>  0.0001  0.0875  0.0001 </r>
       </set>
       <set comment="band 39">
        <r>  0.0001  0.0007  0.0008 </r>
        <r>  0.0001  0.0007  0.0008 </r>
        <r>  0.0000  0.0023  0.0005 </r>
        <r>  0.0000  0.0023  0.0005 </r>
        <r>  0.0000  0.0450  0.0001 </r>
        <r>  0.0000  0.0450  0.0001 </r>
        <r>  0.0007  0.1996  0.0001 </r>
        <r>  0.0007  0.1996  0.0001 </r>
        <r>  0.0000  0.0450  0.0001 </r>
        <r>  0.0000  0.0450  0.0001 </r>
       </set>
       <set comment="band 40">
        <r>  0.0003  0.0020  0.0004 </r>
        <r>  0.0003  0.0020  0.0004 </r>
        <r>  0.0020  0.0048  0.0002 </r>
        <r>  0.0020  0.0048  0.0002 </r>
        <r>  0.0001  0.1054  0.0001 </r>
        <r>  0.0001  0.1054  0.0001 </r>
        <r>  0.0000  0.0887  0.0000 </r>
        <r>  0.0000  0.0887  0.0000 </r>
        <r>  0.0001  0.1054  0.0001 </r>
        <r>  0.0001  0.1054  0.0001 </r>
       </set>
       <set comment="band 41">
        <r>  0.0000  0.0030  0.0005 </r>
        <r>  0.0000  0.0030  0.0005 </r>
        <r>  0.0000  0.0000  0.0001 </r>
        <r>  0.0000  0.0000  0.0001 </r>
        <r>  0.0000  0.0825  0.0000 </r>
        <r>  0.0000  0.0825  0.0000 </r>
        <r>  0.0000  0.1375  0.0000 </r>
        <r>  0.0000  0.1375  0.0000 </r>
        <r>  0.0000  0.0825  0.0000 </r>
        <r>  0.0000  0.0825  0.0000 </r>
       </set>
       <set comment="band 42">
        <r>  0.0000  0.0033  0.0003 </r>
        <r>  0.0000  0.0033  0.0003 </r>
        <r>  0.0046  0.0007  0.0046 </r>
        <r>  0.0046  0.0007  0.0046 </r>
        <r>  0.0001  0.1061  0.0001 </r>
        <r>  0.0001  0.1061  0.0001 </r>
        <r>  0.0000  0.0933  0.0000 </r>
        <r>  0.0000  0.0933  0.0000 </r>
        <r>  0.0001  0.1061  0.0001 </r>
        <r>  0.0001  0.1061  0.0001 </r>
       </set>
       <set comment="band 43">
        <r>  0.0000  0.0001  0.0003 </r>
        <r>  0.0000  0.0001  0.0003 </r>
        <r>  0.0618  0.0096  0.0025 </r>
        <r>  0.0618  0.0096  0.0025 </r>
        <r>  0.0006  0.1222  0.0004 </r>
        <r>  0.0006  0.1222  0.0004 </r>
        <r>  0.0004  0.0192  0.0005 </r>
        <r>  0.0004  0.0192  0.0005 </r>
        <r>  0.0006  0.1222  0.0004 </r>
        <r>  0.0006  0.1222  0.0004 </r>
       </set>
       <set comment="band 44">
        <r>  0.0000  0.0003  0.0000 </r>
        <r>  0.0000  0.0003  0.0000 </r>
        <r>  0.0687  0.0028  0.0034 </r>
        <r>  0.0687  0.0028  0.0034 </r>
        <r>  0.0006  0.0523  0.0005 </r>
        <r>  0.0006  0.0523  0.0005 </r>
        <r>  0.0000  0.1695  0.0000 </r>
        <r>  0.0000  0.1695  0.0000 </r>
        <r>  0.0006  0.0523  0.0005 </r>
        <r>  0.0006  0.0523  0.0005 </r>
       </set>
       <set comment="band 45">
        <r>  0.0000  0.0001  0.0006 </r>
        <r>  0.0000  0.0001  0.0006 </r>
        <r>  0.0000  0.2008  0.0002 </r>
        <r>  0.0000  0.2008  0.0002 </r>
        <r>  0.0000  0.0134  0.0011 </r>
        <r>  0.0000  0.0134  0.0011 </r>
        <r>  0.0187  0.0008  0.0112 </r>
        <r>  0.0187  0.0008  0.0112 </r>
        <r>  0.0000  0.0134  0.0011 </r>
        <r>  0.0000  0.0134  0.0011 </r>
       </set>
       <set comment="band 46">
        <r>  0.0000  0.0008  0.0001 </r>
        <r>  0.0000  0.0008  0.0001 </r>
        <r>  0.0001  0.1780  0.0026 </r>
        <r>  0.0001  0.1780  0.0026 </r>
        <r>  0.0075  0.0228  0.0063 </r>
        <r>  0.0075  0.0228  0.0063 </r>
        <r>  0.0000  0.0101  0.0009 </r>
        <r>  0.0000  0.0101  0.0009 </r>
        <r>  0.0075  0.0228  0.0063 </r>
        <r>  0.0075  0.0228  0.0063 </r>
       </set>
       <set comment="band 47">
        <r>  0.0000  0.0005  0.0001 </r>
        <r>  0.0000  0.0005  0.0001 </r>
        <r>  0.0081  0.1701  0.0014 </r>
        <r>  0.0081  0.1701  0.0014 </r>
        <r>  0.0070  0.0271  0.0055 </r>
        <r>  0.0070  0.0271  0.0055 </r>
        <r>  0.0000  0.0096  0.0013 </r>
        <r>  0.0000  0.0096  0.0013 </r>
        <r>  0.0070  0.0271  0.0055 </r>
        <r>  0.0070  0.0271  0.0055 </r>
       </set>
       <set comment="band 48">
        <r>  0.0011  0.0001  0.0016 </r>
        <r>  0.0011  0.0001  0.0016 </r>
        <r>  0.0002  0.1558  0.0031 </r>
        <r>  0.0002  0.1558  0.0031 </r>
        <r>  0.0050  0.0458  0.0032 </r>
        <r>  0.0050  0.0458  0.0032 </r>
        <r>  0.0002  0.0038  0.0041 </r>
        <r>  0.0002  0.0038  0.0041 </r>
        <r>  0.0050  0.0458  0.0032 </r>
        <r>  0.0050  0.0458  0.0032 </r>
       </set>
       <set comment="band 49">
        <r>  0.0000  0.0013  0.0025 </r>
        <r>  0.0000  0.0013  0.0025 </r>
        <r>  0.0072  0.1551  0.0014 </r>
        <r>  0.0072  0.1551  0.0014 </r>
        <r>  0.0049  0.0400  0.0032 </r>
        <r>  0.0049  0.0400  0.0032 </r>
        <r>  0.0000  0.0025  0.0037 </r>
        <r>  0.0000  0.0025  0.0037 </r>
        <r>  0.0049  0.0400  0.0032 </r>
        <r>  0.0049  0.0400  0.0032 </r>
       </set>
       <set comment="band 50">
        <r>  0.0000  0.0003  0.0007 </r>
        <r>  0.0000  0.0003  0.0007 </r>
        <r>  0.0000  0.1497  0.0007 </r>
        <r>  0.0000  0.1497  0.0007 </r>
        <r>  0.0000  0.0017  0.0058 </r>
        <r>  0.0000  0.0017  0.0058 </r>
        <r>  0.0000  0.1182  0.0004 </r>
        <r>  0.0000  0.1182  0.0004 </r>
        <r>  0.0000  0.0017  0.0058 </r>
        <r>  0.0000  0.0017  0.0058 </r>
       </set>
       <set comment="band 51">
        <r>  0.0125  0.0025  0.0357 </r>
        <r>  0.0125  0.0025  0.0357 </r>
        <r>  0.0000  0.0081  0.0001 </r>
        <r>  0.0000  0.0081  0.0001 </r>
        <r>  0.0000  0.0100  0.0007 </r>
        <r>  0.0000  0.0100  0.0007 </r>
        <r>  0.0080  0.0039  0.0088 </r>
        <r>  0.0080  0.0039  0.0087 </r>
        <r>  0.0000  0.0100  0.0007 </r>
        <r>  0.0000  0.0100  0.0007 </r>
       </set>
       <set comment="band 52">
        <r>  0.0127  0.0059  0.0297 </r>
        <r>  0.0127  0.0059  0.0297 </r>
        <r>  0.0005  0.0106  0.0003 </r>
        <r>  0.0005  0.0106  0.0003 </r>
        <r>  0.0015  0.0067  0.0025 </r>
        <r>  0.0015  0.0067  0.0025 </r>
        <r>  0.0109  0.0059  0.0047 </r>
        <r>  0.0109  0.0059  0.0047 </r>
        <r>  0.0015  0.0067  0.0025 </r>
        <r>  0.0015  0.0067  0.0025 </r>
       </set>
       <set comment="band 53">
        <r>  0.0000  0.0048  0.0616 </r>
        <r>  0.0000  0.0048  0.0616 </r>
        <r>  0.0000  0.0010  0.0002 </r>
        <r>  0.0000  0.0010  0.0002 </r>
        <r>  0.0000  0.0083  0.0021 </r>
        <r>  0.0000  0.0083  0.0021 </r>
        <r>  0.0000  0.0038  0.0068 </r>
        <r>  0.0000  0.0038  0.0068 </r>
        <r>  0.0000  0.0083  0.0021 </r>
        <r>  0.0000  0.0083  0.0021 </r>
       </set>
       <set comment="band 54">
        <r>  0.0000  0.0077  0.0623 </r>
        <r>  0.0000  0.0077  0.0623 </r>
        <r>  0.0002  0.0038  0.0002 </r>
        <r>  0.0002  0.0038  0.0002 </r>
        <r>  0.0025  0.0032  0.0043 </r>
        <r>  0.0027  0.0030  0.0045 </r>
        <r>  0.0000  0.0134  0.0031 </r>
        <r>  0.0000  0.0134  0.0031 </r>
        <r>  0.0025  0.0033  0.0043 </r>
        <r>  0.0027  0.0030  0.0045 </r>
       </set>
       <set comment="band 55">
        <r>  0.0028  0.0066  0.0849 </r>
        <r>  0.0010  0.0021  0.0373 </r>
        <r>  0.0000  0.0082  0.0041 </r>
        <r>  0.0000  0.0091  0.0040 </r>
        <r>  0.0009  0.0074  0.0069 </r>
        <r>  0.0010  0.0066  0.0074 </r>
        <r>  0.0000  0.0002  0.0068 </r>
        <r>  0.0001  0.0004  0.0069 </r>
        <r>  0.0007  0.0075  0.0067 </r>
        <r>  0.0008  0.0066  0.0072 </r>
       </set>
       <set comment="band 56">
        <r>  0.0002  0.0062  0.0486 </r>
        <r>  0.0005  0.0072  0.0593 </r>
        <r>  0.0001  0.0169  0.0016 </r>
        <r>  0.0000  0.0111  0.0024 </r>
        <r>  0.0029  0.0113  0.0072 </r>
        <r>  0.0026  0.0163  0.0040 </r>
        <r>  0.0000  0.0042  0.0022 </r>
        <r>  0.0000  0.0041  0.0021 </r>
        <r>  0.0041  0.0109  0.0085 </r>
        <r>  0.0038  0.0158  0.0054 </r>
       </set>
      </set>
     </set>
    </set>
   </array>
  </projected>
 </calculation>
 <structure name="finalpos" >
  <crystal>
   <varray name="basis" >
    <v>       5.79082703       5.79082703      -0.00000000 </v>
    <v>       5.79082703       0.00000000      -5.99952772 </v>
    <v>      -0.00000000       5.79082703      -5.99952772 </v>
   </varray>
   <i name="volume">    402.37245736 </i>
   <varray name="rec_basis" >
    <v>       0.08634345       0.08634345       0.08333989 </v>
    <v>       0.08634345      -0.08634345      -0.08333989 </v>
    <v>      -0.08634345       0.08634345      -0.08333989 </v>
   </varray>
  </crystal>
  <varray name="positions" >
   <v>       0.75000000       0.75000000       0.75000000 </v>
   <v>       0.25000000       0.25000000       0.25000000 </v>
   <v>       0.00000000       0.00000000       0.00000000 </v>
   <v>       0.50000000       0.50000000       0.50000000 </v>
   <v>       0.18808263       0.68808263       0.31191737 </v>
   <v>       0.81191737       0.31191737       0.68808263 </v>
   <v>       0.25000000       0.75000000       0.75000000 </v>
   <v>       0.75000000       0.25000000       0.25000000 </v>
   <v>       0.31191737       0.18808263       0.81191737 </v>
   <v>       0.68808263       0.81191737       0.18808263 </v>
  </varray>
 </structure>
</modeling>
