CsPbBr3 cubic bulk                      
           1
     5.790827    5.790827   -0.000000
     5.790827    0.000000   -5.999528
    -0.000000    5.790827   -5.999528
   Cs   Pb   Br
   2   2   6
Direct configuration=     1
   0.75000000  0.75000000  0.75000000
   0.25000000  0.25000000  0.25000000
   0.00000000  0.00000000  0.00000000
   0.50000000  0.50000000  0.50000000
   0.18808263  0.68808263  0.31191737
   0.81191737  0.31191737  0.68808263
   0.25000000  0.75000000  0.75000000
   0.75000000  0.25000000  0.25000000
   0.31191737  0.18808263  0.81191737
   0.68808263  0.81191737  0.18808263
