  39  39   1   0
  0.4089970E+02  0.1166870E-08  0.1172985E-08  0.1166870E-08  0.5000000E-15
   1.0000000000000000E-004
  CAR 
 CsPbBr3 cubic bulk                      
      8.04197487    -22.28335197  301      0.48591427      1.00000000
    -22.283  0.0000E+00  0.0000E+00
    -22.182  0.0000E+00  0.0000E+00
    -22.081  0.0000E+00  0.0000E+00
    -21.980  0.0000E+00  0.0000E+00
    -21.879  0.0000E+00  0.0000E+00
    -21.778  0.0000E+00  0.0000E+00
    -21.677  0.0000E+00  0.0000E+00
    -21.576  0.0000E+00  0.0000E+00
    -21.475  0.0000E+00  0.0000E+00
    -21.374  0.0000E+00  0.0000E+00
    -21.273  0.0000E+00  0.0000E+00
    -21.171  0.0000E+00  0.0000E+00
    -21.070  0.0000E+00  0.0000E+00
    -20.969  0.0000E+00  0.0000E+00
    -20.868  0.1979E+02  0.2000E+01
    -20.767  0.5893E+02  0.7957E+01
    -20.666  0.7914E+02  0.1600E+02
    -20.565  0.0000E+00  0.1600E+02
    -20.464  0.0000E+00  0.1600E+02
    -20.363  0.0000E+00  0.1600E+02
    -20.262  0.0000E+00  0.1600E+02
    -20.161  0.0000E+00  0.1600E+02
    -20.059  0.0000E+00  0.1600E+02
    -19.958  0.0000E+00  0.1600E+02
    -19.857  0.0000E+00  0.1600E+02
    -19.756  0.0000E+00  0.1600E+02
    -19.655  0.0000E+00  0.1600E+02
    -19.554  0.0000E+00  0.1600E+02
    -19.453  0.0000E+00  0.1600E+02
    -19.352  0.0000E+00  0.1600E+02
    -19.251  0.0000E+00  0.1600E+02
    -19.150  0.0000E+00  0.1600E+02
    -19.049  0.0000E+00  0.1600E+02
    -18.948  0.0000E+00  0.1600E+02
    -18.846  0.0000E+00  0.1600E+02
    -18.745  0.0000E+00  0.1600E+02
    -18.644  0.0000E+00  0.1600E+02
    -18.543  0.0000E+00  0.1600E+02
    -18.442  0.0000E+00  0.1600E+02
    -18.341  0.0000E+00  0.1600E+02
    -18.240  0.0000E+00  0.1600E+02
    -18.139  0.0000E+00  0.1600E+02
    -18.038  0.0000E+00  0.1600E+02
    -17.937  0.0000E+00  0.1600E+02
    -17.836  0.0000E+00  0.1600E+02
    -17.735  0.0000E+00  0.1600E+02
    -17.633  0.0000E+00  0.1600E+02
    -17.532  0.0000E+00  0.1600E+02
    -17.431  0.0000E+00  0.1600E+02
    -17.330  0.0000E+00  0.1600E+02
    -17.229  0.0000E+00  0.1600E+02
    -17.128  0.0000E+00  0.1600E+02
    -17.027  0.0000E+00  0.1600E+02
    -16.926  0.0000E+00  0.1600E+02
    -16.825  0.0000E+00  0.1600E+02
    -16.724  0.4954E-01  0.1601E+02
    -16.623  0.8655E+02  0.2600E+02
    -16.522  0.1186E+03  0.3799E+02
    -16.420  0.6484E+02  0.4455E+02
    -16.319  0.1678E+03  0.6796E+02
    -16.218  0.2284E+03  0.9308E+02
    -16.117  0.0000E+00  0.9600E+02
    -16.016  0.0000E+00  0.9600E+02
    -15.915  0.0000E+00  0.9600E+02
    -15.814  0.0000E+00  0.9600E+02
    -15.713  0.0000E+00  0.9600E+02
    -15.612  0.0000E+00  0.9600E+02
    -15.511  0.0000E+00  0.9600E+02
    -15.410  0.0000E+00  0.9600E+02
    -15.309  0.0000E+00  0.9600E+02
    -15.207  0.0000E+00  0.9600E+02
    -15.106  0.0000E+00  0.9600E+02
    -15.005  0.0000E+00  0.9600E+02
    -14.904  0.0000E+00  0.9600E+02
    -14.803  0.0000E+00  0.9600E+02
    -14.702  0.0000E+00  0.9600E+02
    -14.601  0.0000E+00  0.9600E+02
    -14.500  0.1977E+02  0.9800E+02
    -14.399  0.9415E-01  0.9801E+02
    -14.298  0.3209E+02  0.1022E+03
    -14.197  0.2637E+02  0.1059E+03
    -14.096  0.3994E+02  0.1108E+03
    -13.994  0.9984E+02  0.1216E+03
    -13.893  0.5911E+02  0.1292E+03
    -13.792  0.5944E+02  0.1373E+03
    -13.691  0.2808E+02  0.1413E+03
    -13.590  0.0000E+00  0.1420E+03
    -13.489  0.0000E+00  0.1420E+03
    -13.388  0.0000E+00  0.1420E+03
    -13.287  0.0000E+00  0.1420E+03
    -13.186  0.0000E+00  0.1420E+03
    -13.085  0.0000E+00  0.1420E+03
    -12.984  0.0000E+00  0.1420E+03
    -12.883  0.0000E+00  0.1420E+03
    -12.781  0.0000E+00  0.1420E+03
    -12.680  0.0000E+00  0.1420E+03
    -12.579  0.0000E+00  0.1420E+03
    -12.478  0.0000E+00  0.1420E+03
    -12.377  0.0000E+00  0.1420E+03
    -12.276  0.0000E+00  0.1420E+03
    -12.175  0.0000E+00  0.1420E+03
    -12.074  0.0000E+00  0.1420E+03
    -11.973  0.0000E+00  0.1420E+03
    -11.872  0.0000E+00  0.1420E+03
    -11.771  0.0000E+00  0.1420E+03
    -11.669  0.0000E+00  0.1420E+03
    -11.568  0.0000E+00  0.1420E+03
    -11.467  0.0000E+00  0.1420E+03
    -11.366  0.0000E+00  0.1420E+03
    -11.265  0.0000E+00  0.1420E+03
    -11.164  0.0000E+00  0.1420E+03
    -11.063  0.0000E+00  0.1420E+03
    -10.962  0.0000E+00  0.1420E+03
    -10.861  0.0000E+00  0.1420E+03
    -10.760  0.0000E+00  0.1420E+03
    -10.659  0.0000E+00  0.1420E+03
    -10.558  0.0000E+00  0.1420E+03
    -10.456  0.0000E+00  0.1420E+03
    -10.355  0.0000E+00  0.1420E+03
    -10.254  0.0000E+00  0.1420E+03
    -10.153  0.0000E+00  0.1420E+03
    -10.052  0.0000E+00  0.1420E+03
     -9.951  0.0000E+00  0.1420E+03
     -9.850  0.0000E+00  0.1420E+03
     -9.749  0.0000E+00  0.1420E+03
     -9.648  0.0000E+00  0.1420E+03
     -9.547  0.0000E+00  0.1420E+03
     -9.446  0.0000E+00  0.1420E+03
     -9.345  0.0000E+00  0.1420E+03
     -9.243  0.0000E+00  0.1420E+03
     -9.142  0.0000E+00  0.1420E+03
     -9.041  0.0000E+00  0.1420E+03
     -8.940  0.0000E+00  0.1420E+03
     -8.839  0.0000E+00  0.1420E+03
     -8.738  0.0000E+00  0.1420E+03
     -8.637  0.0000E+00  0.1420E+03
     -8.536  0.0000E+00  0.1420E+03
     -8.435  0.0000E+00  0.1420E+03
     -8.334  0.0000E+00  0.1420E+03
     -8.233  0.1131E-04  0.1420E+03
     -8.132  0.2473E+01  0.1422E+03
     -8.030  0.4236E+01  0.1427E+03
     -7.929  0.1170E+02  0.1439E+03
     -7.828  0.7253E+01  0.1447E+03
     -7.727  0.1906E+02  0.1467E+03
     -7.626  0.1581E+02  0.1486E+03
     -7.525  0.3723E+01  0.1491E+03
     -7.424  0.2740E+02  0.1525E+03
     -7.323  0.2291E+02  0.1553E+03
     -7.222  0.8215E+02  0.1643E+03
     -7.121  0.2056E+03  0.1900E+03
     -7.020  0.7360E+02  0.2042E+03
     -6.919  0.4344E+01  0.2049E+03
     -6.817  0.5046E+01  0.2055E+03
     -6.716  0.0000E+00  0.2058E+03
     -6.615  0.4622E-05  0.2058E+03
     -6.514  0.2473E+01  0.2060E+03
     -6.413  0.0000E+00  0.2060E+03
     -6.312  0.0000E+00  0.2060E+03
     -6.211  0.0000E+00  0.2060E+03
     -6.110  0.0000E+00  0.2060E+03
     -6.009  0.0000E+00  0.2060E+03
     -5.908  0.0000E+00  0.2060E+03
     -5.807  0.0000E+00  0.2060E+03
     -5.706  0.0000E+00  0.2060E+03
     -5.604  0.0000E+00  0.2060E+03
     -5.503  0.0000E+00  0.2060E+03
     -5.402  0.0000E+00  0.2060E+03
     -5.301  0.0000E+00  0.2060E+03
     -5.200  0.0000E+00  0.2060E+03
     -5.099  0.0000E+00  0.2060E+03
     -4.998  0.0000E+00  0.2060E+03
     -4.897  0.0000E+00  0.2060E+03
     -4.796  0.0000E+00  0.2060E+03
     -4.695  0.0000E+00  0.2060E+03
     -4.594  0.0000E+00  0.2060E+03
     -4.492  0.0000E+00  0.2060E+03
     -4.391  0.0000E+00  0.2060E+03
     -4.290  0.0000E+00  0.2060E+03
     -4.189  0.0000E+00  0.2060E+03
     -4.088  0.0000E+00  0.2060E+03
     -3.987  0.0000E+00  0.2060E+03
     -3.886  0.0000E+00  0.2060E+03
     -3.785  0.0000E+00  0.2060E+03
     -3.684  0.0000E+00  0.2060E+03
     -3.583  0.0000E+00  0.2060E+03
     -3.482  0.0000E+00  0.2060E+03
     -3.381  0.2131E+01  0.2062E+03
     -3.279  0.1730E+02  0.2085E+03
     -3.178  0.4224E+02  0.2138E+03
     -3.077  0.2372E+02  0.2176E+03
     -2.976  0.8478E+01  0.2186E+03
     -2.875  0.7687E+01  0.2198E+03
     -2.774  0.8951E-05  0.2200E+03
     -2.673  0.1563E+02  0.2216E+03
     -2.572  0.3128E+02  0.2254E+03
     -2.471  0.2909E+02  0.2294E+03
     -2.370  0.3501E+02  0.2335E+03
     -2.269  0.4158E+02  0.2382E+03
     -2.168  0.1679E+02  0.2409E+03
     -2.066  0.2659E+02  0.2442E+03
     -1.965  0.4782E+02  0.2496E+03
     -1.864  0.2205E+02  0.2527E+03
     -1.763  0.3905E+02  0.2579E+03
     -1.662  0.3583E+02  0.2626E+03
     -1.561  0.6275E+02  0.2708E+03
     -1.460  0.6358E+02  0.2794E+03
     -1.359  0.1008E+03  0.2914E+03
     -1.258  0.9661E+02  0.3038E+03
     -1.157  0.7337E+02  0.3137E+03
     -1.056  0.7259E+02  0.3238E+03
     -0.955  0.3378E+02  0.3287E+03
     -0.853  0.3472E+02  0.3328E+03
     -0.752  0.1417E+02  0.3349E+03
     -0.651  0.5076E+01  0.3358E+03
     -0.550  0.1008E+02  0.3370E+03
     -0.449  0.8460E+01  0.3389E+03
     -0.348  0.9589E+01  0.3402E+03
     -0.247  0.7387E+01  0.3415E+03
     -0.146  0.4944E+01  0.3420E+03
     -0.045  0.7291E+01  0.3427E+03
      0.056  0.2226E+01  0.3432E+03
      0.157  0.4944E+01  0.3438E+03
      0.258  0.0000E+00  0.3438E+03
      0.360  0.5169E-09  0.3438E+03
      0.461  0.2473E+01  0.3440E+03
      0.562  0.0000E+00  0.3440E+03
      0.663  0.0000E+00  0.3440E+03
      0.764  0.0000E+00  0.3440E+03
      0.865  0.0000E+00  0.3440E+03
      0.966  0.0000E+00  0.3440E+03
      1.067  0.0000E+00  0.3440E+03
      1.168  0.0000E+00  0.3440E+03
      1.269  0.0000E+00  0.3440E+03
      1.370  0.0000E+00  0.3440E+03
      1.471  0.0000E+00  0.3440E+03
      1.573  0.0000E+00  0.3440E+03
      1.674  0.0000E+00  0.3440E+03
      1.775  0.0000E+00  0.3440E+03
      1.876  0.0000E+00  0.3440E+03
      1.977  0.0000E+00  0.3440E+03
      2.078  0.0000E+00  0.3440E+03
      2.179  0.0000E+00  0.3440E+03
      2.280  0.0000E+00  0.3440E+03
      2.381  0.0000E+00  0.3440E+03
      2.482  0.8673E-11  0.3440E+03
      2.583  0.4564E+01  0.3445E+03
      2.685  0.9678E+01  0.3455E+03
      2.786  0.7420E+01  0.3462E+03
      2.887  0.4946E+01  0.3468E+03
      2.988  0.1610E+02  0.3484E+03
      3.089  0.1477E+02  0.3502E+03
      3.190  0.1462E+02  0.3522E+03
      3.291  0.1137E+02  0.3539E+03
      3.392  0.1909E+02  0.3564E+03
      3.493  0.9893E+01  0.3575E+03
      3.594  0.4946E+01  0.3580E+03
      3.695  0.0000E+00  0.3580E+03
      3.796  0.0000E+00  0.3580E+03
      3.898  0.0000E+00  0.3580E+03
      3.999  0.3604E-02  0.3580E+03
      4.100  0.7415E+01  0.3590E+03
      4.201  0.9856E+01  0.3600E+03
      4.302  0.1277E+02  0.3613E+03
      4.403  0.2391E+02  0.3647E+03
      4.504  0.2634E+02  0.3677E+03
      4.605  0.3196E+02  0.3712E+03
      4.706  0.2439E+02  0.3745E+03
      4.807  0.1856E+02  0.3766E+03
      4.908  0.2459E+02  0.3800E+03
      5.009  0.0000E+00  0.3802E+03
      5.111  0.0000E+00  0.3802E+03
      5.212  0.3622E+01  0.3806E+03
      5.313  0.7879E+01  0.3815E+03
      5.414  0.2488E+01  0.3820E+03
      5.515  0.1107E+02  0.3834E+03
      5.616  0.4902E+01  0.3840E+03
      5.717  0.1749E+02  0.3858E+03
      5.818  0.1541E+02  0.3876E+03
      5.919  0.1512E+02  0.3895E+03
      6.020  0.2552E+02  0.3928E+03
      6.121  0.3278E+02  0.3966E+03
      6.222  0.3040E+02  0.4001E+03
      6.324  0.2885E+02  0.4037E+03
      6.425  0.2608E+02  0.4074E+03
      6.526  0.3444E+02  0.4115E+03
      6.627  0.2725E+02  0.4148E+03
      6.728  0.4946E+01  0.4160E+03
      6.829  0.0000E+00  0.4160E+03
      6.930  0.0000E+00  0.4160E+03
      7.031  0.0000E+00  0.4160E+03
      7.132  0.0000E+00  0.4160E+03
      7.233  0.0000E+00  0.4160E+03
      7.334  0.0000E+00  0.4160E+03
      7.435  0.0000E+00  0.4160E+03
      7.537  0.0000E+00  0.4160E+03
      7.638  0.0000E+00  0.4160E+03
      7.739  0.0000E+00  0.4160E+03
      7.840  0.0000E+00  0.4160E+03
      7.941  0.0000E+00  0.4160E+03
      8.042  0.0000E+00  0.4160E+03
      8.04197487    -22.28335197  301      0.48591427      1.00000000
    -22.283  0.0000E+00  0.0000E+00  0.0000E+00
    -22.182  0.0000E+00  0.0000E+00  0.0000E+00
    -22.081  0.0000E+00  0.0000E+00  0.0000E+00
    -21.980  0.0000E+00  0.0000E+00  0.0000E+00
    -21.879  0.0000E+00  0.0000E+00  0.0000E+00
    -21.778  0.0000E+00  0.0000E+00  0.0000E+00
    -21.677  0.0000E+00  0.0000E+00  0.0000E+00
    -21.576  0.0000E+00  0.0000E+00  0.0000E+00
    -21.475  0.0000E+00  0.0000E+00  0.0000E+00
    -21.374  0.0000E+00  0.0000E+00  0.0000E+00
    -21.273  0.0000E+00  0.0000E+00  0.0000E+00
    -21.171  0.0000E+00  0.0000E+00  0.0000E+00
    -21.070  0.0000E+00  0.0000E+00  0.0000E+00
    -20.969  0.0000E+00  0.0000E+00  0.0000E+00
    -20.868  0.2840E-03  0.1745E-06  0.2104E-07
    -20.767  0.1500E-02  0.1642E-06  0.2899E-07
    -20.666  0.1756E+02  0.1080E-04  0.4658E-05
    -20.565  0.0000E+00  0.0000E+00  0.0000E+00
    -20.464  0.0000E+00  0.0000E+00  0.0000E+00
    -20.363  0.0000E+00  0.0000E+00  0.0000E+00
    -20.262  0.0000E+00  0.0000E+00  0.0000E+00
    -20.161  0.0000E+00  0.0000E+00  0.0000E+00
    -20.059  0.0000E+00  0.0000E+00  0.0000E+00
    -19.958  0.0000E+00  0.0000E+00  0.0000E+00
    -19.857  0.0000E+00  0.0000E+00  0.0000E+00
    -19.756  0.0000E+00  0.0000E+00  0.0000E+00
    -19.655  0.0000E+00  0.0000E+00  0.0000E+00
    -19.554  0.0000E+00  0.0000E+00  0.0000E+00
    -19.453  0.0000E+00  0.0000E+00  0.0000E+00
    -19.352  0.0000E+00  0.0000E+00  0.0000E+00
    -19.251  0.0000E+00  0.0000E+00  0.0000E+00
    -19.150  0.0000E+00  0.0000E+00  0.0000E+00
    -19.049  0.0000E+00  0.0000E+00  0.0000E+00
    -18.948  0.0000E+00  0.0000E+00  0.0000E+00
    -18.846  0.0000E+00  0.0000E+00  0.0000E+00
    -18.745  0.0000E+00  0.0000E+00  0.0000E+00
    -18.644  0.0000E+00  0.0000E+00  0.0000E+00
    -18.543  0.0000E+00  0.0000E+00  0.0000E+00
    -18.442  0.0000E+00  0.0000E+00  0.0000E+00
    -18.341  0.0000E+00  0.0000E+00  0.0000E+00
    -18.240  0.0000E+00  0.0000E+00  0.0000E+00
    -18.139  0.0000E+00  0.0000E+00  0.0000E+00
    -18.038  0.0000E+00  0.0000E+00  0.0000E+00
    -17.937  0.0000E+00  0.0000E+00  0.0000E+00
    -17.836  0.0000E+00  0.0000E+00  0.0000E+00
    -17.735  0.0000E+00  0.0000E+00  0.0000E+00
    -17.633  0.0000E+00  0.0000E+00  0.0000E+00
    -17.532  0.0000E+00  0.0000E+00  0.0000E+00
    -17.431  0.0000E+00  0.0000E+00  0.0000E+00
    -17.330  0.0000E+00  0.0000E+00  0.0000E+00
    -17.229  0.0000E+00  0.0000E+00  0.0000E+00
    -17.128  0.0000E+00  0.0000E+00  0.0000E+00
    -17.027  0.0000E+00  0.0000E+00  0.0000E+00
    -16.926  0.0000E+00  0.0000E+00  0.0000E+00
    -16.825  0.0000E+00  0.0000E+00  0.0000E+00
    -16.724  0.9396E-09  0.3408E-08  0.7394E-09
    -16.623  0.5041E-04  0.2359E-04  0.3702E-05
    -16.522  0.3617E-05  0.1420E-05  0.1530E-06
    -16.420  0.3883E-04  0.2412E-04  0.5934E-05
    -16.319  0.4057E-04  0.5967E-04  0.9309E-05
    -16.218  0.8500E-04  0.4671E-04  0.5746E-05
    -16.117  0.0000E+00  0.0000E+00  0.0000E+00
    -16.016  0.0000E+00  0.0000E+00  0.0000E+00
    -15.915  0.0000E+00  0.0000E+00  0.0000E+00
    -15.814  0.0000E+00  0.0000E+00  0.0000E+00
    -15.713  0.0000E+00  0.0000E+00  0.0000E+00
    -15.612  0.0000E+00  0.0000E+00  0.0000E+00
    -15.511  0.0000E+00  0.0000E+00  0.0000E+00
    -15.410  0.0000E+00  0.0000E+00  0.0000E+00
    -15.309  0.0000E+00  0.0000E+00  0.0000E+00
    -15.207  0.0000E+00  0.0000E+00  0.0000E+00
    -15.106  0.0000E+00  0.0000E+00  0.0000E+00
    -15.005  0.0000E+00  0.0000E+00  0.0000E+00
    -14.904  0.0000E+00  0.0000E+00  0.0000E+00
    -14.803  0.0000E+00  0.0000E+00  0.0000E+00
    -14.702  0.0000E+00  0.0000E+00  0.0000E+00
    -14.601  0.0000E+00  0.0000E+00  0.0000E+00
    -14.500  0.7548E-03  0.4141E-03  0.1679E-04
    -14.399  0.1231E-04  0.2512E-05  0.2069E-06
    -14.298  0.1290E-02  0.2316E-02  0.1210E-03
    -14.197  0.2021E-02  0.2088E-02  0.7507E-04
    -14.096  0.8018E-03  0.2874E-02  0.1115E-03
    -13.994  0.2535E-02  0.6585E-02  0.5039E-03
    -13.893  0.9965E-03  0.2290E-02  0.2634E-03
    -13.792  0.1157E-02  0.2853E-02  0.3874E-03
    -13.691  0.3974E-03  0.9984E-03  0.1757E-03
    -13.590  0.0000E+00  0.0000E+00  0.0000E+00
    -13.489  0.0000E+00  0.0000E+00  0.0000E+00
    -13.388  0.0000E+00  0.0000E+00  0.0000E+00
    -13.287  0.0000E+00  0.0000E+00  0.0000E+00
    -13.186  0.0000E+00  0.0000E+00  0.0000E+00
    -13.085  0.0000E+00  0.0000E+00  0.0000E+00
    -12.984  0.0000E+00  0.0000E+00  0.0000E+00
    -12.883  0.0000E+00  0.0000E+00  0.0000E+00
    -12.781  0.0000E+00  0.0000E+00  0.0000E+00
    -12.680  0.0000E+00  0.0000E+00  0.0000E+00
    -12.579  0.0000E+00  0.0000E+00  0.0000E+00
    -12.478  0.0000E+00  0.0000E+00  0.0000E+00
    -12.377  0.0000E+00  0.0000E+00  0.0000E+00
    -12.276  0.0000E+00  0.0000E+00  0.0000E+00
    -12.175  0.0000E+00  0.0000E+00  0.0000E+00
    -12.074  0.0000E+00  0.0000E+00  0.0000E+00
    -11.973  0.0000E+00  0.0000E+00  0.0000E+00
    -11.872  0.0000E+00  0.0000E+00  0.0000E+00
    -11.771  0.0000E+00  0.0000E+00  0.0000E+00
    -11.669  0.0000E+00  0.0000E+00  0.0000E+00
    -11.568  0.0000E+00  0.0000E+00  0.0000E+00
    -11.467  0.0000E+00  0.0000E+00  0.0000E+00
    -11.366  0.0000E+00  0.0000E+00  0.0000E+00
    -11.265  0.0000E+00  0.0000E+00  0.0000E+00
    -11.164  0.0000E+00  0.0000E+00  0.0000E+00
    -11.063  0.0000E+00  0.0000E+00  0.0000E+00
    -10.962  0.0000E+00  0.0000E+00  0.0000E+00
    -10.861  0.0000E+00  0.0000E+00  0.0000E+00
    -10.760  0.0000E+00  0.0000E+00  0.0000E+00
    -10.659  0.0000E+00  0.0000E+00  0.0000E+00
    -10.558  0.0000E+00  0.0000E+00  0.0000E+00
    -10.456  0.0000E+00  0.0000E+00  0.0000E+00
    -10.355  0.0000E+00  0.0000E+00  0.0000E+00
    -10.254  0.0000E+00  0.0000E+00  0.0000E+00
    -10.153  0.0000E+00  0.0000E+00  0.0000E+00
    -10.052  0.0000E+00  0.0000E+00  0.0000E+00
     -9.951  0.0000E+00  0.0000E+00  0.0000E+00
     -9.850  0.0000E+00  0.0000E+00  0.0000E+00
     -9.749  0.0000E+00  0.0000E+00  0.0000E+00
     -9.648  0.0000E+00  0.0000E+00  0.0000E+00
     -9.547  0.0000E+00  0.0000E+00  0.0000E+00
     -9.446  0.0000E+00  0.0000E+00  0.0000E+00
     -9.345  0.0000E+00  0.0000E+00  0.0000E+00
     -9.243  0.0000E+00  0.0000E+00  0.0000E+00
     -9.142  0.0000E+00  0.0000E+00  0.0000E+00
     -9.041  0.0000E+00  0.0000E+00  0.0000E+00
     -8.940  0.0000E+00  0.0000E+00  0.0000E+00
     -8.839  0.0000E+00  0.0000E+00  0.0000E+00
     -8.738  0.0000E+00  0.0000E+00  0.0000E+00
     -8.637  0.0000E+00  0.0000E+00  0.0000E+00
     -8.536  0.0000E+00  0.0000E+00  0.0000E+00
     -8.435  0.0000E+00  0.0000E+00  0.0000E+00
     -8.334  0.0000E+00  0.0000E+00  0.0000E+00
     -8.233  0.7172E-12  0.4119E-09  0.4502E-10
     -8.132  0.1568E-06  0.9008E-04  0.9846E-05
     -8.030  0.3177E-06  0.6410E-03  0.1657E-04
     -7.929  0.2047E-05  0.6449E-02  0.2901E-04
     -7.828  0.2926E-05  0.4741E-02  0.1081E-04
     -7.727  0.5306E-05  0.2554E-01  0.4436E-04
     -7.626  0.5073E-05  0.2384E-01  0.4970E-04
     -7.525  0.1788E-05  0.1153E-01  0.5543E-05
     -7.424  0.4923E-04  0.9866E-01  0.8564E-04
     -7.323  0.8893E-05  0.3759E-01  0.2301E-04
     -7.222  0.5433E-04  0.4925E+00  0.5990E-04
     -7.121  0.4266E-04  0.1242E+02  0.5232E-04
     -7.020  0.2880E-04  0.2317E+02  0.3411E-04
     -6.919  0.4278E-06  0.2166E-01  0.2382E-04
     -6.817  0.2820E-04  0.3565E-01  0.5822E-05
     -6.716  0.0000E+00  0.0000E+00  0.0000E+00
     -6.615  0.1222E-10  0.1044E-07  0.2571E-11
     -6.514  0.6539E-05  0.5584E-02  0.1376E-05
     -6.413  0.0000E+00  0.0000E+00  0.0000E+00
     -6.312  0.0000E+00  0.0000E+00  0.0000E+00
     -6.211  0.0000E+00  0.0000E+00  0.0000E+00
     -6.110  0.0000E+00  0.0000E+00  0.0000E+00
     -6.009  0.0000E+00  0.0000E+00  0.0000E+00
     -5.908  0.0000E+00  0.0000E+00  0.0000E+00
     -5.807  0.0000E+00  0.0000E+00  0.0000E+00
     -5.706  0.0000E+00  0.0000E+00  0.0000E+00
     -5.604  0.0000E+00  0.0000E+00  0.0000E+00
     -5.503  0.0000E+00  0.0000E+00  0.0000E+00
     -5.402  0.0000E+00  0.0000E+00  0.0000E+00
     -5.301  0.0000E+00  0.0000E+00  0.0000E+00
     -5.200  0.0000E+00  0.0000E+00  0.0000E+00
     -5.099  0.0000E+00  0.0000E+00  0.0000E+00
     -4.998  0.0000E+00  0.0000E+00  0.0000E+00
     -4.897  0.0000E+00  0.0000E+00  0.0000E+00
     -4.796  0.0000E+00  0.0000E+00  0.0000E+00
     -4.695  0.0000E+00  0.0000E+00  0.0000E+00
     -4.594  0.0000E+00  0.0000E+00  0.0000E+00
     -4.492  0.0000E+00  0.0000E+00  0.0000E+00
     -4.391  0.0000E+00  0.0000E+00  0.0000E+00
     -4.290  0.0000E+00  0.0000E+00  0.0000E+00
     -4.189  0.0000E+00  0.0000E+00  0.0000E+00
     -4.088  0.0000E+00  0.0000E+00  0.0000E+00
     -3.987  0.0000E+00  0.0000E+00  0.0000E+00
     -3.886  0.0000E+00  0.0000E+00  0.0000E+00
     -3.785  0.0000E+00  0.0000E+00  0.0000E+00
     -3.684  0.0000E+00  0.0000E+00  0.0000E+00
     -3.583  0.0000E+00  0.0000E+00  0.0000E+00
     -3.482  0.0000E+00  0.0000E+00  0.0000E+00
     -3.381  0.6151E-07  0.1098E-02  0.8000E-04
     -3.279  0.1078E-03  0.9156E-02  0.5366E-03
     -3.178  0.3270E-03  0.2689E-01  0.2372E-02
     -3.077  0.1286E-03  0.1094E-01  0.1201E-02
     -2.976  0.2320E-05  0.2355E-02  0.2634E-03
     -2.875  0.1930E-05  0.3189E-02  0.1902E-03
     -2.774  0.6105E-13  0.1048E-07  0.4458E-09
     -2.673  0.5897E-03  0.1532E-01  0.6496E-03
     -2.572  0.1332E-02  0.2193E-01  0.1423E-02
     -2.471  0.1727E-02  0.2775E-01  0.1058E-02
     -2.370  0.2711E-02  0.1581E-01  0.2989E-02
     -2.269  0.6012E-02  0.2234E-01  0.3431E-02
     -2.168  0.2308E-02  0.8642E-02  0.1589E-02
     -2.066  0.1072E-01  0.1615E-01  0.2842E-02
     -1.965  0.1571E-01  0.4903E-01  0.4532E-02
     -1.864  0.2078E-02  0.5003E-01  0.3463E-02
     -1.763  0.2357E-02  0.9839E-01  0.6531E-02
     -1.662  0.2759E-02  0.6184E-01  0.4206E-02
     -1.561  0.2719E-02  0.1122E+00  0.1222E-01
     -1.460  0.4208E-02  0.4565E-01  0.9187E-02
     -1.359  0.4146E-02  0.5825E-01  0.2033E-01
     -1.258  0.5921E-02  0.8406E-01  0.1486E-01
     -1.157  0.1382E-02  0.5869E-01  0.1102E-01
     -1.056  0.1031E-02  0.7567E-01  0.1194E-01
     -0.955  0.6264E-03  0.2520E-01  0.7376E-02
     -0.853  0.1045E-02  0.4334E-01  0.6511E-02
     -0.752  0.3770E-03  0.7260E-02  0.8741E-03
     -0.651  0.2723E-04  0.1114E-02  0.1636E-03
     -0.550  0.2400E-03  0.2264E-02  0.6246E-03
     -0.449  0.1166E-03  0.1511E-02  0.6303E-03
     -0.348  0.3722E-04  0.1648E-02  0.4262E-03
     -0.247  0.1481E-04  0.1499E-02  0.1734E-03
     -0.146  0.2588E-05  0.8817E-03  0.3264E-03
     -0.045  0.3561E-05  0.7854E-03  0.4900E-03
      0.056  0.2317E-05  0.7594E-04  0.1167E-03
      0.157  0.2607E-05  0.2067E-03  0.2046E-03
      0.258  0.0000E+00  0.0000E+00  0.0000E+00
      0.360  0.1190E-15  0.2845E-14  0.4542E-13
      0.461  0.5695E-06  0.1361E-04  0.2173E-03
      0.562  0.0000E+00  0.0000E+00  0.0000E+00
      0.663  0.0000E+00  0.0000E+00  0.0000E+00
      0.764  0.0000E+00  0.0000E+00  0.0000E+00
      0.865  0.0000E+00  0.0000E+00  0.0000E+00
      0.966  0.0000E+00  0.0000E+00  0.0000E+00
      1.067  0.0000E+00  0.0000E+00  0.0000E+00
      1.168  0.0000E+00  0.0000E+00  0.0000E+00
      1.269  0.0000E+00  0.0000E+00  0.0000E+00
      1.370  0.0000E+00  0.0000E+00  0.0000E+00
      1.471  0.0000E+00  0.0000E+00  0.0000E+00
      1.573  0.0000E+00  0.0000E+00  0.0000E+00
      1.674  0.0000E+00  0.0000E+00  0.0000E+00
      1.775  0.0000E+00  0.0000E+00  0.0000E+00
      1.876  0.0000E+00  0.0000E+00  0.0000E+00
      1.977  0.0000E+00  0.0000E+00  0.0000E+00
      2.078  0.0000E+00  0.0000E+00  0.0000E+00
      2.179  0.0000E+00  0.0000E+00  0.0000E+00
      2.280  0.0000E+00  0.0000E+00  0.0000E+00
      2.381  0.0000E+00  0.0000E+00  0.0000E+00
      2.482  0.2548E-15  0.1069E-14  0.6845E-15
      2.583  0.1767E-03  0.5476E-03  0.2597E-03
      2.685  0.3087E-03  0.1062E-02  0.9745E-03
      2.786  0.3476E-03  0.8280E-03  0.1493E-02
      2.887  0.1631E-03  0.1360E-03  0.1788E-02
      2.988  0.3937E-03  0.1864E-02  0.4127E-02
      3.089  0.5558E-03  0.2351E-02  0.3734E-02
      3.190  0.4012E-03  0.2195E-02  0.2855E-02
      3.291  0.2549E-03  0.1544E-02  0.2784E-02
      3.392  0.6075E-03  0.2646E-02  0.3747E-02
      3.493  0.5927E-04  0.1190E-02  0.9202E-03
      3.594  0.3104E-03  0.6792E-03  0.6916E-03
      3.695  0.0000E+00  0.0000E+00  0.0000E+00
      3.796  0.0000E+00  0.0000E+00  0.0000E+00
      3.898  0.0000E+00  0.0000E+00  0.0000E+00
      3.999  0.1134E-06  0.3879E-06  0.7766E-06
      4.100  0.2630E-04  0.1123E-02  0.2781E-02
      4.201  0.3180E-04  0.6193E-03  0.4761E-02
      4.302  0.6229E-04  0.1735E-02  0.4746E-02
      4.403  0.8533E-03  0.3579E-02  0.1182E-01
      4.504  0.1300E-02  0.4399E-02  0.1738E-01
      4.605  0.8090E-03  0.8021E-02  0.1093E-01
      4.706  0.3111E-02  0.5306E-02  0.6455E-02
      4.807  0.7332E-02  0.2691E-02  0.7230E-02
      4.908  0.7332E-02  0.6386E-02  0.7791E-02
      5.009  0.0000E+00  0.0000E+00  0.0000E+00
      5.111  0.0000E+00  0.0000E+00  0.0000E+00
      5.212  0.2154E-02  0.6268E-03  0.2116E-02
      5.313  0.6642E-02  0.4750E-02  0.3747E-02
      5.414  0.5424E-02  0.9742E-03  0.2384E-02
      5.515  0.1343E-01  0.6975E-02  0.1028E-01
      5.616  0.8785E-02  0.1432E-02  0.3524E-02
      5.717  0.8670E-02  0.6099E-02  0.1764E-01
      5.818  0.1057E-01  0.8277E-02  0.2001E-01
      5.919  0.4858E-02  0.4468E-02  0.2266E-01
      6.020  0.7516E-02  0.1115E-01  0.5557E-01
      6.121  0.4883E-01  0.1336E-01  0.1314E+00
      6.222  0.4642E-01  0.1159E-01  0.1695E+00
      6.324  0.4091E-01  0.1053E-01  0.2898E+00
      6.425  0.1787E-01  0.1282E-01  0.2320E+00
      6.526  0.3915E-01  0.2200E-01  0.3354E+00
      6.627  0.1390E-01  0.2105E-01  0.1852E+00
      6.728  0.8015E-02  0.6214E-02  0.8838E-01
      6.829  0.0000E+00  0.0000E+00  0.0000E+00
      6.930  0.0000E+00  0.0000E+00  0.0000E+00
      7.031  0.0000E+00  0.0000E+00  0.0000E+00
      7.132  0.0000E+00  0.0000E+00  0.0000E+00
      7.233  0.0000E+00  0.0000E+00  0.0000E+00
      7.334  0.0000E+00  0.0000E+00  0.0000E+00
      7.435  0.0000E+00  0.0000E+00  0.0000E+00
      7.537  0.0000E+00  0.0000E+00  0.0000E+00
      7.638  0.0000E+00  0.0000E+00  0.0000E+00
      7.739  0.0000E+00  0.0000E+00  0.0000E+00
      7.840  0.0000E+00  0.0000E+00  0.0000E+00
      7.941  0.0000E+00  0.0000E+00  0.0000E+00
      8.042  0.0000E+00  0.0000E+00  0.0000E+00
      8.04197487    -22.28335197  301      0.48591427      1.00000000
    -22.283  0.0000E+00  0.0000E+00  0.0000E+00
    -22.182  0.0000E+00  0.0000E+00  0.0000E+00
    -22.081  0.0000E+00  0.0000E+00  0.0000E+00
    -21.980  0.0000E+00  0.0000E+00  0.0000E+00
    -21.879  0.0000E+00  0.0000E+00  0.0000E+00
    -21.778  0.0000E+00  0.0000E+00  0.0000E+00
    -21.677  0.0000E+00  0.0000E+00  0.0000E+00
    -21.576  0.0000E+00  0.0000E+00  0.0000E+00
    -21.475  0.0000E+00  0.0000E+00  0.0000E+00
    -21.374  0.0000E+00  0.0000E+00  0.0000E+00
    -21.273  0.0000E+00  0.0000E+00  0.0000E+00
    -21.171  0.0000E+00  0.0000E+00  0.0000E+00
    -21.070  0.0000E+00  0.0000E+00  0.0000E+00
    -20.969  0.0000E+00  0.0000E+00  0.0000E+00
    -20.868  0.7716E-03  0.3988E-07  0.1344E-07
    -20.767  0.1756E+02  0.1032E-03  0.2047E-04
    -20.666  0.1032E-04  0.1351E-07  0.9771E-09
    -20.565  0.0000E+00  0.0000E+00  0.0000E+00
    -20.464  0.0000E+00  0.0000E+00  0.0000E+00
    -20.363  0.0000E+00  0.0000E+00  0.0000E+00
    -20.262  0.0000E+00  0.0000E+00  0.0000E+00
    -20.161  0.0000E+00  0.0000E+00  0.0000E+00
    -20.059  0.0000E+00  0.0000E+00  0.0000E+00
    -19.958  0.0000E+00  0.0000E+00  0.0000E+00
    -19.857  0.0000E+00  0.0000E+00  0.0000E+00
    -19.756  0.0000E+00  0.0000E+00  0.0000E+00
    -19.655  0.0000E+00  0.0000E+00  0.0000E+00
    -19.554  0.0000E+00  0.0000E+00  0.0000E+00
    -19.453  0.0000E+00  0.0000E+00  0.0000E+00
    -19.352  0.0000E+00  0.0000E+00  0.0000E+00
    -19.251  0.0000E+00  0.0000E+00  0.0000E+00
    -19.150  0.0000E+00  0.0000E+00  0.0000E+00
    -19.049  0.0000E+00  0.0000E+00  0.0000E+00
    -18.948  0.0000E+00  0.0000E+00  0.0000E+00
    -18.846  0.0000E+00  0.0000E+00  0.0000E+00
    -18.745  0.0000E+00  0.0000E+00  0.0000E+00
    -18.644  0.0000E+00  0.0000E+00  0.0000E+00
    -18.543  0.0000E+00  0.0000E+00  0.0000E+00
    -18.442  0.0000E+00  0.0000E+00  0.0000E+00
    -18.341  0.0000E+00  0.0000E+00  0.0000E+00
    -18.240  0.0000E+00  0.0000E+00  0.0000E+00
    -18.139  0.0000E+00  0.0000E+00  0.0000E+00
    -18.038  0.0000E+00  0.0000E+00  0.0000E+00
    -17.937  0.0000E+00  0.0000E+00  0.0000E+00
    -17.836  0.0000E+00  0.0000E+00  0.0000E+00
    -17.735  0.0000E+00  0.0000E+00  0.0000E+00
    -17.633  0.0000E+00  0.0000E+00  0.0000E+00
    -17.532  0.0000E+00  0.0000E+00  0.0000E+00
    -17.431  0.0000E+00  0.0000E+00  0.0000E+00
    -17.330  0.0000E+00  0.0000E+00  0.0000E+00
    -17.229  0.0000E+00  0.0000E+00  0.0000E+00
    -17.128  0.0000E+00  0.0000E+00  0.0000E+00
    -17.027  0.0000E+00  0.0000E+00  0.0000E+00
    -16.926  0.0000E+00  0.0000E+00  0.0000E+00
    -16.825  0.0000E+00  0.0000E+00  0.0000E+00
    -16.724  0.2574E-07  0.3344E-08  0.5225E-09
    -16.623  0.4008E-04  0.3020E-04  0.5607E-05
    -16.522  0.1467E-04  0.8140E-05  0.1137E-05
    -16.420  0.5838E-04  0.4854E-04  0.9054E-05
    -16.319  0.4206E-04  0.3617E-04  0.4757E-05
    -16.218  0.1473E-04  0.9431E-05  0.1135E-05
    -16.117  0.0000E+00  0.0000E+00  0.0000E+00
    -16.016  0.0000E+00  0.0000E+00  0.0000E+00
    -15.915  0.0000E+00  0.0000E+00  0.0000E+00
    -15.814  0.0000E+00  0.0000E+00  0.0000E+00
    -15.713  0.0000E+00  0.0000E+00  0.0000E+00
    -15.612  0.0000E+00  0.0000E+00  0.0000E+00
    -15.511  0.0000E+00  0.0000E+00  0.0000E+00
    -15.410  0.0000E+00  0.0000E+00  0.0000E+00
    -15.309  0.0000E+00  0.0000E+00  0.0000E+00
    -15.207  0.0000E+00  0.0000E+00  0.0000E+00
    -15.106  0.0000E+00  0.0000E+00  0.0000E+00
    -15.005  0.0000E+00  0.0000E+00  0.0000E+00
    -14.904  0.0000E+00  0.0000E+00  0.0000E+00
    -14.803  0.0000E+00  0.0000E+00  0.0000E+00
    -14.702  0.0000E+00  0.0000E+00  0.0000E+00
    -14.601  0.0000E+00  0.0000E+00  0.0000E+00
    -14.500  0.5366E-03  0.3266E-03  0.1540E-04
    -14.399  0.7178E-05  0.2411E-05  0.1023E-06
    -14.298  0.1612E-02  0.1174E-02  0.3867E-04
    -14.197  0.1540E-02  0.2406E-02  0.1030E-03
    -14.096  0.1084E-02  0.5088E-02  0.2991E-03
    -13.994  0.2461E-02  0.6106E-02  0.5064E-03
    -13.893  0.1076E-02  0.3688E-02  0.4546E-03
    -13.792  0.1059E-02  0.2520E-02  0.3387E-03
    -13.691  0.4064E-03  0.9092E-03  0.9658E-04
    -13.590  0.0000E+00  0.0000E+00  0.0000E+00
    -13.489  0.0000E+00  0.0000E+00  0.0000E+00
    -13.388  0.0000E+00  0.0000E+00  0.0000E+00
    -13.287  0.0000E+00  0.0000E+00  0.0000E+00