 vasp.5.4.4.18Apr17-6-g9f103f2a35 (build Jun 22 2020 09:27:21) complex           
 executed on tx2_gcc-7.3_libsci-1 date 2021.10.11  20:33:46
 running on   64 total cores
 distrk:  each k-point on   64 cores,    1 groups
 distr:  one band on NCORES_PER_BAND=   8 cores,    8 groups


--------------------------------------------------------------------------------------------------------


 INCAR:
 POTCAR:    PAW_PBE Cs_sv 08Apr2002               
 POTCAR:    PAW_PBE Pb_d 06Sep2000                
 POTCAR:    PAW_PBE Br 06Sep2000                  
 POTCAR:    PAW_PBE Cs_sv 08Apr2002               
   SHA256 =  c1463496f0f6037ed62c6012a8013a89ee9ad6ffb38599dcd6c079e7ed31779b Cs
   COPYR  = (c) Copyright 08Apr2002 Georg Kresse                                
   COPYR  = This file is part of the software VASP. Any use, copying, and all ot
   COPYR  = If you do not have a valid VASP license, you may not use, copy or di
   VRHFIN =Cs: 5s5p6s                                                           
   LEXCH  = PE                                                                  
   EATOM  =   555.6835 eV,   40.8416 Ry                                         
                                                                                
   TITEL  = PAW_PBE Cs_sv 08Apr2002                                             
   LULTRA =        F    use ultrasoft PP ?                                      
   IUNSCR =        1    unscreen: 0-lin 1-nonlin 2-no                           
   RPACOR =    2.200    partial core radius                                     
   POMASS =  132.900; ZVAL   =    9.000    mass and valenz                      
   RCORE  =    2.500    outmost cutoff radius                                   
   RWIGS  =    2.500; RWIGS  =    1.323    wigner-seitz radius (au A)           
   ENMAX  =  220.318; ENMIN  =  165.238 eV                                      
   RCLOC  =    2.207    cutoff for local pot                                    
   LCOR   =        T    correct aug charges                                     
   LPAW   =        T    paw PP                                                  
   EAUG   =  407.933                                                            
   DEXC   =    0.000                                                            
   RMAX   =    2.554    core radius for proj-oper                               
   RAUG   =    1.300    factor for augmentation sphere                          
   RDEP   =    2.590    radius for radial grids                                 
   RDEPT  =    2.117    core radius for aug-charge                              
                                                                                
   Atomic configuration                                                         
   13 entries                                                                   
     n  l   j            E        occ.                                          
     1  0  0.50    -35790.1377   2.0000                                         
     2  0  0.50     -5613.6201   2.0000                                         
     2  1  1.50     -5035.0101   6.0000                                         
     3  0  0.50     -1167.0767   2.0000                                         
     3  1  1.50      -980.9754   6.0000                                         
     3  2  2.50      -708.0703  10.0000                                         
     4  0  0.50      -220.2386   2.0000                                         
     4  1  1.50      -160.7596   6.0000                                         
     4  2  2.50       -74.2354  10.0000                                         
     5  0  0.50       -26.7287   2.0000                                         
     6  0  0.50        -2.0862   1.0000                                         
     5  1  1.50       -13.5159   6.0000                                         
     5  2  2.50        -0.4136   0.0000                                         
   Description                                                                  
     l       E           TYP  RCUT    TYP  RCUT                                 
     0    -26.7287425     23  1.900                                             
     0     -2.0862306     23  1.900                                             
     1    -13.5158719     23  2.500                                             
     1     -2.7211652     23  2.500                                             
     2     -0.4136171     23  2.500                                             
  local pseudopotential read in
  partial core-charges read in
  partial kinetic energy density read in
  atomic valenz-charges read in
  non local Contribution for L=           0  read in
    real space projection operators read in
  non local Contribution for L=           0  read in
    real space projection operators read in
  non local Contribution for L=           1  read in
    real space projection operators read in
  non local Contribution for L=           1  read in
    real space projection operators read in
  non local Contribution for L=           2  read in
    real space projection operators read in
    PAW grid and wavefunctions read in

   number of l-projection  operators is LMAX  =           5
   number of lm-projection operators is LMMAX =          13

 POTCAR:    PAW_PBE Pb_d 06Sep2000                
   SHA256 =  fb885b08f0fba73a15f6a6b0e39bd200c13ec96ef97cf3ecd8e63bade5137abd Pb
   COPYR  = (c) Copyright 06Sep2000 Georg Kresse                                
   COPYR  = This file is part of the software VASP. Any use, copying, and all ot
   COPYR  = If you do not have a valid VASP license, you may not use, copy or di
   VRHFIN =Pb:                                                                  
   LEXCH  = PE                                                                  
   EATOM  =  1661.6185 eV,  122.1255 Ry                                         
                                                                                
   TITEL  = PAW_PBE Pb_d 06Sep2000                                              
   LULTRA =        F    use ultrasoft PP ?                                      
   IUNSCR =        1    unscreen: 0-lin 1-nonlin 2-no                           
   RPACOR =    2.200    partial core radius                                     
   POMASS =  207.200; ZVAL   =   14.000    mass and valenz                      
   RCORE  =    2.500    outmost cutoff radius                                   
   RWIGS  =    3.260; RWIGS  =    1.725    wigner-seitz radius (au A)           
   ENMAX  =  237.835; ENMIN  =  178.376 eV                                      
   ICORE  =        3    local potential                                         
   LCOR   =        T    correct aug charges                                     
   LPAW   =        T    paw PP                                                  
   EAUG   =  391.914                                                            
   DEXC   =    0.000                                                            
   RMAX   =    2.565    core radius for proj-oper                               
   RAUG   =    1.300    factor for augmentation sphere                          
   RDEP   =    2.643    radius for radial grids                                 
   RDEPT  =    2.092    core radius for aug-charge                              
                                                                                
   Atomic configuration                                                         
   16 entries                                                                   
     n  l   j            E        occ.                                          
     1  0  0.50    -88091.8466   2.0000                                         
     2  0  0.50    -15753.4197   2.0000                                         
     2  1  1.50    -13508.1797   6.0000                                         
     3  0  0.50     -3781.7194   2.0000                                         
     3  1  1.50     -3138.2529   6.0000                                         
     3  2  2.50     -2483.2977  10.0000                                         
     4  0  0.50      -856.2895   2.0000                                         
     4  1  1.50      -645.4942   6.0000                                         
     4  2  2.50      -401.8768  10.0000                                         
     4  3  3.50      -132.9059  14.0000                                         
     5  0  0.50      -144.0950   2.0000                                         
     5  1  1.50       -85.7879   6.0000                                         
     5  2  2.50       -21.1769  10.0000                                         
     6  0  0.50       -12.0372   2.0000                                         
     6  1  1.50        -3.4971   2.0000                                         
     5  3  2.50        -2.7212   0.0000                                         
   Description                                                                  
     l       E           TYP  RCUT    TYP  RCUT                                 
     2    -21.1768523     23  2.500                                             
     2      1.3605826     23  2.500                                             
     0    -12.0371562     23  2.500                                             
     0     13.6058260     23  2.500                                             
     1     -3.4971339     23  2.500                                             
     1     13.6058260     23  2.500                                             
     3     -1.3605826      7  2.500                                             
  local pseudopotential read in
  partial core-charges read in
  partial kinetic energy density read in
  atomic valenz-charges read in
  non local Contribution for L=           2  read in
    real space projection operators read in
  non local Contribution for L=           2  read in
    real space projection operators read in
  non local Contribution for L=           0  read in
    real space projection operators read in
  non local Contribution for L=           0  read in
    real space projection operators read in
  non local Contribution for L=           1  read in
    real space projection operators read in
  non local Contribution for L=           1  read in
    real space projection operators read in
    PAW grid and wavefunctions read in

   number of l-projection  operators is LMAX  =           6
   number of lm-projection operators is LMMAX =          18

 POTCAR:    PAW_PBE Br 06Sep2000                  
   SHA256 =  96a73d2954943bbee26f4990d676cc6c3bf44b8dd2c75cd4b3b825d8403f0103 Br
   COPYR  = (c) Copyright 06Sep2000 Georg Kresse                                
   COPYR  = This file is part of the software VASP. Any use, copying, and all ot
   COPYR  = If you do not have a valid VASP license, you may not use, copy or di
   VRHFIN =Br: s2p5                                                             
   LEXCH  = PE                                                                  
   EATOM  =   368.4488 eV,   27.0802 Ry                                         
                                                                                
   TITEL  = PAW_PBE Br 06Sep2000                                                
   LULTRA =        F    use ultrasoft PP ?                                      
   IUNSCR =        1    unscreen: 0-lin 1-nonlin 2-no                           
   RPACOR =    1.900    partial core radius                                     
   POMASS =   79.904; ZVAL   =    7.000    mass and valenz                      
   RCORE  =    2.100    outmost cutoff radius                                   
   RWIGS  =    2.200; RWIGS  =    1.164    wigner-seitz radius (au A)           
   ENMAX  =  216.285; ENMIN  =  162.214 eV                                      
   ICORE  =        3    local potential                                         
   LCOR   =        T    correct aug charges                                     
   LPAW   =        T    paw PP                                                  
   EAUG   =  503.852                                                            
   DEXC   =    0.000                                                            
   RMAX   =    2.139    core radius for proj-oper                               
   RAUG   =    1.300    factor for augmentation sphere                          
   RDEP   =    2.186    radius for radial grids                                 
   RDEPT  =    1.890    core radius for aug-charge                              
                                                                                
   Atomic configuration                                                         
   10 entries                                                                   
     n  l   j            E        occ.                                          
     1  0  0.50    -13316.2796   2.0000                                         
     2  0  0.50     -1732.8239   2.0000                                         
     2  1  1.50     -1528.2193   6.0000                                         
     3  0  0.50      -238.0460   2.0000                                         
     3  1  1.50      -173.4609   6.0000                                         
     3  2  2.50       -66.7132  10.0000                                         
     4  0  0.50       -20.1334   2.0000                                         
     4  1  0.50        -7.8591   5.0000                                         
     4  2  2.50        -8.1635   0.0000                                         
     4  3  2.50        -8.1635   0.0000                                         
   Description                                                                  
     l       E           TYP  RCUT    TYP  RCUT                                 
     0    -20.1333652     23  2.100                                             
     0    -21.4939478     23  2.100                                             
     1     -7.8591052     23  2.100                                             
     1     -3.1608434     23  2.100                                             
     2     -8.1634956     23  2.100                                             
     3     -1.3605826      7  2.100                                             
  local pseudopotential read in
  partial core-charges read in
  partial kinetic energy density read in
  atomic valenz-charges read in
  non local Contribution for L=           0  read in
    real space projection operators read in
  non local Contribution for L=           0  read in
    real space projection operators read in
  non local Contribution for L=           1  read in
    real space projection operators read in
  non local Contribution for L=           1  read in
    real space projection operators read in
  non local Contribution for L=           2  read in
    real space projection operators read in
    PAW grid and wavefunctions read in

   number of l-projection  operators is LMAX  =           5
   number of lm-projection operators is LMMAX =          13

 Optimization of the real space projectors (new method)

 maximal supplied QI-value         = 15.12
 optimisation between [QCUT,QGAM] = [  8.77, 17.69] = [ 21.53, 87.61] Ry 
 Optimized for a Real-space Cutoff    1.85 Angstroem

   l    n(q)    QCUT    max X(q) W(low)/X(q) W(high)/X(q)  e(spline) 
   0     10     8.768    25.322    0.81E-04    0.51E-04    0.48E-06
   0     10     8.768    99.187    0.78E-04    0.50E-04    0.47E-06
   1      9     8.768    11.761    0.21E-03    0.20E-03    0.37E-06
   1      9     8.768     8.275    0.24E-03    0.22E-03    0.41E-06
   2      9     8.768     3.829    0.23E-04    0.15E-03    0.18E-06
 Optimization of the real space projectors (new method)

 maximal supplied QI-value         = 15.12
 optimisation between [QCUT,QGAM] = [  8.77, 17.69] = [ 21.53, 87.61] Ry 
 Optimized for a Real-space Cutoff    1.59 Angstroem

   l    n(q)    QCUT    max X(q) W(low)/X(q) W(high)/X(q)  e(spline) 
   2      7     8.768     3.846    0.48E-04    0.11E-03    0.11E-06
   2      7     8.768     8.593    0.20E-03    0.22E-04    0.24E-06
   0      8     8.768    20.082    0.68E-04    0.88E-04    0.41E-07
   0      8     8.768     8.597    0.89E-04    0.13E-03    0.59E-07
   1      8     8.768    33.223    0.15E-03    0.53E-04    0.87E-07
   1      8     8.768    15.899    0.14E-03    0.44E-04    0.78E-07
 Optimization of the real space projectors (new method)

 maximal supplied QI-value         = 17.95
 optimisation between [QCUT,QGAM] = [  8.80, 17.59] = [ 21.67, 86.68] Ry 
 Optimized for a Real-space Cutoff    1.59 Angstroem

   l    n(q)    QCUT    max X(q) W(low)/X(q) W(high)/X(q)  e(spline) 
   0      8     8.797   175.082    0.82E-04    0.14E-03    0.89E-07
   0      8     8.797   174.004    0.79E-04    0.14E-03    0.86E-07
   1      8     8.797    54.315    0.16E-03    0.14E-04    0.30E-06
   1      8     8.797    42.441    0.16E-03    0.14E-04    0.30E-06
   2      7     8.797     3.596    0.92E-04    0.15E-03    0.85E-07
  PAW_PBE Cs_sv 08Apr2002               :
 energy of atom  1       EATOM= -555.6835
 kinetic energy error for atom=    0.0069 (will be added to EATOM!!)
  PAW_PBE Pb_d 06Sep2000                :
 energy of atom  2       EATOM=-1661.6185
 kinetic energy error for atom=    0.0498 (will be added to EATOM!!)
  PAW_PBE Br 06Sep2000                  :
 energy of atom  3       EATOM= -368.4488
 kinetic energy error for atom=    0.0072 (will be added to EATOM!!)


 POSCAR: Cs8 Pb8 Br23                            
  positions in direct lattice
  No initial velocities read in

 METAGGA = SCAN     LMAXTAU =  6    LMIXTAU =  F

 exchange correlation table for  LEXCH =        8
   RHO(1)=    0.500       N(1)  =     2000
   RHO(2)=  100.500       N(2)  =     4000

 VTST: version 3.2, (02/03/18)

 CHAIN: initializing optimizer
 
 OPT: Using VASP Conjugate-Gradient optimizer
 CHAIN: Read ICHAIN            0

 POSCAR: Cs8 Pb8 Br23                            
  positions in direct lattice
  No initial velocities read in



--------------------------------------------------------------------------------------------------------


 ion  position               nearest neighbor table
   1  0.269  0.250  0.201-
   2  0.773  0.240  0.728-
   3  0.717  0.761  0.251-
   4  0.202  0.755  0.782-
   5  0.284  0.245  0.730-
   6  0.796  0.247  0.226-
   7  0.736  0.750  0.805-
   8  0.222  0.752  0.277-
   9  0.001  0.001  0.000-  19 2.96  21 2.97  29 2.97  31 3.00  28 3.00  34 3.01
  10  0.503  0.001  0.498-  20 2.91  27 2.98  33 2.98  30 2.99  32 2.99
  11  0.499  0.000  1.000-  31 2.97  22 2.98  17 2.99  29 2.99  27 3.01  33 3.02
  12  0.003  0.001  0.500-  18 2.99  28 3.00  32 3.00  34 3.01  23 3.01  30 3.04
  13  0.499  0.498  0.000-  22 2.97  17 2.99  24 2.99  35 3.00  37 3.02  25 3.05
  14  0.001  0.506  0.501-  36 2.92  18 2.96  26 2.98  23 2.98  38 3.00
  15  0.000  0.499  0.000-  19 2.95  21 2.97  24 3.00  35 3.00  38 3.01  26 3.02
  16  0.487  0.494  0.503-  39 2.48  20 2.96  25 2.97  36 2.97  37 2.97
  17  0.473  0.749  0.964-  13 2.99  11 2.99
  18  0.969  0.753  0.455-  14 2.96  12 2.99
  19  0.975  0.251  0.973-  15 2.95   9 2.96
  20  0.466  0.245  0.468-  10 2.91  16 2.96
  21  0.017  0.750  0.032-   9 2.97  15 2.97
  22  0.530  0.249  0.039-  13 2.97  11 2.98
  23  0.019  0.255  0.537-  14 2.98  12 3.01
  24  0.247  0.470  0.948-  13 2.99  15 3.00
  25  0.453  0.536  0.252-  16 2.97  13 3.05
  26  0.948  0.533  0.746-  14 2.98  15 3.02
  27  0.548  0.028  0.750-  10 2.98  11 3.01
  28  0.051  0.036  0.252-  12 3.00   9 3.00
  29  0.753  0.981  0.043-   9 2.97  11 2.99
  30  0.257  0.958  0.547-  10 2.99  12 3.04
  31  0.248  0.031  0.949-  11 2.97   9 3.00
  32  0.750  0.033  0.449-  10 2.99  12 3.00
  33  0.453  0.960  0.249-  10 2.98  11 3.02
  34  0.951  0.965  0.747-  12 3.01   9 3.01
  35  0.752  0.525  0.053-  13 3.00  15 3.00
  36  0.245  0.546  0.552-  14 2.92  16 2.97
  37  0.546  0.459  0.751-  16 2.97  13 3.02
  38  0.050  0.465  0.254-  14 3.00  15 3.01
  39  0.656  0.622  0.498-  16 2.48


IMPORTANT INFORMATION: All symmetrisations will be switched off!
NOSYMM: (Re-)initialisation of all symmetry stuff for point group C_1.



 KPOINTS: 1x1x1                                   

Automatic generation of k-mesh.
Space group operators:
 irot       det(A)        alpha          n_x          n_y          n_z        tau_x        tau_y        tau_z
    1     1.000000     0.000001     1.000000     0.000000     0.000000     0.000000     0.000000     0.000000
 
 Subroutine IBZKPT returns following result:
 ===========================================
 
 Found      8 irreducible k-points:
 
 Following reciprocal coordinates:
            Coordinates               Weight
  0.000000  0.000000  0.000000      1.000000
  0.500000  0.000000  0.000000      1.000000
  0.000000  0.500000  0.000000      1.000000
  0.500000  0.500000  0.000000      1.000000
  0.000000  0.000000  0.500000      1.000000
  0.500000  0.000000  0.500000      1.000000
  0.000000  0.500000  0.500000      1.000000
  0.500000  0.500000  0.500000      1.000000
 
 Following cartesian coordinates:
            Coordinates               Weight
 -0.000000  0.000000  0.000000      1.000000
  0.029563  0.000000  0.031093      1.000000
 -0.000000  0.042626  0.000000      1.000000
  0.029563  0.042626  0.031093      1.000000
 -0.029563  0.000000  0.031093      1.000000
  0.000000  0.000000  0.062187      1.000000
 -0.029563  0.042626  0.031093      1.000000
  0.000000  0.042626  0.062187      1.000000
 


--------------------------------------------------------------------------------------------------------




 Dimension of arrays:
   k-points           NKPTS =      8   k-points in BZ     NKDIM =      8   number of bands    NBANDS=    208
   number of dos      NEDOS =    301   number of ions     NIONS =     39
   non local maximal  LDIM  =      6   non local SUM 2l+1 LMDIM =     18
   total plane-waves  NPLWV = 343000
   max r-space proj   IRMAX =   5734   max aug-charges    IRDMAX=  91523
   dimension x,y,z NGX =    70 NGY =   70 NGZ =   70
   dimension x,y,z NGXF=   140 NGYF=  140 NGZF=  140
   support grid    NGXF=   280 NGYF=  280 NGZF=  280
   ions per type =               8   8  23
   NGX,Y,Z   is equivalent  to a cutoff of   9.97,  9.92,  9.97 a.u.
   NGXF,Y,Z  is equivalent  to a cutoff of  19.95, 19.84, 19.95 a.u.

 SYSTEM =  CsPbBr3 cubic bulk                      
 POSCAR =  Cs8 Pb8 Br23                            

 Startparameter for this run:
   NWRITE =      2    write-flag & timer
   PREC   = accura    normal or accurate (medium, high low for compatibility)
   ISTART =      0    job   : 0-new  1-cont  2-samecut
   ICHARG =      2    charge: 1-file 2-atom 10-const
   ISPIN  =      1    spin polarized calculation?
   LNONCOLLINEAR =      F non collinear calculations
   LSORBIT =      F    spin-orbit coupling
   INIWAV =      1    electr: 0-lowe 1-rand  2-diag
   LASPH  =      T    aspherical Exc in radial PAW
   METAGGA=      F    non-selfconsistent MetaGGA calc.

 Electronic Relaxation 1
   ENCUT  =  300.0 eV  22.05 Ry    4.70 a.u.  16.48 16.57 16.48*2*pi/ulx,y,z
   ENINI  =  300.0     initial cutoff
   ENAUG  =  503.9 eV  augmentation charge cutoff
   NELM   =    200;   NELMIN=  2; NELMDL= -5     # of ELM steps 
   EDIFF  = 0.1E-05   stopping-criterion for ELM
   LREAL  =      T    real-space projection
   NLSPLINE    = F    spline interpolate recip. space projectors
   LCOMPAT=      F    compatible to vasp.4.4
   GGA_COMPAT  = T    GGA compatible to vasp.4.4-vasp.4.6
   LMAXPAW     = -100 max onsite density
   LMAXMIX     =    2 max onsite mixed and CHGCAR
   VOSKOWN=      0    Vosko Wilk Nusair interpolation
   ROPT   =   -0.00025  -0.00025  -0.00025
 Ionic relaxation
   EDIFFG = -.1E-01   stopping-criterion for IOM
   NSW    =      0    number of steps for IOM
   NBLOCK =      1;   KBLOCK =      1    inner block; outer block 
   IBRION =     -1    ionic relax: 0-MD 1-quasi-New 2-CG
   NFREE  =      1    steps in history (QN), initial steepest desc. (CG)
   ISIF   =      2    stress and relaxation
   IWAVPR =     10    prediction:  0-non 1-charg 2-wave 3-comb
   ISYM   =      0    0-nonsym 1-usesym 2-fastsym
   LCORR  =      T    Harris-Foulkes like correction to forces

   POTIM  = 0.5000    time-step for ionic-motion
   TEIN   =    0.0    initial temperature
   TEBEG  =    0.0;   TEEND  =   0.0 temperature during run
   SMASS  =  -3.00    Nose mass-parameter (am)
   estimated Nose-frequenzy (Omega)   =  0.10E-29 period in steps =****** mass=  -0.311E-26a.u.
   SCALEE = 1.0000    scale energy and forces
   NPACO  =    256;   APACO  = 16.0  distance and # of slots for P.C.
   PSTRESS=    0.0 pullay stress

  Mass of Ions in am
   POMASS = 132.90207.20 79.90
  Ionic Valenz
   ZVAL   =   9.00 14.00  7.00
  Atomic Wigner-Seitz radii
   RWIGS  =  -1.00 -1.00 -1.00
  virtual crystal weights 
   VCA    =   1.00  1.00  1.00
   NELECT =     344.0000    total number of electrons
   NUPDOWN=       0.0000    fix difference up-down

 DOS related values:
   EMIN   =  10.00;   EMAX   =-10.00  energy-range for DOS
   EFERMI =   0.00
   ISMEAR =     0;   SIGMA  =   0.01  broadening in eV -4-tet -1-fermi 0-gaus

 Electronic relaxation 2 (details)
   IALGO  =     38    algorithm
   LDIAG  =      T    sub-space diagonalisation (order eigenvalues)
   LSUBROT=      F    optimize rotation matrix (better conditioning)
   TURBO    =      0    0=normal 1=particle mesh
   IRESTART =      0    0=no restart 2=restart with 2 vectors
   NREBOOT  =      0    no. of reboots
   NMIN     =      0    reboot dimension
   EREF     =   0.00    reference energy to select bands
   IMIX   =      4    mixing-type and parameters
     AMIX     =   0.40;   BMIX     =  1.00
     AMIX_MAG =   1.60;   BMIX_MAG =  1.00
     AMIN     =   0.10
     WC   =   100.;   INIMIX=   1;  MIXPRE=   1;  MAXMIX= -45

 Intra band minimization:
   WEIMIN = 0.0000     energy-eigenvalue tresh-hold
   EBREAK =  0.12E-08  absolut break condition
   DEPER  =   0.30     relativ break condition  

   TIME   =   0.40     timestep for ELM

  volume/ion in A,a.u.               =      40.90       276.00
  Fermi-wavevector in a.u.,A,eV,Ry     =   0.981747  1.855232 13.113654  0.963826
  Thomas-Fermi vector in A             =   2.112777

 Write flags
   LWAVE        =      F    write WAVECAR
   LDOWNSAMPLE  =      F    k-point downsampling of WAVECAR
   LCHARG       =      F    write CHGCAR
   LVTOT        =      F    write LOCPOT, total local potential
   LVHAR        =      T    write LOCPOT, Hartree potential only
   LELF         =      F    write electronic localiz. function (ELF)
   LORBIT       =     10    0 simple, 1 ext, 2 COOP (PROOUT), +10 PAW based schemes


 Dipole corrections
   LMONO  =      F    monopole corrections only (constant potential shift)
   LDIPOL =      F    correct potential (dipole corrections)
   IDIPOL =      0    1-x, 2-y, 3-z, 4-all directions 
   EPSILON=  1.0000000 bulk dielectric constant

 Exchange correlation treatment:
   GGA     =    --    GGA type
   LEXCH   =     8    internal setting for exchange type
   VOSKOWN=      0    Vosko Wilk Nusair interpolation
   LHFCALC =     F    Hartree Fock is set to
   LHFONE  =     F    Hartree Fock one center treatment
   AEXX    =    0.0000 exact exchange contribution

 Linear response parameters
   LEPSILON=     F    determine dielectric tensor
   LRPA    =     F    only Hartree local field effects (RPA)
   LNABLA  =     F    use nabla operator in PAW spheres
   LVEL    =     F    velocity operator in full k-point grid
   LINTERFAST=   F  fast interpolation
   KINTER  =     0    interpolate to denser k-point grid
   CSHIFT  =0.1000    complex shift for real part using Kramers Kronig
   OMEGAMAX=  -1.0    maximum frequency
   DEG_THRESHOLD= 0.2000000E-02 threshold for treating states as degnerate
   RTIME   =   -0.100 relaxation time in fs
  (WPLASMAI=    0.000 imaginary part of plasma frequency in eV, 0.658/RTIME)
   DFIELD  = 0.0000000 0.0000000 0.0000000 field for delta impulse in time

 Orbital magnetization related:
   ORBITALMAG=     F  switch on orbital magnetization
   LCHIMAG   =     F  perturbation theory with respect to B field
   DQ        =  0.001000  dq finite difference perturbation B field
   LLRAUG    =     F  two centre corrections for induced B field



--------------------------------------------------------------------------------------------------------


 Static calculation
 charge density and potential will be updated during run
 non-spin polarized calculation
 Variant of blocked Davidson
 Davidson routine will perform the subspace rotation
 perform sub-space diagonalisation
    after iterative eigenvector-optimisation
 modified Broyden-mixing scheme, WC =      100.0
 initial mixing is a Kerker type mixing with AMIX =  0.4000 and BMIX =      1.0000
 Hartree-type preconditioning will be used
 using additional bands           36
 real space projection scheme for non local part
 use partial core corrections
 calculate Harris-corrections to forces   (improved forces if not selfconsistent)
 use gradient corrections 
 use of overlap-Matrix (Vanderbilt PP)
 Gauss-broadening in eV      SIGMA  =   0.01


--------------------------------------------------------------------------------------------------------


  energy-cutoff  :      300.00
  volume of cell :     1595.09
      direct lattice vectors                 reciprocal lattice vectors
     8.456489000  0.000000000  8.040301000     0.059126193 -0.000000000  0.062186727
     0.000000000 11.729847000  0.000000000     0.000000000  0.085252604 -0.000000000
    -8.456489000  0.000000000  8.040301000    -0.059126193  0.000000000  0.062186727

  length of vectors
    11.668703715 11.729847000 11.668703715     0.085808482  0.085252604  0.085808482



 k-points in units of 2pi/SCALE and weight: 1x1x1                                   
  -0.00000000  0.00000000  0.00000000       0.125
   0.02956310  0.00000000  0.03109336       0.125
  -0.00000000  0.04262630  0.00000000       0.125
   0.02956310  0.04262630  0.03109336       0.125
  -0.02956310  0.00000000  0.03109336       0.125
   0.00000000  0.00000000  0.06218673       0.125
  -0.02956310  0.04262630  0.03109336       0.125
   0.00000000  0.04262630  0.06218673       0.125

 k-points in reciprocal lattice and weights: 1x1x1                                   
   0.00000000  0.00000000  0.00000000       0.125
   0.50000000  0.00000000  0.00000000       0.125
   0.00000000  0.50000000  0.00000000       0.125
   0.50000000  0.50000000  0.00000000       0.125
   0.00000000  0.00000000  0.50000000       0.125
   0.50000000  0.00000000  0.50000000       0.125
   0.00000000  0.50000000  0.50000000       0.125
   0.50000000  0.50000000  0.50000000       0.125

 position of ions in fractional coordinates (direct lattice) 
   0.26872300  0.24951200  0.20080500
   0.77302500  0.24002400  0.72796700
   0.71696000  0.76093000  0.25123600
   0.20239100  0.75472300  0.78201000
   0.28420600  0.24541800  0.73021400
   0.79638500  0.24712400  0.22598700
   0.73559800  0.75031300  0.80512500
   0.22203700  0.75202000  0.27698900
   0.00095900  0.00114900  0.00007700
   0.50256100  0.00134800  0.49842400
   0.49883600  0.00002000  0.99967000
   0.00251100  0.00133700  0.49991500
   0.49921300  0.49813900  0.00034400
   0.00114500  0.50624800  0.50055700
   0.00009400  0.49936300  0.00015600
   0.48698700  0.49431000  0.50256000
   0.47304000  0.74898500  0.96402700
   0.96899500  0.75263700  0.45475900
   0.97486800  0.25053900  0.97264200
   0.46647800  0.24478300  0.46785900
   0.01734100  0.75032600  0.03160100
   0.52963300  0.24925700  0.03895500
   0.01949800  0.25518900  0.53740400
   0.24745900  0.46966200  0.94771500
   0.45312800  0.53637500  0.25225700
   0.94753800  0.53284400  0.74616600
   0.54759300  0.02766900  0.75033900
   0.05066600  0.03554900  0.25245200
   0.75282900  0.98099100  0.04326700
   0.25713100  0.95806000  0.54728900
   0.24846900  0.03106600  0.94944800
   0.74962700  0.03326300  0.44877200
   0.45287700  0.95980900  0.24925300
   0.95149400  0.96548100  0.74719900
   0.75214600  0.52511200  0.05295300
   0.24497900  0.54574500  0.55196900
   0.54634900  0.45922700  0.75089800
   0.05010700  0.46530100  0.25380500
   0.65631900  0.62183300  0.49809600

 position of ions in cartesian coordinates  (Angst):
   0.57434782  2.92673758  3.77514645
   0.38103248  2.81544480 12.06842748
   3.93838988  8.92559248  7.78458727
  -4.90154170  8.85278532  7.91488034
  -3.77166175  2.87871559  8.15624214
   4.82356441  2.89872671  8.22017861
  -0.58795431  8.80105669 12.38787668
  -0.46470098  8.82107954  4.01231925
   0.00745862  0.01347759  0.00832975
   0.03498449  0.01581183  8.04822070
  -4.23529721  0.00023460 12.04843929
  -4.20629145  0.01568281  4.03965627
   4.21868021  5.84309425  4.01658865
  -4.22327208  5.93821158  4.03383509
  -0.00052430  5.85745159  0.00201008
  -0.13169290  5.79818067  7.95625573
  -4.15202616  8.78547946 11.55445124
   4.34863108  8.82831686 11.44741071
   0.01882414  2.93878414 15.65856660
  -0.01167841  2.87126714  7.51235072
  -0.12058953  8.80120918  0.39350841
   4.14941311  2.92374647  4.57161866
  -4.37966639  2.99332793  4.47765971
  -5.92170716  5.50906340  9.60955871
   1.69866340  6.29159668  5.67150772
   1.70290010  6.25017859 13.61788996
  -1.71451932  0.32455314 10.43576396
  -1.70640109  0.41698433  2.43715996
   6.00040325 11.50687434  6.40085146
  -2.45371794 11.23789722  6.46777893
  -5.92782120  0.36439943  9.63161325
   2.54417700  0.39016990  9.63548868
   1.72194412 11.25841272  5.64533654
   1.72761842 11.32494441 13.65800303
   5.91271791  6.15948342  6.47323829
  -2.59605756  6.40150535  6.40770180
  -1.72976637  5.38666245 10.43025635
  -1.72256990  5.45790954  2.44354396
   1.33801106  7.29400595  9.28184408



--------------------------------------------------------------------------------------------------------


 k-point  1 :   0.0000 0.0000 0.0000  plane waves:   18809
 k-point  2 :   0.5000 0.0000 0.0000  plane waves:   18808
 k-point  3 :   0.0000 0.5000 0.0000  plane waves:   18794
 k-point  4 :   0.5000 0.5000 0.0000  plane waves:   18804
 k-point  5 :   0.0000 0.0000 0.5000  plane waves:   18808
 k-point  6 :   0.5000 0.0000 0.5000  plane waves:   18790
 k-point  7 :   0.0000 0.5000 0.5000  plane waves:   18804
 k-point  8 :   0.5000 0.5000 0.5000  plane waves:   18800

 maximum and minimum number of plane-waves per node :      2389     2304

 maximum number of plane-waves:     18809
 maximum index in each direction: 
   IXMAX=   16   IYMAX=   16   IZMAX=   16
   IXMIN=  -16   IYMIN=  -17   IZMIN=  -16


 real space projection operators:
  total allocation   :      16728.83 KBytes
  max/ min on nodes  :       2190.02       1821.66


 parallel 3D FFT for wavefunctions:
    minimum data exchange during FFTs selected (reduces bandwidth)
 parallel 3D FFT for charge:
    minimum data exchange during FFTs selected (reduces bandwidth)


 total amount of memory used by VASP MPI-rank0    60644. kBytes
=======================================================================

   base      :      30000. kBytes
   nonlr-proj:       6479. kBytes
   fftplans  :       8423. kBytes
   grid      :       7465. kBytes
   one-center:         77. kBytes
   wavefun   :       8200. kBytes

     INWAV:  cpu time    0.0000: real time    0.0000
 Broyden mixing: mesh for mixing (old mesh)
   NGX = 33   NGY = 33   NGZ = 33
  (NGX  =140   NGY  =140   NGZ  =140)
  gives a total of  35937 points

 initial charge density was supplied:
 charge density of overlapping atoms calculated
 number of electron     345.0000000 magnetization 
 keeping initial charge density in first step


--------------------------------------------------------------------------------------------------------


 Maximum index for non-local projection operator          731
 Maximum index for augmentation-charges         2989 (set IRDMAX)


--------------------------------------------------------------------------------------------------------


 First call to EWALD:  gamma=   0.152
 Maximum number of real-space cells 3x 3x 3
 Maximum number of reciprocal cells 3x 3x 3

    FEWALD:  cpu time    0.0038: real time    0.0038


--------------------------------------- Iteration      1(   1)  ---------------------------------------


    POTLOK:  cpu time    0.2645: real time    0.2734
    SETDIJ:  cpu time    1.2028: real time    1.2028
     EDDAV:  cpu time   16.6157: real time   16.6209
       DOS:  cpu time    0.0008: real time    0.0008
    --------------------------------------------
      LOOP:  cpu time   18.0838: real time   18.0979

 eigenvalue-minimisations  :  3464
 total energy-change (2. order) : 0.1335562E+04  (-0.1105508E+05)
 number of electron     345.0000000 magnetization 
 augmentation part      345.0000000 magnetization 

 Free energy of the ion-electron system (eV)
  ---------------------------------------------------
  alpha Z        PSCENC =       872.70583573
  Ewald energy   TEWEN  =    -17909.38429778
  -Hartree energ DENC   =     -7445.38072667
  -exchange      EXHF   =         0.00000000
  -V(xc)+E(xc)   XCENC  =       908.36060951
  PAW double counting   =     21345.28103884   -22405.85761495
  entropy T*S    EENTRO =        -0.00173289
  eigenvalues    EBANDS =      -242.27972224
  atomic energy  EATOM  =     26212.11861568
  Solvation  Ediel_sol  =         0.00000000
  ---------------------------------------------------
  free energy    TOTEN  =      1335.56200523 eV

  energy without entropy =     1335.56373812  energy(sigma->0) =     1335.56287168


--------------------------------------------------------------------------------------------------------




--------------------------------------- Iteration      1(   2)  ---------------------------------------


     EDDAV:  cpu time   18.5772: real time   18.6275
       DOS:  cpu time    0.0004: real time    0.0004
    --------------------------------------------
      LOOP:  cpu time   18.5776: real time   18.6279

 eigenvalue-minimisations  :  4120
 total energy-change (2. order) :-0.2450496E+04  (-0.2366493E+04)
 number of electron     345.0000000 magnetization 
 augmentation part      345.0000000 magnetization 

 Free energy of the ion-electron system (eV)
  ---------------------------------------------------
  alpha Z        PSCENC =       872.70583573
  Ewald energy   TEWEN  =    -17909.38429778
  -Hartree energ DENC   =     -7445.38072667
  -exchange      EXHF   =         0.00000000
  -V(xc)+E(xc)   XCENC  =       908.36060951
  PAW double counting   =     21345.28103884   -22405.85761495
  entropy T*S    EENTRO =        -0.00000000
  eigenvalues    EBANDS =     -2692.77781419
  atomic energy  EATOM  =     26212.11861568
  Solvation  Ediel_sol  =         0.00000000
  ---------------------------------------------------
  free energy    TOTEN  =     -1114.93435383 eV

  energy without entropy =    -1114.93435383  energy(sigma->0) =    -1114.93435383


--------------------------------------------------------------------------------------------------------




--------------------------------------- Iteration      1(   3)  ---------------------------------------


     EDDAV:  cpu time   19.4278: real time   19.4817
       DOS:  cpu time    0.0008: real time    0.0008
    --------------------------------------------
      LOOP:  cpu time   19.4286: real time   19.4825

 eigenvalue-minimisations  :  4424
 total energy-change (2. order) :-0.3596271E+03  (-0.3577336E+03)
 number of electron     345.0000000 magnetization 
 augmentation part      345.0000000 magnetization 

 Free energy of the ion-electron system (eV)
  ---------------------------------------------------
  alpha Z        PSCENC =       872.70583573
  Ewald energy   TEWEN  =    -17909.38429778
  -Hartree energ DENC   =     -7445.38072667
  -exchange      EXHF   =         0.00000000
  -V(xc)+E(xc)   XCENC  =       908.36060951
  PAW double counting   =     21345.28103884   -22405.85761495
  entropy T*S    EENTRO =        -0.00000000
  eigenvalues    EBANDS =     -3052.40488204
  atomic energy  EATOM  =     26212.11861568
  Solvation  Ediel_sol  =         0.00000000
  ---------------------------------------------------
  free energy    TOTEN  =     -1474.56142167 eV

  energy without entropy =    -1474.56142167  energy(sigma->0) =    -1474.56142167


--------------------------------------------------------------------------------------------------------




--------------------------------------- Iteration      1(   4)  ---------------------------------------


     EDDAV:  cpu time   18.0357: real time   18.0977
       DOS:  cpu time    0.0004: real time    0.0004
    --------------------------------------------
      LOOP:  cpu time   18.0361: real time   18.0981

 eigenvalue-minimisations  :  3944
 total energy-change (2. order) :-0.1183927E+02  (-0.1180430E+02)
 number of electron     345.0000000 magnetization 
 augmentation part      345.0000000 magnetization 

 Free energy of the ion-electron system (eV)
  ---------------------------------------------------
  alpha Z        PSCENC =       872.70583573
  Ewald energy   TEWEN  =    -17909.38429778
  -Hartree energ DENC   =     -7445.38072667
  -exchange      EXHF   =         0.00000000
  -V(xc)+E(xc)   XCENC  =       908.36060951
  PAW double counting   =     21345.28103884   -22405.85761495
  entropy T*S    EENTRO =        -0.00000000
  eigenvalues    EBANDS =     -3064.24415110
  atomic energy  EATOM  =     26212.11861568
  Solvation  Ediel_sol  =         0.00000000
  ---------------------------------------------------
  free energy    TOTEN  =     -1486.40069074 eV

  energy without entropy =    -1486.40069074  energy(sigma->0) =    -1486.40069074


--------------------------------------------------------------------------------------------------------




--------------------------------------- Iteration      1(   5)  ---------------------------------------


     EDDAV:  cpu time   19.5204: real time   19.5325
       DOS:  cpu time    0.0006: real time    0.0006
    CHARGE:  cpu time    2.7213: real time    2.7214
    MIXING:  cpu time    0.0014: real time    0.0014
    --------------------------------------------
      LOOP:  cpu time   22.2437: real time   22.2559

 eigenvalue-minimisations  :  4440
 total energy-change (2. order) :-0.5208165E+00  (-0.5205761E+00)
 number of electron     343.9999999 magnetization 
 augmentation part       -5.0659706 magnetization 

 Broyden mixing:
  rms(total) = 0.10489E+01    rms(broyden)= 0.10483E+01
  rms(prec ) = 0.14228E+01
  weight for this iteration     100.00

 Free energy of the ion-electron system (eV)
  ---------------------------------------------------
  alpha Z        PSCENC =       872.70583573
  Ewald energy   TEWEN  =    -17909.38429778
  -Hartree energ DENC   =     -7445.38072667
  -exchange      EXHF   =         0.00000000
  -V(xc)+E(xc)   XCENC  =       908.36060951
  PAW double counting   =     21345.28103884   -22405.85761495
  entropy T*S    EENTRO =        -0.00000000
  eigenvalues    EBANDS =     -3064.76496763
  atomic energy  EATOM  =     26212.11861568
  Solvation  Ediel_sol  =         0.00000000
  ---------------------------------------------------
  free energy    TOTEN  =     -1486.92150727 eV

  energy without entropy =    -1486.92150727  energy(sigma->0) =    -1486.92150727


--------------------------------------------------------------------------------------------------------




--------------------------------------- Iteration      1(   6)  ---------------------------------------


    POTLOK:  cpu time    0.2713: real time    0.3081
    SETDIJ:  cpu time    1.2034: real time    1.2035
     EDDAV:  cpu time   19.1198: real time   19.1209
       DOS:  cpu time    0.0005: real time    0.0004
    CHARGE:  cpu time    2.7050: real time    2.7051
    MIXING:  cpu time    0.0016: real time    0.0016
    --------------------------------------------
      LOOP:  cpu time   23.3016: real time   23.3397

 eigenvalue-minimisations  :  4312
 total energy-change (2. order) : 0.7764216E+02  (-0.2347805E+01)
 number of electron     344.0000000 magnetization 
 augmentation part       -3.6667642 magnetization 

 Broyden mixing:
  rms(total) = 0.74354E+00    rms(broyden)= 0.74346E+00
  rms(prec ) = 0.91853E+00
  weight for this iteration     100.00

 eigenvalues of (default mixing * dielectric matrix)
  average eigenvalue GAMMA=   1.2451
  1.2451

 Free energy of the ion-electron system (eV)
  ---------------------------------------------------
  alpha Z        PSCENC =       872.70583573
  Ewald energy   TEWEN  =    -17909.38429778
  -Hartree energ DENC   =     -7426.82422233
  -exchange      EXHF   =         0.00000000
  -V(xc)+E(xc)   XCENC  =       936.39105227
  PAW double counting   =     21654.79567909   -22713.86674094
  entropy T*S    EENTRO =        -0.00000000
  eigenvalues    EBANDS =     -3035.21526750
  atomic energy  EATOM  =     26212.11861568
  Solvation  Ediel_sol  =         0.00000000
  ---------------------------------------------------
  free energy    TOTEN  =     -1409.27934577 eV

  energy without entropy =    -1409.27934577  energy(sigma->0) =    -1409.27934577


--------------------------------------------------------------------------------------------------------




--------------------------------------- Iteration      1(   7)  ---------------------------------------


    POTLOK:  cpu time    0.2811: real time    0.2836
    SETDIJ:  cpu time    1.2013: real time    1.2014
     EDDAV:  cpu time   18.5069: real time   18.5076
       DOS:  cpu time    0.0005: real time    0.0005
    CHARGE:  cpu time    2.7025: real time    2.7026
    MIXING:  cpu time    0.0016: real time    0.0016
    --------------------------------------------
      LOOP:  cpu time   22.6940: real time   22.6973

 eigenvalue-minimisations  :  4096
 total energy-change (2. order) : 0.5155325E+00  (-0.8557929E+00)
 number of electron     344.0000000 magnetization 
 augmentation part       -3.1115519 magnetization 

 Broyden mixing:
  rms(total) = 0.37308E+00    rms(broyden)= 0.37306E+00
  rms(prec ) = 0.41461E+00
  weight for this iteration     100.00

 eigenvalues of (default mixing * dielectric matrix)
  average eigenvalue GAMMA=   1.3159
  1.3159  1.3159

 Free energy of the ion-electron system (eV)
  ---------------------------------------------------
  alpha Z        PSCENC =       872.70583573
  Ewald energy   TEWEN  =    -17909.38429778
  -Hartree energ DENC   =     -7470.15956495
  -exchange      EXHF   =         0.00000000
  -V(xc)+E(xc)   XCENC  =       941.52628064
  PAW double counting   =     22299.90203869   -23357.28888405
  entropy T*S    EENTRO =        -0.00000000
  eigenvalues    EBANDS =     -2998.18383727
  atomic energy  EATOM  =     26212.11861568
  Solvation  Ediel_sol  =         0.00000000
  ---------------------------------------------------
  free energy    TOTEN  =     -1408.76381331 eV

  energy without entropy =    -1408.76381331  energy(sigma->0) =    -1408.76381331


--------------------------------------------------------------------------------------------------------




--------------------------------------- Iteration      1(   8)  ---------------------------------------


    POTLOK:  cpu time    0.2914: real time    0.3138
    SETDIJ:  cpu time    1.2000: real time    1.2000
     EDDAV:  cpu time   18.3770: real time   18.3778
       DOS:  cpu time    0.0004: real time    0.0004
    CHARGE:  cpu time    2.7057: real time    2.7058
    MIXING:  cpu time    0.0016: real time    0.0016
    --------------------------------------------
      LOOP:  cpu time   22.5760: real time   22.5993

 eigenvalue-minimisations  :  4056
 total energy-change (2. order) :-0.1716622E+00  (-0.4441028E-01)
 number of electron     344.0000000 magnetization 
 augmentation part       -3.1981320 magnetization 

 Broyden mixing:
  rms(total) = 0.21634E+00    rms(broyden)= 0.21633E+00
  rms(prec ) = 0.24496E+00
  weight for this iteration     100.00

 eigenvalues of (default mixing * dielectric matrix)
  average eigenvalue GAMMA=   1.6994
  1.1160  1.3161  2.6661

 Free energy of the ion-electron system (eV)
  ---------------------------------------------------
  alpha Z        PSCENC =       872.70583573
  Ewald energy   TEWEN  =    -17909.38429778
  -Hartree energ DENC   =     -7476.20799603
  -exchange      EXHF   =         0.00000000
  -V(xc)+E(xc)   XCENC  =       942.25723894
  PAW double counting   =     22543.82939248   -23601.66687833
  entropy T*S    EENTRO =        -0.00000000
  eigenvalues    EBANDS =     -2992.58738618
  atomic energy  EATOM  =     26212.11861568
  Solvation  Ediel_sol  =         0.00000000
  ---------------------------------------------------
  free energy    TOTEN  =     -1408.93547547 eV

  energy without entropy =    -1408.93547547  energy(sigma->0) =    -1408.93547547


--------------------------------------------------------------------------------------------------------




--------------------------------------- Iteration      1(   9)  ---------------------------------------


    POTLOK:  cpu time    0.2720: real time    0.3086
    SETDIJ:  cpu time    1.1988: real time    1.1989
     EDDAV:  cpu time   17.7518: real time   17.7527
       DOS:  cpu time    0.0004: real time    0.0004
    CHARGE:  cpu time    2.7013: real time    2.7014
    MIXING:  cpu time    0.0016: real time    0.0016
    --------------------------------------------
      LOOP:  cpu time   21.9259: real time   21.9635

 eigenvalue-minimisations  :  3840
 total energy-change (2. order) :-0.6386209E-01  (-0.1671996E-01)
 number of electron     344.0000000 magnetization 
 augmentation part       -3.2388735 magnetization 

 Broyden mixing:
  rms(total) = 0.45905E-01    rms(broyden)= 0.45901E-01
  rms(prec ) = 0.55836E-01
  weight for this iteration     100.00

 eigenvalues of (default mixing * dielectric matrix)
  average eigenvalue GAMMA=   1.4746
  2.5322  1.2559  1.2559  0.8543

 Free energy of the ion-electron system (eV)
  ---------------------------------------------------
  alpha Z        PSCENC =       872.70583573
  Ewald energy   TEWEN  =    -17909.38429778
  -Hartree energ DENC   =     -7483.39044091
  -exchange      EXHF   =         0.00000000
  -V(xc)+E(xc)   XCENC  =       944.10310086
  PAW double counting   =     22885.05108903   -23943.83151682
  entropy T*S    EENTRO =        -0.00000000
  eigenvalues    EBANDS =     -2986.37172335
  atomic energy  EATOM  =     26212.11861568
  Solvation  Ediel_sol  =         0.00000000
  ---------------------------------------------------
  free energy    TOTEN  =     -1408.99933756 eV

  energy without entropy =    -1408.99933756  energy(sigma->0) =    -1408.99933756


--------------------------------------------------------------------------------------------------------




--------------------------------------- Iteration      1(  10)  ---------------------------------------


    POTLOK:  cpu time    0.2890: real time    0.3067
    SETDIJ:  cpu time    1.2002: real time    1.2003
     EDDAV:  cpu time   19.8242: real time   19.8251
       DOS:  cpu time    0.0005: real time    0.0005
    CHARGE:  cpu time    2.7079: real time    2.7080
    MIXING:  cpu time    0.0016: real time    0.0016
    --------------------------------------------
      LOOP:  cpu time   24.0235: real time   24.0422

 eigenvalue-minimisations  :  4552
 total energy-change (2. order) :-0.3246939E-02  (-0.2192801E-02)
 number of electron     344.0000000 magnetization 
 augmentation part       -3.2252407 magnetization 

 Broyden mixing:
  rms(total) = 0.31890E-01    rms(broyden)= 0.31888E-01
  rms(prec ) = 0.40881E-01
  weight for this iteration     100.00

 eigenvalues of (default mixing * dielectric matrix)
  average eigenvalue GAMMA=   1.3264
  2.4114  1.3459  1.3459  0.8512  0.6772

 Free energy of the ion-electron system (eV)
  ---------------------------------------------------
  alpha Z        PSCENC =       872.70583573
  Ewald energy   TEWEN  =    -17909.38429778
  -Hartree energ DENC   =     -7481.74562571
  -exchange      EXHF   =         0.00000000
  -V(xc)+E(xc)   XCENC  =       943.96391023
  PAW double counting   =     22853.04749669   -23911.86532715
  entropy T*S    EENTRO =        -0.00000000
  eigenvalues    EBANDS =     -2987.84319221
  atomic energy  EATOM  =     26212.11861568
  Solvation  Ediel_sol  =         0.00000000
  ---------------------------------------------------
  free energy    TOTEN  =     -1409.00258450 eV

  energy without entropy =    -1409.00258450  energy(sigma->0) =    -1409.00258450


--------------------------------------------------------------------------------------------------------




--------------------------------------- Iteration      1(  11)  ---------------------------------------


    POTLOK:  cpu time    0.3036: real time    0.3077
    SETDIJ:  cpu time    1.2035: real time    1.2035
     EDDAV:  cpu time   17.7647: real time   17.7657
       DOS:  cpu time    0.0004: real time    0.0004
    CHARGE:  cpu time    2.7097: real time    2.7098
    MIXING:  cpu time    0.0020: real time    0.0020
    --------------------------------------------
      LOOP:  cpu time   21.9838: real time   21.9892

 eigenvalue-minimisations  :  3840
 total energy-change (2. order) :-0.2301100E-02  (-0.3087114E-03)
 number of electron     344.0000000 magnetization 
 augmentation part       -3.2236030 magnetization 

 Broyden mixing:
  rms(total) = 0.13908E-01    rms(broyden)= 0.13908E-01
  rms(prec ) = 0.22260E-01
  weight for this iteration     100.00

 eigenvalues of (default mixing * dielectric matrix)
  average eigenvalue GAMMA=   1.6086
  2.7712  2.7712  1.2086  1.2086  0.8460  0.8460

 Free energy of the ion-electron system (eV)
  ---------------------------------------------------
  alpha Z        PSCENC =       872.70583573
  Ewald energy   TEWEN  =    -17909.38429778
  -Hartree energ DENC   =     -7480.39263762
  -exchange      EXHF   =         0.00000000
  -V(xc)+E(xc)   XCENC  =       943.90197001
  PAW double counting   =     22834.31440888   -23893.29937372
  entropy T*S    EENTRO =        -0.00000000
  eigenvalues    EBANDS =     -2988.96940678
  atomic energy  EATOM  =     26212.11861568
  Solvation  Ediel_sol  =         0.00000000
  ---------------------------------------------------
  free energy    TOTEN  =     -1409.00488560 eV

  energy without entropy =    -1409.00488560  energy(sigma->0) =    -1409.00488560


--------------------------------------------------------------------------------------------------------




--------------------------------------- Iteration      1(  12)  ---------------------------------------


    POTLOK:  cpu time    0.3042: real time    0.3122
    SETDIJ:  cpu time    1.2021: real time    1.2022
     EDDAV:  cpu time   17.1118: real time   17.1125
       DOS:  cpu time    0.0004: real time    0.0004
    CHARGE:  cpu time    2.7052: real time    2.7053
    MIXING:  cpu time    0.0017: real time    0.0017
    --------------------------------------------
      LOOP:  cpu time   21.3255: real time   21.3342

 eigenvalue-minimisations  :  3616
 total energy-change (2. order) :-0.2646255E-02  (-0.4911289E-03)
 number of electron     344.0000000 magnetization 
 augmentation part       -3.2269963 magnetization 

 Broyden mixing:
  rms(total) = 0.10326E-01    rms(broyden)= 0.10325E-01
  rms(prec ) = 0.13161E-01
  weight for this iteration     100.00

 eigenvalues of (default mixing * dielectric matrix)
  average eigenvalue GAMMA=   1.6279
  2.8669  2.8669  1.3784  1.3784  0.9024  1.0010  1.0010

 Free energy of the ion-electron system (eV)
  ---------------------------------------------------
  alpha Z        PSCENC =       872.70583573
  Ewald energy   TEWEN  =    -17909.38429778
  -Hartree energ DENC   =     -7479.84684821
  -exchange      EXHF   =         0.00000000
  -V(xc)+E(xc)   XCENC  =       943.94827294
  PAW double counting   =     22829.03136541   -23888.26141495
  entropy T*S    EENTRO =        -0.00000000
  eigenvalues    EBANDS =     -2989.31906068
  atomic energy  EATOM  =     26212.11861568
  Solvation  Ediel_sol  =         0.00000000
  ---------------------------------------------------
  free energy    TOTEN  =     -1409.00753185 eV

  energy without entropy =    -1409.00753185  energy(sigma->0) =    -1409.00753185


--------------------------------------------------------------------------------------------------------




--------------------------------------- Iteration      1(  13)  ---------------------------------------


    POTLOK:  cpu time    0.2603: real time    0.3075
    SETDIJ:  cpu time    1.2061: real time    1.2062
     EDDAV:  cpu time   19.2689: real time   19.2698
       DOS:  cpu time    0.0005: real time    0.0005
    CHARGE:  cpu time    2.7107: real time    2.7108
    MIXING:  cpu time    0.0022: real time    0.0022
    --------------------------------------------
      LOOP:  cpu time   23.4487: real time   23.4970

 eigenvalue-minimisations  :  4352
 total energy-change (2. order) : 0.4177405E-03  (-0.1713964E-03)
 number of electron     344.0000000 magnetization 
 augmentation part       -3.2278544 magnetization 

 Broyden mixing:
  rms(total) = 0.43698E-02    rms(broyden)= 0.43690E-02
  rms(prec ) = 0.50701E-02
  weight for this iteration     100.00

 eigenvalues of (default mixing * dielectric matrix)
  average eigenvalue GAMMA=   1.5695
  3.2622  2.3916  1.7793  1.0830  1.0830  1.1470  1.0230  0.7865

 Free energy of the ion-electron system (eV)
  ---------------------------------------------------
  alpha Z        PSCENC =       872.70583573
  Ewald energy   TEWEN  =    -17909.38429778
  -Hartree energ DENC   =     -7481.06058097
  -exchange      EXHF   =         0.00000000
  -V(xc)+E(xc)   XCENC  =       944.02057943
  PAW double counting   =     22829.72653932   -23888.90602878
  entropy T*S    EENTRO =        -0.00000000
  eigenvalues    EBANDS =     -2988.22777676
  atomic energy  EATOM  =     26212.11861568
  Solvation  Ediel_sol  =         0.00000000
  ---------------------------------------------------
  free energy    TOTEN  =     -1409.00711411 eV

  energy without entropy =    -1409.00711411  energy(sigma->0) =    -1409.00711411


--------------------------------------------------------------------------------------------------------




--------------------------------------- Iteration      1(  14)  ---------------------------------------


    POTLOK:  cpu time    0.2793: real time    0.3072
    SETDIJ:  cpu time    1.2053: real time    1.2053
     EDDAV:  cpu time   17.9562: real time   17.9569
       DOS:  cpu time    0.0005: real time    0.0005
    CHARGE:  cpu time    2.7102: real time    2.7103
    MIXING:  cpu time    0.0018: real time    0.0018
    --------------------------------------------
      LOOP:  cpu time   22.1533: real time   22.1820

 eigenvalue-minimisations  :  3904
 total energy-change (2. order) : 0.2160983E-04  (-0.4428553E-04)
 number of electron     344.0000000 magnetization 
 augmentation part       -3.2274230 magnetization 

 Broyden mixing:
  rms(total) = 0.28655E-02    rms(broyden)= 0.28645E-02
  rms(prec ) = 0.35907E-02
  weight for this iteration     100.00

 eigenvalues of (default mixing * dielectric matrix)
  average eigenvalue GAMMA=   1.5893
  3.2866  2.3962  2.3962  1.1666  1.1666  0.8831  0.8831  1.0627  1.0627

 Free energy of the ion-electron system (eV)
  ---------------------------------------------------
  alpha Z        PSCENC =       872.70583573
  Ewald energy   TEWEN  =    -17909.38429778
  -Hartree energ DENC   =     -7481.22749063
  -exchange      EXHF   =         0.00000000
  -V(xc)+E(xc)   XCENC  =       944.02806907
  PAW double counting   =     22831.37336521   -23890.53654461
  entropy T*S    EENTRO =        -0.00000000
  eigenvalues    EBANDS =     -2988.08464517
  atomic energy  EATOM  =     26212.11861568
  Solvation  Ediel_sol  =         0.00000000
  ---------------------------------------------------
  free energy    TOTEN  =     -1409.00709250 eV

  energy without entropy =    -1409.00709250  energy(sigma->0) =    -1409.00709250


--------------------------------------------------------------------------------------------------------




--------------------------------------- Iteration      1(  15)  ---------------------------------------


    POTLOK:  cpu time    0.2790: real time    0.3053
    SETDIJ:  cpu time    1.2049: real time    1.2049
     EDDAV:  cpu time   17.3055: real time   17.3063
       DOS:  cpu time    0.0008: real time    0.0008
    CHARGE:  cpu time    2.7025: real time    2.7025
    MIXING:  cpu time    0.0021: real time    0.0021
    --------------------------------------------
      LOOP:  cpu time   21.4949: real time   21.5220

 eigenvalue-minimisations  :  3688
 total energy-change (2. order) : 0.1907127E-04  (-0.4243185E-05)
 number of electron     344.0000000 magnetization 
 augmentation part       -3.2273041 magnetization 

 Broyden mixing:
  rms(total) = 0.17341E-02    rms(broyden)= 0.17330E-02
  rms(prec ) = 0.22655E-02
  weight for this iteration     100.00

 eigenvalues of (default mixing * dielectric matrix)
  average eigenvalue GAMMA=   1.6518
  3.8259  2.4483  2.4483  1.3954  1.3954  1.1462  1.1462  0.8238  0.9446  0.9446

 Free energy of the ion-electron system (eV)
  ---------------------------------------------------
  alpha Z        PSCENC =       872.70583573
  Ewald energy   TEWEN  =    -17909.38429778
  -Hartree energ DENC   =     -7481.39952274
  -exchange      EXHF   =         0.00000000
  -V(xc)+E(xc)   XCENC  =       944.03441287
  PAW double counting   =     22831.66106353   -23890.81736576
  entropy T*S    EENTRO =        -0.00000000
  eigenvalues    EBANDS =     -2987.92581498
  atomic energy  EATOM  =     26212.11861568
  Solvation  Ediel_sol  =         0.00000000
  ---------------------------------------------------
  free energy    TOTEN  =     -1409.00707343 eV

  energy without entropy =    -1409.00707343  energy(sigma->0) =    -1409.00707343


--------------------------------------------------------------------------------------------------------




--------------------------------------- Iteration      1(  16)  ---------------------------------------


    POTLOK:  cpu time    0.2493: real time    0.3125
    SETDIJ:  cpu time    1.2027: real time    1.2028
     EDDAV:  cpu time   17.6601: real time   17.6607
       DOS:  cpu time    0.0004: real time    0.0004
    CHARGE:  cpu time    2.7106: real time    2.7106
    MIXING:  cpu time    0.0022: real time    0.0022
    --------------------------------------------
      LOOP:  cpu time   21.8254: real time   21.8893

 eigenvalue-minimisations  :  3800
 total energy-change (2. order) :-0.7995911E-04  (-0.4052973E-05)
 number of electron     344.0000000 magnetization 
 augmentation part       -3.2268205 magnetization 

 Broyden mixing:
  rms(total) = 0.81592E-03    rms(broyden)= 0.81360E-03
  rms(prec ) = 0.93839E-03
  weight for this iteration     100.00

 eigenvalues of (default mixing * dielectric matrix)
  average eigenvalue GAMMA=   1.6993
  4.2812  2.7708  2.5500  1.8546  1.0737  1.0737  1.1282  1.1282  0.8215  1.0053
  1.0053

 Free energy of the ion-electron system (eV)
  ---------------------------------------------------
  alpha Z        PSCENC =       872.70583573
  Ewald energy   TEWEN  =    -17909.38429778
  -Hartree energ DENC   =     -7481.32608141
  -exchange      EXHF   =         0.00000000
  -V(xc)+E(xc)   XCENC  =       944.02093512
  PAW double counting   =     22830.70531040   -23889.86214035
  entropy T*S    EENTRO =        -0.00000000
  eigenvalues    EBANDS =     -2987.98533079
  atomic energy  EATOM  =     26212.11861568
  Solvation  Ediel_sol  =         0.00000000
  ---------------------------------------------------
  free energy    TOTEN  =     -1409.00715339 eV

  energy without entropy =    -1409.00715339  energy(sigma->0) =    -1409.00715339


--------------------------------------------------------------------------------------------------------




--------------------------------------- Iteration      1(  17)  ---------------------------------------


    POTLOK:  cpu time    0.2967: real time    0.3182
    SETDIJ:  cpu time    1.2028: real time    1.2029
     EDDAV:  cpu time   17.0325: real time   17.0333
       DOS:  cpu time    0.0004: real time    0.0004
    CHARGE:  cpu time    2.7104: real time    2.7104
    MIXING:  cpu time    0.0020: real time    0.0020
    --------------------------------------------
      LOOP:  cpu time   21.2449: real time   21.2673

 eigenvalue-minimisations  :  3576
 total energy-change (2. order) : 0.9571248E-05  (-0.6319972E-06)
 number of electron     344.0000000 magnetization 
 augmentation part       -3.2267862 magnetization 

 Broyden mixing:
  rms(total) = 0.61923E-03    rms(broyden)= 0.61620E-03
  rms(prec ) = 0.68306E-03
  weight for this iteration     100.00

 eigenvalues of (default mixing * dielectric matrix)
  average eigenvalue GAMMA=   1.6547
  4.3132  2.8697  2.2025  2.2025  1.1975  1.1975  1.1597  1.1597  0.9577  0.9577
  0.8193  0.8193

 Free energy of the ion-electron system (eV)
  ---------------------------------------------------
  alpha Z        PSCENC =       872.70583573
  Ewald energy   TEWEN  =    -17909.38429778
  -Hartree energ DENC   =     -7481.33792280
  -exchange      EXHF   =         0.00000000
  -V(xc)+E(xc)   XCENC  =       944.01946742
  PAW double counting   =     22830.97453535   -23890.12720424
  entropy T*S    EENTRO =        -0.00000000
  eigenvalues    EBANDS =     -2987.97617318
  atomic energy  EATOM  =     26212.11861568
  Solvation  Ediel_sol  =         0.00000000
  ---------------------------------------------------
  free energy    TOTEN  =     -1409.00714382 eV

  energy without entropy =    -1409.00714382  energy(sigma->0) =    -1409.00714382


--------------------------------------------------------------------------------------------------------




--------------------------------------- Iteration      1(  18)  ---------------------------------------


    POTLOK:  cpu time    0.3121: real time    0.3151
    SETDIJ:  cpu time    1.2015: real time    1.2015
     EDDAV:  cpu time   15.0570: real time   15.0577
       DOS:  cpu time    0.0004: real time    0.0004
    --------------------------------------------
      LOOP:  cpu time   16.5710: real time   16.5746

 eigenvalue-minimisations  :  2880
 total energy-change (2. order) :-0.4063982E-06  (-0.2345011E-06)
 number of electron     344.0000000 magnetization 
 augmentation part       -3.2267862 magnetization 

 Free energy of the ion-electron system (eV)
  ---------------------------------------------------
  alpha Z        PSCENC =       872.70583573
  Ewald energy   TEWEN  =    -17909.38429778
  -Hartree energ DENC   =     -7481.33026476
  -exchange      EXHF   =         0.00000000
  -V(xc)+E(xc)   XCENC  =       944.01866572
  PAW double counting   =     22830.94044322   -23890.09314584
  entropy T*S    EENTRO =        -0.00000000
  eigenvalues    EBANDS =     -2987.98299620
  atomic energy  EATOM  =     26212.11861568
  Solvation  Ediel_sol  =         0.00000000
  ---------------------------------------------------
  free energy    TOTEN  =     -1409.00714423 eV

  energy without entropy =    -1409.00714423  energy(sigma->0) =    -1409.00714423


--------------------------------------------------------------------------------------------------------




 average (electrostatic) potential at core
  the test charge radii are     1.1312  1.1541  1.0178
  (the norm of the test charge is              1.0000)
       1 -55.1776       2 -55.2951       3 -55.1664       4 -55.1921       5 -55.2711
       6 -55.3804       7 -55.2530       8 -55.1963       9-101.6041      10-101.9197
      11-101.6210      12-101.6780      13-101.5678      14-101.9345      15-101.6259
      16-101.5758      17 -68.9581      18 -69.0223      19 -69.0529      20 -69.3556
      21 -69.0485      22 -68.9545      23 -69.0526      24 -68.9336      25 -68.8572
      26 -69.0158      27 -69.0447      28 -68.9731      29 -69.0192      30 -69.0180
      31 -69.0103      32 -69.0408      33 -69.0266      34 -68.9754      35 -68.9603
      36 -69.3087      37 -68.8972      38 -69.0186      39 -69.4340



 E-fermi :   0.4859     XC(G=0):  -7.9531     alpha+bet : -6.9586


 k-point     1 :       0.0000    0.0000    0.0000
  band No.  band energies     occupation 
      1     -20.9049      2.00000
      2     -20.8232      2.00000
      3     -20.7937      2.00000
      4     -20.7814      2.00000
      5     -20.7277      2.00000
      6     -20.7242      2.00000
      7     -20.7129      2.00000
      8     -20.7071      2.00000
      9     -16.7051      2.00000
     10     -16.6959      2.00000
     11     -16.6851      2.00000
     12     -16.6766      2.00000
     13     -16.6614      2.00000
     14     -16.5963      2.00000
     15     -16.5938      2.00000
     16     -16.5862      2.00000
     17     -16.5775      2.00000
     18     -16.5524      2.00000
     19     -16.5408      2.00000
     20     -16.4568      2.00000
     21     -16.4500      2.00000
     22     -16.4403      2.00000
     23     -16.4215      2.00000
     24     -16.4116      2.00000
     25     -16.4105      2.00000
     26     -16.3998      2.00000
     27     -16.3737      2.00000
     28     -16.3675      2.00000
     29     -16.3605      2.00000
     30     -16.3405      2.00000
     31     -16.3316      2.00000
     32     -16.3289      2.00000
     33     -16.3244      2.00000
     34     -16.3198      2.00000
     35     -16.3173      2.00000
     36     -16.2937      2.00000
     37     -16.2896      2.00000
     38     -16.2867      2.00000
     39     -16.2811      2.00000
     40     -16.2772      2.00000
     41     -16.2725      2.00000
     42     -16.2719      2.00000
     43     -16.2701      2.00000
     44     -16.2611      2.00000
     45     -16.2309      2.00000
     46     -16.2264      2.00000
     47     -16.2180      2.00000
     48     -16.2128      2.00000
     49     -14.5306      2.00000
     50     -14.3852      2.00000
     51     -14.3186      2.00000
     52     -14.2821      2.00000
     53     -14.1461      2.00000
     54     -14.1159      2.00000
     55     -14.1141      2.00000
     56     -14.0726      2.00000
     57     -14.0685      2.00000
     58     -14.0581      2.00000
     59     -14.0394      2.00000
     60     -14.0373      2.00000
     61     -14.0253      2.00000
     62     -14.0043      2.00000
     63     -13.9959      2.00000
     64     -13.9728      2.00000
     65     -13.9280      2.00000
     66     -13.9016      2.00000
     67     -13.8958      2.00000
     68     -13.7765      2.00000
     69     -13.7606      2.00000
     70     -13.7196      2.00000
     71     -13.6808      2.00000
     72      -8.2012      2.00000
     73      -7.7834      2.00000
     74      -7.7476      2.00000
     75      -7.7089      2.00000
     76      -7.3697      2.00000
     77      -7.3268      2.00000
     78      -7.2923      2.00000
     79      -7.2792      2.00000
     80      -7.2587      2.00000
     81      -7.2478      2.00000
     82      -7.2156      2.00000
     83      -7.2079      2.00000
     84      -7.2030      2.00000
     85      -7.1932      2.00000
     86      -7.1836      2.00000
     87      -7.1774      2.00000
     88      -7.1727      2.00000
     89      -7.1687      2.00000
     90      -7.1602      2.00000
     91      -7.1522      2.00000
     92      -7.1432      2.00000
     93      -7.1342      2.00000
     94      -7.1269      2.00000
     95      -7.1180      2.00000
     96      -7.1161      2.00000
     97      -7.1093      2.00000
     98      -7.1030      2.00000
     99      -7.0988      2.00000
    100      -7.0852      2.00000
    101      -7.0773      2.00000
    102      -7.0539      2.00000
    103      -6.5826      2.00000
    104      -3.3872      2.00000
    105      -3.3243      2.00000
    106      -3.2820      2.00000
    107      -3.2620      2.00000
    108      -3.2507      2.00000
    109      -3.2165      2.00000
    110      -3.1887      2.00000
    111      -3.1718      2.00000
    112      -3.1605      2.00000
    113      -3.0793      2.00000
    114      -3.0411      2.00000
    115      -2.8664      2.00000
    116      -2.2515      2.00000
    117      -2.1902      2.00000
    118      -2.1424      2.00000
    119      -2.1223      2.00000
    120      -2.0405      2.00000
    121      -2.0037      2.00000
    122      -1.9428      2.00000
    123      -1.8994      2.00000
    124      -1.8984      2.00000
    125      -1.8522      2.00000
    126      -1.8098      2.00000
    127      -1.7570      2.00000
    128      -1.7086      2.00000
    129      -1.6650      2.00000
    130      -1.6590      2.00000
    131      -1.6149      2.00000
    132      -1.5833      2.00000
    133      -1.5434      2.00000
    134      -1.5371      2.00000
    135      -1.5183      2.00000
    136      -1.5092      2.00000
    137      -1.4869      2.00000
    138      -1.4745      2.00000
    139      -1.4587      2.00000
    140      -1.4490      2.00000
    141      -1.4300      2.00000
    142      -1.4242      2.00000
    143      -1.4156      2.00000
    144      -1.3887      2.00000
    145      -1.3747      2.00000
    146      -1.3623      2.00000
    147      -1.3568      2.00000
    148      -1.3363      2.00000
    149      -1.3249      2.00000
    150      -1.3221      2.00000
    151      -1.3077      2.00000
    152      -1.3014      2.00000
    153      -1.2943      2.00000
    154      -1.2701      2.00000
    155      -1.2304      2.00000
    156      -1.1853      2.00000
    157      -1.1785      2.00000
    158      -1.1500      2.00000
    159      -1.1426      2.00000
    160      -1.1112      2.00000
    161      -1.0476      2.00000
    162      -1.0317      2.00000
    163      -0.9828      2.00000
    164      -0.9612      2.00000
    165      -0.8688      2.00000
    166      -0.7978      2.00000
    167      -0.7519      2.00000
    168      -0.5800      2.00000
    169      -0.2625      2.00000
    170      -0.2242      2.00000
    171      -0.0779      2.00000
    172       0.4037      2.00000
    173       2.6415      0.00000
    174       2.7431      0.00000
    175       2.8421      0.00000
    176       2.9285      0.00000
    177       3.0828      0.00000
    178       3.1015      0.00000
    179       3.1659      0.00000
    180       3.2070      0.00000
    181       3.3051      0.00000
    182       3.4553      0.00000
    183       3.5317      0.00000
    184       3.5631      0.00000
    185       4.2479      0.00000
    186       4.8095      0.00000
    187       5.4316      0.00000
    188       5.4984      0.00000
    189       5.6934      0.00000
    190       5.7749      0.00000
    191       5.8239      0.00000
    192       5.8705      0.00000
    193       5.9026      0.00000
    194       5.9592      0.00000
    195       5.9996      0.00000
    196       6.0413      0.00000
    197       6.1295      0.00000
    198       6.1521      0.00000
    199       6.2047      0.00000
    200       6.2341      0.00000
    201       6.2861      0.00000
    202       6.3877      0.00000
    203       6.3921      0.00000
    204       6.4320      0.00000
    205       6.5173      0.00000
    206       6.5722      0.00000
    207       6.6226      0.00000
    208       6.6636      0.00000

 k-point     2 :       0.5000    0.0000    0.0000
  band No.  band energies     occupation 
      1     -20.9049      2.00000
      2     -20.8232      2.00000
      3     -20.7937      2.00000
      4     -20.7814      2.00000
      5     -20.7277      2.00000
      6     -20.7242      2.00000
      7     -20.7129      2.00000
      8     -20.7071      2.00000
      9     -16.7027      2.00000
     10     -16.6978      2.00000
     11     -16.6848      2.00000
     12     -16.6766      2.00000
     13     -16.6590      2.00000
     14     -16.5963      2.00000
     15     -16.5938      2.00000
     16     -16.5862      2.00000
     17     -16.5775      2.00000
     18     -16.5524      2.00000
     19     -16.5409      2.00000
     20     -16.4567      2.00000
     21     -16.4451      2.00000
     22     -16.4415      2.00000
     23     -16.4168      2.00000
     24     -16.4082      2.00000
     25     -16.4003      2.00000
     26     -16.3949      2.00000
     27     -16.3814      2.00000
     28     -16.3736      2.00000
     29     -16.3654      2.00000
     30     -16.3405      2.00000
     31     -16.3355      2.00000
     32     -16.3316      2.00000
     33     -16.3289      2.00000
     34     -16.3215      2.00000
     35     -16.3182      2.00000
     36     -16.2938      2.00000
     37     -16.2897      2.00000
     38     -16.2867      2.00000
     39     -16.2811      2.00000
     40     -16.2772      2.00000
     41     -16.2725      2.00000
     42     -16.2718      2.00000
     43     -16.2702      2.00000
     44     -16.2612      2.00000
     45     -16.2309      2.00000
     46     -16.2264      2.00000
     47     -16.2180      2.00000
     48     -16.2128      2.00000
     49     -14.5223      2.00000
     50     -14.3785      2.00000
     51     -14.3517      2.00000
     52     -14.2553      2.00000
     53     -14.2012      2.00000
     54     -14.1394      2.00000
     55     -14.1122      2.00000
     56     -14.0810      2.00000
     57     -14.0666      2.00000
     58     -14.0546      2.00000
     59     -14.0479      2.00000
     60     -14.0356      2.00000
     61     -14.0073      2.00000
     62     -13.9982      2.00000
     63     -13.9870      2.00000
     64     -13.9197      2.00000
     65     -13.9002      2.00000
     66     -13.8602      2.00000
     67     -13.8540      2.00000
     68     -13.8233      2.00000
     69     -13.7788      2.00000
     70     -13.7639      2.00000
     71     -13.6868      2.00000
     72      -8.0395      2.00000
     73      -7.9674      2.00000
     74      -7.6441      2.00000
     75      -7.5120      2.00000
     76      -7.4819      2.00000
     77      -7.4342      2.00000
     78      -7.3377      2.00000
     79      -7.2915      2.00000
     80      -7.2742      2.00000
     81      -7.2543      2.00000
     82      -7.2170      2.00000
     83      -7.2107      2.00000
     84      -7.2049      2.00000
     85      -7.1980      2.00000
     86      -7.1948      2.00000
     87      -7.1784      2.00000
     88      -7.1726      2.00000
     89      -7.1650      2.00000
     90      -7.1586      2.00000
     91      -7.1463      2.00000
     92      -7.1413      2.00000
     93      -7.1338      2.00000
     94      -7.1294      2.00000
     95      -7.1229      2.00000
     96      -7.1174      2.00000
     97      -7.1082      2.00000
     98      -7.1054      2.00000
     99      -7.0945      2.00000
    100      -7.0900      2.00000
    101      -7.0845      2.00000
    102      -6.9234      2.00000
    103      -6.8539      2.00000
    104      -3.3649      2.00000
    105      -3.2929      2.00000
    106      -3.2530      2.00000
    107      -3.2419      2.00000
    108      -3.2214      2.00000
    109      -3.1524      2.00000
    110      -3.1364      2.00000
    111      -3.1055      2.00000
    112      -2.9382      2.00000
    113      -2.5545      2.00000
    114      -2.5173      2.00000
    115      -2.4752      2.00000
    116      -2.4338      2.00000
    117      -2.3722      2.00000
[...]


--------------------------------------------------------------------------------------------------------


 soft charge-density along one line, spin component           1
         0         1         2         3         4         5         6         7         8         9
 total charge-density along one line

 pseudopotential strength for first ion, spin component:           1
 17.926  -4.692  -0.000   0.001  -0.002   0.000  -0.001   0.002
 -4.692   1.237   0.000  -0.000   0.000  -0.000   0.000  -0.000
 -0.000   0.000   2.245  -0.000  -0.000  -2.681   0.000   0.000
  0.001  -0.000  -0.000   2.246  -0.001   0.000  -2.682   0.001
 -0.002   0.000  -0.000  -0.001   2.245   0.000   0.001  -2.681
  0.000  -0.000  -2.681   0.000   0.000   3.168  -0.000  -0.000
 -0.001   0.000   0.000  -2.682   0.001  -0.000   3.170  -0.002
  0.002  -0.000   0.000   0.001  -2.681  -0.000  -0.002   3.169
 -0.000   0.000   0.000  -0.000   0.000  -0.000   0.000  -0.000
 -0.000   0.000   0.001   0.000  -0.000  -0.002  -0.000   0.000
  0.001  -0.000   0.000  -0.001   0.000  -0.000   0.001  -0.000
 -0.001   0.000  -0.000  -0.001   0.001   0.000   0.002  -0.001
  0.000  -0.000   0.000  -0.000  -0.002  -0.000   0.000   0.002
 total augmentation occupancy for first ion, spin component:           1
  1.912  -0.138  -0.000   0.000  -0.000  -0.000   0.000  -0.001  -0.000  -0.000   0.001  -0.002  -0.000
 -0.138   0.115  -0.000   0.001  -0.003  -0.000  -0.002   0.002   0.000   0.001  -0.003   0.005   0.002
 -0.000  -0.000   2.017  -0.000  -0.000   0.004  -0.000  -0.000   0.001   0.003   0.000  -0.000   0.000
  0.000   0.001  -0.000   2.020  -0.003  -0.000   0.006  -0.002  -0.000   0.000  -0.002  -0.001  -0.000
 -0.000  -0.003  -0.000  -0.003   2.017  -0.000  -0.002   0.004   0.000  -0.000   0.000   0.002  -0.003
 -0.000  -0.000   0.004  -0.000  -0.000   0.008   0.000   0.000  -0.002  -0.002  -0.000   0.000  -0.000
  0.000  -0.002  -0.000   0.006  -0.002   0.000   0.007   0.002  -0.000  -0.000   0.002  -0.000   0.001
 -0.001   0.002  -0.000  -0.002   0.004   0.000   0.002   0.009  -0.000  -0.000  -0.001  -0.001   0.003
 -0.000   0.000   0.001  -0.000   0.000  -0.002  -0.000  -0.000   0.006   0.002  -0.000   0.000  -0.000
 -0.000   0.001   0.003   0.000  -0.000  -0.002  -0.000  -0.000   0.002   0.005  -0.000   0.000  -0.000
  0.001  -0.003   0.000  -0.002   0.000  -0.000   0.002  -0.001  -0.000  -0.000   0.005  -0.002  -0.001
 -0.002   0.005  -0.000  -0.001   0.002   0.000  -0.000  -0.001   0.000   0.000  -0.002   0.004   0.001
 -0.000   0.002   0.000  -0.000  -0.003  -0.000   0.001   0.003  -0.000  -0.000  -0.001   0.001   0.004


------------------------ aborting loop because EDIFF is reached ----------------------------------------





 total charge     

# of ion       s       p       d       tot
------------------------------------------
    1        1.786   4.717   0.018   6.520
    2        1.785   4.717   0.018   6.520
    3        1.787   4.718   0.021   6.527
    4        1.786   4.717   0.019   6.521
    5        1.785   4.716   0.016   6.517
    6        1.785   4.716   0.017   6.518
    7        1.785   4.716   0.018   6.520
    8        1.786   4.717   0.018   6.521
    9        1.554   0.423   9.835  11.813
   10        1.532   0.435   9.830  11.797
   11        1.554   0.417   9.834  11.805
   12        1.553   0.410   9.833  11.796
   13        1.554   0.413   9.833  11.800
   14        1.533   0.430   9.830  11.793
   15        1.554   0.418   9.834  11.806
   16        1.533   0.542   9.847  11.921
   17        1.614   3.284   0.006   4.904
   18        1.615   3.281   0.007   4.902
   19        1.615   3.288   0.007   4.910
   20        1.618   3.265   0.008   4.891
   21        1.614   3.287   0.007   4.908
   22        1.614   3.283   0.007   4.904
   23        1.614   3.280   0.006   4.900
   24        1.614   3.280   0.006   4.900
   25        1.614   3.279   0.006   4.899
   26        1.614   3.278   0.006   4.898
   27        1.614   3.280   0.006   4.901
   28        1.614   3.282   0.006   4.902
   29        1.614   3.287   0.007   4.908
   30        1.614   3.276   0.006   4.895
   31        1.614   3.284   0.006   4.905
   32        1.614   3.279   0.006   4.898
   33        1.614   3.279   0.006   4.899
   34        1.614   3.282   0.006   4.902
   35        1.614   3.283   0.006   4.903
   36        1.617   3.268   0.007   4.892
   37        1.614   3.280   0.006   4.900
   38        1.614   3.280   0.006   4.899
   39        1.622   3.315   0.016   4.953
--------------------------------------------------
tot         63.793 116.700  78.976 259.469

    CHARGE:  cpu time    0.3936: real time    0.3936
    FORLOC:  cpu time    0.0110: real time    0.0110
    FORNL :  cpu time    1.9187: real time    1.9189
    STRESS:  cpu time   50.0017: real time   50.0037
    FORCOR:  cpu time    0.2412: real time    0.2412
    FORHAR:  cpu time    0.0277: real time    0.0277
    MIXING:  cpu time    0.0019: real time    0.0019
    OFIELD:  cpu time    0.0001: real time    0.0001

  FORCE on cell =-STRESS in cart. coord.  units (eV):
  Direction    XX          YY          ZZ          XY          YZ          ZX
  --------------------------------------------------------------------------------------
  Alpha Z   872.70584   872.70584   872.70584
  Ewald   -5871.97087 -5983.00670 -6054.48564   160.01489    94.18611   -71.07902
  Hartree  2568.82829  2460.78668  2451.73541    91.22444    51.92755   -62.26281
  E(xc)   -1449.57161 -1449.61001 -1449.70963     0.18188     0.09296     0.01106
  Local   -3089.34248 -2867.62142 -2791.26595  -251.03117  -145.70151   135.00341
  n-local  1750.88970  1750.71751  1749.40491     3.29676     2.63939     1.21808
  augment   818.14037   816.80854   817.28168     0.20445     0.12885    -0.59828
  Kinetic  4396.86396  4396.80405  4400.68249    -0.98477    -1.67038    -0.58796
  Fock        0.00000     0.00000     0.00000     0.00000     0.00000     0.00000
  -------------------------------------------------------------------------------------
  Total      -3.45680    -2.41551    -3.65089     2.90648     1.60297     1.70449
  in kB      -3.47216    -2.42625    -3.66712     2.91940     1.61009     1.71206
  external pressure =       -3.19 kB  Pullay stress =        0.00 kB


 VOLUME and BASIS-vectors are now :
 -----------------------------------------------------------------------------
  energy-cutoff  :      300.00
  volume of cell :     1595.09
      direct lattice vectors                 reciprocal lattice vectors
     8.456489000  0.000000000  8.040301000     0.059126193 -0.000000000  0.062186727
     0.000000000 11.729847000  0.000000000     0.000000000  0.085252604 -0.000000000
    -8.456489000  0.000000000  8.040301000    -0.059126193  0.000000000  0.062186727

  length of vectors
    11.668703715 11.729847000 11.668703715     0.085808482  0.085252604  0.085808482


 FORCES acting on ions
    electron-ion (+dipol)            ewald-force                    non-local-force                 convergence-correction
 -----------------------------------------------------------------------------------------------
   0.343E+02 -.626E+01 -.378E+02   -.342E+02 0.627E+01 0.377E+02   -.111E+00 0.475E-02 0.866E-01   0.146E-03 0.602E-03 0.114E-02
   -.854E+00 -.284E+02 0.331E+02   0.766E+00 0.282E+02 -.327E+02   0.559E-01 0.213E+00 -.332E+00   0.248E-03 0.694E-03 -.158E-02
   0.153E+02 0.199E+02 -.209E+02   -.152E+02 -.198E+02 0.209E+02   0.714E-01 0.574E-01 -.106E+00   -.134E-02 -.701E-03 0.132E-03
   -.596E+02 0.779E+01 -.916E+01   0.595E+02 -.776E+01 0.923E+01   0.146E+00 -.527E-01 -.775E-01   0.125E-02 -.531E-03 -.193E-03
   0.415E+01 -.570E+01 0.204E+02   -.423E+01 0.571E+01 -.204E+02   0.971E-01 0.361E-01 -.764E-01   0.140E-02 0.657E-03 0.255E-04
   0.755E+02 -.384E+02 -.124E+02   -.750E+02 0.380E+02 0.121E+02   -.527E+00 0.434E+00 0.315E+00   -.139E-02 0.702E-03 0.236E-03
   -.306E+02 0.504E+01 0.645E+02   0.306E+02 -.513E+01 -.643E+02   0.314E-01 0.491E-01 -.268E+00   -.105E-03 -.704E-03 -.146E-02
   -.277E+02 0.695E+01 -.292E+02   0.276E+02 -.690E+01 0.290E+02   0.133E+00 -.677E-01 0.197E+00   -.186E-03 -.563E-03 0.136E-02
   -.674E+01 0.150E+01 -.511E+01   0.706E+01 -.172E+01 0.535E+01   -.330E+00 0.215E+00 -.243E+00   -.214E-03 -.257E-04 -.119E-03
   -.222E+01 0.101E+03 -.239E+02   0.245E+01 -.106E+03 0.250E+02   -.249E+00 0.545E+01 -.116E+01   0.273E-03 -.385E-02 0.106E-02
   0.178E+01 0.596E+01 0.459E+01   -.180E+01 -.610E+01 -.432E+01   0.215E-01 0.143E+00 -.257E+00   0.287E-03 -.244E-03 0.994E-04
   0.328E+01 -.133E+02 -.819E+01   -.315E+01 0.137E+02 0.883E+01   -.141E+00 -.426E+00 -.645E+00   -.348E-03 0.158E-03 -.293E-03
   -.333E+00 -.712E+01 -.698E+01   0.209E+00 0.738E+01 0.716E+01   0.124E+00 -.243E+00 -.185E+00   0.209E-03 0.193E-03 0.371E-03
   0.564E+02 0.319E+02 0.852E+02   -.592E+02 -.327E+02 -.895E+02   0.294E+01 0.928E+00 0.459E+01   -.250E-02 -.756E-03 -.404E-02
   0.268E+01 -.241E+00 0.866E+00   -.252E+01 0.546E+00 -.875E+00   -.148E+00 -.301E+00 0.171E-01   -.361E-03 0.269E-04 -.126E-03
   -.163E+01 0.237E+01 0.619E+01   -.399E+01 -.798E+01 -.114E+02   0.429E+01 0.416E+01 0.391E+01   0.307E-03 -.134E-04 0.234E-03
   -.798E+00 0.556E+01 0.417E+02   0.707E+00 -.556E+01 -.420E+02   0.853E-01 0.280E-01 0.263E+00   0.441E-03 -.439E-03 0.439E-04
   0.158E+02 0.110E+02 0.400E+02   -.158E+02 -.110E+02 -.404E+02   0.693E-01 -.715E-03 0.369E+00   -.540E-03 -.392E-03 -.115E-03
   -.135E+02 -.724E+01 0.333E+02   0.136E+02 0.723E+01 -.335E+02   -.139E+00 0.289E-02 0.192E+00   -.144E-03 0.334E-03 -.689E-04
   -.250E+02 -.170E+02 0.230E+02   0.250E+02 0.173E+02 -.234E+02   0.869E-01 -.959E+00 0.397E+00   0.486E-03 0.696E-03 0.458E-03
   0.169E+02 0.672E+01 -.316E+02   -.172E+02 -.673E+01 0.318E+02   0.208E+00 0.138E-01 -.175E+00   -.146E-03 -.327E-03 -.877E-04
   -.342E+01 -.636E+01 -.433E+02   0.352E+01 0.637E+01 0.436E+02   -.798E-01 -.224E-01 -.303E+00   -.120E-03 0.479E-03 0.130E-03
   0.242E+01 -.114E+02 -.116E+02   -.244E+01 0.114E+02 0.118E+02   0.160E-01 0.107E-01 -.202E+00   -.276E-04 0.384E-03 -.580E-03
   -.286E+02 0.976E+01 0.239E+02   0.288E+02 -.993E+01 -.242E+02   -.234E+00 0.156E+00 0.249E+00   0.504E-03 0.205E-03 0.365E-03
   0.162E+02 -.225E+02 0.302E+01   -.162E+02 0.227E+02 -.322E+01   0.138E+00 -.224E+00 0.326E-02   -.272E-04 -.146E-03 0.923E-03
   0.152E+02 -.664E+01 0.501E+02   -.154E+02 0.677E+01 -.503E+02   0.223E+00 -.133E+00 0.191E+00   0.149E-03 -.120E-03 -.877E-03
   -.330E+02 0.276E+01 -.402E+01   0.332E+02 -.264E+01 0.427E+01   -.144E+00 -.123E+00 -.237E+00   0.374E-03 -.348E-03 -.623E-03
   -.117E+02 -.224E+02 -.383E+02   0.119E+02 0.225E+02 0.385E+02   -.209E+00 -.165E+00 -.224E+00   -.487E-03 -.708E-05 0.353E-03
   0.269E+02 0.590E+01 -.148E+02   -.271E+02 -.595E+01 0.150E+02   0.190E+00 0.672E-01 -.156E+00   -.363E-03 0.313E-04 -.326E-03
   0.400E+01 0.364E+02 -.336E+02   -.421E+01 -.366E+02 0.338E+02   0.207E+00 0.223E+00 -.177E+00   0.645E-03 -.377E-03 0.350E-03
   -.273E+02 -.128E+02 0.229E+02   0.275E+02 0.130E+02 -.231E+02   -.181E+00 -.185E+00 0.263E+00   0.395E-03 -.723E-04 0.320E-03
   -.110E+01 -.200E+02 0.281E+02   0.132E+01 0.202E+02 -.284E+02   -.223E+00 -.140E+00 0.217E+00   -.646E-03 0.673E-04 -.113E-03
   0.322E+02 0.310E+02 0.546E+01   -.324E+02 -.312E+02 -.573E+01   0.171E+00 0.198E+00 0.258E+00   -.204E-03 -.149E-03 0.807E-03
   0.102E+02 0.194E+02 0.411E+02   -.104E+02 -.196E+02 -.413E+02   0.191E+00 0.182E+00 0.223E+00   0.307E-03 -.400E-04 -.623E-03
   0.374E+02 -.511E+01 -.291E+02   -.376E+02 0.522E+01 0.293E+02   0.218E+00 -.121E+00 -.193E+00   -.620E-03 -.151E-03 -.280E-03
   0.136E+01 -.351E+02 -.426E+02   -.137E+01 0.352E+02 0.431E+02   -.466E+00 0.495E-02 -.848E+00   0.769E-03 0.151E-03 0.623E-03
   -.364E+02 0.112E+02 -.183E+02   0.366E+02 -.113E+02 0.186E+02   -.347E+00 0.971E-01 -.135E+00   0.497E-03 0.431E-03 -.500E-03
   0.413E+01 0.213E+02 -.305E+02   -.393E+01 -.215E+02 0.308E+02   -.210E+00 0.200E+00 -.229E+00   -.618E-03 0.142E-03 0.259E-03
   -.716E+02 -.869E+02 -.818E+02   0.731E+02 0.883E+02 0.833E+02   0.158E+00 0.309E+00 0.420E+00   -.288E-03 -.433E-03 -.240E-03
 -----------------------------------------------------------------------------------------------
   -.616E+01 -.100E+02 -.596E+01   0.426E-13 -.995E-13 -.142E-13   0.613E+01 0.100E+02 0.593E+01   -.199E-02 -.443E-02 -.294E-02


 POSITION                                       TOTAL-FORCE (eV/Angst)
 -----------------------------------------------------------------------------------
      0.57435      2.92674      3.77515         0.015661      0.020371      0.023838
      0.38103      2.81544     12.06843        -0.040347      0.002672      0.006792
      3.93839      8.92559      7.78459         0.180852      0.117084     -0.135921
     -4.90154      8.85279      7.91488        -0.006867     -0.013951     -0.011544
     -3.77166      2.87872      8.15624         0.036564      0.029473      0.004555
      4.82356      2.89873      8.22018         0.012918     -0.003383     -0.015041
     -0.58795      8.80106     12.38788         0.020955     -0.042354     -0.027755
     -0.46470      8.82108      4.01232        -0.005364     -0.029125     -0.003667
      0.00746      0.01348      0.00833        -0.000663     -0.001465      0.002064
      0.03498      0.01581      8.04822        -0.003226      0.294413     -0.101648
     -4.23530      0.00023     12.04844        -0.007462      0.006184      0.000957
     -4.20629      0.01568      4.03966        -0.007675     -0.041212     -0.007670
      4.21868      5.84309      4.01659        -0.010203      0.006640     -0.006293
     -4.22327      5.93821      4.03384         0.146801      0.117167      0.253060
     -0.00052      5.85745      0.00201         0.014755      0.001507      0.010067
     -0.13169      5.79818      7.95626        -1.377591     -1.479412     -1.335928
     -4.15203      8.78548     11.55445         0.009376      0.022411     -0.001760
      4.34863      8.82832     11.44741         0.013243      0.014665      0.005764
      0.01882      2.93878     15.65857        -0.006230     -0.003427     -0.004417
     -0.01168      2.87127      7.51235         0.076675     -0.677400      0.082931
     -0.12059      8.80121      0.39351        -0.000734      0.004354     -0.006580
      4.14941      2.92375      4.57162         0.000747     -0.026004      0.011167
     -4.37967      2.99333      4.47766        -0.008662     -0.001178     -0.013378
     -5.92171      5.50906      9.60956        -0.015276      0.000586     -0.014580
      1.69866      6.29160      5.67151         0.094451     -0.013669     -0.180402
      1.70290      6.25018     13.61789        -0.001555     -0.003643     -0.025409
     -1.71452      0.32455     10.43576         0.020672     -0.005825     -0.006979
     -1.70640      0.41698      2.43716        -0.010383      0.006176      0.004727
      6.00040     11.50687      6.40085         0.010370      0.008263     -0.002106
     -2.45372     11.23790      6.46778         0.004783      0.000962      0.006854
     -5.92782      0.36440      9.63161        -0.004541     -0.009514      0.001613
      2.54418      0.39017      9.63549        -0.016678      0.015773     -0.009127
      1.72194     11.25841      5.64534        -0.006076     -0.007928      0.007638
      1.72762     11.32494     13.65800         0.002182     -0.002525     -0.006919
      5.91272      6.15948      6.47324         0.016516     -0.004327      0.025904
     -2.59606      6.40151      6.40770        -0.484229      0.081746     -0.441513
     -1.72977      5.38666     10.43026        -0.135023     -0.035109      0.130549
     -1.72257      5.45791      2.44354        -0.020291     -0.006119      0.001384
      1.33801      7.29401      9.28184         1.491556      1.657124      1.778771
 -----------------------------------------------------------------------------------
    total drift:                               -0.033161     -0.002773     -0.029907


--------------------------------------------------------------------------------------------------------



  FREE ENERGIE OF THE ION-ELECTRON SYSTEM (eV)
  ---------------------------------------------------
  free  energy   TOTEN  =     -1409.00714423 eV

  energy  without entropy=    -1409.00714423  energy(sigma->0) =    -1409.00714423



--------------------------------------------------------------------------------------------------------


    POTLOK:  cpu time    1.4382: real time    1.4382


--------------------------------------------------------------------------------------------------------


 stress matrix after NEB project (eV)
     -3.45680      2.90650      1.70449
      2.90648     -2.41551      1.60287
      1.70452      1.60297     -3.65089
  FORCES: max atom, RMS     2.852162    0.625769
  FORCE total and by dimension    3.907927    1.778771
  Stress total and by dimension    7.678403    3.650894
     LOOP+:  cpu time  436.3108: real time  436.8474
    4ORBIT:  cpu time    0.0000: real time    0.0000



 total charge     

# of ion       s       p       d       tot
------------------------------------------
    1        1.786   4.717   0.018   6.520
    2        1.785   4.717   0.018   6.520
    3        1.787   4.718   0.021   6.527
    4        1.786   4.717   0.019   6.521
    5        1.785   4.716   0.016   6.517
    6        1.785   4.716   0.017   6.518
    7        1.785   4.716   0.018   6.520
    8        1.786   4.717   0.018   6.521
    9        1.554   0.423   9.835  11.813
   10        1.532   0.435   9.830  11.797
   11        1.554   0.417   9.834  11.805
   12        1.553   0.410   9.833  11.796
   13        1.554   0.413   9.833  11.800
   14        1.533   0.430   9.830  11.793
   15        1.554   0.418   9.834  11.806
   16        1.533   0.542   9.847  11.921
   17        1.614   3.284   0.006   4.904
   18        1.615   3.281   0.007   4.902
   19        1.615   3.288   0.007   4.910
   20        1.618   3.265   0.008   4.891
   21        1.614   3.287   0.007   4.908
   22        1.614   3.283   0.007   4.904
   23        1.614   3.280   0.006   4.900
   24        1.614   3.280   0.006   4.900
   25        1.614   3.279   0.006   4.899
   26        1.614   3.278   0.006   4.898
   27        1.614   3.280   0.006   4.901
   28        1.614   3.282   0.006   4.902
   29        1.614   3.287   0.007   4.908
   30        1.614   3.276   0.006   4.895
   31        1.614   3.284   0.006   4.905
   32        1.614   3.279   0.006   4.898
   33        1.614   3.279   0.006   4.899
   34        1.614   3.282   0.006   4.902
   35        1.614   3.283   0.006   4.903
   36        1.617   3.268   0.007   4.892
   37        1.614   3.280   0.006   4.900
   38        1.614   3.280   0.006   4.899
   39        1.622   3.315   0.016   4.953
--------------------------------------------------
tot         63.793 116.700  78.976 259.469


 total amount of memory used by VASP MPI-rank0    60644. kBytes
=======================================================================

   base      :      30000. kBytes
   nonlr-proj:       6479. kBytes
   fftplans  :       8423. kBytes
   grid      :       7465. kBytes
   one-center:         77. kBytes
   wavefun   :       8200. kBytes

  
  
 General timing and accounting informations for this job:
 ========================================================
  
                  Total CPU time used (sec):      448.611
                            User time (sec):      447.383
                          System time (sec):        1.228
                         Elapsed time (sec):      449.945
  
                   Maximum memory used (kb):       77824.
                   Average memory used (kb):           0.
  
                          Minor page faults:        20740
                          Major page faults:            0
                 Voluntary context switches:         1695
