<?xml version="1.0" encoding="ISO-8859-1"?>
<modeling>
 <generator>
  <i name="program" type="string">vasp </i>
  <i name="version" type="string">5.4.4.18Apr17-6-g9f103f2a35  </i>
  <i name="subversion" type="string">(build Jun 22 2020 09:27:21) complex            parallel </i>
  <i name="platform" type="string">tx2_gcc-7.3_libsci-18.07_cray-fftw-3.3.8 </i>
  <i name="date" type="string">2021 10 11 </i>
  <i name="time" type="string">20:33:46 </i>
 </generator>
 <incar>
  <i type="string" name="SYSTEM"> CsPbBr3 cubic bulk</i>
  <i type="string" name="PREC">accurate</i>
  <i type="string" name="ALGO"> NORMAL   ! Electronic minimisation algo</i>
  <i type="logical" name="ADDGRID"> T  </i>
  <i type="int" name="ISPIN">     1</i>
  <i type="int" name="NELM">   200</i>
  <i type="int" name="IBRION">     2</i>
  <i name="EDIFF">      0.00000100</i>
  <i name="EDIFFG">     -0.01000000</i>
  <i type="int" name="NSW">     0</i>
  <i type="int" name="ISIF">     2</i>
  <i type="int" name="ISYM">     0</i>
  <i name="ENCUT">    300.00000000</i>
  <i name="POTIM">      0.50000000</i>
  <i name="NUPDOWN">      0.00000000</i>
  <i name="NELECT">    344.00000000</i>
  <i type="string" name="LREAL"> AUTO</i>
  <i type="int" name="ISMEAR">     0</i>
  <i name="SIGMA">      0.01000000</i>
  <i type="logical" name="LWAVE"> F  </i>
  <i type="logical" name="LCHARG"> F  </i>
  <i type="logical" name="LVHAR"> T  </i>
  <i type="int" name="LORBIT">    10</i>
  <i type="logical" name="LASPH"> T  </i>
  <v type="int" name="KPOINT_BSE">    -1     0     0     0</v>
  <i type="int" name="NELM">   200</i>
  <i type="string" name="METAGGA"> SCAN       ! PBE exchange-correlation</i>
  <i type="logical" name="LASPH"> T  </i>
 </incar>
 <structure name="primitive_cell" >
  <crystal>
   <varray name="basis" >
    <v>       8.45648900       0.00000000       8.04030100 </v>
    <v>       0.00000000      11.72984700       0.00000000 </v>
    <v>      -8.45648900       0.00000000       8.04030100 </v>
   </varray>
   <i name="volume">   1595.08833419 </i>
   <varray name="rec_basis" >
    <v>       0.05912619      -0.00000000       0.06218673 </v>
    <v>       0.00000000       0.08525260      -0.00000000 </v>
    <v>      -0.05912619       0.00000000       0.06218673 </v>
   </varray>
  </crystal>
  <varray name="positions" >
   <v>       0.26872300       0.24951200       0.20080500 </v>
   <v>       0.05066600       0.03554900       0.25245200 </v>
   <v>      -0.47036700       0.24925700       0.03895500 </v>
   <v>       0.05010700       0.46530100       0.25380500 </v>
   <v>       0.46647800       0.24478300       0.46785900 </v>
   <v>       0.24846900       0.03106600      -0.05055200 </v>
   <v>       0.24745900       0.46966200      -0.05228500 </v>
   <v>       0.45312800      -0.46362500       0.25225700 </v>
   <v>       0.45287700      -0.04019100       0.24925300 </v>
   <v>      -0.02513200       0.25053900      -0.02735800 </v>
   <v>       0.49921300       0.49813900       0.00034400 </v>
   <v>       0.49883600       0.00002000      -0.00033000 </v>
   <v>       0.00095900       0.00114900       0.00007700 </v>
   <v>       0.00009400       0.49936300       0.00015600 </v>
   <v>       0.01949800       0.25518900      -0.46259600 </v>
   <v>       0.48698700       0.49431000      -0.49744000 </v>
   <v>      -0.49743900       0.00134800       0.49842400 </v>
   <v>       0.25713100      -0.04194000      -0.45271100 </v>
   <v>       0.24497900      -0.45425500      -0.44803100 </v>
   <v>       0.28420600       0.24541800      -0.26978600 </v>
   <v>      -0.20361500       0.24712400       0.22598700 </v>
   <v>       0.00251100       0.00133700       0.49991500 </v>
   <v>       0.00114500      -0.49375200      -0.49944300 </v>
   <v>       0.22203700      -0.24798000       0.27698900 </v>
   <v>      -0.25037300       0.03326300       0.44877200 </v>
   <v>      -0.45365100       0.45922700      -0.24910200 </v>
   <v>       0.01734100      -0.24967400       0.03160100 </v>
   <v>      -0.24785400      -0.47488800       0.05295300 </v>
   <v>      -0.24717100      -0.01900900       0.04326700 </v>
   <v>      -0.45240700       0.02766900      -0.24966100 </v>
   <v>       0.47304000      -0.25101500      -0.03597300 </v>
   <v>      -0.34368100      -0.37816700       0.49809600 </v>
   <v>      -0.04850600      -0.03451900      -0.25280100 </v>
   <v>      -0.05246200      -0.46715600      -0.25383400 </v>
   <v>      -0.03100500      -0.24736300       0.45475900 </v>
   <v>       0.20239100      -0.24527700      -0.21799000 </v>
   <v>      -0.28304000      -0.23907000       0.25123600 </v>
   <v>      -0.22697500       0.24002400      -0.27203300 </v>
   <v>      -0.26440200      -0.24968700      -0.19487500 </v>
  </varray>
 </structure>
 <varray name="primitive_index" >
  <v type="int" >        1 </v>
  <v type="int" >       28 </v>
  <v type="int" >       22 </v>
  <v type="int" >       38 </v>
  <v type="int" >       20 </v>
  <v type="int" >       31 </v>
  <v type="int" >       24 </v>
  <v type="int" >       25 </v>
  <v type="int" >       33 </v>
  <v type="int" >       19 </v>
  <v type="int" >       13 </v>
  <v type="int" >       11 </v>
  <v type="int" >        9 </v>
  <v type="int" >       15 </v>
  <v type="int" >       23 </v>
  <v type="int" >       16 </v>
  <v type="int" >       10 </v>
  <v type="int" >       30 </v>
  <v type="int" >       36 </v>
  <v type="int" >        5 </v>
  <v type="int" >        6 </v>
  <v type="int" >       12 </v>
  <v type="int" >       14 </v>
  <v type="int" >        8 </v>
  <v type="int" >       32 </v>
  <v type="int" >       37 </v>
  <v type="int" >       21 </v>
  <v type="int" >       35 </v>
  <v type="int" >       29 </v>
  <v type="int" >       27 </v>
  <v type="int" >       17 </v>
  <v type="int" >       39 </v>
  <v type="int" >       34 </v>
  <v type="int" >       26 </v>
  <v type="int" >       18 </v>
  <v type="int" >        4 </v>
  <v type="int" >        3 </v>
  <v type="int" >        2 </v>
  <v type="int" >        7 </v>
 </varray>
 <kpoints>
  <generation param="Gamma">
   <v type="int" name="divisions">       2        2        2 </v>
   <v name="usershift">      0.00000000       0.00000000       0.00000000 </v>
   <v name="genvec1">      0.50000000       0.00000000       0.00000000 </v>
   <v name="genvec2">      0.00000000       0.50000000       0.00000000 </v>
   <v name="genvec3">      0.00000000       0.00000000       0.50000000 </v>
   <v name="shift">      0.00000000       0.00000000       0.00000000 </v>
  </generation>
  <varray name="kpointlist" >
   <v>       0.00000000       0.00000000       0.00000000 </v>
   <v>       0.50000000       0.00000000       0.00000000 </v>
   <v>       0.00000000       0.50000000       0.00000000 </v>
   <v>       0.50000000       0.50000000       0.00000000 </v>
   <v>       0.00000000       0.00000000       0.50000000 </v>
   <v>       0.50000000       0.00000000       0.50000000 </v>
   <v>       0.00000000       0.50000000       0.50000000 </v>
   <v>       0.50000000       0.50000000       0.50000000 </v>
  </varray>
  <varray name="weights" >
   <v>       0.12500000 </v>
   <v>       0.12500000 </v>
   <v>       0.12500000 </v>
   <v>       0.12500000 </v>
   <v>       0.12500000 </v>
   <v>       0.12500000 </v>
   <v>       0.12500000 </v>
   <v>       0.12500000 </v>
  </varray>
 </kpoints>
 <parameters>
  <separator name="general" >
   <i type="string" name="SYSTEM">CsPbBr3 cubic bulk</i>
   <i type="logical" name="LCOMPAT"> F  </i>
  </separator>
  <separator name="electronic" >
   <i type="string" name="PREC">accura</i>
   <i name="ENMAX">    300.00000000</i>
   <i name="ENAUG">    503.85200000</i>
   <i name="EDIFF">      0.00000100</i>
   <i type="int" name="IALGO">    38</i>
   <i type="int" name="IWAVPR">    10</i>
   <i type="int" name="NBANDS">   208</i>
   <i name="NELECT">    344.00000000</i>
   <i type="int" name="TURBO">     0</i>
   <i type="int" name="IRESTART">     0</i>
   <i type="int" name="NREBOOT">     0</i>
   <i type="int" name="NMIN">     0</i>
   <i name="EREF">      0.00000000</i>
   <separator name="electronic smearing" >
    <i type="int" name="ISMEAR">     0</i>
    <i name="SIGMA">      0.01000000</i>
    <i name="KSPACING">      0.50000000</i>
    <i type="logical" name="KGAMMA"> T  </i>
   </separator>
   <separator name="electronic projectors" >
    <i type="logical" name="LREAL"> T  </i>
    <v name="ROPT">     -0.00025000     -0.00025000     -0.00025000</v>
    <i type="int" name="LMAXPAW">  -100</i>
    <i type="int" name="LMAXMIX">     2</i>
    <i type="logical" name="NLSPLINE"> F  </i>
   </separator>
   <separator name="electronic startup" >
    <i type="int" name="ISTART">     0</i>
    <i type="int" name="ICHARG">     2</i>
    <i type="int" name="INIWAV">     1</i>
   </separator>
   <separator name="electronic spin" >
    <i type="int" name="ISPIN">     1</i>
    <i type="logical" name="LNONCOLLINEAR"> F  </i>
    <v name="MAGMOM">      0.00000000      0.00000000      0.00000000      0.00000000      0.00000000      0.00000000      0.00000000      0.00000000      0.00000000      0.00000000      0.00000000      0.00000000      0.00000000      0.00000000      0.00000000      0.00000000      0.00000000      0.00000000      0.00000000      0.00000000
      0.00000000      0.00000000      0.00000000      0.00000000      0.00000000      0.00000000      0.00000000      0.00000000      0.00000000      0.00000000      0.00000000      0.00000000      0.00000000      0.00000000      0.00000000      0.00000000      0.00000000      0.00000000      0.00000000</v>
    <i name="NUPDOWN">      0.00000000</i>
    <i type="logical" name="LSORBIT"> F  </i>
    <v name="SAXIS">      0.00000000      0.00000000      1.00000000</v>
    <i type="logical" name="LSPIRAL"> F  </i>
    <v name="QSPIRAL">      0.00000000      0.00000000      0.00000000</v>
    <i type="logical" name="LZEROZ"> F  </i>
   </separator>
   <separator name="electronic exchange-correlation" >
    <i type="logical" name="LASPH"> T  </i>
    <i type="logical" name="LMETAGGA"> F  </i>
   </separator>
   <separator name="electronic convergence" >
    <i type="int" name="NELM">   200</i>
    <i type="int" name="NELMDL">    -5</i>
    <i type="int" name="NELMIN">     2</i>
    <i name="ENINI">    300.00000000</i>
    <separator name="electronic convergence detail" >
     <i type="logical" name="LDIAG"> T  </i>
     <i type="logical" name="LSUBROT"> F  </i>
     <i name="WEIMIN">      0.00000000</i>
     <i name="EBREAK">      0.00000000</i>
     <i name="DEPER">      0.30000000</i>
     <i type="int" name="NRMM">     4</i>
     <i name="TIME">      0.40000000</i>
    </separator>
   </separator>
   <separator name="electronic mixer" >
    <i name="AMIX">      0.40000000</i>
    <i name="BMIX">      1.00000000</i>
    <i name="AMIN">      0.10000000</i>
    <i name="AMIX_MAG">      1.60000000</i>
    <i name="BMIX_MAG">      1.00000000</i>
    <separator name="electronic mixer details" >
     <i type="int" name="IMIX">     4</i>
     <i type="logical" name="MIXFIRST"> F  </i>
     <i type="int" name="MAXMIX">   -45</i>
     <i name="WC">    100.00000000</i>
     <i type="int" name="INIMIX">     1</i>
     <i type="int" name="MIXPRE">     1</i>
     <i type="int" name="MREMOVE">     5</i>
    </separator>
   </separator>
   <separator name="electronic dipolcorrection" >
    <i type="logical" name="LDIPOL"> F  </i>
    <i type="logical" name="LMONO"> F  </i>
    <i type="int" name="IDIPOL">     0</i>
    <i name="EPSILON">      1.00000000</i>
    <v name="DIPOL">   -100.00000000   -100.00000000   -100.00000000</v>
    <i name="EFIELD">      0.00000000</i>
   </separator>
  </separator>
  <separator name="grids" >
   <i type="int" name="NGX">    70</i>
   <i type="int" name="NGY">    70</i>
   <i type="int" name="NGZ">    70</i>
   <i type="int" name="NGXF">   140</i>
   <i type="int" name="NGYF">   140</i>
   <i type="int" name="NGZF">   140</i>
   <i type="logical" name="ADDGRID"> T  </i>
  </separator>
  <separator name="ionic" >
   <i type="int" name="NSW">     0</i>
   <i type="int" name="IBRION">    -1</i>
   <i type="int" name="MDALGO">     0</i>
   <i type="int" name="ISIF">     2</i>
   <i name="PSTRESS">      0.00000000</i>
   <i name="EDIFFG">     -0.01000000</i>
   <i type="int" name="NFREE">     1</i>
   <i name="POTIM">      0.50000000</i>
   <i name="SMASS">     -3.00000000</i>
   <i name="SCALEE">      1.00000000</i>
  </separator>
  <separator name="ionic md" >
   <i name="TEBEG">      0.00010000</i>
   <i name="TEEND">      0.00010000</i>
   <i type="int" name="NBLOCK">     1</i>
   <i type="int" name="KBLOCK">     1</i>
   <i type="int" name="NPACO">   256</i>
   <i name="APACO">     16.00000000</i>
  </separator>
  <separator name="symmetry" >
   <i type="int" name="ISYM">     0</i>
   <i name="SYMPREC">      0.00001000</i>
  </separator>
  <separator name="dos" >
   <i type="int" name="LORBIT">    10</i>
   <v name="RWIGS">     -1.00000000     -1.00000000     -1.00000000</v>
   <i type="int" name="NEDOS">   301</i>
   <i name="EMIN">     10.00000000</i>
   <i name="EMAX">    -10.00000000</i>
   <i name="EFERMI">      0.00000000</i>
  </separator>
  <separator name="writing" >
   <i type="int" name="NWRITE">     2</i>
   <i type="logical" name="LWAVE"> F  </i>
   <i type="logical" name="LDOWNSAMPLE"> F  </i>
   <i type="logical" name="LCHARG"> F  </i>
   <i type="logical" name="LPARD"> F  </i>
   <i type="logical" name="LVTOT"> F  </i>
   <i type="logical" name="LVHAR"> T  </i>
   <i type="logical" name="LELF"> F  </i>
   <i type="logical" name="LOPTICS"> F  </i>
   <v name="STM">      0.00000000      0.00000000      0.00000000      0.00000000      0.00000000      0.00000000      0.00000000</v>
  </separator>
  <separator name="performance" >
   <i type="int" name="NPAR">     8</i>
   <i type="int" name="NSIM">     4</i>
   <i type="int" name="NBLK">    -1</i>
   <i type="logical" name="LPLANE"> T  </i>
   <i type="logical" name="LSCALAPACK"> T  </i>
   <i type="logical" name="LSCAAWARE"> F  </i>
   <i type="logical" name="LSCALU"> F  </i>
   <i type="logical" name="LASYNC"> F  </i>
   <i type="logical" name="LORBITALREAL"> F  </i>
  </separator>
  <separator name="miscellaneous" >
   <i type="int" name="IDIOT">     3</i>
   <i type="int" name="ISPECIAL">     0</i>
   <i type="logical" name="LMUSIC"> F  </i>
   <v name="POMASS">    132.90000000    207.20000000     79.90400000</v>
   <v name="DARWINR">      0.00000000      0.00000000      0.00000000</v>
   <v name="DARWINV">      1.00000000      1.00000000      1.00000000</v>
   <i type="logical" name="LCORR"> T  </i>
  </separator>
  <i type="logical" name="GGA_COMPAT"> T  </i>
  <i type="logical" name="LBERRY"> F  </i>
  <i type="int" name="ICORELEVEL">     0</i>
  <i type="logical" name="LDAU"> F  </i>
  <i type="int" name="I_CONSTRAINED_M">     0</i>
  <separator name="electronic exchange-correlation" >
   <i type="string" name="GGA">--</i>
   <i type="int" name="VOSKOWN">     0</i>
   <i type="logical" name="LHFCALC"> F  </i>
   <i type="string" name="PRECFOCK"></i>
   <i type="logical" name="LSYMGRAD"> F  </i>
   <i type="logical" name="LHFONE"> F  </i>
   <i type="logical" name="LRHFCALC"> F  </i>
   <i type="logical" name="LTHOMAS"> F  </i>
   <i type="logical" name="LMODELHF"> F  </i>
   <i name="ENCUT4O">     -1.00000000</i>
   <i type="int" name="EXXOEP">     0</i>
   <i type="int" name="FOURORBIT">     0</i>
   <i name="AEXX">      0.00000000</i>
   <i name="HFALPHA">      0.00000000</i>
   <i name="MCALPHA">      0.00000000</i>
   <i name="ALDAX">      1.00000000</i>
   <i name="AGGAX">      1.00000000</i>
   <i name="ALDAC">      1.00000000</i>
   <i name="AGGAC">      1.00000000</i>
   <i type="int" name="NKREDX">     1</i>
   <i type="int" name="NKREDY">     1</i>
   <i type="int" name="NKREDZ">     1</i>
   <i type="logical" name="SHIFTRED"> F  </i>
   <i type="logical" name="ODDONLY"> F  </i>
   <i type="logical" name="EVENONLY"> F  </i>
   <i type="int" name="LMAXFOCK">     0</i>
   <i type="int" name="NMAXFOCKAE">     0</i>
   <i type="logical" name="LFOCKAEDFT"> F  </i>
   <i name="HFSCREEN">      0.00000000</i>
   <i name="HFSCREENC">      0.00000000</i>
   <i type="int" name="NBANDSGWLOW">     0</i>
  </separator>
  <separator name="vdW DFT" >
   <i type="logical" name="LUSE_VDW"> F  </i>
   <i name="Zab_VDW">     -0.84910000</i>
   <i name="PARAM1">      0.12340000</i>
   <i name="PARAM2">      1.00000000</i>
   <i name="PARAM3">      0.00000000</i>
  </separator>
  <separator name="model GW" >
   <i type="int" name="MODEL_GW">     0</i>
   <i name="MODEL_EPS0">     24.53982053</i>
   <i name="MODEL_ALPHA">      1.00000000</i>
  </separator>
  <separator name="linear response parameters" >
   <i type="logical" name="LEPSILON"> F  </i>
   <i type="logical" name="LRPA"> F  </i>
   <i type="logical" name="LNABLA"> F  </i>
   <i type="logical" name="LVEL"> F  </i>
   <i type="int" name="KINTER">     0</i>
   <i name="CSHIFT">      0.10000000</i>
   <i name="OMEGAMAX">     -1.00000000</i>
   <i name="DEG_THRESHOLD">      0.00200000</i>
   <i name="RTIME">     -0.10000000</i>
   <i name="WPLASMAI">      0.00000000</i>
   <v name="DFIELD">      0.00000000      0.00000000      0.00000000</v>
   <v name="WPLASMA">      0.00000000      0.00000000      0.00000000      0.00000000      0.00000000      0.00000000      0.00000000      0.00000000      0.00000000</v>
  </separator>
  <separator name="orbital magnetization" >
   <i type="logical" name="NUCIND"> F  </i>
   <v name="MAGPOS">      0.00000000      0.00000000      0.00000000</v>
   <i type="logical" name="LNICSALL"> T  </i>
   <i type="logical" name="ORBITALMAG"> F  </i>
   <i type="logical" name="LMAGBLOCH"> F  </i>
   <i type="logical" name="LCHIMAG"> F  </i>
   <i type="logical" name="LGAUGE"> T  </i>
   <i type="int" name="MAGATOM">     0</i>
   <v name="MAGDIPOL">      0.00000000      0.00000000      0.00000000</v>
   <v name="AVECCONST">      0.00000000      0.00000000      0.00000000</v>
  </separator>
  <separator name="response functions" >
   <i type="logical" name="LADDER"> F  </i>
   <i type="logical" name="LRPAFORCE"> F  </i>
   <i type="logical" name="LFXC"> F  </i>
   <i type="logical" name="LHARTREE"> T  </i>
   <i type="int" name="IBSE">     0</i>
   <v type="int" name="KPOINT">    -1     0     0     0</v>
   <i type="logical" name="LTCTE"> F  </i>
   <i type="logical" name="LTETE"> F  </i>
   <i type="logical" name="LTRIPLET"> F  </i>
   <i type="logical" name="LFXCEPS"> F  </i>
   <i type="logical" name="LFXHEG"> F  </i>
   <i type="int" name="NATURALO">     2</i>
   <i type="logical" name="L2ORDER"> F  </i>
   <i type="logical" name="LMP2LT"> F  </i>
   <i type="logical" name="LUSEW"> F  </i>
   <i name="ENCUTGW">     -2.00000000</i>
   <i name="ENCUTGWSOFT">     -2.00000000</i>
   <i name="ENCUTLF">     -1.00000000</i>
   <i type="int" name="LMAXMP2">    -1</i>
   <i name="SCISSOR">      0.00000000</i>
   <i type="int" name="NOMEGA">     0</i>
   <i type="int" name="NOMEGAR">     0</i>
   <i type="int" name="NBANDSGW">    -1</i>
   <i type="int" name="NBANDSO">    -1</i>
   <i type="int" name="NBANDSV">    -1</i>
   <i type="int" name="NELM">   200</i>
   <i type="int" name="NELMHF">     1</i>
   <i type="int" name="DIM">     3</i>
   <i type="int" name="ANTIRES">     0</i>
   <i name="OMEGAMAX">    -30.00000000</i>
   <i name="OMEGAMIN">    -30.00000000</i>
   <i name="OMEGATL">   -200.00000000</i>
   <i type="int" name="OMEGAGRID">   140</i>
   <i name="CSHIFT">     -0.10000000</i>
   <i type="logical" name="SELFENERGY"> F  </i>
   <i type="logical" name="LSPECTRAL"> F  </i>
   <i type="logical" name="LSPECTRALGW"> F  </i>
   <i type="logical" name="LSINGLES"> F  </i>
   <i type="logical" name="LFERMIGW"> F  </i>
   <i type="logical" name="ODDONLYGW"> F  </i>
   <i type="logical" name="EVENONLYGW"> F  </i>
   <i type="int" name="NKREDLFX">     1</i>
   <i type="int" name="NKREDLFY">     1</i>
   <i type="int" name="NKREDLFZ">     1</i>
   <i type="int" name="MAXMEM">  2800</i>
   <i type="int" name="TELESCOPE">     0</i>
   <i type="int" name="TAUPAR">     1</i>
   <i type="int" name="OMEGAPAR">    -1</i>
   <i name="LAMBDA">      1.00000000</i>
  </separator>
  <separator name="External order field" >
   <i name="OFIELD_KAPPA">      0.00000000</i>
   <v name="OFIELD_K">      0.00000000      0.00000000      0.00000000</v>
   <i name="OFIELD_Q6_NEAR">      0.00000000</i>
   <i name="OFIELD_Q6_FAR">      0.00000000</i>
   <i name="OFIELD_A">      0.00000000</i>
  </separator>
 </parameters>
 <atominfo>
  <atoms>      39 </atoms>
  <types>       3 </types>
  <array name="atoms" >
   <dimension dim="1">ion</dimension>
   <field type="string">element</field>
   <field type="int">atomtype</field>
   <set>
    <rc><c>Cs</c><c>   1</c></rc>
    <rc><c>Cs</c><c>   1</c></rc>
    <rc><c>Cs</c><c>   1</c></rc>
    <rc><c>Cs</c><c>   1</c></rc>
    <rc><c>Cs</c><c>   1</c></rc>
    <rc><c>Cs</c><c>   1</c></rc>
    <rc><c>Cs</c><c>   1</c></rc>
    <rc><c>Cs</c><c>   1</c></rc>
    <rc><c>Pb</c><c>   2</c></rc>
    <rc><c>Pb</c><c>   2</c></rc>
    <rc><c>Pb</c><c>   2</c></rc>
    <rc><c>Pb</c><c>   2</c></rc>
    <rc><c>Pb</c><c>   2</c></rc>
    <rc><c>Pb</c><c>   2</c></rc>
    <rc><c>Pb</c><c>   2</c></rc>
    <rc><c>Pb</c><c>   2</c></rc>
    <rc><c>Br</c><c>   3</c></rc>
    <rc><c>Br</c><c>   3</c></rc>
    <rc><c>Br</c><c>   3</c></rc>
    <rc><c>Br</c><c>   3</c></rc>
    <rc><c>Br</c><c>   3</c></rc>
    <rc><c>Br</c><c>   3</c></rc>
    <rc><c>Br</c><c>   3</c></rc>
    <rc><c>Br</c><c>   3</c></rc>
    <rc><c>Br</c><c>   3</c></rc>
    <rc><c>Br</c><c>   3</c></rc>
    <rc><c>Br</c><c>   3</c></rc>
    <rc><c>Br</c><c>   3</c></rc>
    <rc><c>Br</c><c>   3</c></rc>
    <rc><c>Br</c><c>   3</c></rc>
    <rc><c>Br</c><c>   3</c></rc>
    <rc><c>Br</c><c>   3</c></rc>
    <rc><c>Br</c><c>   3</c></rc>
    <rc><c>Br</c><c>   3</c></rc>
    <rc><c>Br</c><c>   3</c></rc>
    <rc><c>Br</c><c>   3</c></rc>
    <rc><c>Br</c><c>   3</c></rc>
    <rc><c>Br</c><c>   3</c></rc>
    <rc><c>Br</c><c>   3</c></rc>
   </set>
  </array>
  <array name="atomtypes" >
   <dimension dim="1">type</dimension>
   <field type="int">atomspertype</field>
   <field type="string">element</field>
   <field>mass</field>
   <field>valence</field>
   <field type="string">pseudopotential</field>
   <set>
    <rc><c>   8</c><c>Cs</c><c>    132.90000000</c><c>      9.00000000</c><c>  PAW_PBE Cs_sv 08Apr2002               </c></rc>
    <rc><c>   8</c><c>Pb</c><c>    207.20000000</c><c>     14.00000000</c><c>  PAW_PBE Pb_d 06Sep2000                </c></rc>
    <rc><c>  23</c><c>Br</c><c>     79.90400000</c><c>      7.00000000</c><c>  PAW_PBE Br 06Sep2000                  </c></rc>
   </set>
  </array>
 </atominfo>
 <structure name="initialpos" >
  <crystal>
   <varray name="basis" >
    <v>       8.45648900       0.00000000       8.04030100 </v>
    <v>       0.00000000      11.72984700       0.00000000 </v>
    <v>      -8.45648900       0.00000000       8.04030100 </v>
   </varray>
   <i name="volume">   1595.08833419 </i>
   <varray name="rec_basis" >
    <v>       0.05912619      -0.00000000       0.06218673 </v>
    <v>       0.00000000       0.08525260      -0.00000000 </v>
    <v>      -0.05912619       0.00000000       0.06218673 </v>
   </varray>
  </crystal>
  <varray name="positions" >
   <v>       0.26872300       0.24951200       0.20080500 </v>
   <v>       0.77302500       0.24002400       0.72796700 </v>
   <v>       0.71696000       0.76093000       0.25123600 </v>
   <v>       0.20239100       0.75472300       0.78201000 </v>
   <v>       0.28420600       0.24541800       0.73021400 </v>
   <v>       0.79638500       0.24712400       0.22598700 </v>
   <v>       0.73559800       0.75031300       0.80512500 </v>
   <v>       0.22203700       0.75202000       0.27698900 </v>
   <v>       0.00095900       0.00114900       0.00007700 </v>
   <v>       0.50256100       0.00134800       0.49842400 </v>
   <v>       0.49883600       0.00002000       0.99967000 </v>
   <v>       0.00251100       0.00133700       0.49991500 </v>
   <v>       0.49921300       0.49813900       0.00034400 </v>
   <v>       0.00114500       0.50624800       0.50055700 </v>
   <v>       0.00009400       0.49936300       0.00015600 </v>
   <v>       0.48698700       0.49431000       0.50256000 </v>
   <v>       0.47304000       0.74898500       0.96402700 </v>
   <v>       0.96899500       0.75263700       0.45475900 </v>
   <v>       0.97486800       0.25053900       0.97264200 </v>
   <v>       0.46647800       0.24478300       0.46785900 </v>
   <v>       0.01734100       0.75032600       0.03160100 </v>
   <v>       0.52963300       0.24925700       0.03895500 </v>
   <v>       0.01949800       0.25518900       0.53740400 </v>
   <v>       0.24745900       0.46966200       0.94771500 </v>
   <v>       0.45312800       0.53637500       0.25225700 </v>
   <v>       0.94753800       0.53284400       0.74616600 </v>
   <v>       0.54759300       0.02766900       0.75033900 </v>
   <v>       0.05066600       0.03554900       0.25245200 </v>
   <v>       0.75282900       0.98099100       0.04326700 </v>
   <v>       0.25713100       0.95806000       0.54728900 </v>
   <v>       0.24846900       0.03106600       0.94944800 </v>
   <v>       0.74962700       0.03326300       0.44877200 </v>
   <v>       0.45287700       0.95980900       0.24925300 </v>
   <v>       0.95149400       0.96548100       0.74719900 </v>
   <v>       0.75214600       0.52511200       0.05295300 </v>
   <v>       0.24497900       0.54574500       0.55196900 </v>
   <v>       0.54634900       0.45922700       0.75089800 </v>
   <v>       0.05010700       0.46530100       0.25380500 </v>
   <v>       0.65631900       0.62183300       0.49809600 </v>
  </varray>
 </structure>
 <calculation>
  <scstep>
   <time name="dav">   16.62   16.62</time>
   <time name="total">   18.08   18.10</time>
   <energy>
    <i name="alphaZ">    872.70583573 </i>
    <i name="ewald"> -17909.38429778 </i>
    <i name="hartreedc">  -7445.38072667 </i>
    <i name="XCdc">    908.36060951 </i>
    <i name="pawpsdc">  21345.28103884 </i>
    <i name="pawaedc"> -22405.85761495 </i>
    <i name="eentropy">     -0.00173289 </i>
    <i name="bandstr">   -242.27972224 </i>
    <i name="atom">  26212.11861568 </i>
    <i name="e_fr_energy">   1335.56200523 </i>
    <i name="e_wo_entrp">   1335.56373812 </i>
    <i name="e_0_energy">   1335.56287168 </i>
   </energy>
  </scstep>
  <scstep>
   <time name="dav">   18.58   18.63</time>
   <time name="total">   18.58   18.63</time>
   <energy>
    <i name="e_fr_energy">  -1114.93435383 </i>
    <i name="e_wo_entrp">  -1114.93435383 </i>
    <i name="e_0_energy">  -1114.93435383 </i>
   </energy>
  </scstep>
  <scstep>
   <time name="dav">   19.43   19.48</time>
   <time name="total">   19.43   19.48</time>
   <energy>
    <i name="e_fr_energy">  -1474.56142167 </i>
    <i name="e_wo_entrp">  -1474.56142167 </i>
    <i name="e_0_energy">  -1474.56142167 </i>
   </energy>
  </scstep>
  <scstep>
   <time name="dav">   18.04   18.10</time>
   <time name="total">   18.04   18.10</time>
   <energy>
    <i name="e_fr_energy">  -1486.40069074 </i>
    <i name="e_wo_entrp">  -1486.40069074 </i>
    <i name="e_0_energy">  -1486.40069074 </i>
   </energy>
  </scstep>
  <scstep>
   <time name="dav">   19.52   19.53</time>
   <time name="total">   22.24   22.26</time>
   <energy>
    <i name="e_fr_energy">  -1486.92150727 </i>
    <i name="e_wo_entrp">  -1486.92150727 </i>
    <i name="e_0_energy">  -1486.92150727 </i>
   </energy>
  </scstep>
  <scstep>
   <time name="dav">   19.12   19.12</time>
   <time name="total">   23.30   23.34</time>
   <energy>
    <i name="e_fr_energy">  -1409.27934577 </i>
    <i name="e_wo_entrp">  -1409.27934577 </i>
    <i name="e_0_energy">  -1409.27934577 </i>
   </energy>
  </scstep>
  <scstep>
   <time name="dav">   18.51   18.51</time>
   <time name="total">   22.69   22.70</time>
   <energy>
    <i name="e_fr_energy">  -1408.76381331 </i>
    <i name="e_wo_entrp">  -1408.76381331 </i>
    <i name="e_0_energy">  -1408.76381331 </i>
   </energy>
  </scstep>
  <scstep>
   <time name="dav">   18.38   18.38</time>
   <time name="total">   22.58   22.60</time>
   <energy>
    <i name="e_fr_energy">  -1408.93547547 </i>
    <i name="e_wo_entrp">  -1408.93547547 </i>
    <i name="e_0_energy">  -1408.93547547 </i>
   </energy>
  </scstep>
  <scstep>
   <time name="dav">   17.75   17.75</time>
   <time name="total">   21.93   21.96</time>
   <energy>
    <i name="e_fr_energy">  -1408.99933756 </i>
    <i name="e_wo_entrp">  -1408.99933756 </i>
    <i name="e_0_energy">  -1408.99933756 </i>
   </energy>
  </scstep>
  <scstep>
   <time name="dav">   19.82   19.83</time>
   <time name="total">   24.02   24.04</time>
   <energy>
    <i name="e_fr_energy">  -1409.00258450 </i>
    <i name="e_wo_entrp">  -1409.00258450 </i>
    <i name="e_0_energy">  -1409.00258450 </i>
   </energy>
  </scstep>
  <scstep>
   <time name="dav">   17.76   17.77</time>
   <time name="total">   21.98   21.99</time>
   <energy>
    <i name="e_fr_energy">  -1409.00488560 </i>
    <i name="e_wo_entrp">  -1409.00488560 </i>
    <i name="e_0_energy">  -1409.00488560 </i>
   </energy>
  </scstep>
  <scstep>
   <time name="dav">   17.11   17.11</time>
   <time name="total">   21.33   21.33</time>
   <energy>
    <i name="e_fr_energy">  -1409.00753185 </i>
    <i name="e_wo_entrp">  -1409.00753185 </i>
    <i name="e_0_energy">  -1409.00753185 </i>
   </energy>
  </scstep>
  <scstep>
   <time name="dav">   19.27   19.27</time>
   <time name="total">   23.45   23.50</time>
   <energy>
    <i name="e_fr_energy">  -1409.00711411 </i>
    <i name="e_wo_entrp">  -1409.00711411 </i>
    <i name="e_0_energy">  -1409.00711411 </i>
   </energy>
  </scstep>
  <scstep>
   <time name="dav">   17.96   17.96</time>
   <time name="total">   22.15   22.18</time>
   <energy>
    <i name="e_fr_energy">  -1409.00709250 </i>
    <i name="e_wo_entrp">  -1409.00709250 </i>
    <i name="e_0_energy">  -1409.00709250 </i>
   </energy>
  </scstep>
  <scstep>
   <time name="dav">   17.31   17.31</time>
   <time name="total">   21.49   21.52</time>
   <energy>
    <i name="e_fr_energy">  -1409.00707343 </i>
    <i name="e_wo_entrp">  -1409.00707343 </i>
    <i name="e_0_energy">  -1409.00707343 </i>
   </energy>
  </scstep>
  <scstep>
   <time name="dav">   17.66   17.66</time>
   <time name="total">   21.83   21.89</time>
   <energy>
    <i name="e_fr_energy">  -1409.00715339 </i>
    <i name="e_wo_entrp">  -1409.00715339 </i>
    <i name="e_0_energy">  -1409.00715339 </i>
   </energy>
  </scstep>
  <scstep>
   <time name="dav">   17.03   17.03</time>
   <time name="total">   21.24   21.27</time>
   <energy>
    <i name="e_fr_energy">  -1409.00714382 </i>
    <i name="e_wo_entrp">  -1409.00714382 </i>
    <i name="e_0_energy">  -1409.00714382 </i>
   </energy>
  </scstep>
  <scstep>
   <time name="dav">   15.06   15.06</time>
   <time name="total">   16.57   16.57</time>
   <energy>
    <i name="alphaZ">    872.70583573 </i>
    <i name="ewald"> -17909.38429778 </i>
    <i name="hartreedc">  -7481.33026476 </i>
    <i name="XCdc">    944.01866572 </i>
    <i name="pawpsdc">  22830.94044322 </i>
    <i name="pawaedc"> -23890.09314584 </i>
    <i name="eentropy">     -0.00000000 </i>
    <i name="bandstr">  -2987.98299620 </i>
    <i name="atom">  26212.11861568 </i>
    <i name="e_fr_energy">  -1409.00714423 </i>
    <i name="e_wo_entrp">  -1409.00714423 </i>
    <i name="e_0_energy">  -1409.00714423 </i>
   </energy>
  </scstep>
  <structure>
   <crystal>
    <varray name="basis" >
     <v>       8.45648900       0.00000000       8.04030100 </v>
     <v>       0.00000000      11.72984700       0.00000000 </v>
     <v>      -8.45648900       0.00000000       8.04030100 </v>
    </varray>
    <i name="volume">   1595.08833419 </i>
    <varray name="rec_basis" >
     <v>       0.05912619      -0.00000000       0.06218673 </v>
     <v>       0.00000000       0.08525260      -0.00000000 </v>
     <v>      -0.05912619       0.00000000       0.06218673 </v>
    </varray>
   </crystal>
   <varray name="positions" >
    <v>       0.26872300       0.24951200       0.20080500 </v>
    <v>       0.77302500       0.24002400       0.72796700 </v>
    <v>       0.71696000       0.76093000       0.25123600 </v>
    <v>       0.20239100       0.75472300       0.78201000 </v>
    <v>       0.28420600       0.24541800       0.73021400 </v>
    <v>       0.79638500       0.24712400       0.22598700 </v>
    <v>       0.73559800       0.75031300       0.80512500 </v>
    <v>       0.22203700       0.75202000       0.27698900 </v>
    <v>       0.00095900       0.00114900       0.00007700 </v>
    <v>       0.50256100       0.00134800       0.49842400 </v>
    <v>       0.49883600       0.00002000       0.99967000 </v>
    <v>       0.00251100       0.00133700       0.49991500 </v>
    <v>       0.49921300       0.49813900       0.00034400 </v>
    <v>       0.00114500       0.50624800       0.50055700 </v>
    <v>       0.00009400       0.49936300       0.00015600 </v>
    <v>       0.48698700       0.49431000       0.50256000 </v>
    <v>       0.47304000       0.74898500       0.96402700 </v>
    <v>       0.96899500       0.75263700       0.45475900 </v>
    <v>       0.97486800       0.25053900       0.97264200 </v>
    <v>       0.46647800       0.24478300       0.46785900 </v>
    <v>       0.01734100       0.75032600       0.03160100 </v>
    <v>       0.52963300       0.24925700       0.03895500 </v>
    <v>       0.01949800       0.25518900       0.53740400 </v>
    <v>       0.24745900       0.46966200       0.94771500 </v>
    <v>       0.45312800       0.53637500       0.25225700 </v>
    <v>       0.94753800       0.53284400       0.74616600 </v>
    <v>       0.54759300       0.02766900       0.75033900 </v>
    <v>       0.05066600       0.03554900       0.25245200 </v>
    <v>       0.75282900       0.98099100       0.04326700 </v>
    <v>       0.25713100       0.95806000       0.54728900 </v>
    <v>       0.24846900       0.03106600       0.94944800 </v>
    <v>       0.74962700       0.03326300       0.44877200 </v>
    <v>       0.45287700       0.95980900       0.24925300 </v>
    <v>       0.95149400       0.96548100       0.74719900 </v>
    <v>       0.75214600       0.52511200       0.05295300 </v>
    <v>       0.24497900       0.54574500       0.55196900 </v>
    <v>       0.54634900       0.45922700       0.75089800 </v>
    <v>       0.05010700       0.46530100       0.25380500 </v>
    <v>       0.65631900       0.62183300       0.49809600 </v>
   </varray>
  </structure>
  <varray name="forces" >
   <v>       0.01566055       0.02037145       0.02383754 </v>
   <v>      -0.04034698       0.00267153       0.00679247 </v>
   <v>       0.18085167       0.11708357      -0.13592112 </v>
   <v>      -0.00686684      -0.01395106      -0.01154403 </v>
   <v>       0.03656382       0.02947312       0.00455537 </v>
   <v>       0.01291793      -0.00338310      -0.01504101 </v>
   <v>       0.02095474      -0.04235358      -0.02775479 </v>
   <v>      -0.00536441      -0.02912461      -0.00366702 </v>
   <v>      -0.00066265      -0.00146481       0.00206385 </v>
   <v>      -0.00322645       0.29441298      -0.10164770 </v>
   <v>      -0.00746207       0.00618429       0.00095706 </v>
   <v>      -0.00767478      -0.04121168      -0.00766980 </v>
   <v>      -0.01020320       0.00663982      -0.00629310 </v>
   <v>       0.14680130       0.11716748       0.25306046 </v>
   <v>       0.01475473       0.00150685       0.01006683 </v>
   <v>      -1.37759114      -1.47941209      -1.33592769 </v>
   <v>       0.00937644       0.02241122      -0.00175981 </v>
   <v>       0.01324335       0.01466523       0.00576385 </v>
   <v>      -0.00622960      -0.00342744      -0.00441723 </v>
   <v>       0.07667463      -0.67740027       0.08293128 </v>
   <v>      -0.00073422       0.00435380      -0.00657961 </v>
   <v>       0.00074652      -0.02600434       0.01116728 </v>
   <v>      -0.00866233      -0.00117784      -0.01337798 </v>
   <v>      -0.01527602       0.00058639      -0.01458034 </v>
   <v>       0.09445111      -0.01366912      -0.18040170 </v>
   <v>      -0.00155479      -0.00364274      -0.02540872 </v>
   <v>       0.02067221      -0.00582543      -0.00697914 </v>
   <v>      -0.01038332       0.00617574       0.00472703 </v>
   <v>       0.01037032       0.00826312      -0.00210649 </v>
   <v>       0.00478307       0.00096248       0.00685359 </v>
   <v>      -0.00454097      -0.00951424       0.00161279 </v>
   <v>      -0.01667751       0.01577268      -0.00912720 </v>
   <v>      -0.00607595      -0.00792812       0.00763768 </v>
   <v>       0.00218187      -0.00252513      -0.00691895 </v>
   <v>       0.01651628      -0.00432748       0.02590392 </v>
   <v>      -0.48422934       0.08174550      -0.44151255 </v>
   <v>      -0.13502311      -0.03510930       0.13054945 </v>
   <v>      -0.02029132      -0.00611883       0.00138437 </v>
   <v>       1.49155646       1.65712395       1.77877112 </v>
  </varray>
  <varray name="stress" >
   <v>      -3.47216129       2.91941320       1.71206131 </v>
   <v>       2.91940185      -2.42624578       1.60998918 </v>
   <v>       1.71209054       1.61009090      -3.66711917 </v>
  </varray>
  <energy>
   <i name="e_fr_energy">  -1409.00714423 </i>
   <i name="e_wo_entrp">  -1409.00714423 </i>
   <i name="e_0_energy">     -0.00000000 </i>
  </energy>
  <time name="totalsc">  436.31  436.85</time>
  <eigenvalues>
   <array>
    <dimension dim="1">band</dimension>
    <dimension dim="2">kpoint</dimension>
    <dimension dim="3">spin</dimension>
    <field>eigene</field>
    <field>occ</field>
    <set>
     <set comment="spin 1">
      <set comment="kpoint 1">
       <r>  -20.9049    1.0000 </r>
       <r>  -20.8232    1.0000 </r>
       <r>  -20.7937    1.0000 </r>
       <r>  -20.7814    1.0000 </r>
       <r>  -20.7277    1.0000 </r>
       <r>  -20.7242    1.0000 </r>
       <r>  -20.7129    1.0000 </r>
       <r>  -20.7071    1.0000 </r>
       <r>  -16.7051    1.0000 </r>
       <r>  -16.6959    1.0000 </r>
       <r>  -16.6851    1.0000 </r>
       <r>  -16.6766    1.0000 </r>
       <r>  -16.6614    1.0000 </r>
       <r>  -16.5963    1.0000 </r>
       <r>  -16.5938    1.0000 </r>
       <r>  -16.5862    1.0000 </r>
       <r>  -16.5775    1.0000 </r>
       <r>  -16.5524    1.0000 </r>
       <r>  -16.5408    1.0000 </r>
       <r>  -16.4568    1.0000 </r>
       <r>  -16.4500    1.0000 </r>
       <r>  -16.4403    1.0000 </r>
       <r>  -16.4215    1.0000 </r>
       <r>  -16.4116    1.0000 </r>
       <r>  -16.4105    1.0000 </r>
       <r>  -16.3998    1.0000 </r>
       <r>  -16.3737    1.0000 </r>
       <r>  -16.3675    1.0000 </r>
       <r>  -16.3605    1.0000 </r>
       <r>  -16.3405    1.0000 </r>
       <r>  -16.3316    1.0000 </r>
       <r>  -16.3289    1.0000 </r>
       <r>  -16.3244    1.0000 </r>
       <r>  -16.3198    1.0000 </r>
       <r>  -16.3173    1.0000 </r>
       <r>  -16.2937    1.0000 </r>
       <r>  -16.2896    1.0000 </r>
       <r>  -16.2867    1.0000 </r>
       <r>  -16.2811    1.0000 </r>
       <r>  -16.2772    1.0000 </r>
       <r>  -16.2725    1.0000 </r>
       <r>  -16.2719    1.0000 </r>
       <r>  -16.2701    1.0000 </r>
       <r>  -16.2611    1.0000 </r>
       <r>  -16.2309    1.0000 </r>
       <r>  -16.2264    1.0000 </r>
       <r>  -16.2180    1.0000 </r>
       <r>  -16.2128    1.0000 </r>
       <r>  -14.5306    1.0000 </r>
       <r>  -14.3852    1.0000 </r>
       <r>  -14.3186    1.0000 </r>
       <r>  -14.2821    1.0000 </r>
       <r>  -14.1461    1.0000 </r>
       <r>  -14.1159    1.0000 </r>
       <r>  -14.1141    1.0000 </r>
       <r>  -14.0726    1.0000 </r>
       <r>  -14.0685    1.0000 </r>
       <r>  -14.0581    1.0000 </r>
       <r>  -14.0394    1.0000 </r>
       <r>  -14.0373    1.0000 </r>
       <r>  -14.0253    1.0000 </r>
       <r>  -14.0043    1.0000 </r>
       <r>  -13.9959    1.0000 </r>
       <r>  -13.9728    1.0000 </r>
       <r>  -13.9280    1.0000 </r>
       <r>  -13.9016    1.0000 </r>
       <r>  -13.8958    1.0000 </r>
       <r>  -13.7765    1.0000 </r>
       <r>  -13.7606    1.0000 </r>
       <r>  -13.7196    1.0000 </r>
       <r>  -13.6808    1.0000 </r>
       <r>   -8.2012    1.0000 </r>
       <r>   -7.7834    1.0000 </r>
       <r>   -7.7476    1.0000 </r>
       <r>   -7.7089    1.0000 </r>
       <r>   -7.3697    1.0000 </r>
       <r>   -7.3268    1.0000 </r>
       <r>   -7.2923    1.0000 </r>
       <r>   -7.2792    1.0000 </r>
       <r>   -7.2587    1.0000 </r>
       <r>   -7.2478    1.0000 </r>
       <r>   -7.2156    1.0000 </r>
       <r>   -7.2079    1.0000 </r>
       <r>   -7.2030    1.0000 </r>
       <r>   -7.1932    1.0000 </r>
       <r>   -7.1836    1.0000 </r>
       <r>   -7.1774    1.0000 </r>
       <r>   -7.1727    1.0000 </r>
       <r>   -7.1687    1.0000 </r>
       <r>   -7.1602    1.0000 </r>
       <r>   -7.1522    1.0000 </r>
       <r>   -7.1432    1.0000 </r>
       <r>   -7.1342    1.0000 </r>
       <r>   -7.1269    1.0000 </r>
       <r>   -7.1180    1.0000 </r>
       <r>   -7.1161    1.0000 </r>
       <r>   -7.1093    1.0000 </r>
       <r>   -7.1030    1.0000 </r>
       <r>   -7.0988    1.0000 </r>
       <r>   -7.0852    1.0000 </r>
       <r>   -7.0773    1.0000 </r>
       <r>   -7.0539    1.0000 </r>
       <r>   -6.5826    1.0000 </r>
       <r>   -3.3872    1.0000 </r>
       <r>   -3.3243    1.0000 </r>
       <r>   -3.2820    1.0000 </r>
       <r>   -3.2620    1.0000 </r>
       <r>   -3.2507    1.0000 </r>
       <r>   -3.2165    1.0000 </r>
       <r>   -3.1887    1.0000 </r>
       <r>   -3.1718    1.0000 </r>
       <r>   -3.1605    1.0000 </r>
       <r>   -3.0793    1.0000 </r>
       <r>   -3.0411    1.0000 </r>
       <r>   -2.8664    1.0000 </r>
       <r>   -2.2515    1.0000 </r>
       <r>   -2.1902    1.0000 </r>
       <r>   -2.1424    1.0000 </r>
       <r>   -2.1223    1.0000 </r>
       <r>   -2.0405    1.0000 </r>
       <r>   -2.0037    1.0000 </r>
       <r>   -1.9428    1.0000 </r>
       <r>   -1.8994    1.0000 </r>
       <r>   -1.8984    1.0000 </r>
       <r>   -1.8522    1.0000 </r>
       <r>   -1.8098    1.0000 </r>
       <r>   -1.7570    1.0000 </r>
       <r>   -1.7086    1.0000 </r>
       <r>   -1.6650    1.0000 </r>
       <r>   -1.6590    1.0000 </r>
       <r>   -1.6149    1.0000 </r>
       <r>   -1.5833    1.0000 </r>
       <r>   -1.5434    1.0000 </r>
       <r>   -1.5371    1.0000 </r>
       <r>   -1.5183    1.0000 </r>
       <r>   -1.5092    1.0000 </r>
       <r>   -1.4869    1.0000 </r>
       <r>   -1.4745    1.0000 </r>
       <r>   -1.4587    1.0000 </r>
       <r>   -1.4490    1.0000 </r>
       <r>   -1.4300    1.0000 </r>
       <r>   -1.4242    1.0000 </r>
       <r>   -1.4156    1.0000 </r>
       <r>   -1.3887    1.0000 </r>
       <r>   -1.3747    1.0000 </r>
       <r>   -1.3623    1.0000 </r>
       <r>   -1.3568    1.0000 </r>
       <r>   -1.3363    1.0000 </r>
       <r>   -1.3249    1.0000 </r>
       <r>   -1.3221    1.0000 </r>
       <r>   -1.3077    1.0000 </r>
       <r>   -1.3014    1.0000 </r>
       <r>   -1.2943    1.0000 </r>
       <r>   -1.2701    1.0000 </r>
       <r>   -1.2304    1.0000 </r>
       <r>   -1.1853    1.0000 </r>
       <r>   -1.1785    1.0000 </r>
       <r>   -1.1500    1.0000 </r>
       <r>   -1.1426    1.0000 </r>
       <r>   -1.1112    1.0000 </r>
       <r>   -1.0476    1.0000 </r>
       <r>   -1.0317    1.0000 </r>
       <r>   -0.9828    1.0000 </r>
       <r>   -0.9612    1.0000 </r>
       <r>   -0.8688    1.0000 </r>
       <r>   -0.7978    1.0000 </r>
       <r>   -0.7519    1.0000 </r>
       <r>   -0.5800    1.0000 </r>
       <r>   -0.2625    1.0000 </r>
       <r>   -0.2242    1.0000 </r>
       <r>   -0.0779    1.0000 </r>
       <r>    0.4037    1.0000 </r>
       <r>    2.6415    0.0000 </r>
       <r>    2.7431    0.0000 </r>
       <r>    2.8421    0.0000 </r>
       <r>    2.9285    0.0000 </r>
       <r>    3.0828    0.0000 </r>
       <r>    3.1015    0.0000 </r>
       <r>    3.1659    0.0000 </r>
       <r>    3.2070    0.0000 </r>
       <r>    3.3051    0.0000 </r>
       <r>    3.4553    0.0000 </r>
       <r>    3.5317    0.0000 </r>
       <r>    3.5631    0.0000 </r>
       <r>    4.2479    0.0000 </r>
       <r>    4.8095    0.0000 </r>
       <r>    5.4316    0.0000 </r>
       <r>    5.4984    0.0000 </r>
       <r>    5.6934    0.0000 </r>
       <r>    5.7749    0.0000 </r>
       <r>    5.8239    0.0000 </r>
       <r>    5.8705    0.0000 </r>
       <r>    5.9026    0.0000 </r>
       <r>    5.9592    0.0000 </r>
       <r>    5.9996    0.0000 </r>
       <r>    6.0413    0.0000 </r>
       <r>    6.1295    0.0000 </r>
       <r>    6.1521    0.0000 </r>
       <r>    6.2047    0.0000 </r>
       <r>    6.2341    0.0000 </r>
       <r>    6.2861    0.0000 </r>
       <r>    6.3877    0.0000 </r>
       <r>    6.3921    0.0000 </r>
       <r>    6.4320    0.0000 </r>
       <r>    6.5173    0.0000 </r>
       <r>    6.5722    0.0000 </r>
       <r>    6.6226    0.0000 </r>
       <r>    6.6636    0.0000 </r>
      </set>
      <set comment="kpoint 2">
       <r>  -20.9049    1.0000 </r>
       <r>  -20.8232    1.0000 </r>
       <r>  -20.7937    1.0000 </r>
       <r>  -20.7814    1.0000 </r>
       <r>  -20.7277    1.0000 </r>
       <r>  -20.7242    1.0000 </r>
       <r>  -20.7129    1.0000 </r>
       <r>  -20.7071    1.0000 </r>
       <r>  -16.7027    1.0000 </r>
       <r>  -16.6978    1.0000 </r>
       <r>  -16.6848    1.0000 </r>
       <r>  -16.6766    1.0000 </r>
       <r>  -16.6590    1.0000 </r>
       <r>  -16.5963    1.0000 </r>
       <r>  -16.5938    1.0000 </r>
       <r>  -16.5862    1.0000 </r>
       <r>  -16.5775    1.0000 </r>
       <r>  -16.5524    1.0000 </r>
       <r>  -16.5409    1.0000 </r>
       <r>  -16.4567    1.0000 </r>
       <r>  -16.4451    1.0000 </r>
       <r>  -16.4415    1.0000 </r>
       <r>  -16.4168    1.0000 </r>
       <r>  -16.4082    1.0000 </r>
       <r>  -16.4003    1.0000 </r>
       <r>  -16.3949    1.0000 </r>
       <r>  -16.3814    1.0000 </r>
       <r>  -16.3736    1.0000 </r>
       <r>  -16.3654    1.0000 </r>
       <r>  -16.3405    1.0000 </r>
       <r>  -16.3355    1.0000 </r>
       <r>  -16.3316    1.0000 </r>
       <r>  -16.3289    1.0000 </r>
       <r>  -16.3215    1.0000 </r>
       <r>  -16.3182    1.0000 </r>
       <r>  -16.2938    1.0000 </r>
       <r>  -16.2897    1.0000 </r>
       <r>  -16.2867    1.0000 </r>
       <r>  -16.2811    1.0000 </r>
       <r>  -16.2772    1.0000 </r>
       <r>  -16.2725    1.0000 </r>
       <r>  -16.2718    1.0000 </r>
       <r>  -16.2702    1.0000 </r>
       <r>  -16.2612    1.0000 </r>
       <r>  -16.2309    1.0000 </r>
       <r>  -16.2264    1.0000 </r>
       <r>  -16.2180    1.0000 </r>
       <r>  -16.2128    1.0000 </r>
       <r>  -14.5223    1.0000 </r>
       <r>  -14.3785    1.0000 </r>
       <r>  -14.3517    1.0000 </r>
       <r>  -14.2553    1.0000 </r>
       <r>  -14.2012    1.0000 </r>
       <r>  -14.1394    1.0000 </r>
       <r>  -14.1122    1.0000 </r>
       <r>  -14.0810    1.0000 </r>
       <r>  -14.0666    1.0000 </r>
       <r>  -14.0546    1.0000 </r>
       <r>  -14.0479    1.0000 </r>
       <r>  -14.0356    1.0000 </r>
       <r>  -14.0073    1.0000 </r>
       <r>  -13.9982    1.0000 </r>
       <r>  -13.9870    1.0000 </r>
       <r>  -13.9197    1.0000 </r>
       <r>  -13.9002    1.0000 </r>
       <r>  -13.8602    1.0000 </r>
       <r>  -13.8540    1.0000 </r>
       <r>  -13.8233    1.0000 </r>
       <r>  -13.7788    1.0000 </r>
       <r>  -13.7639    1.0000 </r>
       <r>  -13.6868    1.0000 </r>
       <r>   -8.0395    1.0000 </r>
       <r>   -7.9674    1.0000 </r>
       <r>   -7.6441    1.0000 </r>
       <r>   -7.5120    1.0000 </r>
       <r>   -7.4819    1.0000 </r>
       <r>   -7.4342    1.0000 </r>
       <r>   -7.3377    1.0000 </r>
       <r>   -7.2915    1.0000 </r>
       <r>   -7.2742    1.0000 </r>
       <r>   -7.2543    1.0000 </r>
       <r>   -7.2170    1.0000 </r>
       <r>   -7.2107    1.0000 </r>
       <r>   -7.2049    1.0000 </r>
       <r>   -7.1980    1.0000 </r>
       <r>   -7.1948    1.0000 </r>
       <r>   -7.1784    1.0000 </r>
       <r>   -7.1726    1.0000 </r>
       <r>   -7.1650    1.0000 </r>
       <r>   -7.1586    1.0000 </r>
       <r>   -7.1463    1.0000 </r>
       <r>   -7.1413    1.0000 </r>
       <r>   -7.1338    1.0000 </r>
       <r>   -7.1294    1.0000 </r>
       <r>   -7.1229    1.0000 </r>
       <r>   -7.1174    1.0000 </r>
       <r>   -7.1082    1.0000 </r>
       <r>   -7.1054    1.0000 </r>
       <r>   -7.0945    1.0000 </r>
       <r>   -7.0900    1.0000 </r>
       <r>   -7.0845    1.0000 </r>
       <r>   -6.9234    1.0000 </r>
       <r>   -6.8539    1.0000 </r>
       <r>   -3.3649    1.0000 </r>
       <r>   -3.2929    1.0000 </r>
       <r>   -3.2530    1.0000 </r>
       <r>   -3.2419    1.0000 </r>
       <r>   -3.2214    1.0000 </r>
       <r>   -3.1524    1.0000 </r>
       <r>   -3.1364    1.0000 </r>
       <r>   -3.1055    1.0000 </r>
       <r>   -2.9382    1.0000 </r>
       <r>   -2.5545    1.0000 </r>
       <r>   -2.5173    1.0000 </r>
       <r>   -2.4752    1.0000 </r>
       <r>   -2.4338    1.0000 </r>
       <r>   -2.3722    1.0000 </r>
       <r>   -2.3392    1.0000 </r>
       <r>   -2.1491    1.0000 </r>
       <r>   -2.1011    1.0000 </r>
       <r>   -2.0721    1.0000 </r>
       <r>   -2.0467    1.0000 </r>
       <r>   -2.0250    1.0000 </r>
       <r>   -2.0092    1.0000 </r>
       <r>   -1.9604    1.0000 </r>
       <r>   -1.8955    1.0000 </r>
       <r>   -1.8455    1.0000 </r>
       <r>   -1.7994    1.0000 </r>
       <r>   -1.7921    1.0000 </r>
       <r>   -1.7483    1.0000 </r>
       <r>   -1.6678    1.0000 </r>
       <r>   -1.6419    1.0000 </r>
       <r>   -1.5849    1.0000 </r>
       <r>   -1.5690    1.0000 </r>
       <r>   -1.5409    1.0000 </r>
       <r>   -1.5064    1.0000 </r>
       <r>   -1.4800    1.0000 </r>
       <r>   -1.4737    1.0000 </r>
       <r>   -1.4621    1.0000 </r>
       <r>   -1.4401    1.0000 </r>
       <r>   -1.4345    1.0000 </r>
       <r>   -1.4161    1.0000 </r>
       <r>   -1.4038    1.0000 </r>
       <r>   -1.3894    1.0000 </r>
       <r>   -1.3763    1.0000 </r>
       <r>   -1.3742    1.0000 </r>
       <r>   -1.3591    1.0000 </r>
       <r>   -1.3336    1.0000 </r>
       <r>   -1.3264    1.0000 </r>
       <r>   -1.2948    1.0000 </r>
       <r>   -1.2827    1.0000 </r>
       <r>   -1.2713    1.0000 </r>
       <r>   -1.2702    1.0000 </r>
       <r>   -1.2382    1.0000 </r>
       <r>   -1.2175    1.0000 </r>
       <r>   -1.1970    1.0000 </r>
       <r>   -1.1862    1.0000 </r>
       <r>   -1.1656    1.0000 </r>
       <r>   -1.1604    1.0000 </r>
       <r>   -1.1148    1.0000 </r>
       <r>   -1.0941    1.0000 </r>
       <r>   -1.0656    1.0000 </r>
       <r>   -1.0473    1.0000 </r>
       <r>   -0.9600    1.0000 </r>
       <r>   -0.8786    1.0000 </r>
       <r>   -0.8775    1.0000 </r>
       <r>   -0.6848    1.0000 </r>
       <r>   -0.6291    1.0000 </r>
       <r>   -0.5351    1.0000 </r>
       <r>   -0.3565    1.0000 </r>
       <r>   -0.0280    1.0000 </r>
       <r>    0.0977    1.0000 </r>
       <r>    2.5308    0.0000 </r>
       <r>    2.9180    0.0000 </r>
       <r>    2.9268    0.0000 </r>
       <r>    2.9835    0.0000 </r>
       <r>    3.1811    0.0000 </r>
       <r>    3.2851    0.0000 </r>
       <r>    3.3264    0.0000 </r>
       <r>    3.3833    0.0000 </r>
       <r>    3.4411    0.0000 </r>
       <r>    4.0787    0.0000 </r>
       <r>    4.3256    0.0000 </r>
       <r>    4.3736    0.0000 </r>
       <r>    4.5378    0.0000 </r>
       <r>    4.5722    0.0000 </r>
       <r>    4.8203    0.0000 </r>
       <r>    4.8455    0.0000 </r>
       <r>    5.3488    0.0000 </r>
       <r>    5.4507    0.0000 </r>
       <r>    5.6012    0.0000 </r>
       <r>    5.6857    0.0000 </r>
       <r>    5.7782    0.0000 </r>
       <r>    5.8937    0.0000 </r>
       <r>    5.9383    0.0000 </r>
       <r>    6.0236    0.0000 </r>
       <r>    6.0724    0.0000 </r>
       <r>    6.1438    0.0000 </r>
       <r>    6.1810    0.0000 </r>
       <r>    6.2079    0.0000 </r>
       <r>    6.2885    0.0000 </r>
       <r>    6.3377    0.0000 </r>
       <r>    6.3552    0.0000 </r>
       <r>    6.4222    0.0000 </r>
       <r>    6.4720    0.0000 </r>
       <r>    6.4819    0.0000 </r>
       <r>    6.5738    0.0000 </r>
       <r>    6.6307    0.0000 </r>
      </set>
      <set comment="kpoint 3">
       <r>  -20.9049    1.0000 </r>
       <r>  -20.8232    1.0000 </r>
       <r>  -20.7937    1.0000 </r>
       <r>  -20.7814    1.0000 </r>
       <r>  -20.7277    1.0000 </r>
       <r>  -20.7242    1.0000 </r>
       <r>  -20.7129    1.0000 </r>
       <r>  -20.7071    1.0000 </r>
       <r>  -16.7045    1.0000 </r>
       <r>  -16.6945    1.0000 </r>
       <r>  -16.6857    1.0000 </r>
       <r>  -16.6744    1.0000 </r>
       <r>  -16.6615    1.0000 </r>
       <r>  -16.5963    1.0000 </r>
       <r>  -16.5938    1.0000 </r>
       <r>  -16.5862    1.0000 </r>
       <r>  -16.5775    1.0000 </r>
       <r>  -16.5524    1.0000 </r>
       <r>  -16.5409    1.0000 </r>
       <r>  -16.4563    1.0000 </r>
       <r>  -16.4422    1.0000 </r>
       <r>  -16.4310    1.0000 </r>
       <r>  -16.4211    1.0000 </r>
       <r>  -16.4103    1.0000 </r>
       <r>  -16.4034    1.0000 </r>
       <r>  -16.3979    1.0000 </r>
       <r>  -16.3878    1.0000 </r>
       <r>  -16.3736    1.0000 </r>
       <r>  -16.3588    1.0000 </r>
       <r>  -16.3404    1.0000 </r>
       <r>  -16.3398    1.0000 </r>
       <r>  -16.3316    1.0000 </r>
       <r>  -16.3289    1.0000 </r>
       <r>  -16.3201    1.0000 </r>
       <r>  -16.3178    1.0000 </r>
       <r>  -16.2937    1.0000 </r>
       <r>  -16.2896    1.0000 </r>
       <r>  -16.2867    1.0000 </r>
       <r>  -16.2811    1.0000 </r>
       <r>  -16.2772    1.0000 </r>
       <r>  -16.2725    1.0000 </r>
       <r>  -16.2718    1.0000 </r>
       <r>  -16.2701    1.0000 </r>
       <r>  -16.2611    1.0000 </r>
       <r>  -16.2309    1.0000 </r>
       <r>  -16.2264    1.0000 </r>
       <r>  -16.2180    1.0000 </r>
       <r>  -16.2128    1.0000 </r>
       <r>  -14.5269    1.0000 </r>
       <r>  -14.3808    1.0000 </r>
       <r>  -14.3317    1.0000 </r>
       <r>  -14.2732    1.0000 </r>
       <r>  -14.2029    1.0000 </r>
       <r>  -14.1458    1.0000 </r>
       <r>  -14.1006    1.0000 </r>
       <r>  -14.0724    1.0000 </r>
       <r>  -14.0628    1.0000 </r>
       <r>  -14.0580    1.0000 </r>
       <r>  -14.0377    1.0000 </r>
       <r>  -14.0370    1.0000 </r>
       <r>  -14.0139    1.0000 </r>
       <r>  -14.0015    1.0000 </r>
       <r>  -13.9749    1.0000 </r>
       <r>  -13.9306    1.0000 </r>
       <r>  -13.9005    1.0000 </r>
       <r>  -13.8632    1.0000 </r>
       <r>  -13.8596    1.0000 </r>
       <r>  -13.8240    1.0000 </r>
       <r>  -13.7772    1.0000 </r>
       <r>  -13.7638    1.0000 </r>
       <r>  -13.6862    1.0000 </r>
       <r>   -8.0367    1.0000 </r>
       <r>   -7.9450    1.0000 </r>
       <r>   -7.6578    1.0000 </r>
       <r>   -7.5094    1.0000 </r>
       <r>   -7.4646    1.0000 </r>
       <r>   -7.4481    1.0000 </r>
       <r>   -7.3401    1.0000 </r>
       <r>   -7.2924    1.0000 </r>
       <r>   -7.2748    1.0000 </r>
       <r>   -7.2539    1.0000 </r>
       <r>   -7.2173    1.0000 </r>
       <r>   -7.2052    1.0000 </r>
       <r>   -7.2020    1.0000 </r>
       <r>   -7.1911    1.0000 </r>
       <r>   -7.1903    1.0000 </r>
       <r>   -7.1853    1.0000 </r>
       <r>   -7.1752    1.0000 </r>
       <r>   -7.1649    1.0000 </r>
       <r>   -7.1567    1.0000 </r>
       <r>   -7.1479    1.0000 </r>
       <r>   -7.1392    1.0000 </r>
       <r>   -7.1325    1.0000 </r>
       <r>   -7.1290    1.0000 </r>
       <r>   -7.1165    1.0000 </r>
       <r>   -7.1154    1.0000 </r>
       <r>   -7.1103    1.0000 </r>
       <r>   -7.1036    1.0000 </r>
       <r>   -7.0989    1.0000 </r>
       <r>   -7.0905    1.0000 </r>
       <r>   -7.0872    1.0000 </r>
       <r>   -6.9648    1.0000 </r>
       <r>   -6.8727    1.0000 </r>
       <r>   -3.2972    1.0000 </r>
       <r>   -3.2703    1.0000 </r>
       <r>   -3.2545    1.0000 </r>
       <r>   -3.2243    1.0000 </r>
       <r>   -3.1632    1.0000 </r>
       <r>   -3.1457    1.0000 </r>
       <r>   -3.1295    1.0000 </r>
       <r>   -3.1145    1.0000 </r>
       <r>   -2.9387    1.0000 </r>
       <r>   -2.5193    1.0000 </r>
       <r>   -2.4913    1.0000 </r>
       <r>   -2.4537    1.0000 </r>
       <r>   -2.4203    1.0000 </r>
       <r>   -2.3844    1.0000 </r>
       <r>   -2.3631    1.0000 </r>
       <r>   -2.2137    1.0000 </r>
       <r>   -2.1223    1.0000 </r>
       <r>   -2.0533    1.0000 </r>
       <r>   -2.0357    1.0000 </r>
       <r>   -2.0136    1.0000 </r>
       <r>   -1.9996    1.0000 </r>
       <r>   -1.9606    1.0000 </r>
       <r>   -1.9088    1.0000 </r>
       <r>   -1.8587    1.0000 </r>
       <r>   -1.8354    1.0000 </r>
       <r>   -1.7995    1.0000 </r>
       <r>   -1.7266    1.0000 </r>
       <r>   -1.6930    1.0000 </r>
       <r>   -1.6636    1.0000 </r>
       <r>   -1.6294    1.0000 </r>
       <r>   -1.5578    1.0000 </r>
       <r>   -1.5546    1.0000 </r>
       <r>   -1.5488    1.0000 </r>
       <r>   -1.4917    1.0000 </r>
       <r>   -1.4887    1.0000 </r>
       <r>   -1.4462    1.0000 </r>
       <r>   -1.4255    1.0000 </r>
       <r>   -1.4195    1.0000 </r>
       <r>   -1.3968    1.0000 </r>
       <r>   -1.3935    1.0000 </r>
       <r>   -1.3816    1.0000 </r>
       <r>   -1.3752    1.0000 </r>
       <r>   -1.3551    1.0000 </r>
       <r>   -1.3503    1.0000 </r>
       <r>   -1.3378    1.0000 </r>
       <r>   -1.3329    1.0000 </r>
       <r>   -1.3148    1.0000 </r>
       <r>   -1.2969    1.0000 </r>
       <r>   -1.2911    1.0000 </r>
       <r>   -1.2455    1.0000 </r>
       <r>   -1.2213    1.0000 </r>
       <r>   -1.2140    1.0000 </r>
       <r>   -1.1861    1.0000 </r>
       <r>   -1.1666    1.0000 </r>
       <r>   -1.1502    1.0000 </r>
       <r>   -1.1183    1.0000 </r>
       <r>   -1.1139    1.0000 </r>
       <r>   -1.0883    1.0000 </r>
       <r>   -1.0805    1.0000 </r>
       <r>   -1.0610    1.0000 </r>
       <r>   -1.0055    1.0000 </r>
       <r>   -0.8755    1.0000 </r>
       <r>   -0.8669    1.0000 </r>
       <r>   -0.7203    1.0000 </r>
       <r>   -0.6398    1.0000 </r>
       <r>   -0.6160    1.0000 </r>
       <r>   -0.4078    1.0000 </r>
       <r>   -0.0557    1.0000 </r>
       <r>    0.0473    1.0000 </r>
       <r>    2.6743    0.0000 </r>
       <r>    2.8506    0.0000 </r>
       <r>    2.9859    0.0000 </r>
       <r>    3.0675    0.0000 </r>
       <r>    3.1489    0.0000 </r>
       <r>    3.2884    0.0000 </r>
       <r>    3.3136    0.0000 </r>
       <r>    3.3855    0.0000 </r>
       <r>    3.4609    0.0000 </r>
       <r>    4.1355    0.0000 </r>
       <r>    4.4298    0.0000 </r>
       <r>    4.4824    0.0000 </r>
       <r>    4.6378    0.0000 </r>
       <r>    4.6796    0.0000 </r>
       <r>    4.8542    0.0000 </r>
       <r>    4.8888    0.0000 </r>
       <r>    5.1832    0.0000 </r>
       <r>    5.3190    0.0000 </r>
       <r>    5.6410    0.0000 </r>
       <r>    5.6871    0.0000 </r>
       <r>    5.7266    0.0000 </r>
       <r>    5.7785    0.0000 </r>
       <r>    5.9276    0.0000 </r>
       <r>    5.9842    0.0000 </r>
       <r>    6.0491    0.0000 </r>
       <r>    6.0956    0.0000 </r>
       <r>    6.1754    0.0000 </r>
       <r>    6.2207    0.0000 </r>
       <r>    6.2791    0.0000 </r>
       <r>    6.3047    0.0000 </r>
       <r>    6.3340    0.0000 </r>
       <r>    6.4583    0.0000 </r>
       <r>    6.5160    0.0000 </r>
       <r>    6.5405    0.0000 </r>
       <r>    6.5940    0.0000 </r>
       <r>    6.6454    0.0000 </r>
      </set>
      <set comment="kpoint 4">
       <r>  -20.9049    1.0000 </r>
       <r>  -20.8232    1.0000 </r>
       <r>  -20.7937    1.0000 </r>
       <r>  -20.7814    1.0000 </r>
       <r>  -20.7277    1.0000 </r>
       <r>  -20.7242    1.0000 </r>
       <r>  -20.7129    1.0000 </r>
       <r>  -20.7071    1.0000 </r>
       <r>  -16.7022    1.0000 </r>
       <r>  -16.6966    1.0000 </r>
       <r>  -16.6853    1.0000 </r>
       <r>  -16.6744    1.0000 </r>
       <r>  -16.6591    1.0000 </r>
       <r>  -16.5963    1.0000 </r>
       <r>  -16.5938    1.0000 </r>
       <r>  -16.5862    1.0000 </r>
       <r>  -16.5775    1.0000 </r>
       <r>  -16.5524    1.0000 </r>
       <r>  -16.5408    1.0000 </r>
       <r>  -16.4558    1.0000 </r>
       <r>  -16.4453    1.0000 </r>
       <r>  -16.4177    1.0000 </r>
       <r>  -16.4105    1.0000 </r>
       <r>  -16.4028    1.0000 </r>
       <r>  -16.4024    1.0000 </r>
       <r>  -16.3979    1.0000 </r>
       <r>  -16.3949    1.0000 </r>
       <r>  -16.3740    1.0000 </r>
       <r>  -16.3736    1.0000 </r>
       <r>  -16.3469    1.0000 </r>
       <r>  -16.3405    1.0000 </r>
       <r>  -16.3316    1.0000 </r>
       <r>  -16.3289    1.0000 </r>
       <r>  -16.3251    1.0000 </r>
       <r>  -16.3184    1.0000 </r>
       <r>  -16.2937    1.0000 </r>
       <r>  -16.2897    1.0000 </r>
       <r>  -16.2868    1.0000 </r>
       <r>  -16.2811    1.0000 </r>
       <r>  -16.2772    1.0000 </r>
       <r>  -16.2725    1.0000 </r>
       <r>  -16.2719    1.0000 </r>
       <r>  -16.2703    1.0000 </r>
       <r>  -16.2612    1.0000 </r>
       <r>  -16.2309    1.0000 </r>
       <r>  -16.2264    1.0000 </r>
       <r>  -16.2181    1.0000 </r>
       <r>  -16.2128    1.0000 </r>
       <r>  -14.5209    1.0000 </r>
       <r>  -14.3785    1.0000 </r>
       <r>  -14.3342    1.0000 </r>
       <r>  -14.2772    1.0000 </r>
       <r>  -14.2084    1.0000 </r>
       <r>  -14.1864    1.0000 </r>
       <r>  -14.1460    1.0000 </r>
       <r>  -14.1060    1.0000 </r>
       <r>  -14.0598    1.0000 </r>
       <r>  -14.0363    1.0000 </r>
       <r>  -14.0278    1.0000 </r>
       <r>  -14.0153    1.0000 </r>
       <r>  -13.9993    1.0000 </r>
       <r>  -13.9334    1.0000 </r>
       <r>  -13.9173    1.0000 </r>
       <r>  -13.9030    1.0000 </r>
       <r>  -13.8899    1.0000 </r>
       <r>  -13.8819    1.0000 </r>
       <r>  -13.8401    1.0000 </r>
       <r>  -13.8343    1.0000 </r>
       <r>  -13.8221    1.0000 </r>
       <r>  -13.8064    1.0000 </r>
       <r>  -13.6965    1.0000 </r>
       <r>   -7.9341    1.0000 </r>
       <r>   -7.8036    1.0000 </r>
       <r>   -7.7316    1.0000 </r>
       <r>   -7.6800    1.0000 </r>
       <r>   -7.3510    1.0000 </r>
       <r>   -7.3255    1.0000 </r>
       <r>   -7.3032    1.0000 </r>
       <r>   -7.2812    1.0000 </r>
       <r>   -7.2710    1.0000 </r>
       <r>   -7.2580    1.0000 </r>
       <r>   -7.2458    1.0000 </r>
       <r>   -7.2414    1.0000 </r>
       <r>   -7.2122    1.0000 </r>
       <r>   -7.2021    1.0000 </r>
       <r>   -7.1989    1.0000 </r>
       <r>   -7.1880    1.0000 </r>
       <r>   -7.1841    1.0000 </r>
       <r>   -7.1755    1.0000 </r>
       <r>   -7.1726    1.0000 </r>
       <r>   -7.1529    1.0000 </r>
       <r>   -7.1487    1.0000 </r>
       <r>   -7.1403    1.0000 </r>
       <r>   -7.1383    1.0000 </r>
       <r>   -7.1300    1.0000 </r>
       <r>   -7.1187    1.0000 </r>
       <r>   -7.1141    1.0000 </r>
       <r>   -7.1098    1.0000 </r>
       <r>   -7.1027    1.0000 </r>
       <r>   -7.0971    1.0000 </r>
       <r>   -7.0898    1.0000 </r>
       <r>   -7.0750    1.0000 </r>
       <r>   -7.0213    1.0000 </r>
       <r>   -3.2418    1.0000 </r>
       <r>   -3.2343    1.0000 </r>
       <r>   -3.1790    1.0000 </r>
       <r>   -3.1648    1.0000 </r>
       <r>   -3.1441    1.0000 </r>
       <r>   -3.0167    1.0000 </r>
       <r>   -2.6978    1.0000 </r>
       <r>   -2.6079    1.0000 </r>
       <r>   -2.5685    1.0000 </r>
       <r>   -2.5617    1.0000 </r>
       <r>   -2.5344    1.0000 </r>
       <r>   -2.4572    1.0000 </r>
       <r>   -2.4149    1.0000 </r>
       <r>   -2.3397    1.0000 </r>
       <r>   -2.3290    1.0000 </r>
       <r>   -2.3075    1.0000 </r>
       <r>   -2.2816    1.0000 </r>
       <r>   -2.2663    1.0000 </r>
       <r>   -2.1138    1.0000 </r>
       <r>   -2.1057    1.0000 </r>
       <r>   -2.0293    1.0000 </r>
       <r>   -2.0035    1.0000 </r>
       <r>   -1.9783    1.0000 </r>
       <r>   -1.9540    1.0000 </r>
       <r>   -1.8419    1.0000 </r>
       <r>   -1.7953    1.0000 </r>
       <r>   -1.7938    1.0000 </r>
       <r>   -1.7571    1.0000 </r>
       <r>   -1.7187    1.0000 </r>
       <r>   -1.6553    1.0000 </r>
       <r>   -1.6398    1.0000 </r>
       <r>   -1.6137    1.0000 </r>
       <r>   -1.6014    1.0000 </r>
       <r>   -1.5691    1.0000 </r>
       <r>   -1.5441    1.0000 </r>
       <r>   -1.5121    1.0000 </r>
       <r>   -1.4543    1.0000 </r>
       <r>   -1.4471    1.0000 </r>
       <r>   -1.4276    1.0000 </r>
       <r>   -1.4107    1.0000 </r>
       <r>   -1.3857    1.0000 </r>
       <r>   -1.3682    1.0000 </r>
       <r>   -1.3544    1.0000 </r>
       <r>   -1.3400    1.0000 </r>
       <r>   -1.3262    1.0000 </r>
       <r>   -1.2965    1.0000 </r>
       <r>   -1.2917    1.0000 </r>
       <r>   -1.2689    1.0000 </r>
       <r>   -1.2617    1.0000 </r>
       <r>   -1.2432    1.0000 </r>
       <r>   -1.2279    1.0000 </r>
       <r>   -1.2002    1.0000 </r>
       <r>   -1.1614    1.0000 </r>
       <r>   -1.1561    1.0000 </r>
       <r>   -1.1392    1.0000 </r>
       <r>   -1.1336    1.0000 </r>
       <r>   -1.1154    1.0000 </r>
       <r>   -1.0988    1.0000 </r>
       <r>   -1.0830    1.0000 </r>
       <r>   -1.0610    1.0000 </r>
       <r>   -0.9613    1.0000 </r>
       <r>   -0.9303    1.0000 </r>
       <r>   -0.9049    1.0000 </r>
       <r>   -0.8687    1.0000 </r>
       <r>   -0.7571    1.0000 </r>
       <r>   -0.5310    1.0000 </r>
       <r>   -0.5025    1.0000 </r>
       <r>   -0.4736    1.0000 </r>
       <r>   -0.1005    1.0000 </r>
       <r>    2.6428    0.0000 </r>
       <r>    3.0349    0.0000 </r>
       <r>    3.0707    0.0000 </r>
       <r>    3.1798    0.0000 </r>
       <r>    3.2845    0.0000 </r>
       <r>    3.3326    0.0000 </r>
       <r>    4.1462    0.0000 </r>
       <r>    4.2946    0.0000 </r>
       <r>    4.3617    0.0000 </r>
       <r>    4.4387    0.0000 </r>
       <r>    4.4731    0.0000 </r>
       <r>    4.5347    0.0000 </r>
       <r>    4.5676    0.0000 </r>
       <r>    4.6316    0.0000 </r>
       <r>    4.6892    0.0000 </r>
       <r>    4.7742    0.0000 </r>
       <r>    4.8151    0.0000 </r>
       <r>    4.8669    0.0000 </r>
       <r>    4.9242    0.0000 </r>
       <r>    5.2122    0.0000 </r>
       <r>    5.7020    0.0000 </r>
       <r>    5.7387    0.0000 </r>
       <r>    5.7720    0.0000 </r>
       <r>    5.8474    0.0000 </r>
       <r>    5.9807    0.0000 </r>
       <r>    5.9947    0.0000 </r>
       <r>    6.0540    0.0000 </r>
       <r>    6.0824    0.0000 </r>
       <r>    6.2193    0.0000 </r>
       <r>    6.2712    0.0000 </r>
       <r>    6.3024    0.0000 </r>
       <r>    6.3613    0.0000 </r>
       <r>    6.4048    0.0000 </r>
       <r>    6.5125    0.0000 </r>
       <r>    6.5154    0.0000 </r>
       <r>    6.5841    0.0000 </r>
      </set>
      <set comment="kpoint 5">
       <r>  -20.9049    1.0000 </r>
       <r>  -20.8232    1.0000 </r>
       <r>  -20.7937    1.0000 </r>
       <r>  -20.7814    1.0000 </r>
       <r>  -20.7275    1.0000 </r>
       <r>  -20.7245    1.0000 </r>
       <r>  -20.7129    1.0000 </r>
       <r>  -20.7071    1.0000 </r>
       <r>  -16.7049    1.0000 </r>
       <r>  -16.6957    1.0000 </r>
       <r>  -16.6844    1.0000 </r>
       <r>  -16.6744    1.0000 </r>
       <r>  -16.6594    1.0000 </r>
       <r>  -16.5963    1.0000 </r>
       <r>  -16.5938    1.0000 </r>
       <r>  -16.5863    1.0000 </r>
       <r>  -16.5775    1.0000 </r>
       <r>  -16.5524    1.0000 </r>
       <r>  -16.5408    1.0000 </r>
       <r>  -16.4524    1.0000 </r>
       <r>  -16.4443    1.0000 </r>
       <r>  -16.4369    1.0000 </r>
       <r>  -16.4257    1.0000 </r>
       <r>  -16.4140    1.0000 </r>
       <r>  -16.4039    1.0000 </r>
       <r>  -16.4030    1.0000 </r>
       <r>  -16.3741    1.0000 </r>
       <r>  -16.3736    1.0000 </r>
       <r>  -16.3648    1.0000 </r>
       <r>  -16.3405    1.0000 </r>
       <r>  -16.3316    1.0000 </r>
       <r>  -16.3289    1.0000 </r>
       <r>  -16.3266    1.0000 </r>
       <r>  -16.3235    1.0000 </r>
       <r>  -16.3186    1.0000 </r>
       <r>  -16.2937    1.0000 </r>
       <r>  -16.2896    1.0000 </r>
       <r>  -16.2867    1.0000 </r>
       <r>  -16.2811    1.0000 </r>
       <r>  -16.2772    1.0000 </r>
       <r>  -16.2725    1.0000 </r>
       <r>  -16.2719    1.0000 </r>
       <r>  -16.2702    1.0000 </r>
       <r>  -16.2611    1.0000 </r>
       <r>  -16.2309    1.0000 </r>
       <r>  -16.2264    1.0000 </r>
       <r>  -16.2180    1.0000 </r>
       <r>  -16.2128    1.0000 </r>
       <r>  -14.5283    1.0000 </r>
       <r>  -14.3742    1.0000 </r>
       <r>  -14.3149    1.0000 </r>
       <r>  -14.3077    1.0000 </r>
       <r>  -14.1765    1.0000 </r>
       <r>  -14.1531    1.0000 </r>
       <r>  -14.1148    1.0000 </r>
       <r>  -14.0969    1.0000 </r>
       <r>  -14.0715    1.0000 </r>
       <r>  -14.0631    1.0000 </r>
       <r>  -14.0409    1.0000 </r>
       <r>  -14.0232    1.0000 </r>
       <r>  -13.9986    1.0000 </r>
       <r>  -13.9867    1.0000 </r>
       <r>  -13.9734    1.0000 </r>
       <r>  -13.9680    1.0000 </r>
       <r>  -13.8585    1.0000 </r>
       <r>  -13.8504    1.0000 </r>
       <r>  -13.8452    1.0000 </r>
       <r>  -13.8208    1.0000 </r>
       <r>  -13.7818    1.0000 </r>
       <r>  -13.7535    1.0000 </r>
       <r>  -13.7235    1.0000 </r>
       <r>   -7.9980    1.0000 </r>
       <r>   -7.9675    1.0000 </r>
       <r>   -7.6252    1.0000 </r>
       <r>   -7.5981    1.0000 </r>
       <r>   -7.4596    1.0000 </r>
       <r>   -7.4117    1.0000 </r>
       <r>   -7.3373    1.0000 </r>
       <r>   -7.2891    1.0000 </r>
       <r>   -7.2733    1.0000 </r>
       <r>   -7.2605    1.0000 </r>
       <r>   -7.2330    1.0000 </r>
       <r>   -7.2093    1.0000 </r>
       <r>   -7.2034    1.0000 </r>
       <r>   -7.1955    1.0000 </r>
       <r>   -7.1894    1.0000 </r>
       <r>   -7.1779    1.0000 </r>
       <r>   -7.1738    1.0000 </r>
       <r>   -7.1628    1.0000 </r>
       <r>   -7.1592    1.0000 </r>
       <r>   -7.1519    1.0000 </r>
       <r>   -7.1391    1.0000 </r>
       <r>   -7.1331    1.0000 </r>
       <r>   -7.1299    1.0000 </r>
       <r>   -7.1238    1.0000 </r>
       <r>   -7.1148    1.0000 </r>
       <r>   -7.1100    1.0000 </r>
       <r>   -7.1058    1.0000 </r>
       <r>   -7.0985    1.0000 </r>
       <r>   -7.0878    1.0000 </r>
       <r>   -7.0829    1.0000 </r>
       <r>   -7.0129    1.0000 </r>
       <r>   -6.8051    1.0000 </r>
       <r>   -3.3662    1.0000 </r>
       <r>   -3.2926    1.0000 </r>
       <r>   -3.2738    1.0000 </r>
       <r>   -3.2549    1.0000 </r>
       <r>   -3.1816    1.0000 </r>
       <r>   -3.1733    1.0000 </r>
       <r>   -3.0924    1.0000 </r>
       <r>   -2.9244    1.0000 </r>
       <r>   -2.6610    1.0000 </r>
       <r>   -2.5362    1.0000 </r>
       <r>   -2.5251    1.0000 </r>
       <r>   -2.5023    1.0000 </r>
       <r>   -2.4217    1.0000 </r>
       <r>   -2.4026    1.0000 </r>
       <r>   -2.3845    1.0000 </r>
       <r>   -2.2953    1.0000 </r>
       <r>   -2.2446    1.0000 </r>
       <r>   -2.1150    1.0000 </r>
       <r>   -2.0776    1.0000 </r>
       <r>   -2.0202    1.0000 </r>
       <r>   -1.9971    1.0000 </r>
       <r>   -1.9605    1.0000 </r>
       <r>   -1.9071    1.0000 </r>
       <r>   -1.8563    1.0000 </r>
       <r>   -1.8282    1.0000 </r>
       <r>   -1.7796    1.0000 </r>
       <r>   -1.7274    1.0000 </r>
       <r>   -1.6934    1.0000 </r>
       <r>   -1.6617    1.0000 </r>
       <r>   -1.6108    1.0000 </r>
       <r>   -1.5800    1.0000 </r>
       <r>   -1.5599    1.0000 </r>
       <r>   -1.5267    1.0000 </r>
       <r>   -1.4879    1.0000 </r>
       <r>   -1.4779    1.0000 </r>
       <r>   -1.4445    1.0000 </r>
       <r>   -1.4306    1.0000 </r>
       <r>   -1.4123    1.0000 </r>
       <r>   -1.3950    1.0000 </r>
       <r>   -1.3839    1.0000 </r>
       <r>   -1.3677    1.0000 </r>
       <r>   -1.3603    1.0000 </r>
       <r>   -1.3574    1.0000 </r>
       <r>   -1.3445    1.0000 </r>
       <r>   -1.3299    1.0000 </r>
       <r>   -1.3121    1.0000 </r>
       <r>   -1.2976    1.0000 </r>
       <r>   -1.2834    1.0000 </r>
       <r>   -1.2631    1.0000 </r>
       <r>   -1.2536    1.0000 </r>
       <r>   -1.2422    1.0000 </r>
       <r>   -1.2183    1.0000 </r>
       <r>   -1.2124    1.0000 </r>
       <r>   -1.1801    1.0000 </r>
       <r>   -1.1623    1.0000 </r>
       <r>   -1.1536    1.0000 </r>
       <r>   -1.1216    1.0000 </r>
       <r>   -1.1007    1.0000 </r>
       <r>   -1.0426    1.0000 </r>
       <r>   -1.0123    1.0000 </r>
       <r>   -0.9974    1.0000 </r>
       <r>   -0.9501    1.0000 </r>
       <r>   -0.8724    1.0000 </r>
       <r>   -0.7982    1.0000 </r>
       <r>   -0.5383    1.0000 </r>
       <r>   -0.4619    1.0000 </r>
       <r>   -0.4483    1.0000 </r>
       <r>   -0.2218    1.0000 </r>
       <r>    0.0785    1.0000 </r>
       <r>    2.7375    0.0000 </r>
       <r>    2.9472    0.0000 </r>
       <r>    2.9721    0.0000 </r>
       <r>    2.9938    0.0000 </r>
       <r>    3.0962    0.0000 </r>
       <r>    3.2943    0.0000 </r>
       <r>    3.3522    0.0000 </r>
       <r>    3.4292    0.0000 </r>
       <r>    4.1261    0.0000 </r>
       <r>    4.1854    0.0000 </r>
       <r>    4.2974    0.0000 </r>
       <r>    4.4694    0.0000 </r>
       <r>    4.5318    0.0000 </r>
       <r>    4.6001    0.0000 </r>
       <r>    4.7052    0.0000 </r>
       <r>    4.7594    0.0000 </r>
       <r>    4.8692    0.0000 </r>
       <r>    5.2832    0.0000 </r>
       <r>    5.5031    0.0000 </r>
       <r>    5.5695    0.0000 </r>
       <r>    5.6915    0.0000 </r>
       <r>    5.8318    0.0000 </r>
       <r>    5.9440    0.0000 </r>
       <r>    5.9795    0.0000 </r>
       <r>    6.0833    0.0000 </r>
       <r>    6.0914    0.0000 </r>
       <r>    6.1236    0.0000 </r>
       <r>    6.1719    0.0000 </r>
       <r>    6.2437    0.0000 </r>
       <r>    6.3229    0.0000 </r>
       <r>    6.3889    0.0000 </r>
       <r>    6.4184    0.0000 </r>
       <r>    6.5178    0.0000 </r>
       <r>    6.5711    0.0000 </r>
       <r>    6.5839    0.0000 </r>
       <r>    6.6467    0.0000 </r>
      </set>
      <set comment="kpoint 6">
       <r>  -20.9049    1.0000 </r>
       <r>  -20.8232    1.0000 </r>
       <r>  -20.7937    1.0000 </r>
       <r>  -20.7814    1.0000 </r>
       <r>  -20.7275    1.0000 </r>
       <r>  -20.7245    1.0000 </r>
       <r>  -20.7129    1.0000 </r>
       <r>  -20.7071    1.0000 </r>
       <r>  -16.7026    1.0000 </r>
       <r>  -16.6975    1.0000 </r>
       <r>  -16.6840    1.0000 </r>
       <r>  -16.6744    1.0000 </r>
       <r>  -16.6570    1.0000 </r>
       <r>  -16.5963    1.0000 </r>
       <r>  -16.5938    1.0000 </r>
       <r>  -16.5862    1.0000 </r>
       <r>  -16.5775    1.0000 </r>
       <r>  -16.5524    1.0000 </r>
       <r>  -16.5408    1.0000 </r>
       <r>  -16.4478    1.0000 </r>
       <r>  -16.4448    1.0000 </r>
       <r>  -16.4398    1.0000 </r>
       <r>  -16.4154    1.0000 </r>
       <r>  -16.4031    1.0000 </r>
       <r>  -16.4031    1.0000 </r>
       <r>  -16.3972    1.0000 </r>
       <r>  -16.3875    1.0000 </r>
       <r>  -16.3737    1.0000 </r>
       <r>  -16.3713    1.0000 </r>
       <r>  -16.3404    1.0000 </r>
       <r>  -16.3367    1.0000 </r>
       <r>  -16.3316    1.0000 </r>
       <r>  -16.3289    1.0000 </r>
       <r>  -16.3275    1.0000 </r>
       <r>  -16.3186    1.0000 </r>
       <r>  -16.2938    1.0000 </r>
       <r>  -16.2897    1.0000 </r>
       <r>  -16.2867    1.0000 </r>
       <r>  -16.2811    1.0000 </r>
       <r>  -16.2772    1.0000 </r>
       <r>  -16.2725    1.0000 </r>
       <r>  -16.2719    1.0000 </r>
       <r>  -16.2702    1.0000 </r>
       <r>  -16.2612    1.0000 </r>
       <r>  -16.2309    1.0000 </r>
       <r>  -16.2264    1.0000 </r>
       <r>  -16.2180    1.0000 </r>
       <r>  -16.2128    1.0000 </r>
       <r>  -14.5215    1.0000 </r>
       <r>  -14.3738    1.0000 </r>
       <r>  -14.3309    1.0000 </r>
       <r>  -14.2842    1.0000 </r>
       <r>  -14.2347    1.0000 </r>
       <r>  -14.1718    1.0000 </r>
       <r>  -14.1127    1.0000 </r>
       <r>  -14.1032    1.0000 </r>
       <r>  -14.0712    1.0000 </r>
       <r>  -14.0704    1.0000 </r>
       <r>  -14.0601    1.0000 </r>
       <r>  -14.0033    1.0000 </r>
       <r>  -13.9981    1.0000 </r>
       <r>  -13.9247    1.0000 </r>
       <r>  -13.9087    1.0000 </r>
       <r>  -13.8902    1.0000 </r>
       <r>  -13.8860    1.0000 </r>
       <r>  -13.8775    1.0000 </r>
       <r>  -13.8393    1.0000 </r>
       <r>  -13.8241    1.0000 </r>
       <r>  -13.8082    1.0000 </r>
       <r>  -13.7730    1.0000 </r>
       <r>  -13.7542    1.0000 </r>
       <r>   -7.8884    1.0000 </r>
       <r>   -7.7670    1.0000 </r>
       <r>   -7.7625    1.0000 </r>
       <r>   -7.6980    1.0000 </r>
       <r>   -7.4918    1.0000 </r>
       <r>   -7.3495    1.0000 </r>
       <r>   -7.2992    1.0000 </r>
       <r>   -7.2836    1.0000 </r>
       <r>   -7.2638    1.0000 </r>
       <r>   -7.2566    1.0000 </r>
       <r>   -7.2321    1.0000 </r>
       <r>   -7.2184    1.0000 </r>
       <r>   -7.2162    1.0000 </r>
       <r>   -7.2038    1.0000 </r>
       <r>   -7.1954    1.0000 </r>
       <r>   -7.1786    1.0000 </r>
       <r>   -7.1768    1.0000 </r>
       <r>   -7.1644    1.0000 </r>
       <r>   -7.1602    1.0000 </r>
       <r>   -7.1518    1.0000 </r>
       <r>   -7.1426    1.0000 </r>
       <r>   -7.1339    1.0000 </r>
       <r>   -7.1295    1.0000 </r>
       <r>   -7.1223    1.0000 </r>
       <r>   -7.1156    1.0000 </r>
       <r>   -7.1109    1.0000 </r>
       <r>   -7.1030    1.0000 </r>
       <r>   -7.0923    1.0000 </r>
       <r>   -7.0863    1.0000 </r>
       <r>   -7.0793    1.0000 </r>
       <r>   -7.0667    1.0000 </r>
       <r>   -7.0583    1.0000 </r>
       <r>   -3.3371    1.0000 </r>
       <r>   -3.3050    1.0000 </r>
       <r>   -3.2008    1.0000 </r>
       <r>   -3.1781    1.0000 </r>
       <r>   -2.9736    1.0000 </r>
       <r>   -2.7423    1.0000 </r>
       <r>   -2.6854    1.0000 </r>
       <r>   -2.6467    1.0000 </r>
       <r>   -2.6173    1.0000 </r>
       <r>   -2.5873    1.0000 </r>
       <r>   -2.5238    1.0000 </r>
       <r>   -2.4267    1.0000 </r>
[...]
        <r>  0.0002  0.0012  0.0009 </r>
        <r>  0.0011  0.0053  0.0005 </r>
        <r>  0.0014  0.0018  0.0013 </r>
        <r>  0.0001  0.0017  0.0004 </r>
        <r>  0.0000  0.0010  0.0007 </r>
        <r>  0.0028  0.0019  0.0016 </r>
        <r>  0.0003  0.0028  0.0002 </r>
        <r>  0.0002  0.0025  0.0010 </r>
        <r>  0.0000  0.0004  0.0023 </r>
       </set>
       <set comment="band 199">
        <r>  0.0056  0.0016  0.0096 </r>
        <r>  0.0022  0.0004  0.0085 </r>
        <r>  0.0021  0.0006  0.0100 </r>
        <r>  0.0022  0.0003  0.0059 </r>
        <r>  0.0005  0.0006  0.0045 </r>
        <r>  0.0061  0.0006  0.0085 </r>
        <r>  0.0000  0.0005  0.0011 </r>
        <r>  0.0000  0.0010  0.0050 </r>
        <r>  0.0000  0.0008  0.0003 </r>
        <r>  0.0000  0.0028  0.0002 </r>
        <r>  0.0000  0.0090  0.0000 </r>
        <r>  0.0000  0.0079  0.0001 </r>
        <r>  0.0000  0.0035  0.0001 </r>
        <r>  0.0003  0.0092  0.0007 </r>
        <r>  0.0000  0.0013  0.0001 </r>
        <r>  0.0001  0.0091  0.0014 </r>
        <r>  0.0003  0.0011  0.0007 </r>
        <r>  0.0003  0.0023  0.0010 </r>
        <r>  0.0011  0.0002  0.0007 </r>
        <r>  0.0005  0.0015  0.0031 </r>
        <r>  0.0000  0.0026  0.0003 </r>
        <r>  0.0001  0.0034  0.0007 </r>
        <r>  0.0008  0.0043  0.0011 </r>
        <r>  0.0000  0.0022  0.0005 </r>
        <r>  0.0008  0.0062  0.0005 </r>
        <r>  0.0003  0.0044  0.0007 </r>
        <r>  0.0000  0.0012  0.0005 </r>
        <r>  0.0008  0.0018  0.0014 </r>
        <r>  0.0003  0.0013  0.0007 </r>
        <r>  0.0002  0.0022  0.0003 </r>
        <r>  0.0007  0.0009  0.0010 </r>
        <r>  0.0000  0.0001  0.0003 </r>
        <r>  0.0002  0.0006  0.0015 </r>
        <r>  0.0005  0.0015  0.0008 </r>
        <r>  0.0008  0.0067  0.0009 </r>
        <r>  0.0026  0.0021  0.0016 </r>
        <r>  0.0002  0.0012  0.0013 </r>
        <r>  0.0023  0.0015  0.0025 </r>
        <r>  0.0001  0.0025  0.0013 </r>
       </set>
       <set comment="band 200">
        <r>  0.0022  0.0002  0.0101 </r>
        <r>  0.0016  0.0007  0.0081 </r>
        <r>  0.0066  0.0004  0.0090 </r>
        <r>  0.0010  0.0005  0.0036 </r>
        <r>  0.0023  0.0004  0.0080 </r>
        <r>  0.0009  0.0006  0.0088 </r>
        <r>  0.0056  0.0004  0.0114 </r>
        <r>  0.0024  0.0011  0.0024 </r>
        <r>  0.0001  0.0007  0.0004 </r>
        <r>  0.0000  0.0044  0.0009 </r>
        <r>  0.0000  0.0040  0.0001 </r>
        <r>  0.0000  0.0002  0.0000 </r>
        <r>  0.0000  0.0014  0.0004 </r>
        <r>  0.0000  0.0014  0.0002 </r>
        <r>  0.0000  0.0052  0.0000 </r>
        <r>  0.0000  0.0076  0.0004 </r>
        <r>  0.0029  0.0016  0.0016 </r>
        <r>  0.0000  0.0008  0.0013 </r>
        <r>  0.0000  0.0036  0.0010 </r>
        <r>  0.0000  0.0019  0.0010 </r>
        <r>  0.0003  0.0041  0.0004 </r>
        <r>  0.0017  0.0039  0.0017 </r>
        <r>  0.0000  0.0009  0.0019 </r>
        <r>  0.0014  0.0028  0.0008 </r>
        <r>  0.0008  0.0038  0.0017 </r>
        <r>  0.0001  0.0011  0.0001 </r>
        <r>  0.0001  0.0033  0.0008 </r>
        <r>  0.0005  0.0003  0.0009 </r>
        <r>  0.0000  0.0039  0.0003 </r>
        <r>  0.0000  0.0005  0.0011 </r>
        <r>  0.0001  0.0021  0.0003 </r>
        <r>  0.0000  0.0003  0.0012 </r>
        <r>  0.0006  0.0039  0.0017 </r>
        <r>  0.0005  0.0001  0.0014 </r>
        <r>  0.0034  0.0017  0.0028 </r>
        <r>  0.0000  0.0015  0.0003 </r>
        <r>  0.0013  0.0054  0.0010 </r>
        <r>  0.0000  0.0007  0.0002 </r>
        <r>  0.0000  0.0031  0.0018 </r>
       </set>
       <set comment="band 201">
        <r>  0.0060  0.0005  0.0051 </r>
        <r>  0.0018  0.0002  0.0107 </r>
        <r>  0.0001  0.0014  0.0139 </r>
        <r>  0.0001  0.0006  0.0075 </r>
        <r>  0.0004  0.0012  0.0099 </r>
        <r>  0.0004  0.0003  0.0107 </r>
        <r>  0.0050  0.0002  0.0118 </r>
        <r>  0.0025  0.0004  0.0058 </r>
        <r>  0.0000  0.0035  0.0002 </r>
        <r>  0.0000  0.0070  0.0004 </r>
        <r>  0.0000  0.0005  0.0002 </r>
        <r>  0.0000  0.0006  0.0004 </r>
        <r>  0.0000  0.0047  0.0001 </r>
        <r>  0.0001  0.0022  0.0002 </r>
        <r>  0.0001  0.0011  0.0003 </r>
        <r>  0.0000  0.0110  0.0003 </r>
        <r>  0.0017  0.0031  0.0020 </r>
        <r>  0.0007  0.0006  0.0006 </r>
        <r>  0.0001  0.0026  0.0006 </r>
        <r>  0.0010  0.0028  0.0017 </r>
        <r>  0.0002  0.0040  0.0003 </r>
        <r>  0.0011  0.0009  0.0017 </r>
        <r>  0.0003  0.0018  0.0026 </r>
        <r>  0.0001  0.0012  0.0006 </r>
        <r>  0.0000  0.0024  0.0011 </r>
        <r>  0.0009  0.0017  0.0008 </r>
        <r>  0.0004  0.0024  0.0013 </r>
        <r>  0.0003  0.0024  0.0004 </r>
        <r>  0.0011  0.0012  0.0024 </r>
        <r>  0.0011  0.0003  0.0012 </r>
        <r>  0.0009  0.0006  0.0004 </r>
        <r>  0.0008  0.0015  0.0008 </r>
        <r>  0.0001  0.0034  0.0007 </r>
        <r>  0.0004  0.0035  0.0010 </r>
        <r>  0.0000  0.0032  0.0012 </r>
        <r>  0.0002  0.0023  0.0015 </r>
        <r>  0.0001  0.0019  0.0005 </r>
        <r>  0.0003  0.0021  0.0004 </r>
        <r>  0.0003  0.0016  0.0014 </r>
       </set>
       <set comment="band 202">
        <r>  0.0000  0.0011  0.0064 </r>
        <r>  0.0080  0.0009  0.0064 </r>
        <r>  0.0001  0.0003  0.0081 </r>
        <r>  0.0008  0.0005  0.0022 </r>
        <r>  0.0083  0.0004  0.0110 </r>
        <r>  0.0023  0.0012  0.0058 </r>
        <r>  0.0030  0.0002  0.0063 </r>
        <r>  0.0010  0.0005  0.0063 </r>
        <r>  0.0000  0.0048  0.0000 </r>
        <r>  0.0001  0.0004  0.0003 </r>
        <r>  0.0000  0.0026  0.0001 </r>
        <r>  0.0000  0.0036  0.0003 </r>
        <r>  0.0000  0.0138  0.0000 </r>
        <r>  0.0001  0.0099  0.0001 </r>
        <r>  0.0000  0.0041  0.0003 </r>
        <r>  0.0000  0.0066  0.0004 </r>
        <r>  0.0001  0.0024  0.0003 </r>
        <r>  0.0001  0.0022  0.0009 </r>
        <r>  0.0027  0.0025  0.0026 </r>
        <r>  0.0012  0.0015  0.0022 </r>
        <r>  0.0002  0.0052  0.0006 </r>
        <r>  0.0004  0.0023  0.0018 </r>
        <r>  0.0018  0.0019  0.0023 </r>
        <r>  0.0020  0.0041  0.0026 </r>
        <r>  0.0001  0.0024  0.0006 </r>
        <r>  0.0021  0.0009  0.0019 </r>
        <r>  0.0000  0.0014  0.0020 </r>
        <r>  0.0001  0.0005  0.0001 </r>
        <r>  0.0002  0.0029  0.0005 </r>
        <r>  0.0002  0.0007  0.0016 </r>
        <r>  0.0001  0.0025  0.0006 </r>
        <r>  0.0001  0.0022  0.0012 </r>
        <r>  0.0005  0.0001  0.0004 </r>
        <r>  0.0000  0.0012  0.0003 </r>
        <r>  0.0019  0.0030  0.0019 </r>
        <r>  0.0001  0.0022  0.0005 </r>
        <r>  0.0001  0.0018  0.0006 </r>
        <r>  0.0000  0.0049  0.0008 </r>
        <r>  0.0000  0.0020  0.0017 </r>
       </set>
       <set comment="band 203">
        <r>  0.0004  0.0007  0.0062 </r>
        <r>  0.0001  0.0007  0.0104 </r>
        <r>  0.0070  0.0005  0.0086 </r>
        <r>  0.0000  0.0004  0.0135 </r>
        <r>  0.0079  0.0007  0.0039 </r>
        <r>  0.0024  0.0006  0.0070 </r>
        <r>  0.0013  0.0008  0.0068 </r>
        <r>  0.0005  0.0010  0.0066 </r>
        <r>  0.0000  0.0092  0.0001 </r>
        <r>  0.0001  0.0136  0.0004 </r>
        <r>  0.0000  0.0038  0.0001 </r>
        <r>  0.0000  0.0023  0.0003 </r>
        <r>  0.0000  0.0093  0.0001 </r>
        <r>  0.0000  0.0078  0.0002 </r>
        <r>  0.0000  0.0005  0.0002 </r>
        <r>  0.0001  0.0010  0.0004 </r>
        <r>  0.0000  0.0023  0.0013 </r>
        <r>  0.0004  0.0050  0.0005 </r>
        <r>  0.0004  0.0021  0.0007 </r>
        <r>  0.0002  0.0046  0.0004 </r>
        <r>  0.0001  0.0015  0.0013 </r>
        <r>  0.0006  0.0002  0.0009 </r>
        <r>  0.0008  0.0023  0.0021 </r>
        <r>  0.0009  0.0007  0.0012 </r>
        <r>  0.0004  0.0041  0.0015 </r>
        <r>  0.0001  0.0014  0.0011 </r>
        <r>  0.0007  0.0055  0.0006 </r>
        <r>  0.0003  0.0016  0.0006 </r>
        <r>  0.0007  0.0024  0.0014 </r>
        <r>  0.0000  0.0025  0.0013 </r>
        <r>  0.0005  0.0046  0.0008 </r>
        <r>  0.0022  0.0006  0.0021 </r>
        <r>  0.0017  0.0007  0.0023 </r>
        <r>  0.0017  0.0008  0.0015 </r>
        <r>  0.0000  0.0016  0.0011 </r>
        <r>  0.0009  0.0000  0.0012 </r>
        <r>  0.0002  0.0024  0.0012 </r>
        <r>  0.0002  0.0007  0.0010 </r>
        <r>  0.0018  0.0007  0.0011 </r>
       </set>
       <set comment="band 204">
        <r>  0.0010  0.0008  0.0064 </r>
        <r>  0.0007  0.0011  0.0102 </r>
        <r>  0.0001  0.0003  0.0111 </r>
        <r>  0.0093  0.0002  0.0070 </r>
        <r>  0.0043  0.0005  0.0062 </r>
        <r>  0.0017  0.0002  0.0086 </r>
        <r>  0.0004  0.0013  0.0057 </r>
        <r>  0.0015  0.0020  0.0054 </r>
        <r>  0.0000  0.0042  0.0001 </r>
        <r>  0.0000  0.0133  0.0003 </r>
        <r>  0.0000  0.0047  0.0005 </r>
        <r>  0.0000  0.0056  0.0004 </r>
        <r>  0.0000  0.0088  0.0000 </r>
        <r>  0.0000  0.0066  0.0003 </r>
        <r>  0.0000  0.0006  0.0004 </r>
        <r>  0.0000  0.0109  0.0004 </r>
        <r>  0.0018  0.0038  0.0024 </r>
        <r>  0.0002  0.0027  0.0012 </r>
        <r>  0.0004  0.0034  0.0010 </r>
        <r>  0.0012  0.0075  0.0008 </r>
        <r>  0.0013  0.0025  0.0024 </r>
        <r>  0.0007  0.0036  0.0010 </r>
        <r>  0.0015  0.0008  0.0025 </r>
        <r>  0.0006  0.0027  0.0010 </r>
        <r>  0.0000  0.0002  0.0003 </r>
        <r>  0.0000  0.0005  0.0008 </r>
        <r>  0.0018  0.0008  0.0028 </r>
        <r>  0.0001  0.0034  0.0006 </r>
        <r>  0.0001  0.0047  0.0004 </r>
        <r>  0.0010  0.0013  0.0028 </r>
        <r>  0.0008  0.0007  0.0012 </r>
        <r>  0.0000  0.0043  0.0007 </r>
        <r>  0.0001  0.0058  0.0005 </r>
        <r>  0.0001  0.0005  0.0004 </r>
        <r>  0.0004  0.0006  0.0010 </r>
        <r>  0.0002  0.0016  0.0010 </r>
        <r>  0.0001  0.0016  0.0004 </r>
        <r>  0.0004  0.0006  0.0010 </r>
        <r>  0.0002  0.0012  0.0021 </r>
       </set>
       <set comment="band 205">
        <r>  0.0000  0.0003  0.0049 </r>
        <r>  0.0020  0.0008  0.0025 </r>
        <r>  0.0039  0.0019  0.0085 </r>
        <r>  0.0015  0.0006  0.0094 </r>
        <r>  0.0003  0.0011  0.0137 </r>
        <r>  0.0002  0.0006  0.0191 </r>
        <r>  0.0001  0.0019  0.0152 </r>
        <r>  0.0059  0.0001  0.0052 </r>
        <r>  0.0000  0.0015  0.0004 </r>
        <r>  0.0000  0.0003  0.0004 </r>
        <r>  0.0000  0.0037  0.0002 </r>
        <r>  0.0000  0.0035  0.0001 </r>
        <r>  0.0001  0.0033  0.0005 </r>
        <r>  0.0000  0.0048  0.0010 </r>
        <r>  0.0000  0.0106  0.0001 </r>
        <r>  0.0000  0.0103  0.0009 </r>
        <r>  0.0004  0.0037  0.0007 </r>
        <r>  0.0003  0.0033  0.0008 </r>
        <r>  0.0010  0.0038  0.0014 </r>
        <r>  0.0000  0.0008  0.0008 </r>
        <r>  0.0028  0.0025  0.0035 </r>
        <r>  0.0006  0.0007  0.0009 </r>
        <r>  0.0001  0.0032  0.0010 </r>
        <r>  0.0000  0.0003  0.0009 </r>
        <r>  0.0000  0.0035  0.0008 </r>
        <r>  0.0004  0.0017  0.0007 </r>
        <r>  0.0002  0.0021  0.0005 </r>
        <r>  0.0006  0.0002  0.0005 </r>
        <r>  0.0005  0.0006  0.0016 </r>
        <r>  0.0004  0.0001  0.0014 </r>
        <r>  0.0002  0.0006  0.0009 </r>
        <r>  0.0000  0.0008  0.0011 </r>
        <r>  0.0001  0.0026  0.0006 </r>
        <r>  0.0005  0.0003  0.0007 </r>
        <r>  0.0014  0.0055  0.0018 </r>
        <r>  0.0002  0.0018  0.0017 </r>
        <r>  0.0018  0.0013  0.0028 </r>
        <r>  0.0007  0.0013  0.0014 </r>
        <r>  0.0002  0.0011  0.0020 </r>
       </set>
       <set comment="band 206">
        <r>  0.0017  0.0004  0.0087 </r>
        <r>  0.0014  0.0003  0.0042 </r>
        <r>  0.0008  0.0005  0.0112 </r>
        <r>  0.0001  0.0001  0.0188 </r>
        <r>  0.0004  0.0003  0.0219 </r>
        <r>  0.0004  0.0002  0.0196 </r>
        <r>  0.0008  0.0004  0.0119 </r>
        <r>  0.0024  0.0005  0.0114 </r>
        <r>  0.0000  0.0158  0.0001 </r>
        <r>  0.0000  0.0125  0.0000 </r>
        <r>  0.0001  0.0000  0.0007 </r>
        <r>  0.0001  0.0006  0.0011 </r>
        <r>  0.0000  0.0028  0.0002 </r>
        <r>  0.0002  0.0084  0.0001 </r>
        <r>  0.0001  0.0002  0.0008 </r>
        <r>  0.0000  0.0009  0.0001 </r>
        <r>  0.0003  0.0009  0.0005 </r>
        <r>  0.0004  0.0036  0.0004 </r>
        <r>  0.0005  0.0010  0.0013 </r>
        <r>  0.0004  0.0001  0.0007 </r>
        <r>  0.0008  0.0006  0.0021 </r>
        <r>  0.0001  0.0005  0.0008 </r>
        <r>  0.0005  0.0019  0.0010 </r>
        <r>  0.0004  0.0010  0.0021 </r>
        <r>  0.0001  0.0003  0.0015 </r>
        <r>  0.0002  0.0005  0.0014 </r>
        <r>  0.0013  0.0009  0.0027 </r>
        <r>  0.0024  0.0015  0.0039 </r>
        <r>  0.0000  0.0012  0.0005 </r>
        <r>  0.0000  0.0031  0.0007 </r>
        <r>  0.0001  0.0013  0.0015 </r>
        <r>  0.0001  0.0047  0.0007 </r>
        <r>  0.0006  0.0016  0.0020 </r>
        <r>  0.0005  0.0033  0.0025 </r>
        <r>  0.0002  0.0002  0.0019 </r>
        <r>  0.0011  0.0006  0.0022 </r>
        <r>  0.0000  0.0001  0.0008 </r>
        <r>  0.0003  0.0010  0.0007 </r>
        <r>  0.0002  0.0004  0.0004 </r>
       </set>
       <set comment="band 207">
        <r>  0.0007  0.0001  0.0148 </r>
        <r>  0.0002  0.0016  0.0059 </r>
        <r>  0.0009  0.0002  0.0029 </r>
        <r>  0.0007  0.0003  0.0140 </r>
        <r>  0.0005  0.0002  0.0211 </r>
        <r>  0.0012  0.0002  0.0344 </r>
        <r>  0.0017  0.0001  0.0041 </r>
        <r>  0.0007  0.0002  0.0147 </r>
        <r>  0.0001  0.0006  0.0007 </r>
        <r>  0.0001  0.0005  0.0002 </r>
        <r>  0.0000  0.0110  0.0004 </r>
        <r>  0.0000  0.0059  0.0003 </r>
        <r>  0.0000  0.0018  0.0005 </r>
        <r>  0.0000  0.0042  0.0009 </r>
        <r>  0.0000  0.0079  0.0001 </r>
        <r>  0.0001  0.0056  0.0005 </r>
        <r>  0.0000  0.0004  0.0006 </r>
        <r>  0.0001  0.0002  0.0009 </r>
        <r>  0.0002  0.0015  0.0021 </r>
        <r>  0.0001  0.0013  0.0003 </r>
        <r>  0.0000  0.0006  0.0006 </r>
        <r>  0.0008  0.0029  0.0024 </r>
        <r>  0.0006  0.0011  0.0014 </r>
        <r>  0.0002  0.0007  0.0009 </r>
        <r>  0.0015  0.0020  0.0019 </r>
        <r>  0.0003  0.0007  0.0023 </r>
        <r>  0.0000  0.0013  0.0005 </r>
        <r>  0.0005  0.0017  0.0014 </r>
        <r>  0.0016  0.0012  0.0024 </r>
        <r>  0.0007  0.0008  0.0024 </r>
        <r>  0.0018  0.0026  0.0043 </r>
        <r>  0.0001  0.0007  0.0008 </r>
        <r>  0.0000  0.0009  0.0005 </r>
        <r>  0.0000  0.0005  0.0008 </r>
        <r>  0.0000  0.0019  0.0007 </r>
        <r>  0.0001  0.0033  0.0010 </r>
        <r>  0.0007  0.0004  0.0018 </r>
        <r>  0.0004  0.0032  0.0016 </r>
        <r>  0.0001  0.0015  0.0007 </r>
       </set>
       <set comment="band 208">
        <r>  0.0000  0.0002  0.0048 </r>
        <r>  0.0008  0.0007  0.0199 </r>
        <r>  0.0006  0.0009  0.0154 </r>
        <r>  0.0007  0.0004  0.0092 </r>
        <r>  0.0004  0.0011  0.0159 </r>
        <r>  0.0009  0.0005  0.0240 </r>
        <r>  0.0045  0.0006  0.0061 </r>
        <r>  0.0006  0.0001  0.0083 </r>
        <r>  0.0000  0.0011  0.0004 </r>
        <r>  0.0002  0.0064  0.0006 </r>
        <r>  0.0000  0.0062  0.0002 </r>
        <r>  0.0000  0.0098  0.0001 </r>
        <r>  0.0000  0.0008  0.0002 </r>
        <r>  0.0000  0.0044  0.0003 </r>
        <r>  0.0000  0.0066  0.0001 </r>
        <r>  0.0002  0.0039  0.0004 </r>
        <r>  0.0000  0.0006  0.0008 </r>
        <r>  0.0001  0.0021  0.0006 </r>
        <r>  0.0000  0.0026  0.0012 </r>
        <r>  0.0000  0.0047  0.0010 </r>
        <r>  0.0003  0.0010  0.0010 </r>
        <r>  0.0001  0.0008  0.0006 </r>
        <r>  0.0010  0.0003  0.0020 </r>
        <r>  0.0001  0.0017  0.0003 </r>
        <r>  0.0000  0.0008  0.0005 </r>
        <r>  0.0017  0.0016  0.0022 </r>
        <r>  0.0009  0.0013  0.0024 </r>
        <r>  0.0011  0.0044  0.0008 </r>
        <r>  0.0010  0.0011  0.0038 </r>
        <r>  0.0000  0.0009  0.0005 </r>
        <r>  0.0001  0.0022  0.0010 </r>
        <r>  0.0000  0.0023  0.0035 </r>
        <r>  0.0001  0.0009  0.0004 </r>
        <r>  0.0011  0.0027  0.0016 </r>
        <r>  0.0001  0.0005  0.0008 </r>
        <r>  0.0012  0.0006  0.0016 </r>
        <r>  0.0001  0.0013  0.0015 </r>
        <r>  0.0000  0.0011  0.0011 </r>
        <r>  0.0008  0.0007  0.0007 </r>
       </set>
      </set>
     </set>
    </set>
   </array>
  </projected>
 </calculation>
 <structure name="finalpos" >
  <crystal>
   <varray name="basis" >
    <v>       8.45648900       0.00000000       8.04030100 </v>
    <v>       0.00000000      11.72984700       0.00000000 </v>
    <v>      -8.45648900       0.00000000       8.04030100 </v>
   </varray>
   <i name="volume">   1595.08833419 </i>
   <varray name="rec_basis" >
    <v>       0.05912619      -0.00000000       0.06218673 </v>
    <v>       0.00000000       0.08525260      -0.00000000 </v>
    <v>      -0.05912619       0.00000000       0.06218673 </v>
   </varray>
  </crystal>
  <varray name="positions" >
   <v>       0.26872300       0.24951200       0.20080500 </v>
   <v>       0.77302500       0.24002400       0.72796700 </v>
   <v>       0.71696000       0.76093000       0.25123600 </v>
   <v>       0.20239100       0.75472300       0.78201000 </v>
   <v>       0.28420600       0.24541800       0.73021400 </v>
   <v>       0.79638500       0.24712400       0.22598700 </v>
   <v>       0.73559800       0.75031300       0.80512500 </v>
   <v>       0.22203700       0.75202000       0.27698900 </v>
   <v>       0.00095900       0.00114900       0.00007700 </v>
   <v>       0.50256100       0.00134800       0.49842400 </v>
   <v>       0.49883600       0.00002000       0.99967000 </v>
   <v>       0.00251100       0.00133700       0.49991500 </v>
   <v>       0.49921300       0.49813900       0.00034400 </v>
   <v>       0.00114500       0.50624800       0.50055700 </v>
   <v>       0.00009400       0.49936300       0.00015600 </v>
   <v>       0.48698700       0.49431000       0.50256000 </v>
   <v>       0.47304000       0.74898500       0.96402700 </v>
   <v>       0.96899500       0.75263700       0.45475900 </v>
   <v>       0.97486800       0.25053900       0.97264200 </v>
   <v>       0.46647800       0.24478300       0.46785900 </v>
   <v>       0.01734100       0.75032600       0.03160100 </v>
   <v>       0.52963300       0.24925700       0.03895500 </v>
   <v>       0.01949800       0.25518900       0.53740400 </v>
   <v>       0.24745900       0.46966200       0.94771500 </v>
   <v>       0.45312800       0.53637500       0.25225700 </v>
   <v>       0.94753800       0.53284400       0.74616600 </v>
   <v>       0.54759300       0.02766900       0.75033900 </v>
   <v>       0.05066600       0.03554900       0.25245200 </v>
   <v>       0.75282900       0.98099100       0.04326700 </v>
   <v>       0.25713100       0.95806000       0.54728900 </v>
   <v>       0.24846900       0.03106600       0.94944800 </v>
   <v>       0.74962700       0.03326300       0.44877200 </v>
   <v>       0.45287700       0.95980900       0.24925300 </v>
   <v>       0.95149400       0.96548100       0.74719900 </v>
   <v>       0.75214600       0.52511200       0.05295300 </v>
   <v>       0.24497900       0.54574500       0.55196900 </v>
   <v>       0.54634900       0.45922700       0.75089800 </v>
   <v>       0.05010700       0.46530100       0.25380500 </v>
   <v>       0.65631900       0.62183300       0.49809600 </v>
  </varray>
 </structure>
</modeling>
