 running on   64 total cores
 distrk:  each k-point on   64 cores,    1 groups
 distr:  one band on    8 cores,    8 groups
 using from now: INCAR     
 vasp.5.4.4.18Apr17-6-g9f103f2a35 (build Jun 22 2020 09:27:21) complex           
 POSCAR found type information on POSCAR  Cs Pb Br
 POSCAR found :  3 types and      39 ions
 scaLAPACK will be used
 LDA part: xc-table for Pade appr. of Perdew
 POSCAR found type information on POSCAR  Cs Pb Br
 POSCAR found :  3 types and      39 ions
 POSCAR, INCAR and KPOINTS ok, starting setup
 FFT: planning ...
 WAVECAR not read
 entering main loop
       N       E                     dE             d eps       ncg     rms          rms(c)
DAV:   1     0.133556200523E+04    0.13356E+04   -0.11055E+05  3464   0.973E+02
DAV:   2    -0.111493435383E+04   -0.24505E+04   -0.23665E+04  4120   0.300E+02
DAV:   3    -0.147456142167E+04   -0.35963E+03   -0.35773E+03  4424   0.136E+02
DAV:   4    -0.148640069074E+04   -0.11839E+02   -0.11804E+02  3944   0.328E+01
DAV:   5    -0.148692150727E+04   -0.52082E+00   -0.52058E+00  4440   0.542E+00BRMIX: very serious problems
 the old and the new charge density differ
 old charge density:   345.00000 new  344.00000
    0.105E+01
DAV:   6    -0.140927934577E+04    0.77642E+02   -0.23478E+01  4312   0.310E+01    0.744E+00
DAV:   7    -0.140876381331E+04    0.51553E+00   -0.85579E+00  4096   0.560E+00    0.373E+00
DAV:   8    -0.140893547547E+04   -0.17166E+00   -0.44410E-01  4056   0.203E+00    0.216E+00
DAV:   9    -0.140899933756E+04   -0.63862E-01   -0.16720E-01  3840   0.131E+00    0.459E-01
DAV:  10    -0.140900258450E+04   -0.32469E-02   -0.21928E-02  4552   0.450E-01    0.319E-01
DAV:  11    -0.140900488560E+04   -0.23011E-02   -0.30871E-03  3840   0.170E-01    0.139E-01
DAV:  12    -0.140900753185E+04   -0.26463E-02   -0.49113E-03  3616   0.183E-01    0.103E-01
DAV:  13    -0.140900711411E+04    0.41774E-03   -0.17140E-03  4352   0.123E-01    0.437E-02
DAV:  14    -0.140900709250E+04    0.21610E-04   -0.44286E-04  3904   0.403E-02    0.287E-02
DAV:  15    -0.140900707343E+04    0.19071E-04   -0.42432E-05  3688   0.162E-02    0.173E-02
DAV:  16    -0.140900715339E+04   -0.79959E-04   -0.40530E-05  3800   0.207E-02    0.816E-03
DAV:  17    -0.140900714382E+04    0.95712E-05   -0.63200E-06  3576   0.679E-03    0.619E-03
DAV:  18    -0.140900714423E+04   -0.40640E-06   -0.23450E-06  2880   0.335E-03
   1 F= -.14090071E+04 E0= -.14090071E+04  d E =-.328836E-32
Application 1919263 resources: utime ~28657s, stime ~121s, Rss ~77824, inblocks ~1334, outblocks ~111424
