CsPbBr3 cubic bulk                      
           1
     8.456489    0.000000    8.040301
     0.000000   11.729847    0.000000
    -8.456489    0.000000    8.040301
   Cs   Pb   Br
   8   8  23
Direct configuration=     1
   0.26872300  0.24951200  0.20080500
   0.77302500  0.24002400  0.72796700
   0.71696000  0.76093000  0.25123600
   0.20239100  0.75472300  0.78201000
   0.28420600  0.24541800  0.73021400
   0.79638500  0.24712400  0.22598700
   0.73559800  0.75031300  0.80512500
   0.22203700  0.75202000  0.27698900
   0.00095900  0.00114900  0.00007700
   0.50256100  0.00134800  0.49842400
   0.49883600  0.00002000  0.99967000
   0.00251100  0.00133700  0.49991500
   0.49921300  0.49813900  0.00034400
   0.00114500  0.50624800  0.50055700
   0.00009400  0.49936300  0.00015600
   0.48698700  0.49431000  0.50256000
   0.47304000  0.74898500  0.96402700
   0.96899500  0.75263700  0.45475900
   0.97486800  0.25053900  0.97264200
   0.46647800  0.24478300  0.46785900
   0.01734100  0.75032600  0.03160100
   0.52963300  0.24925700  0.03895500
   0.01949800  0.25518900  0.53740400
   0.24745900  0.46966200  0.94771500
   0.45312800  0.53637500  0.25225700
   0.94753800  0.53284400  0.74616600
   0.54759300  0.02766900  0.75033900
   0.05066600  0.03554900  0.25245200
   0.75282900  0.98099100  0.04326700
   0.25713100  0.95806000  0.54728900
   0.24846900  0.03106600  0.94944800
   0.74962700  0.03326300  0.44877200
   0.45287700  0.95980900  0.24925300
   0.95149400  0.96548100  0.74719900
   0.75214600  0.52511200  0.05295300
   0.24497900  0.54574500  0.55196900
   0.54634900  0.45922700  0.75089800
   0.05010700  0.46530100  0.25380500
   0.65631900  0.62183300  0.49809600
