 vasp.5.4.4.18Apr17-6-g9f103f2a35 (build Jun 22 2020 09:27:21) complex           
 executed on tx2_gcc-7.3_libsci-1 date 2021.10.11  20:18:43
 running on   64 total cores
 distrk:  each k-point on   64 cores,    1 groups
 distr:  one band on NCORES_PER_BAND=   8 cores,    8 groups


--------------------------------------------------------------------------------------------------------


 INCAR:
 POTCAR:    PAW_PBE Cs_sv 08Apr2002               
 POTCAR:    PAW_PBE Pb_d 06Sep2000                
 POTCAR:    PAW_PBE Br 06Sep2000                  
 POTCAR:    PAW_PBE Cs_sv 08Apr2002               
   SHA256 =  c1463496f0f6037ed62c6012a8013a89ee9ad6ffb38599dcd6c079e7ed31779b Cs
   COPYR  = (c) Copyright 08Apr2002 Georg Kresse                                
   COPYR  = This file is part of the software VASP. Any use, copying, and all ot
   COPYR  = If you do not have a valid VASP license, you may not use, copy or di
   VRHFIN =Cs: 5s5p6s                                                           
   LEXCH  = PE                                                                  
   EATOM  =   555.6835 eV,   40.8416 Ry                                         
                                                                                
   TITEL  = PAW_PBE Cs_sv 08Apr2002                                             
   LULTRA =        F    use ultrasoft PP ?                                      
   IUNSCR =        1    unscreen: 0-lin 1-nonlin 2-no                           
   RPACOR =    2.200    partial core radius                                     
   POMASS =  132.900; ZVAL   =    9.000    mass and valenz                      
   RCORE  =    2.500    outmost cutoff radius                                   
   RWIGS  =    2.500; RWIGS  =    1.323    wigner-seitz radius (au A)           
   ENMAX  =  220.318; ENMIN  =  165.238 eV                                      
   RCLOC  =    2.207    cutoff for local pot                                    
   LCOR   =        T    correct aug charges                                     
   LPAW   =        T    paw PP                                                  
   EAUG   =  407.933                                                            
   DEXC   =    0.000                                                            
   RMAX   =    2.554    core radius for proj-oper                               
   RAUG   =    1.300    factor for augmentation sphere                          
   RDEP   =    2.590    radius for radial grids                                 
   RDEPT  =    2.117    core radius for aug-charge                              
                                                                                
   Atomic configuration                                                         
   13 entries                                                                   
     n  l   j            E        occ.                                          
     1  0  0.50    -35790.1377   2.0000                                         
     2  0  0.50     -5613.6201   2.0000                                         
     2  1  1.50     -5035.0101   6.0000                                         
     3  0  0.50     -1167.0767   2.0000                                         
     3  1  1.50      -980.9754   6.0000                                         
     3  2  2.50      -708.0703  10.0000                                         
     4  0  0.50      -220.2386   2.0000                                         
     4  1  1.50      -160.7596   6.0000                                         
     4  2  2.50       -74.2354  10.0000                                         
     5  0  0.50       -26.7287   2.0000                                         
     6  0  0.50        -2.0862   1.0000                                         
     5  1  1.50       -13.5159   6.0000                                         
     5  2  2.50        -0.4136   0.0000                                         
   Description                                                                  
     l       E           TYP  RCUT    TYP  RCUT                                 
     0    -26.7287425     23  1.900                                             
     0     -2.0862306     23  1.900                                             
     1    -13.5158719     23  2.500                                             
     1     -2.7211652     23  2.500                                             
     2     -0.4136171     23  2.500                                             
  local pseudopotential read in
  partial core-charges read in
  partial kinetic energy density read in
  atomic valenz-charges read in
  non local Contribution for L=           0  read in
    real space projection operators read in
  non local Contribution for L=           0  read in
    real space projection operators read in
  non local Contribution for L=           1  read in
    real space projection operators read in
  non local Contribution for L=           1  read in
    real space projection operators read in
  non local Contribution for L=           2  read in
    real space projection operators read in
    PAW grid and wavefunctions read in

   number of l-projection  operators is LMAX  =           5
   number of lm-projection operators is LMMAX =          13

 POTCAR:    PAW_PBE Pb_d 06Sep2000                
   SHA256 =  fb885b08f0fba73a15f6a6b0e39bd200c13ec96ef97cf3ecd8e63bade5137abd Pb
   COPYR  = (c) Copyright 06Sep2000 Georg Kresse                                
   COPYR  = This file is part of the software VASP. Any use, copying, and all ot
   COPYR  = If you do not have a valid VASP license, you may not use, copy or di
   VRHFIN =Pb:                                                                  
   LEXCH  = PE                                                                  
   EATOM  =  1661.6185 eV,  122.1255 Ry                                         
                                                                                
   TITEL  = PAW_PBE Pb_d 06Sep2000                                              
   LULTRA =        F    use ultrasoft PP ?                                      
   IUNSCR =        1    unscreen: 0-lin 1-nonlin 2-no                           
   RPACOR =    2.200    partial core radius                                     
   POMASS =  207.200; ZVAL   =   14.000    mass and valenz                      
   RCORE  =    2.500    outmost cutoff radius                                   
   RWIGS  =    3.260; RWIGS  =    1.725    wigner-seitz radius (au A)           
   ENMAX  =  237.835; ENMIN  =  178.376 eV                                      
   ICORE  =        3    local potential                                         
   LCOR   =        T    correct aug charges                                     
   LPAW   =        T    paw PP                                                  
   EAUG   =  391.914                                                            
   DEXC   =    0.000                                                            
   RMAX   =    2.565    core radius for proj-oper                               
   RAUG   =    1.300    factor for augmentation sphere                          
   RDEP   =    2.643    radius for radial grids                                 
   RDEPT  =    2.092    core radius for aug-charge                              
                                                                                
   Atomic configuration                                                         
   16 entries                                                                   
     n  l   j            E        occ.                                          
     1  0  0.50    -88091.8466   2.0000                                         
     2  0  0.50    -15753.4197   2.0000                                         
     2  1  1.50    -13508.1797   6.0000                                         
     3  0  0.50     -3781.7194   2.0000                                         
     3  1  1.50     -3138.2529   6.0000                                         
     3  2  2.50     -2483.2977  10.0000                                         
     4  0  0.50      -856.2895   2.0000                                         
     4  1  1.50      -645.4942   6.0000                                         
     4  2  2.50      -401.8768  10.0000                                         
     4  3  3.50      -132.9059  14.0000                                         
     5  0  0.50      -144.0950   2.0000                                         
     5  1  1.50       -85.7879   6.0000                                         
     5  2  2.50       -21.1769  10.0000                                         
     6  0  0.50       -12.0372   2.0000                                         
     6  1  1.50        -3.4971   2.0000                                         
     5  3  2.50        -2.7212   0.0000                                         
   Description                                                                  
     l       E           TYP  RCUT    TYP  RCUT                                 
     2    -21.1768523     23  2.500                                             
     2      1.3605826     23  2.500                                             
     0    -12.0371562     23  2.500                                             
     0     13.6058260     23  2.500                                             
     1     -3.4971339     23  2.500                                             
     1     13.6058260     23  2.500                                             
     3     -1.3605826      7  2.500                                             
  local pseudopotential read in
  partial core-charges read in
  partial kinetic energy density read in
  atomic valenz-charges read in
  non local Contribution for L=           2  read in
    real space projection operators read in
  non local Contribution for L=           2  read in
    real space projection operators read in
  non local Contribution for L=           0  read in
    real space projection operators read in
  non local Contribution for L=           0  read in
    real space projection operators read in
  non local Contribution for L=           1  read in
    real space projection operators read in
  non local Contribution for L=           1  read in
    real space projection operators read in
    PAW grid and wavefunctions read in

   number of l-projection  operators is LMAX  =           6
   number of lm-projection operators is LMMAX =          18

 POTCAR:    PAW_PBE Br 06Sep2000                  
   SHA256 =  96a73d2954943bbee26f4990d676cc6c3bf44b8dd2c75cd4b3b825d8403f0103 Br
   COPYR  = (c) Copyright 06Sep2000 Georg Kresse                                
   COPYR  = This file is part of the software VASP. Any use, copying, and all ot
   COPYR  = If you do not have a valid VASP license, you may not use, copy or di
   VRHFIN =Br: s2p5                                                             
   LEXCH  = PE                                                                  
   EATOM  =   368.4488 eV,   27.0802 Ry                                         
                                                                                
   TITEL  = PAW_PBE Br 06Sep2000                                                
   LULTRA =        F    use ultrasoft PP ?                                      
   IUNSCR =        1    unscreen: 0-lin 1-nonlin 2-no                           
   RPACOR =    1.900    partial core radius                                     
   POMASS =   79.904; ZVAL   =    7.000    mass and valenz                      
   RCORE  =    2.100    outmost cutoff radius                                   
   RWIGS  =    2.200; RWIGS  =    1.164    wigner-seitz radius (au A)           
   ENMAX  =  216.285; ENMIN  =  162.214 eV                                      
   ICORE  =        3    local potential                                         
   LCOR   =        T    correct aug charges                                     
   LPAW   =        T    paw PP                                                  
   EAUG   =  503.852                                                            
   DEXC   =    0.000                                                            
   RMAX   =    2.139    core radius for proj-oper                               
   RAUG   =    1.300    factor for augmentation sphere                          
   RDEP   =    2.186    radius for radial grids                                 
   RDEPT  =    1.890    core radius for aug-charge                              
                                                                                
   Atomic configuration                                                         
   10 entries                                                                   
     n  l   j            E        occ.                                          
     1  0  0.50    -13316.2796   2.0000                                         
     2  0  0.50     -1732.8239   2.0000                                         
     2  1  1.50     -1528.2193   6.0000                                         
     3  0  0.50      -238.0460   2.0000                                         
     3  1  1.50      -173.4609   6.0000                                         
     3  2  2.50       -66.7132  10.0000                                         
     4  0  0.50       -20.1334   2.0000                                         
     4  1  0.50        -7.8591   5.0000                                         
     4  2  2.50        -8.1635   0.0000                                         
     4  3  2.50        -8.1635   0.0000                                         
   Description                                                                  
     l       E           TYP  RCUT    TYP  RCUT                                 
     0    -20.1333652     23  2.100                                             
     0    -21.4939478     23  2.100                                             
     1     -7.8591052     23  2.100                                             
     1     -3.1608434     23  2.100                                             
     2     -8.1634956     23  2.100                                             
     3     -1.3605826      7  2.100                                             
  local pseudopotential read in
  partial core-charges read in
  partial kinetic energy density read in
  atomic valenz-charges read in
  non local Contribution for L=           0  read in
    real space projection operators read in
  non local Contribution for L=           0  read in
    real space projection operators read in
  non local Contribution for L=           1  read in
    real space projection operators read in
  non local Contribution for L=           1  read in
    real space projection operators read in
  non local Contribution for L=           2  read in
    real space projection operators read in
    PAW grid and wavefunctions read in

   number of l-projection  operators is LMAX  =           5
   number of lm-projection operators is LMMAX =          13

 Optimization of the real space projectors (new method)

 maximal supplied QI-value         = 15.12
 optimisation between [QCUT,QGAM] = [  8.77, 17.69] = [ 21.53, 87.61] Ry 
 Optimized for a Real-space Cutoff    1.85 Angstroem

   l    n(q)    QCUT    max X(q) W(low)/X(q) W(high)/X(q)  e(spline) 
   0     10     8.768    25.322    0.81E-04    0.51E-04    0.48E-06
   0     10     8.768    99.187    0.78E-04    0.50E-04    0.47E-06
   1      9     8.768    11.761    0.21E-03    0.20E-03    0.37E-06
   1      9     8.768     8.275    0.24E-03    0.22E-03    0.41E-06
   2      9     8.768     3.829    0.23E-04    0.15E-03    0.18E-06
 Optimization of the real space projectors (new method)

 maximal supplied QI-value         = 15.12
 optimisation between [QCUT,QGAM] = [  8.77, 17.69] = [ 21.53, 87.61] Ry 
 Optimized for a Real-space Cutoff    1.59 Angstroem

   l    n(q)    QCUT    max X(q) W(low)/X(q) W(high)/X(q)  e(spline) 
   2      7     8.768     3.846    0.48E-04    0.11E-03    0.11E-06
   2      7     8.768     8.593    0.20E-03    0.22E-04    0.24E-06
   0      8     8.768    20.082    0.68E-04    0.88E-04    0.41E-07
   0      8     8.768     8.597    0.89E-04    0.13E-03    0.59E-07
   1      8     8.768    33.223    0.15E-03    0.53E-04    0.87E-07
   1      8     8.768    15.899    0.14E-03    0.44E-04    0.78E-07
 Optimization of the real space projectors (new method)

 maximal supplied QI-value         = 17.95
 optimisation between [QCUT,QGAM] = [  8.80, 17.59] = [ 21.67, 86.68] Ry 
 Optimized for a Real-space Cutoff    1.59 Angstroem

   l    n(q)    QCUT    max X(q) W(low)/X(q) W(high)/X(q)  e(spline) 
   0      8     8.797   175.082    0.82E-04    0.14E-03    0.89E-07
   0      8     8.797   174.004    0.79E-04    0.14E-03    0.86E-07
   1      8     8.797    54.315    0.16E-03    0.14E-04    0.30E-06
   1      8     8.797    42.441    0.16E-03    0.14E-04    0.30E-06
   2      7     8.797     3.596    0.92E-04    0.15E-03    0.85E-07
  PAW_PBE Cs_sv 08Apr2002               :
 energy of atom  1       EATOM= -555.6835
 kinetic energy error for atom=    0.0069 (will be added to EATOM!!)
  PAW_PBE Pb_d 06Sep2000                :
 energy of atom  2       EATOM=-1661.6185
 kinetic energy error for atom=    0.0498 (will be added to EATOM!!)
  PAW_PBE Br 06Sep2000                  :
 energy of atom  3       EATOM= -368.4488
 kinetic energy error for atom=    0.0072 (will be added to EATOM!!)


 POSCAR: Cs8 Pb8 Br23                            
  positions in direct lattice
  No initial velocities read in

 METAGGA = SCAN     LMAXTAU =  6    LMIXTAU =  F

 exchange correlation table for  LEXCH =        8
   RHO(1)=    0.500       N(1)  =     2000
   RHO(2)=  100.500       N(2)  =     4000

 VTST: version 3.2, (02/03/18)

 CHAIN: initializing optimizer
 
 OPT: Using VASP Conjugate-Gradient optimizer
 CHAIN: Read ICHAIN            0

 POSCAR: Cs8 Pb8 Br23                            
  positions in direct lattice
  No initial velocities read in



--------------------------------------------------------------------------------------------------------


 ion  position               nearest neighbor table
   1  0.265  0.254  0.207-
   2  0.770  0.241  0.740-
   3  0.706  0.766  0.239-
   4  0.212  0.749  0.778-
   5  0.300  0.263  0.740-
   6  0.791  0.245  0.215-
   7  0.735  0.750  0.807-
   8  0.231  0.745  0.278-
   9  0.004  0.001  0.998-  18 2.95  20 2.96  29 2.97  31 2.99  28 3.01  34 3.03
  10  0.501  0.008  0.495-  19 2.84  33 2.98  27 2.98  32 3.00  30 3.09
  11  0.496  0.003  0.996-  31 2.94  21 2.96  17 2.97  27 2.99  29 3.03  33 3.03
  12  0.005  0.025  0.504-  22 2.90  30 2.97  28 2.98  34 2.98  32 3.03
  13  0.501  0.502  0.001-  21 2.96  17 2.98  23 2.98  35 2.98  25 3.00  37 3.02
  14  0.968  0.498  0.502-  24 2.78  26 2.90  22 2.90  38 3.05
  15  1.000  0.501  0.005-  18 2.96  20 2.97  38 2.97  35 2.98  23 2.98  26 3.06
  16  0.512  0.501  0.501-  37 2.98  25 2.99  36 3.00  24 3.01  19 3.10
  17  0.475  0.752  0.969-  11 2.97  13 2.98
  18  0.985  0.251  0.974-   9 2.95  15 2.96
  19  0.453  0.244  0.471-  10 2.84  16 3.10
  20  0.020  0.751  0.033-   9 2.96  15 2.97
  21  0.522  0.252  0.033-  11 2.96  13 2.96
  22  0.047  0.266  0.542-  12 2.90  14 2.90
  23  0.248  0.479  0.958-  13 2.98  15 2.98
  24  0.748  0.408  0.466-  14 2.78  16 3.01
  25  0.463  0.541  0.250-  16 2.99  13 3.00
  26  0.951  0.533  0.747-  14 2.90  15 3.06
  27  0.544  0.028  0.748-  10 2.98  11 2.99
  28  0.047  0.029  0.254-  12 2.98   9 3.01
  29  0.754  0.986  0.031-   9 2.97  11 3.03
  30  0.248  0.954  0.541-  12 2.97  10 3.09
  31  0.249  0.031  0.940-  11 2.94   9 2.99
  32  0.749  0.032  0.446-  10 3.00  12 3.03
  33  0.448  0.966  0.246-  10 2.98  11 3.03
  34  0.955  0.963  0.744-  12 2.98   9 3.03
  35  0.753  0.525  0.051-  15 2.98  13 2.98
  36  0.266  0.556  0.541-  16 3.00
  37  0.555  0.469  0.753-  16 2.98  13 3.02
  38  0.042  0.471  0.256-  15 2.97  14 3.05
  39  0.721  0.712  0.506-


IMPORTANT INFORMATION: All symmetrisations will be switched off!
NOSYMM: (Re-)initialisation of all symmetry stuff for point group C_1.



 KPOINTS: 1x1x1                                   

Automatic generation of k-mesh.
Space group operators:
 irot       det(A)        alpha          n_x          n_y          n_z        tau_x        tau_y        tau_z
    1     1.000000     0.000001     1.000000     0.000000     0.000000     0.000000     0.000000     0.000000
 
 Subroutine IBZKPT returns following result:
 ===========================================
 
 Found      8 irreducible k-points:
 
 Following reciprocal coordinates:
            Coordinates               Weight
  0.000000  0.000000  0.000000      1.000000
  0.500000  0.000000  0.000000      1.000000
  0.000000  0.500000  0.000000      1.000000
  0.500000  0.500000  0.000000      1.000000
  0.000000  0.000000  0.500000      1.000000
  0.500000  0.000000  0.500000      1.000000
  0.000000  0.500000  0.500000      1.000000
  0.500000  0.500000  0.500000      1.000000
 
 Following cartesian coordinates:
            Coordinates               Weight
 -0.000000  0.000000  0.000000      1.000000
  0.029563  0.000000  0.031093      1.000000
 -0.000000  0.042626  0.000000      1.000000
  0.029563  0.042626  0.031093      1.000000
 -0.029563  0.000000  0.031093      1.000000
  0.000000  0.000000  0.062187      1.000000
 -0.029563  0.042626  0.031093      1.000000
  0.000000  0.042626  0.062187      1.000000
 


--------------------------------------------------------------------------------------------------------




 Dimension of arrays:
   k-points           NKPTS =      8   k-points in BZ     NKDIM =      8   number of bands    NBANDS=    208
   number of dos      NEDOS =    301   number of ions     NIONS =     39
   non local maximal  LDIM  =      6   non local SUM 2l+1 LMDIM =     18
   total plane-waves  NPLWV = 343000
   max r-space proj   IRMAX =   5734   max aug-charges    IRDMAX=  91523
   dimension x,y,z NGX =    70 NGY =   70 NGZ =   70
   dimension x,y,z NGXF=   140 NGYF=  140 NGZF=  140
   support grid    NGXF=   280 NGYF=  280 NGZF=  280
   ions per type =               8   8  23
   NGX,Y,Z   is equivalent  to a cutoff of   9.97,  9.92,  9.97 a.u.
   NGXF,Y,Z  is equivalent  to a cutoff of  19.95, 19.84, 19.95 a.u.

 SYSTEM =  CsPbBr3 cubic bulk                      
 POSCAR =  Cs8 Pb8 Br23                            

 Startparameter for this run:
   NWRITE =      2    write-flag & timer
   PREC   = accura    normal or accurate (medium, high low for compatibility)
   ISTART =      0    job   : 0-new  1-cont  2-samecut
   ICHARG =      2    charge: 1-file 2-atom 10-const
   ISPIN  =      1    spin polarized calculation?
   LNONCOLLINEAR =      F non collinear calculations
   LSORBIT =      F    spin-orbit coupling
   INIWAV =      1    electr: 0-lowe 1-rand  2-diag
   LASPH  =      T    aspherical Exc in radial PAW
   METAGGA=      F    non-selfconsistent MetaGGA calc.

 Electronic Relaxation 1
   ENCUT  =  300.0 eV  22.05 Ry    4.70 a.u.  16.48 16.57 16.48*2*pi/ulx,y,z
   ENINI  =  300.0     initial cutoff
   ENAUG  =  503.9 eV  augmentation charge cutoff
   NELM   =    200;   NELMIN=  2; NELMDL= -5     # of ELM steps 
   EDIFF  = 0.1E-05   stopping-criterion for ELM
   LREAL  =      T    real-space projection
   NLSPLINE    = F    spline interpolate recip. space projectors
   LCOMPAT=      F    compatible to vasp.4.4
   GGA_COMPAT  = T    GGA compatible to vasp.4.4-vasp.4.6
   LMAXPAW     = -100 max onsite density
   LMAXMIX     =    2 max onsite mixed and CHGCAR
   VOSKOWN=      0    Vosko Wilk Nusair interpolation
   ROPT   =   -0.00025  -0.00025  -0.00025
 Ionic relaxation
   EDIFFG = -.1E-01   stopping-criterion for IOM
   NSW    =      0    number of steps for IOM
   NBLOCK =      1;   KBLOCK =      1    inner block; outer block 
   IBRION =     -1    ionic relax: 0-MD 1-quasi-New 2-CG
   NFREE  =      1    steps in history (QN), initial steepest desc. (CG)
   ISIF   =      2    stress and relaxation
   IWAVPR =     10    prediction:  0-non 1-charg 2-wave 3-comb
   ISYM   =      0    0-nonsym 1-usesym 2-fastsym
   LCORR  =      T    Harris-Foulkes like correction to forces

   POTIM  = 0.5000    time-step for ionic-motion
   TEIN   =    0.0    initial temperature
   TEBEG  =    0.0;   TEEND  =   0.0 temperature during run
   SMASS  =  -3.00    Nose mass-parameter (am)
   estimated Nose-frequenzy (Omega)   =  0.10E-29 period in steps =****** mass=  -0.311E-26a.u.
   SCALEE = 1.0000    scale energy and forces
   NPACO  =    256;   APACO  = 16.0  distance and # of slots for P.C.
   PSTRESS=    0.0 pullay stress

  Mass of Ions in am
   POMASS = 132.90207.20 79.90
  Ionic Valenz
   ZVAL   =   9.00 14.00  7.00
  Atomic Wigner-Seitz radii
   RWIGS  =  -1.00 -1.00 -1.00
  virtual crystal weights 
   VCA    =   1.00  1.00  1.00
   NELECT =     344.0000    total number of electrons
   NUPDOWN=       0.0000    fix difference up-down

 DOS related values:
   EMIN   =  10.00;   EMAX   =-10.00  energy-range for DOS
   EFERMI =   0.00
   ISMEAR =     0;   SIGMA  =   0.01  broadening in eV -4-tet -1-fermi 0-gaus

 Electronic relaxation 2 (details)
   IALGO  =     38    algorithm
   LDIAG  =      T    sub-space diagonalisation (order eigenvalues)
   LSUBROT=      F    optimize rotation matrix (better conditioning)
   TURBO    =      0    0=normal 1=particle mesh
   IRESTART =      0    0=no restart 2=restart with 2 vectors
   NREBOOT  =      0    no. of reboots
   NMIN     =      0    reboot dimension
   EREF     =   0.00    reference energy to select bands
   IMIX   =      4    mixing-type and parameters
     AMIX     =   0.40;   BMIX     =  1.00
     AMIX_MAG =   1.60;   BMIX_MAG =  1.00
     AMIN     =   0.10
     WC   =   100.;   INIMIX=   1;  MIXPRE=   1;  MAXMIX= -45

 Intra band minimization:
   WEIMIN = 0.0000     energy-eigenvalue tresh-hold
   EBREAK =  0.12E-08  absolut break condition
   DEPER  =   0.30     relativ break condition  

   TIME   =   0.40     timestep for ELM

  volume/ion in A,a.u.               =      40.90       276.00
  Fermi-wavevector in a.u.,A,eV,Ry     =   0.981747  1.855232 13.113654  0.963826
  Thomas-Fermi vector in A             =   2.112777

 Write flags
   LWAVE        =      F    write WAVECAR
   LDOWNSAMPLE  =      F    k-point downsampling of WAVECAR
   LCHARG       =      F    write CHGCAR
   LVTOT        =      F    write LOCPOT, total local potential
   LVHAR        =      T    write LOCPOT, Hartree potential only
   LELF         =      F    write electronic localiz. function (ELF)
   LORBIT       =     10    0 simple, 1 ext, 2 COOP (PROOUT), +10 PAW based schemes


 Dipole corrections
   LMONO  =      F    monopole corrections only (constant potential shift)
   LDIPOL =      F    correct potential (dipole corrections)
   IDIPOL =      0    1-x, 2-y, 3-z, 4-all directions 
   EPSILON=  1.0000000 bulk dielectric constant

 Exchange correlation treatment:
   GGA     =    --    GGA type
   LEXCH   =     8    internal setting for exchange type
   VOSKOWN=      0    Vosko Wilk Nusair interpolation
   LHFCALC =     F    Hartree Fock is set to
   LHFONE  =     F    Hartree Fock one center treatment
   AEXX    =    0.0000 exact exchange contribution

 Linear response parameters
   LEPSILON=     F    determine dielectric tensor
   LRPA    =     F    only Hartree local field effects (RPA)
   LNABLA  =     F    use nabla operator in PAW spheres
   LVEL    =     F    velocity operator in full k-point grid
   LINTERFAST=   F  fast interpolation
   KINTER  =     0    interpolate to denser k-point grid
   CSHIFT  =0.1000    complex shift for real part using Kramers Kronig
   OMEGAMAX=  -1.0    maximum frequency
   DEG_THRESHOLD= 0.2000000E-02 threshold for treating states as degnerate
   RTIME   =   -0.100 relaxation time in fs
  (WPLASMAI=    0.000 imaginary part of plasma frequency in eV, 0.658/RTIME)
   DFIELD  = 0.0000000 0.0000000 0.0000000 field for delta impulse in time

 Orbital magnetization related:
   ORBITALMAG=     F  switch on orbital magnetization
   LCHIMAG   =     F  perturbation theory with respect to B field
   DQ        =  0.001000  dq finite difference perturbation B field
   LLRAUG    =     F  two centre corrections for induced B field



--------------------------------------------------------------------------------------------------------


 Static calculation
 charge density and potential will be updated during run
 non-spin polarized calculation
 Variant of blocked Davidson
 Davidson routine will perform the subspace rotation
 perform sub-space diagonalisation
    after iterative eigenvector-optimisation
 modified Broyden-mixing scheme, WC =      100.0
 initial mixing is a Kerker type mixing with AMIX =  0.4000 and BMIX =      1.0000
 Hartree-type preconditioning will be used
 using additional bands           36
 real space projection scheme for non local part
 use partial core corrections
 calculate Harris-corrections to forces   (improved forces if not selfconsistent)
 use gradient corrections 
 use of overlap-Matrix (Vanderbilt PP)
 Gauss-broadening in eV      SIGMA  =   0.01


--------------------------------------------------------------------------------------------------------


  energy-cutoff  :      300.00
  volume of cell :     1595.09
      direct lattice vectors                 reciprocal lattice vectors
     8.456489000  0.000000000  8.040301000     0.059126193 -0.000000000  0.062186727
     0.000000000 11.729847000  0.000000000     0.000000000  0.085252604 -0.000000000
    -8.456489000  0.000000000  8.040301000    -0.059126193  0.000000000  0.062186727

  length of vectors
    11.668703715 11.729847000 11.668703715     0.085808482  0.085252604  0.085808482



 k-points in units of 2pi/SCALE and weight: 1x1x1                                   
  -0.00000000  0.00000000  0.00000000       0.125
   0.02956310  0.00000000  0.03109336       0.125
  -0.00000000  0.04262630  0.00000000       0.125
   0.02956310  0.04262630  0.03109336       0.125
  -0.02956310  0.00000000  0.03109336       0.125
   0.00000000  0.00000000  0.06218673       0.125
  -0.02956310  0.04262630  0.03109336       0.125
   0.00000000  0.04262630  0.06218673       0.125

 k-points in reciprocal lattice and weights: 1x1x1                                   
   0.00000000  0.00000000  0.00000000       0.125
   0.50000000  0.00000000  0.00000000       0.125
   0.00000000  0.50000000  0.00000000       0.125
   0.50000000  0.50000000  0.00000000       0.125
   0.00000000  0.00000000  0.50000000       0.125
   0.50000000  0.00000000  0.50000000       0.125
   0.00000000  0.50000000  0.50000000       0.125
   0.50000000  0.50000000  0.50000000       0.125

 position of ions in fractional coordinates (direct lattice) 
   0.26531300  0.25418400  0.20653600
   0.76991000  0.24109500  0.74032900
   0.70616900  0.76593300  0.23889300
   0.21236300  0.74907900  0.77848900
   0.29999300  0.26335400  0.73991300
   0.79059300  0.24520000  0.21500400
   0.73520800  0.75012700  0.80693500
   0.23077200  0.74522600  0.27799700
   0.00407900  0.00104300  0.99828400
   0.50096500  0.00758100  0.49475900
   0.49559700  0.00303400  0.99581400
   0.00547500  0.02510600  0.50354700
   0.50069400  0.50157700  0.00089900
   0.96788900  0.49785400  0.50186100
   0.99999500  0.50079800  0.00488100
   0.51194900  0.50083600  0.50100500
   0.47532900  0.75214400  0.96857900
   0.98547300  0.25110500  0.97379000
   0.45253000  0.24434500  0.47127700
   0.02039400  0.75141000  0.03289000
   0.52209700  0.25168200  0.03348800
   0.04672500  0.26591100  0.54170900
   0.24807100  0.47869400  0.95800400
   0.74797000  0.40831300  0.46594800
   0.46344700  0.54083700  0.25010600
   0.95116700  0.53327900  0.74658000
   0.54391500  0.02848000  0.74766500
   0.04722500  0.02943500  0.25355900
   0.75380200  0.98618400  0.03088200
   0.24847000  0.95361300  0.54067000
   0.24865700  0.03077400  0.94028500
   0.74948000  0.03167800  0.44613900
   0.44834900  0.96568900  0.24604700
   0.95497400  0.96259900  0.74354300
   0.75265400  0.52498500  0.05135800
   0.26633300  0.55580300  0.54131700
   0.55494500  0.46856700  0.75306700
   0.04237800  0.47072900  0.25619300
   0.72060200  0.71171600  0.50575100

 position of ions in cartesian coordinates  (Angst):
   0.49704705  2.98153943  3.79380799
   0.25015140  2.82800746 12.14277614
   3.95151435  8.98427690  7.59858294
  -4.78743829  8.78658206  7.96674833
  -3.72017864  3.08910213  8.36115725
   4.86746205  2.87615848  8.08530256
  -0.60655859  8.79887494 12.39929391
  -0.39935769  8.74138696  4.09065590
  -8.40748365  0.01223423  8.05930023
   0.05248097  0.08892397  8.00592067
  -4.23007956  0.03558836 11.99139335
  -4.21194039  0.29448954  4.09269010
   4.22651092  5.88342147  4.03295870
   3.94096066  5.83975125 11.81723239
   8.41517059  5.87428392  8.07950551
   0.09254782  5.87472965  8.14445506
  -4.17116320  8.82253404 11.60945494
   0.09879716  2.94542323 15.75306426
  -0.15853380  2.86612947  7.42768635
  -0.10567229  8.81392433  0.42841940
   4.13191663  2.95219135  4.46707063
  -4.18582675  3.11909535  4.73118648
  -6.00354061  5.61500738  9.69720603
   2.38491594  4.78944902  9.76026611
   1.80411582  6.34393526  5.73718090
   1.73008772  6.25528108 13.65039690
  -1.72300963  0.33406604 10.38469197
  -1.74486120  0.34526805  2.41839390
   6.11336503 11.56778743  6.30909555
  -2.47098609 11.18573459  6.34492313
  -5.84874457  0.36097431  9.55945155
   2.56519983  0.37157809  9.61313664
   1.71076464 11.32738422  5.58315285
   1.78796393 11.29113899 13.65658793
   5.93050191  6.15799373  6.46449849
  -2.32539917  6.51948415  6.49374910
  -1.67541651  5.49621922 10.51681019
  -1.80812420  5.52157915  2.40060071
   1.81688512  8.34831979  9.86024725



--------------------------------------------------------------------------------------------------------


 k-point  1 :   0.0000 0.0000 0.0000  plane waves:   18809
 k-point  2 :   0.5000 0.0000 0.0000  plane waves:   18808
 k-point  3 :   0.0000 0.5000 0.0000  plane waves:   18794
 k-point  4 :   0.5000 0.5000 0.0000  plane waves:   18804
 k-point  5 :   0.0000 0.0000 0.5000  plane waves:   18808
 k-point  6 :   0.5000 0.0000 0.5000  plane waves:   18790
 k-point  7 :   0.0000 0.5000 0.5000  plane waves:   18804
 k-point  8 :   0.5000 0.5000 0.5000  plane waves:   18800

 maximum and minimum number of plane-waves per node :      2389     2304

 maximum number of plane-waves:     18809
 maximum index in each direction: 
   IXMAX=   16   IYMAX=   16   IZMAX=   16
   IXMIN=  -16   IYMIN=  -17   IZMIN=  -16


 real space projection operators:
  total allocation   :      16740.91 KBytes
  max/ min on nodes  :       2182.57       1839.88


 parallel 3D FFT for wavefunctions:
    minimum data exchange during FFTs selected (reduces bandwidth)
 parallel 3D FFT for charge:
    minimum data exchange during FFTs selected (reduces bandwidth)


 total amount of memory used by VASP MPI-rank0    60643. kBytes
=======================================================================

   base      :      30000. kBytes
   nonlr-proj:       6478. kBytes
   fftplans  :       8423. kBytes
   grid      :       7465. kBytes
   one-center:         77. kBytes
   wavefun   :       8200. kBytes

     INWAV:  cpu time    0.0000: real time    0.0000
 Broyden mixing: mesh for mixing (old mesh)
   NGX = 33   NGY = 33   NGZ = 33
  (NGX  =140   NGY  =140   NGZ  =140)
  gives a total of  35937 points

 initial charge density was supplied:
 charge density of overlapping atoms calculated
 number of electron     345.0000000 magnetization 
 keeping initial charge density in first step


--------------------------------------------------------------------------------------------------------


 Maximum index for non-local projection operator          733
 Maximum index for augmentation-charges         3845 (set IRDMAX)


--------------------------------------------------------------------------------------------------------


 First call to EWALD:  gamma=   0.152
 Maximum number of real-space cells 3x 3x 3
 Maximum number of reciprocal cells 3x 3x 3

    FEWALD:  cpu time    0.0041: real time    0.0041


--------------------------------------- Iteration      1(   1)  ---------------------------------------


    POTLOK:  cpu time    0.2605: real time    0.2637
    SETDIJ:  cpu time    1.2027: real time    1.2028
     EDDAV:  cpu time   16.5697: real time   16.5746
       DOS:  cpu time    0.0012: real time    0.0012
    --------------------------------------------
      LOOP:  cpu time   18.0341: real time   18.0423

 eigenvalue-minimisations  :  3448
 total energy-change (2. order) : 0.1329960E+04  (-0.1105840E+05)
 number of electron     345.0000000 magnetization 
 augmentation part      345.0000000 magnetization 

 Free energy of the ion-electron system (eV)
  ---------------------------------------------------
  alpha Z        PSCENC =       872.70583573
  Ewald energy   TEWEN  =    -17933.51286696
  -Hartree energ DENC   =     -7423.89849039
  -exchange      EXHF   =         0.00000000
  -V(xc)+E(xc)   XCENC  =       907.93574034
  PAW double counting   =     21345.28103884   -22405.85761495
  entropy T*S    EENTRO =        -0.00132091
  eigenvalues    EBANDS =      -244.81086717
  atomic energy  EATOM  =     26212.11861568
  Solvation  Ediel_sol  =         0.00000000
  ---------------------------------------------------
  free energy    TOTEN  =      1329.96007021 eV

  energy without entropy =     1329.96139112  energy(sigma->0) =     1329.96073066


--------------------------------------------------------------------------------------------------------




--------------------------------------- Iteration      1(   2)  ---------------------------------------


     EDDAV:  cpu time   18.4200: real time   18.4812
       DOS:  cpu time    0.0004: real time    0.0004
    --------------------------------------------
      LOOP:  cpu time   18.4203: real time   18.4816

 eigenvalue-minimisations  :  4072
 total energy-change (2. order) :-0.2440939E+04  (-0.2351900E+04)
 number of electron     345.0000000 magnetization 
 augmentation part      345.0000000 magnetization 

 Free energy of the ion-electron system (eV)
  ---------------------------------------------------
  alpha Z        PSCENC =       872.70583573
  Ewald energy   TEWEN  =    -17933.51286696
  -Hartree energ DENC   =     -7423.89849039
  -exchange      EXHF   =         0.00000000
  -V(xc)+E(xc)   XCENC  =       907.93574034
  PAW double counting   =     21345.28103884   -22405.85761495
  entropy T*S    EENTRO =        -0.00000000
  eigenvalues    EBANDS =     -2685.75095946
  atomic energy  EATOM  =     26212.11861568
  Solvation  Ediel_sol  =         0.00000000
  ---------------------------------------------------
  free energy    TOTEN  =     -1110.97870117 eV

  energy without entropy =    -1110.97870117  energy(sigma->0) =    -1110.97870117


--------------------------------------------------------------------------------------------------------




--------------------------------------- Iteration      1(   3)  ---------------------------------------


     EDDAV:  cpu time   19.4804: real time   19.5186
       DOS:  cpu time    0.0004: real time    0.0004
    --------------------------------------------
      LOOP:  cpu time   19.4807: real time   19.5190

 eigenvalue-minimisations  :  4448
 total energy-change (2. order) :-0.3639815E+03  (-0.3620213E+03)
 number of electron     345.0000000 magnetization 
 augmentation part      345.0000000 magnetization 

 Free energy of the ion-electron system (eV)
  ---------------------------------------------------
  alpha Z        PSCENC =       872.70583573
  Ewald energy   TEWEN  =    -17933.51286696
  -Hartree energ DENC   =     -7423.89849039
  -exchange      EXHF   =         0.00000000
  -V(xc)+E(xc)   XCENC  =       907.93574034
  PAW double counting   =     21345.28103884   -22405.85761495
  entropy T*S    EENTRO =        -0.00000000
  eigenvalues    EBANDS =     -3049.73243796
  atomic energy  EATOM  =     26212.11861568
  Solvation  Ediel_sol  =         0.00000000
  ---------------------------------------------------
  free energy    TOTEN  =     -1474.96017967 eV

  energy without entropy =    -1474.96017967  energy(sigma->0) =    -1474.96017967


--------------------------------------------------------------------------------------------------------




--------------------------------------- Iteration      1(   4)  ---------------------------------------


     EDDAV:  cpu time   17.8375: real time   17.8908
       DOS:  cpu time    0.0004: real time    0.0004
    --------------------------------------------
      LOOP:  cpu time   17.8379: real time   17.8912

 eigenvalue-minimisations  :  3888
 total energy-change (2. order) :-0.1179622E+02  (-0.1176044E+02)
 number of electron     345.0000000 magnetization 
 augmentation part      345.0000000 magnetization 

 Free energy of the ion-electron system (eV)
  ---------------------------------------------------
  alpha Z        PSCENC =       872.70583573
  Ewald energy   TEWEN  =    -17933.51286696
  -Hartree energ DENC   =     -7423.89849039
  -exchange      EXHF   =         0.00000000
  -V(xc)+E(xc)   XCENC  =       907.93574034
  PAW double counting   =     21345.28103884   -22405.85761495
  entropy T*S    EENTRO =        -0.00000000
  eigenvalues    EBANDS =     -3061.52865823
  atomic energy  EATOM  =     26212.11861568
  Solvation  Ediel_sol  =         0.00000000
  ---------------------------------------------------
  free energy    TOTEN  =     -1486.75639994 eV

  energy without entropy =    -1486.75639994  energy(sigma->0) =    -1486.75639994


--------------------------------------------------------------------------------------------------------




--------------------------------------- Iteration      1(   5)  ---------------------------------------


     EDDAV:  cpu time   19.3689: real time   19.4289
       DOS:  cpu time    0.0004: real time    0.0004
    CHARGE:  cpu time    2.7179: real time    2.7181
    MIXING:  cpu time    0.0018: real time    0.0018
    --------------------------------------------
      LOOP:  cpu time   22.0891: real time   22.1492

 eigenvalue-minimisations  :  4424
 total energy-change (2. order) :-0.5420366E+00  (-0.5418036E+00)
 number of electron     344.0000000 magnetization 
 augmentation part       -5.0357238 magnetization 

 Broyden mixing:
  rms(total) = 0.10129E+01    rms(broyden)= 0.10122E+01
  rms(prec ) = 0.14208E+01
  weight for this iteration     100.00

 Free energy of the ion-electron system (eV)
  ---------------------------------------------------
  alpha Z        PSCENC =       872.70583573
  Ewald energy   TEWEN  =    -17933.51286696
  -Hartree energ DENC   =     -7423.89849039
  -exchange      EXHF   =         0.00000000
  -V(xc)+E(xc)   XCENC  =       907.93574034
  PAW double counting   =     21345.28103884   -22405.85761495
  entropy T*S    EENTRO =        -0.00000000
  eigenvalues    EBANDS =     -3062.07069485
  atomic energy  EATOM  =     26212.11861568
  Solvation  Ediel_sol  =         0.00000000
  ---------------------------------------------------
  free energy    TOTEN  =     -1487.29843656 eV

  energy without entropy =    -1487.29843656  energy(sigma->0) =    -1487.29843656


--------------------------------------------------------------------------------------------------------




--------------------------------------- Iteration      1(   6)  ---------------------------------------


    POTLOK:  cpu time    0.2526: real time    0.3116
    SETDIJ:  cpu time    1.2037: real time    1.2038
     EDDAV:  cpu time   19.1265: real time   19.1274
       DOS:  cpu time    0.0004: real time    0.0004
    CHARGE:  cpu time    2.7113: real time    2.7114
    MIXING:  cpu time    0.0018: real time    0.0018
    --------------------------------------------
      LOOP:  cpu time   23.2964: real time   23.3565

 eigenvalue-minimisations  :  4304
 total energy-change (2. order) : 0.7808164E+02  (-0.2369991E+01)
 number of electron     344.0000000 magnetization 
 augmentation part       -3.6439569 magnetization 

 Broyden mixing:
  rms(total) = 0.72153E+00    rms(broyden)= 0.72143E+00
  rms(prec ) = 0.91458E+00
  weight for this iteration     100.00

 eigenvalues of (default mixing * dielectric matrix)
  average eigenvalue GAMMA=   1.1844
  1.1844

 Free energy of the ion-electron system (eV)
  ---------------------------------------------------
  alpha Z        PSCENC =       872.70583573
  Ewald energy   TEWEN  =    -17933.51286696
  -Hartree energ DENC   =     -7403.33325891
  -exchange      EXHF   =         0.00000000
  -V(xc)+E(xc)   XCENC  =       935.91893622
  PAW double counting   =     21613.80872677   -22672.25853432
  entropy T*S    EENTRO =        -0.00000000
  eigenvalues    EBANDS =     -3034.66424880
  atomic energy  EATOM  =     26212.11861568
  Solvation  Ediel_sol  =         0.00000000
  ---------------------------------------------------
  free energy    TOTEN  =     -1409.21679459 eV

  energy without entropy =    -1409.21679459  energy(sigma->0) =    -1409.21679459


--------------------------------------------------------------------------------------------------------




--------------------------------------- Iteration      1(   7)  ---------------------------------------


    POTLOK:  cpu time    0.3138: real time    0.3173
    SETDIJ:  cpu time    1.2018: real time    1.2018
     EDDAV:  cpu time   18.4069: real time   18.4080
       DOS:  cpu time    0.0004: real time    0.0004
    CHARGE:  cpu time    2.7120: real time    2.7122
    MIXING:  cpu time    0.0015: real time    0.0015
    --------------------------------------------
      LOOP:  cpu time   22.6364: real time   22.6413

 eigenvalue-minimisations  :  4064
 total energy-change (2. order) : 0.5747907E+00  (-0.9467202E+00)
 number of electron     344.0000000 magnetization 
 augmentation part       -3.0533851 magnetization 

 Broyden mixing:
  rms(total) = 0.37572E+00    rms(broyden)= 0.37570E+00
  rms(prec ) = 0.42070E+00
  weight for this iteration     100.00

 eigenvalues of (default mixing * dielectric matrix)
  average eigenvalue GAMMA=   1.2887
  1.2887  1.2887

 Free energy of the ion-electron system (eV)
  ---------------------------------------------------
  alpha Z        PSCENC =       872.70583573
  Ewald energy   TEWEN  =    -17933.51286696
  -Hartree energ DENC   =     -7444.24689254
  -exchange      EXHF   =         0.00000000
  -V(xc)+E(xc)   XCENC  =       940.96403332
  PAW double counting   =     22222.47559423   -23278.66192482
  entropy T*S    EENTRO =        -0.00000000
  eigenvalues    EBANDS =     -3000.48439851
  atomic energy  EATOM  =     26212.11861568
  Solvation  Ediel_sol  =         0.00000000
  ---------------------------------------------------
  free energy    TOTEN  =     -1408.64200387 eV

  energy without entropy =    -1408.64200387  energy(sigma->0) =    -1408.64200387


--------------------------------------------------------------------------------------------------------




--------------------------------------- Iteration      1(   8)  ---------------------------------------


    POTLOK:  cpu time    0.2830: real time    0.3115
    SETDIJ:  cpu time    1.2020: real time    1.2021
     EDDAV:  cpu time   17.8833: real time   17.8839
       DOS:  cpu time    0.0004: real time    0.0004
    CHARGE:  cpu time    2.7011: real time    2.7012
    MIXING:  cpu time    0.0016: real time    0.0016
    --------------------------------------------
      LOOP:  cpu time   22.0713: real time   22.1007

 eigenvalue-minimisations  :  3880
 total energy-change (2. order) :-0.1814278E+00  (-0.5321836E-01)
 number of electron     344.0000000 magnetization 
 augmentation part       -3.1570682 magnetization 

 Broyden mixing:
  rms(total) = 0.22437E+00    rms(broyden)= 0.22437E+00
  rms(prec ) = 0.25615E+00
  weight for this iteration     100.00

 eigenvalues of (default mixing * dielectric matrix)
  average eigenvalue GAMMA=   1.6831
  1.2090  1.2090  2.6314

 Free energy of the ion-electron system (eV)
  ---------------------------------------------------
  alpha Z        PSCENC =       872.70583573
  Ewald energy   TEWEN  =    -17933.51286696
  -Hartree energ DENC   =     -7448.82367665
  -exchange      EXHF   =         0.00000000
  -V(xc)+E(xc)   XCENC  =       941.52182207
  PAW double counting   =     22440.97072541   -23497.45409879
  entropy T*S    EENTRO =        -0.00000000
  eigenvalues    EBANDS =     -2996.34978818
  atomic energy  EATOM  =     26212.11861568
  Solvation  Ediel_sol  =         0.00000000
  ---------------------------------------------------
  free energy    TOTEN  =     -1408.82343168 eV

  energy without entropy =    -1408.82343168  energy(sigma->0) =    -1408.82343168


--------------------------------------------------------------------------------------------------------




--------------------------------------- Iteration      1(   9)  ---------------------------------------


    POTLOK:  cpu time    0.2509: real time    0.3094
    SETDIJ:  cpu time    1.2016: real time    1.2016
     EDDAV:  cpu time   17.3792: real time   17.3800
       DOS:  cpu time    0.0004: real time    0.0004
    CHARGE:  cpu time    2.7113: real time    2.7114
    MIXING:  cpu time    0.0018: real time    0.0018
    --------------------------------------------
      LOOP:  cpu time   21.5452: real time   21.6047

 eigenvalue-minimisations  :  3712
 total energy-change (2. order) :-0.6393131E-01  (-0.2062059E-01)
 number of electron     344.0000000 magnetization 
 augmentation part       -3.1929889 magnetization 

 Broyden mixing:
  rms(total) = 0.48661E-01    rms(broyden)= 0.48657E-01
  rms(prec ) = 0.57607E-01
  weight for this iteration     100.00

 eigenvalues of (default mixing * dielectric matrix)
  average eigenvalue GAMMA=   1.4595
  2.5334  1.2366  1.2366  0.8313

 Free energy of the ion-electron system (eV)
  ---------------------------------------------------
  alpha Z        PSCENC =       872.70583573
  Ewald energy   TEWEN  =    -17933.51286696
  -Hartree energ DENC   =     -7455.59901188
  -exchange      EXHF   =         0.00000000
  -V(xc)+E(xc)   XCENC  =       943.47284838
  PAW double counting   =     22773.22045881   -23830.49928098
  entropy T*S    EENTRO =        -0.00000000
  eigenvalues    EBANDS =     -2990.79396176
  atomic energy  EATOM  =     26212.11861568
  Solvation  Ediel_sol  =         0.00000000
  ---------------------------------------------------
  free energy    TOTEN  =     -1408.88736299 eV

  energy without entropy =    -1408.88736299  energy(sigma->0) =    -1408.88736299


--------------------------------------------------------------------------------------------------------




--------------------------------------- Iteration      1(  10)  ---------------------------------------


    POTLOK:  cpu time    0.3063: real time    0.3078
    SETDIJ:  cpu time    1.2014: real time    1.2014
     EDDAV:  cpu time   19.2642: real time   19.2652
       DOS:  cpu time    0.0004: real time    0.0004
    CHARGE:  cpu time    2.7021: real time    2.7022
    MIXING:  cpu time    0.0017: real time    0.0017
    --------------------------------------------
      LOOP:  cpu time   23.4761: real time   23.4787

 eigenvalue-minimisations  :  4352
 total energy-change (2. order) :-0.4323931E-02  (-0.2647326E-02)
 number of electron     344.0000000 magnetization 
 augmentation part       -3.1830616 magnetization 

 Broyden mixing:
  rms(total) = 0.33631E-01    rms(broyden)= 0.33629E-01
  rms(prec ) = 0.42028E-01
  weight for this iteration     100.00

 eigenvalues of (default mixing * dielectric matrix)
  average eigenvalue GAMMA=   1.3348
  2.3846  1.3343  1.3343  0.8103  0.8103

 Free energy of the ion-electron system (eV)
  ---------------------------------------------------
  alpha Z        PSCENC =       872.70583573
  Ewald energy   TEWEN  =    -17933.51286696
  -Hartree energ DENC   =     -7453.89940155
  -exchange      EXHF   =         0.00000000
  -V(xc)+E(xc)   XCENC  =       943.32215093
  PAW double counting   =     22745.16598366   -23802.53284781
  entropy T*S    EENTRO =        -0.00000000
  eigenvalues    EBANDS =     -2992.25915661
  atomic energy  EATOM  =     26212.11861568
  Solvation  Ediel_sol  =         0.00000000
  ---------------------------------------------------
  free energy    TOTEN  =     -1408.89168692 eV

  energy without entropy =    -1408.89168692  energy(sigma->0) =    -1408.89168692


--------------------------------------------------------------------------------------------------------




--------------------------------------- Iteration      1(  11)  ---------------------------------------


    POTLOK:  cpu time    0.2899: real time    0.3010
    SETDIJ:  cpu time    1.2083: real time    1.2083
     EDDAV:  cpu time   17.3365: real time   17.3377
       DOS:  cpu time    0.0005: real time    0.0005
    CHARGE:  cpu time    2.7088: real time    2.7089
    MIXING:  cpu time    0.0017: real time    0.0017
    --------------------------------------------
      LOOP:  cpu time   21.5457: real time   21.5582

 eigenvalue-minimisations  :  3696
 total energy-change (2. order) :-0.2373827E-02  (-0.3681496E-03)
 number of electron     344.0000000 magnetization 
 augmentation part       -3.1826093 magnetization 

 Broyden mixing:
  rms(total) = 0.14366E-01    rms(broyden)= 0.14366E-01
  rms(prec ) = 0.22032E-01
  weight for this iteration     100.00

 eigenvalues of (default mixing * dielectric matrix)
  average eigenvalue GAMMA=   1.5978
  2.7488  2.7488  1.1948  1.1948  0.8500  0.8500

 Free energy of the ion-electron system (eV)
  ---------------------------------------------------
  alpha Z        PSCENC =       872.70583573
  Ewald energy   TEWEN  =    -17933.51286696
  -Hartree energ DENC   =     -7452.28754971
  -exchange      EXHF   =         0.00000000
  -V(xc)+E(xc)   XCENC  =       943.23781330
  PAW double counting   =     22726.87998874   -23784.48601422
  entropy T*S    EENTRO =        -0.00000000
  eigenvalues    EBANDS =     -2993.54988331
  atomic energy  EATOM  =     26212.11861568
  Solvation  Ediel_sol  =         0.00000000
  ---------------------------------------------------
  free energy    TOTEN  =     -1408.89406075 eV

  energy without entropy =    -1408.89406075  energy(sigma->0) =    -1408.89406075


--------------------------------------------------------------------------------------------------------




--------------------------------------- Iteration      1(  12)  ---------------------------------------


    POTLOK:  cpu time    0.2739: real time    0.3105
    SETDIJ:  cpu time    1.2073: real time    1.2073
     EDDAV:  cpu time   16.9016: real time   16.9025
       DOS:  cpu time    0.0004: real time    0.0004
    CHARGE:  cpu time    2.7058: real time    2.7060
    MIXING:  cpu time    0.0017: real time    0.0017
    --------------------------------------------
      LOOP:  cpu time   21.0906: real time   21.1282

 eigenvalue-minimisations  :  3544
 total energy-change (2. order) :-0.2910882E-02  (-0.5109077E-03)
 number of electron     344.0000000 magnetization 
 augmentation part       -3.1862591 magnetization 

 Broyden mixing:
  rms(total) = 0.99141E-02    rms(broyden)= 0.99131E-02
  rms(prec ) = 0.12787E-01
  weight for this iteration     100.00

 eigenvalues of (default mixing * dielectric matrix)
  average eigenvalue GAMMA=   1.6089
  2.8331  2.8331  1.3481  1.3481  0.9106  0.9946  0.9946

 Free energy of the ion-electron system (eV)
  ---------------------------------------------------
  alpha Z        PSCENC =       872.70583573
  Ewald energy   TEWEN  =    -17933.51286696
  -Hartree energ DENC   =     -7451.44280379
  -exchange      EXHF   =         0.00000000
  -V(xc)+E(xc)   XCENC  =       943.25874472
  PAW double counting   =     22720.78478731   -23778.68808284
  entropy T*S    EENTRO =        -0.00000000
  eigenvalues    EBANDS =     -2994.12120147
  atomic energy  EATOM  =     26212.11861568
  Solvation  Ediel_sol  =         0.00000000
  ---------------------------------------------------
  free energy    TOTEN  =     -1408.89697163 eV

  energy without entropy =    -1408.89697163  energy(sigma->0) =    -1408.89697163


--------------------------------------------------------------------------------------------------------




--------------------------------------- Iteration      1(  13)  ---------------------------------------


    POTLOK:  cpu time    0.2678: real time    0.3072
    SETDIJ:  cpu time    1.2070: real time    1.2070
     EDDAV:  cpu time   19.3291: real time   19.3300
       DOS:  cpu time    0.0004: real time    0.0004
    CHARGE:  cpu time    2.7125: real time    2.7125
    MIXING:  cpu time    0.0020: real time    0.0020
    --------------------------------------------
      LOOP:  cpu time   23.5188: real time   23.5592

 eigenvalue-minimisations  :  4376
 total energy-change (2. order) : 0.3273180E-03  (-0.1402713E-03)
 number of electron     344.0000000 magnetization 
 augmentation part       -3.1863905 magnetization 

 Broyden mixing:
  rms(total) = 0.41092E-02    rms(broyden)= 0.41085E-02
  rms(prec ) = 0.50080E-02
  weight for this iteration     100.00

 eigenvalues of (default mixing * dielectric matrix)
  average eigenvalue GAMMA=   1.5576
  3.1717  2.4266  1.5803  1.1520  1.1520  1.1435  0.9934  0.8411

 Free energy of the ion-electron system (eV)
  ---------------------------------------------------
  alpha Z        PSCENC =       872.70583573
  Ewald energy   TEWEN  =    -17933.51286696
  -Hartree energ DENC   =     -7452.49448904
  -exchange      EXHF   =         0.00000000
  -V(xc)+E(xc)   XCENC  =       943.32942544
  PAW double counting   =     22720.58857743   -23778.43599502
  entropy T*S    EENTRO =        -0.00000000
  eigenvalues    EBANDS =     -2993.19574756
  atomic energy  EATOM  =     26212.11861568
  Solvation  Ediel_sol  =         0.00000000
  ---------------------------------------------------
  free energy    TOTEN  =     -1408.89664431 eV

  energy without entropy =    -1408.89664431  energy(sigma->0) =    -1408.89664431


--------------------------------------------------------------------------------------------------------




--------------------------------------- Iteration      1(  14)  ---------------------------------------


    POTLOK:  cpu time    0.2702: real time    0.3083
    SETDIJ:  cpu time    1.2087: real time    1.2088
     EDDAV:  cpu time   17.9122: real time   17.9130
       DOS:  cpu time    0.0004: real time    0.0004
    CHARGE:  cpu time    2.7092: real time    2.7093
    MIXING:  cpu time    0.0017: real time    0.0017
    --------------------------------------------
      LOOP:  cpu time   22.1024: real time   22.1415

 eigenvalue-minimisations  :  3888
 total energy-change (2. order) : 0.1901594E-04  (-0.3458943E-04)
 number of electron     344.0000000 magnetization 
 augmentation part       -3.1857232 magnetization 

 Broyden mixing:
  rms(total) = 0.22472E-02    rms(broyden)= 0.22459E-02
  rms(prec ) = 0.30894E-02
  weight for this iteration     100.00

 eigenvalues of (default mixing * dielectric matrix)
  average eigenvalue GAMMA=   1.5630
  3.1882  2.2581  2.2581  1.1465  1.1465  1.1423  1.1423  0.8926  0.8926

 Free energy of the ion-electron system (eV)
  ---------------------------------------------------
  alpha Z        PSCENC =       872.70583573
  Ewald energy   TEWEN  =    -17933.51286696
  -Hartree energ DENC   =     -7452.69272862
  -exchange      EXHF   =         0.00000000
  -V(xc)+E(xc)   XCENC  =       943.34238086
  PAW double counting   =     22722.27946003   -23780.10796256
  entropy T*S    EENTRO =        -0.00000000
  eigenvalues    EBANDS =     -2993.02935945
  atomic energy  EATOM  =     26212.11861568
  Solvation  Ediel_sol  =         0.00000000
  ---------------------------------------------------
  free energy    TOTEN  =     -1408.89662529 eV

  energy without entropy =    -1408.89662529  energy(sigma->0) =    -1408.89662529


--------------------------------------------------------------------------------------------------------




--------------------------------------- Iteration      1(  15)  ---------------------------------------


    POTLOK:  cpu time    0.2847: real time    0.2956
    SETDIJ:  cpu time    1.2091: real time    1.2092
     EDDAV:  cpu time   17.4749: real time   17.4756
       DOS:  cpu time    0.0004: real time    0.0004
    CHARGE:  cpu time    2.7066: real time    2.7067
    MIXING:  cpu time    0.0018: real time    0.0018
    --------------------------------------------
      LOOP:  cpu time   21.6776: real time   21.6894

 eigenvalue-minimisations  :  3744
 total energy-change (2. order) :-0.3809884E-05  (-0.3612230E-05)
 number of electron     344.0000000 magnetization 
 augmentation part       -3.1856902 magnetization 

 Broyden mixing:
  rms(total) = 0.12586E-02    rms(broyden)= 0.12571E-02
  rms(prec ) = 0.18546E-02
  weight for this iteration     100.00

 eigenvalues of (default mixing * dielectric matrix)
  average eigenvalue GAMMA=   1.6360
  3.6589  2.4675  2.4675  1.3511  1.3511  1.1886  1.1886  0.8321  0.9275  0.9275

 Free energy of the ion-electron system (eV)
  ---------------------------------------------------
  alpha Z        PSCENC =       872.70583573
  Ewald energy   TEWEN  =    -17933.51286696
  -Hartree energ DENC   =     -7452.85313355
  -exchange      EXHF   =         0.00000000
  -V(xc)+E(xc)   XCENC  =       943.34776288
  PAW double counting   =     22722.46700745   -23780.28809322
  entropy T*S    EENTRO =        -0.00000000
  eigenvalues    EBANDS =     -2992.88175711
  atomic energy  EATOM  =     26212.11861568
  Solvation  Ediel_sol  =         0.00000000
  ---------------------------------------------------
  free energy    TOTEN  =     -1408.89662910 eV

  energy without entropy =    -1408.89662910  energy(sigma->0) =    -1408.89662910


--------------------------------------------------------------------------------------------------------




--------------------------------------- Iteration      1(  16)  ---------------------------------------


    POTLOK:  cpu time    0.2884: real time    0.3066
    SETDIJ:  cpu time    1.2078: real time    1.2078
     EDDAV:  cpu time   17.2790: real time   17.2799
       DOS:  cpu time    0.0005: real time    0.0005
    CHARGE:  cpu time    2.7080: real time    2.7081
    MIXING:  cpu time    0.0019: real time    0.0019
    --------------------------------------------
      LOOP:  cpu time   21.4856: real time   21.5049

 eigenvalue-minimisations  :  3672
 total energy-change (2. order) :-0.6475317E-04  (-0.3539648E-05)
 number of electron     344.0000000 magnetization 
 augmentation part       -3.1853652 magnetization 

 Broyden mixing:
  rms(total) = 0.61262E-03    rms(broyden)= 0.60957E-03
  rms(prec ) = 0.75087E-03
  weight for this iteration     100.00

 eigenvalues of (default mixing * dielectric matrix)
  average eigenvalue GAMMA=   1.6970
  4.0642  2.9023  2.1677  2.1677  1.1633  1.1633  1.1387  1.1387  0.8385  0.9612
  0.9612

 Free energy of the ion-electron system (eV)
  ---------------------------------------------------
  alpha Z        PSCENC =       872.70583573
  Ewald energy   TEWEN  =    -17933.51286696
  -Hartree energ DENC   =     -7452.86552269
  -exchange      EXHF   =         0.00000000
  -V(xc)+E(xc)   XCENC  =       943.33974935
  PAW double counting   =     22721.66416124   -23779.48506365
  entropy T*S    EENTRO =        -0.00000000
  eigenvalues    EBANDS =     -2992.86160255
  atomic energy  EATOM  =     26212.11861568
  Solvation  Ediel_sol  =         0.00000000
  ---------------------------------------------------
  free energy    TOTEN  =     -1408.89669386 eV

  energy without entropy =    -1408.89669386  energy(sigma->0) =    -1408.89669386


--------------------------------------------------------------------------------------------------------




--------------------------------------- Iteration      1(  17)  ---------------------------------------


    POTLOK:  cpu time    0.2576: real time    0.3063
    SETDIJ:  cpu time    1.2063: real time    1.2063
     EDDAV:  cpu time   17.7340: real time   17.7348
       DOS:  cpu time    0.0004: real time    0.0004
    CHARGE:  cpu time    2.7097: real time    2.7099
    MIXING:  cpu time    0.0020: real time    0.0020
    --------------------------------------------
      LOOP:  cpu time   21.9100: real time   21.9597

 eigenvalue-minimisations  :  3816
 total energy-change (2. order) : 0.3817290E-05  (-0.8531728E-06)
 number of electron     344.0000000 magnetization 
 augmentation part       -3.1853528 magnetization 

 Broyden mixing:
  rms(total) = 0.33299E-03    rms(broyden)= 0.32741E-03
  rms(prec ) = 0.37340E-03
  weight for this iteration     100.00

 eigenvalues of (default mixing * dielectric matrix)
  average eigenvalue GAMMA=   1.6390
  4.1697  2.9560  2.1860  2.1860  1.2160  1.2160  1.1520  1.1520  0.9561  0.9561
  0.7851  0.7365

 Free energy of the ion-electron system (eV)
  ---------------------------------------------------
  alpha Z        PSCENC =       872.70583573
  Ewald energy   TEWEN  =    -17933.51286696
  -Hartree energ DENC   =     -7452.85602120
  -exchange      EXHF   =         0.00000000
  -V(xc)+E(xc)   XCENC  =       943.33707318
  PAW double counting   =     22721.87999032   -23779.69819723
  entropy T*S    EENTRO =        -0.00000000
  eigenvalues    EBANDS =     -2992.87111956
  atomic energy  EATOM  =     26212.11861568
  Solvation  Ediel_sol  =         0.00000000
  ---------------------------------------------------
  free energy    TOTEN  =     -1408.89669004 eV

  energy without entropy =    -1408.89669004  energy(sigma->0) =    -1408.89669004


--------------------------------------------------------------------------------------------------------




--------------------------------------- Iteration      1(  18)  ---------------------------------------


    POTLOK:  cpu time    0.2806: real time    0.3095
    SETDIJ:  cpu time    1.2058: real time    1.2059
     EDDAV:  cpu time   14.3626: real time   14.3633
       DOS:  cpu time    0.0004: real time    0.0004
    CHARGE:  cpu time    2.7109: real time    2.7110
    MIXING:  cpu time    0.0022: real time    0.0022
    --------------------------------------------
      LOOP:  cpu time   18.5625: real time   18.5922

 eigenvalue-minimisations  :  2640
 total energy-change (2. order) : 0.2844682E-05  (-0.3395001E-06)
 number of electron     344.0000000 magnetization 
 augmentation part       -3.1854082 magnetization 

 Broyden mixing:
  rms(total) = 0.25922E-03    rms(broyden)= 0.25201E-03
  rms(prec ) = 0.28198E-03
  weight for this iteration     100.00

 eigenvalues of (default mixing * dielectric matrix)
  average eigenvalue GAMMA=   1.5705
  4.2609  2.9625  2.1877  2.1877  1.2142  1.2142  1.1457  1.1457  0.9575  0.9575
  0.8091  0.6870  0.6870

 Free energy of the ion-electron system (eV)
  ---------------------------------------------------
  alpha Z        PSCENC =       872.70583573
  Ewald energy   TEWEN  =    -17933.51286696
  -Hartree energ DENC   =     -7452.85799919
  -exchange      EXHF   =         0.00000000
  -V(xc)+E(xc)   XCENC  =       943.33718154
  PAW double counting   =     22721.88262760   -23779.70383956
  entropy T*S    EENTRO =        -0.00000000
  eigenvalues    EBANDS =     -2992.86624203
  atomic energy  EATOM  =     26212.11861568
  Solvation  Ediel_sol  =         0.00000000
  ---------------------------------------------------
  free energy    TOTEN  =     -1408.89668719 eV

  energy without entropy =    -1408.89668719  energy(sigma->0) =    -1408.89668719


--------------------------------------------------------------------------------------------------------




--------------------------------------- Iteration      1(  19)  ---------------------------------------


    POTLOK:  cpu time    0.2538: real time    0.2886
    SETDIJ:  cpu time    1.2078: real time    1.2079
     EDDAV:  cpu time   13.3355: real time   13.3363
       DOS:  cpu time    0.0004: real time    0.0004
    CHARGE:  cpu time    2.7129: real time    2.7130
    MIXING:  cpu time    0.0024: real time    0.0024
    --------------------------------------------
      LOOP:  cpu time   17.5127: real time   17.5486

 eigenvalue-minimisations  :  2280
 total energy-change (2. order) : 0.3237713E-05  (-0.2675867E-06)
 number of electron     344.0000000 magnetization 
 augmentation part       -3.1853708 magnetization 

 Broyden mixing:
  rms(total) = 0.16830E-03    rms(broyden)= 0.15700E-03
  rms(prec ) = 0.18254E-03
  weight for this iteration     100.00

 eigenvalues of (default mixing * dielectric matrix)
  average eigenvalue GAMMA=   1.6026
  4.5660  3.0216  2.3598  2.1450  1.3532  1.3532  1.1259  1.1259  1.1322  1.1322
  0.9565  0.9565  0.8239  0.3842

 Free energy of the ion-electron system (eV)
  ---------------------------------------------------
  alpha Z        PSCENC =       872.70583573
  Ewald energy   TEWEN  =    -17933.51286696
  -Hartree energ DENC   =     -7452.86135154
  -exchange      EXHF   =         0.00000000
  -V(xc)+E(xc)   XCENC  =       943.33731303
  PAW double counting   =     22721.90660140   -23779.72377369
  entropy T*S    EENTRO =        -0.00000000
  eigenvalues    EBANDS =     -2992.86705761
  atomic energy  EATOM  =     26212.11861568
  Solvation  Ediel_sol  =         0.00000000
  ---------------------------------------------------
  free energy    TOTEN  =     -1408.89668396 eV

  energy without entropy =    -1408.89668396  energy(sigma->0) =    -1408.89668396


--------------------------------------------------------------------------------------------------------




--------------------------------------- Iteration      1(  20)  ---------------------------------------


    POTLOK:  cpu time    0.2726: real time    0.3131
    SETDIJ:  cpu time    1.2075: real time    1.2075
     EDDAV:  cpu time   12.9163: real time   12.9169
       DOS:  cpu time    0.0004: real time    0.0004
    CHARGE:  cpu time    2.7098: real time    2.7100
    MIXING:  cpu time    0.0023: real time    0.0023
    --------------------------------------------
      LOOP:  cpu time   17.1090: real time   17.1503

 eigenvalue-minimisations  :  2136
 total energy-change (2. order) : 0.4391115E-05  (-0.2215525E-07)
 number of electron     344.0000000 magnetization 
 augmentation part       -3.1854039 magnetization 

 Broyden mixing:
  rms(total) = 0.12125E-03    rms(broyden)= 0.10502E-03
  rms(prec ) = 0.11558E-03
  weight for this iteration     100.00
  WARNING: grid for Broyden might be to small

 eigenvalues of (default mixing * dielectric matrix)
  average eigenvalue GAMMA=   1.6051
  4.6417  3.0976  2.2371  2.2371  2.0107  1.2262  1.2262  1.1824  1.1824  0.9685
  0.9685  0.9521  0.8469  0.8469  0.4521

 Free energy of the ion-electron system (eV)
  ---------------------------------------------------
  alpha Z        PSCENC =       872.70583573
  Ewald energy   TEWEN  =    -17933.51286696
  -Hartree energ DENC   =     -7452.86625791
  -exchange      EXHF   =         0.00000000
  -V(xc)+E(xc)   XCENC  =       943.33742613
  PAW double counting   =     22721.96194037   -23779.77876111
  entropy T*S    EENTRO =        -0.00000000
  eigenvalues    EBANDS =     -2992.86261149
  atomic energy  EATOM  =     26212.11861568
  Solvation  Ediel_sol  =         0.00000000
  ---------------------------------------------------
  free energy    TOTEN  =     -1408.89667957 eV

  energy without entropy =    -1408.89667957  energy(sigma->0) =    -1408.89667957


--------------------------------------------------------------------------------------------------------




--------------------------------------- Iteration      1(  21)  ---------------------------------------


    POTLOK:  cpu time    0.2813: real time    0.3161
    SETDIJ:  cpu time    1.2094: real time    1.2094
     EDDAV:  cpu time   12.5559: real time   12.5564
       DOS:  cpu time    0.0004: real time    0.0004
    --------------------------------------------
      LOOP:  cpu time   14.0470: real time   14.0823

 eigenvalue-minimisations  :  2008
 total energy-change (2. order) : 0.1602016E-06  (-0.9326763E-08)
 number of electron     344.0000000 magnetization 
 augmentation part       -3.1854039 magnetization 

 Free energy of the ion-electron system (eV)
  ---------------------------------------------------
  alpha Z        PSCENC =       872.70583573
  Ewald energy   TEWEN  =    -17933.51286696
  -Hartree energ DENC   =     -7452.86764246
  -exchange      EXHF   =         0.00000000
  -V(xc)+E(xc)   XCENC  =       943.33754703
  PAW double counting   =     22721.94869534   -23779.76533387
  entropy T*S    EENTRO =        -0.00000000
  eigenvalues    EBANDS =     -2992.86152989
  atomic energy  EATOM  =     26212.11861568
  Solvation  Ediel_sol  =         0.00000000
  ---------------------------------------------------
  free energy    TOTEN  =     -1408.89667941 eV

  energy without entropy =    -1408.89667941  energy(sigma->0) =    -1408.89667941


--------------------------------------------------------------------------------------------------------




 average (electrostatic) potential at core
  the test charge radii are     1.1312  1.1541  1.0178
  (the norm of the test charge is              1.0000)
       1 -55.2981       2 -55.2837       3 -54.9600       4 -55.2095       5 -55.2817
       6 -55.1487       7 -54.9652       8 -55.3726       9-101.6746      10-101.9389
      11-101.6439      12-102.0466      13-101.6130      14-102.0240      15-101.6463
      16-101.8760      17 -69.0323      18 -69.0962      19 -69.3970      20 -69.0926
      21 -69.0697      22 -69.6408      23 -69.0264      24 -69.2529      25 -69.0109
      26 -69.0557      27 -69.0492      28 -69.1168      29 -69.0081      30 -69.1001
      31 -69.0673      32 -68.9154      33 -69.0585      34 -69.0672      35 -68.9985
      36 -68.6538      37 -68.9960      38 -69.0456      39 -68.0577



 E-fermi :   0.4224     XC(G=0):  -7.9601     alpha+bet : -6.9586


 k-point     1 :       0.0000    0.0000    0.0000
  band No.  band energies     occupation 
      1     -20.8996      2.00000
      2     -20.8227      2.00000
      3     -20.8121      2.00000
      4     -20.8100      2.00000
      5     -20.7417      2.00000
      6     -20.6887      2.00000
      7     -20.5304      2.00000
      8     -20.5088      2.00000
      9     -16.8459      2.00000
     10     -16.7873      2.00000
     11     -16.7664      2.00000
     12     -16.7647      2.00000
     13     -16.7238      2.00000
     14     -16.7179      2.00000
     15     -16.7134      2.00000
     16     -16.6901      2.00000
     17     -16.6805      2.00000
     18     -16.6655      2.00000
     19     -16.6528      2.00000
     20     -16.6357      2.00000
     21     -16.6174      2.00000
     22     -16.6010      2.00000
     23     -16.5909      2.00000
     24     -16.5860      2.00000
     25     -16.5630      2.00000
     26     -16.5413      2.00000
     27     -16.5275      2.00000
     28     -16.5003      2.00000
     29     -16.4735      2.00000
     30     -16.4707      2.00000
     31     -16.4549      2.00000
     32     -16.4389      2.00000
     33     -16.4188      2.00000
     34     -16.4042      2.00000
     35     -16.3800      2.00000
     36     -16.3716      2.00000
     37     -16.3457      2.00000
     38     -16.3383      2.00000
     39     -16.3305      2.00000
     40     -16.3171      2.00000
     41     -16.3156      2.00000
     42     -16.3103      2.00000
     43     -16.3097      2.00000
     44     -16.3014      2.00000
     45     -16.3008      2.00000
     46     -16.2818      2.00000
     47     -16.2781      2.00000
     48     -16.2683      2.00000
     49     -14.6706      2.00000
     50     -14.4407      2.00000
     51     -14.3478      2.00000
     52     -14.2995      2.00000
     53     -14.1787      2.00000
     54     -14.1577      2.00000
     55     -14.1510      2.00000
     56     -14.1099      2.00000
     57     -14.1084      2.00000
     58     -14.0889      2.00000
     59     -14.0758      2.00000
     60     -14.0685      2.00000
     61     -14.0588      2.00000
     62     -14.0535      2.00000
     63     -14.0244      2.00000
     64     -14.0059      2.00000
     65     -13.9377      2.00000
     66     -13.8599      2.00000
     67     -13.8422      2.00000
     68     -13.7829      2.00000
     69     -13.7780      2.00000
     70     -13.5728      2.00000
     71     -13.0462      2.00000
     72      -8.2616      2.00000
     73      -7.8447      2.00000
     74      -7.8093      2.00000
     75      -7.7319      2.00000
     76      -7.3578      2.00000
     77      -7.3342      2.00000
     78      -7.3007      2.00000
     79      -7.2777      2.00000
     80      -7.2637      2.00000
     81      -7.2537      2.00000
     82      -7.2382      2.00000
     83      -7.2296      2.00000
     84      -7.2216      2.00000
     85      -7.2175      2.00000
     86      -7.2081      2.00000
     87      -7.2044      2.00000
     88      -7.1931      2.00000
     89      -7.1871      2.00000
     90      -7.1805      2.00000
     91      -7.1642      2.00000
     92      -7.1379      2.00000
     93      -7.1194      2.00000
     94      -7.1156      2.00000
     95      -7.0926      2.00000
     96      -7.0884      2.00000
     97      -6.9992      2.00000
     98      -6.9672      2.00000
     99      -6.9526      2.00000
    100      -6.9476      2.00000
    101      -6.9266      2.00000
    102      -6.8753      2.00000
    103      -6.6286      2.00000
    104      -3.4375      2.00000
    105      -3.3604      2.00000
    106      -3.3243      2.00000
    107      -3.3133      2.00000
    108      -3.2680      2.00000
    109      -3.2345      2.00000
    110      -3.2097      2.00000
    111      -3.1669      2.00000
    112      -3.1028      2.00000
    113      -3.0270      2.00000
    114      -2.9039      2.00000
    115      -2.7545      2.00000
    116      -2.3232      2.00000
    117      -2.2650      2.00000
    118      -2.1775      2.00000
    119      -2.0828      2.00000
    120      -2.0517      2.00000
    121      -1.9950      2.00000
    122      -1.9690      2.00000
    123      -1.9228      2.00000
    124      -1.8768      2.00000
    125      -1.8562      2.00000
    126      -1.8196      2.00000
    127      -1.7469      2.00000
    128      -1.7185      2.00000
    129      -1.7035      2.00000
    130      -1.6425      2.00000
    131      -1.6229      2.00000
    132      -1.5938      2.00000
    133      -1.5646      2.00000
    134      -1.5572      2.00000
    135      -1.5504      2.00000
    136      -1.5357      2.00000
    137      -1.5113      2.00000
    138      -1.4857      2.00000
    139      -1.4732      2.00000
    140      -1.4684      2.00000
    141      -1.4471      2.00000
    142      -1.4433      2.00000
    143      -1.4350      2.00000
    144      -1.4267      2.00000
    145      -1.4002      2.00000
    146      -1.3860      2.00000
    147      -1.3739      2.00000
    148      -1.3649      2.00000
    149      -1.3454      2.00000
    150      -1.3365      2.00000
    151      -1.3094      2.00000
    152      -1.2928      2.00000
    153      -1.2630      2.00000
    154      -1.2272      2.00000
    155      -1.2022      2.00000
    156      -1.1677      2.00000
[...]


--------------------------------------------------------------------------------------------------------


 soft charge-density along one line, spin component           1
         0         1         2         3         4         5         6         7         8         9
 total charge-density along one line

 pseudopotential strength for first ion, spin component:           1
 17.978  -4.706  -0.000  -0.000  -0.001   0.001   0.000   0.001
 -4.706   1.241   0.000   0.000   0.000  -0.000  -0.000  -0.000
 -0.000   0.000   2.267   0.000   0.000  -2.712  -0.000  -0.000
 -0.000   0.000   0.000   2.267  -0.001  -0.000  -2.712   0.001
 -0.001   0.000   0.000  -0.001   2.267  -0.000   0.001  -2.712
  0.001  -0.000  -2.712  -0.000  -0.000   3.212   0.001   0.000
  0.000  -0.000  -0.000  -2.712   0.001   0.001   3.213  -0.001
  0.001  -0.000  -0.000   0.001  -2.712   0.000  -0.001   3.212
  0.000   0.000   0.000   0.000  -0.000  -0.000  -0.000   0.000
  0.000  -0.000   0.001  -0.000   0.000  -0.001   0.000  -0.000
  0.000  -0.000   0.000  -0.001   0.001  -0.000   0.002  -0.001
 -0.001   0.000   0.000   0.000   0.001  -0.000  -0.000  -0.001
 -0.000   0.000   0.000  -0.000  -0.001  -0.000   0.000   0.002
 total augmentation occupancy for first ion, spin component:           1
  1.911  -0.139  -0.000   0.000  -0.000  -0.000  -0.000  -0.001   0.000   0.000   0.000  -0.001  -0.000
 -0.139   0.110  -0.001  -0.001  -0.002   0.000   0.000   0.002   0.000  -0.002  -0.000   0.004   0.002
 -0.000  -0.001   2.017   0.001   0.000   0.004   0.001   0.000   0.001   0.002   0.000   0.000  -0.000
  0.000  -0.001   0.001   2.018  -0.002   0.001   0.004  -0.001   0.000  -0.000  -0.003  -0.000  -0.000
 -0.000  -0.002   0.000  -0.002   2.017   0.000  -0.001   0.004  -0.001   0.000   0.001   0.001  -0.003
 -0.000   0.000   0.004   0.001   0.000   0.007  -0.000   0.000  -0.001  -0.002  -0.000  -0.000   0.000
 -0.000   0.000   0.001   0.004  -0.001  -0.000   0.007   0.001  -0.000   0.000   0.002  -0.001   0.000
 -0.001   0.002   0.000  -0.001   0.004   0.000   0.001   0.008   0.000  -0.000  -0.001  -0.001   0.002
  0.000   0.000   0.001   0.000  -0.001  -0.001  -0.000   0.000   0.005   0.002   0.000  -0.000  -0.000
  0.000  -0.002   0.002  -0.000   0.000  -0.002   0.000  -0.000   0.002   0.004  -0.000   0.000   0.000
  0.000  -0.000   0.000  -0.003   0.001  -0.000   0.002  -0.001   0.000  -0.000   0.005  -0.002  -0.001
 -0.001   0.004   0.000  -0.000   0.001  -0.000  -0.001  -0.001  -0.000   0.000  -0.002   0.003   0.001
 -0.000   0.002  -0.000  -0.000  -0.003   0.000   0.000   0.002  -0.000   0.000  -0.001   0.001   0.004


------------------------ aborting loop because EDIFF is reached ----------------------------------------





 total charge     

# of ion       s       p       d       tot
------------------------------------------
    1        1.785   4.716   0.017   6.518
    2        1.785   4.716   0.018   6.519
    3        1.791   4.717   0.030   6.538
    4        1.786   4.717   0.018   6.521
    5        1.786   4.717   0.018   6.520
    6        1.787   4.717   0.020   6.524
    7        1.788   4.717   0.021   6.526
    8        1.785   4.717   0.017   6.519
    9        1.553   0.422   9.835  11.811
   10        1.536   0.423   9.829  11.789
   11        1.553   0.423   9.835  11.811
   12        1.542   0.421   9.829  11.792
   13        1.554   0.422   9.835  11.811
   14        1.524   0.440   9.829  11.793
   15        1.553   0.423   9.835  11.811
   16        1.549   0.390   9.828  11.767
   17        1.614   3.287   0.007   4.908
   18        1.615   3.288   0.007   4.910
   19        1.615   3.272   0.007   4.893
   20        1.615   3.285   0.007   4.907
   21        1.615   3.286   0.007   4.907
   22        1.616   3.268   0.007   4.891
   23        1.614   3.285   0.007   4.906
   24        1.618   3.284   0.010   4.911
   25        1.614   3.279   0.006   4.899
   26        1.615   3.278   0.006   4.899
   27        1.614   3.281   0.006   4.902
   28        1.614   3.278   0.006   4.898
   29        1.614   3.288   0.007   4.909
   30        1.614   3.273   0.005   4.893
   31        1.615   3.283   0.007   4.904
   32        1.615   3.270   0.006   4.890
   33        1.614   3.280   0.006   4.900
   34        1.614   3.276   0.006   4.896
   35        1.614   3.285   0.007   4.906
   36        1.611   3.272   0.004   4.887
   37        1.614   3.280   0.006   4.900
   38        1.614   3.279   0.006   4.899
   39        1.611   3.286   0.003   4.901
--------------------------------------------------
tot         63.789 116.539  78.958 259.285

    CHARGE:  cpu time    0.3921: real time    0.3923
    FORLOC:  cpu time    0.0112: real time    0.0112
    FORNL :  cpu time    1.9171: real time    1.9171
    STRESS:  cpu time   49.9991: real time   50.0009
    FORCOR:  cpu time    0.2417: real time    0.2417
    FORHAR:  cpu time    0.0277: real time    0.0277
    MIXING:  cpu time    0.0021: real time    0.0021
    OFIELD:  cpu time    0.0000: real time    0.0000

  FORCE on cell =-STRESS in cart. coord.  units (eV):
  Direction    XX          YY          ZZ          XY          YZ          ZX
  --------------------------------------------------------------------------------------
  Alpha Z   872.70584   872.70584   872.70584
  Ewald   -5710.78567 -6380.55100 -5842.25453   -45.38385   -40.50454    63.69484
  Hartree  2679.03613  2178.91446  2594.91846   -31.21906   -26.74566    83.48878
  E(xc)   -1448.97679 -1449.44681 -1448.99387     0.01327    -0.03659    -0.20457
  Local   -3358.92436 -2185.62623 -3144.38085    75.84094    67.61011  -145.90755
  n-local  1748.62614  1743.44508  1747.22135    -0.04028    -0.10724    -0.14136
  augment   819.41151   816.25349   818.20772    -0.06531     0.03377     0.31979
  Kinetic  4391.63413  4398.27517  4397.86435     0.91067    -0.78889    -3.84152
  Fock        0.00000     0.00000     0.00000     0.00000     0.00000     0.00000
  -------------------------------------------------------------------------------------
  Total      -7.27307    -6.02999    -4.71153     0.05638    -0.53904    -2.59159
  in kB      -7.30540    -6.05679    -4.73247     0.05663    -0.54143    -2.60311
  external pressure =       -6.03 kB  Pullay stress =        0.00 kB


 VOLUME and BASIS-vectors are now :
 -----------------------------------------------------------------------------
  energy-cutoff  :      300.00
  volume of cell :     1595.09
      direct lattice vectors                 reciprocal lattice vectors
     8.456489000  0.000000000  8.040301000     0.059126193 -0.000000000  0.062186727
     0.000000000 11.729847000  0.000000000     0.000000000  0.085252604 -0.000000000
    -8.456489000  0.000000000  8.040301000    -0.059126193  0.000000000  0.062186727

  length of vectors
    11.668703715 11.729847000 11.668703715     0.085808482  0.085252604  0.085808482


 FORCES acting on ions
    electron-ion (+dipol)            ewald-force                    non-local-force                 convergence-correction
 -----------------------------------------------------------------------------------------------
   0.393E+02 -.295E+01 -.300E+02   -.392E+02 0.297E+01 0.300E+02   -.997E-01 -.224E-01 -.188E-01   -.822E-04 0.515E-04 0.118E-03
   0.667E+01 0.801E+01 0.263E+01   -.672E+01 -.796E+01 -.270E+01   0.890E-01 -.619E-01 0.467E-01   0.182E-03 0.310E-04 -.162E-03
   -.110E+02 0.249E+00 -.574E+02   0.106E+02 -.277E+00 0.573E+02   0.789E+00 0.158E+00 -.406E+00   -.228E-03 0.105E-03 0.135E-04
   -.609E+02 0.525E+01 0.326E+02   0.609E+02 -.532E+01 -.325E+02   -.206E-02 0.518E-01 -.120E+00   -.285E-04 -.101E-03 -.152E-03
   0.119E+02 -.232E+01 0.398E+02   -.118E+02 0.242E+01 -.398E+02   -.427E-01 -.904E-01 -.704E-01   0.173E-03 0.125E-03 -.888E-04
   0.355E+02 0.368E+01 -.310E+01   -.356E+02 -.373E+01 0.297E+01   0.118E-01 0.125E-01 0.103E+00   -.154E-03 -.445E-04 0.143E-03
   -.359E+02 -.966E+01 0.447E+02   0.363E+02 0.957E+01 -.450E+02   -.362E+00 0.829E-01 0.245E+00   0.144E-03 -.386E-04 -.947E-05
   0.399E+02 -.154E+01 -.147E+02   -.396E+02 0.142E+01 0.148E+02   -.276E+00 0.105E+00 -.139E+00   -.742E-04 -.522E-04 0.297E-04
   -.691E+01 0.247E+02 -.221E+02   0.717E+01 -.248E+02 0.225E+02   -.237E+00 0.132E+00 -.401E+00   -.219E-03 -.280E-03 -.162E-03
   0.171E+02 0.119E+03 -.460E+01   -.175E+02 -.125E+03 0.529E+01   0.492E+00 0.546E+01 -.619E+00   0.279E-03 0.872E-03 0.247E-04
   0.114E+02 0.150E+02 0.457E+01   -.112E+02 -.152E+02 -.341E+01   -.157E+00 0.180E+00 -.114E+01   0.146E-03 -.303E-03 0.226E-03
   -.137E+02 0.113E+03 0.754E+01   0.133E+02 -.116E+03 -.883E+01   0.368E+00 0.334E+01 0.124E+01   -.125E-03 0.542E-03 -.616E-04
   0.972E+01 -.128E+02 0.147E+02   -.949E+01 0.128E+02 -.150E+02   -.208E+00 0.339E-02 0.297E+00   0.114E-03 0.286E-03 0.106E-03
   -.804E+02 -.161E+03 -.322E+02   0.842E+02 0.168E+03 0.335E+02   -.378E+01 -.637E+01 -.122E+01   -.593E-03 -.927E-03 -.193E-03
   -.101E+02 -.218E+02 -.111E+02   0.108E+02 0.219E+02 0.102E+02   -.797E+00 -.179E+00 0.908E+00   -.736E-04 0.278E-03 -.157E-03
   0.370E+02 -.955E+02 0.338E+02   -.364E+02 0.976E+02 -.333E+02   -.575E+00 -.181E+01 -.390E+00   0.166E-03 0.385E-04 0.149E-03
   0.556E+01 0.131E+01 0.471E+02   -.565E+01 -.134E+01 -.474E+02   0.597E-01 0.208E-01 0.216E+00   0.718E-04 -.321E-04 0.115E-03
   -.255E+02 -.229E+01 0.204E+02   0.257E+02 0.229E+01 -.206E+02   -.207E+00 0.284E-03 0.152E+00   -.482E-04 0.829E-05 -.530E-04
   0.107E+02 -.261E+02 0.507E+02   -.108E+02 0.266E+02 -.512E+02   0.979E-01 -.340E+00 0.516E+00   0.550E-04 0.133E-04 0.117E-03
   0.215E+02 -.780E+00 -.440E+02   -.217E+02 0.761E+00 0.442E+02   0.180E+00 0.997E-02 -.159E+00   -.110E-03 -.284E-05 -.883E-04
   0.537E+01 0.520E-01 -.339E+02   -.534E+01 -.728E-01 0.342E+02   -.282E-01 0.160E-01 -.299E+00   0.350E-04 0.211E-04 0.576E-04
   -.313E+02 -.773E+00 -.604E+02   0.316E+02 0.862E+00 0.612E+02   -.297E+00 -.175E+00 -.727E+00   -.371E-04 0.142E-04 -.176E-03
   -.210E+02 -.175E+00 0.279E+02   0.211E+02 0.591E-01 -.282E+02   -.158E+00 0.103E+00 0.210E+00   0.186E-04 0.152E-03 -.335E-04
   -.855E+01 0.504E+02 0.445E+02   0.838E+01 -.512E+02 -.451E+02   0.213E+00 0.323E+00 0.553E+00   -.254E-04 0.774E-04 0.419E-04
   0.448E+02 -.307E+02 0.805E+01   -.450E+02 0.310E+02 -.823E+01   0.149E+00 -.220E+00 0.193E+00   -.226E-05 0.108E-03 0.144E-03
   -.891E+01 -.383E+02 0.772E+01   0.858E+01 0.385E+02 -.770E+01   0.276E+00 -.236E+00 0.357E-01   0.233E-04 0.134E-03 -.134E-03
   -.318E+02 0.161E+02 0.414E+01   0.320E+02 -.160E+02 -.388E+01   -.194E+00 -.401E-01 -.279E+00   0.131E-03 -.986E-04 0.236E-04
   -.140E+01 0.221E+02 -.409E+02   0.160E+01 -.220E+02 0.411E+02   -.186E+00 -.241E-01 -.148E+00   -.192E-03 -.167E-03 -.143E-04
   0.213E+02 0.118E+02 -.190E+02   -.215E+02 -.118E+02 0.190E+02   0.168E+00 0.915E-01 -.556E-01   -.199E-04 -.162E-03 0.581E-04
   0.717E+01 0.699E+02 -.192E+02   -.723E+01 -.701E+02 0.195E+02   0.843E-01 0.258E+00 -.276E+00   -.166E-04 -.595E-04 -.134E-03
   -.226E+02 -.605E+01 0.359E+02   0.229E+02 0.625E+01 -.363E+02   -.202E+00 -.178E+00 0.393E+00   -.111E-04 -.143E-03 -.258E-04
   -.235E+02 0.163E+02 0.116E+02   0.238E+02 -.164E+02 -.117E+02   -.267E+00 0.321E+00 0.163E+00   0.259E-04 -.974E-04 0.410E-04
   0.424E+02 0.335E+02 0.129E+02   -.425E+02 -.337E+02 -.131E+02   0.142E+00 0.208E+00 0.251E+00   0.511E-04 -.107E-03 0.151E-03
   -.110E+02 0.480E+02 0.415E+02   0.108E+02 -.484E+02 -.418E+02   0.245E+00 0.325E+00 0.268E+00   0.691E-05 -.154E-03 -.158E-03
   0.252E+02 -.162E+02 -.329E+02   -.255E+02 0.164E+02 0.332E+02   0.240E+00 -.154E+00 -.242E+00   0.615E-05 0.142E-03 0.730E-05
   0.419E+02 -.528E+02 0.235E+02   -.423E+02 0.529E+02 -.237E+02   0.360E+00 -.845E-01 0.138E+00   -.300E-05 0.431E-04 -.344E-04
   -.197E+02 -.571E+01 -.161E+01   0.199E+02 0.559E+01 0.193E+01   -.204E+00 0.115E+00 -.343E+00   0.134E-03 0.151E-03 -.401E-04
   0.107E+01 -.149E+02 -.611E+02   -.976E+00 0.148E+02 0.615E+02   -.737E-01 0.136E+00 -.426E+00   -.138E-03 0.125E-03 0.118E-04
   -.627E+01 -.567E+02 -.269E+02   0.630E+01 0.570E+02 0.271E+02   -.682E+00 -.510E+00 0.848E-01   0.453E-04 0.220E-04 0.104E-03
 -----------------------------------------------------------------------------------------------
   0.511E+01 -.973E+00 0.148E+01   -.142E-13 -.426E-13 -.568E-13   -.507E+01 0.961E+00 -.146E+01   -.374E-03 0.572E-03 -.196E-03


 POSITION                                       TOTAL-FORCE (eV/Angst)
 -----------------------------------------------------------------------------------
      0.49705      2.98154      3.79381         0.001262      0.004922     -0.024859
      0.25015      2.82801     12.14278         0.037195     -0.001622     -0.010550
      3.95151      8.98428      7.59858         0.391308      0.113332     -0.420394
     -4.78744      8.78658      7.96675        -0.033424     -0.004713      0.020421
     -3.72018      3.08910      8.36116        -0.010118      0.014986      0.024399
      4.86746      2.87616      8.08530         0.011912     -0.046548     -0.021408
     -0.60656      8.79887     12.39929         0.039870     -0.010075     -0.016224
     -0.39936      8.74139      4.09066         0.001972     -0.023786     -0.022740
     -8.40748      0.01223      8.05930         0.013850     -0.025282     -0.028083
      0.05248      0.08892      8.00592         0.152742     -0.022861      0.096990
     -4.23008      0.03559     11.99139         0.004818     -0.025995      0.015693
     -4.21194      0.29449      4.09269        -0.085629      0.021342     -0.062266
      4.22651      5.88342      4.03296         0.016492      0.023044      0.013923
      3.94096      5.83975     11.81723         0.041877      0.253383      0.098389
      8.41517      5.87428      8.07951        -0.030184      0.015686     -0.018498
      0.09255      5.87473      8.14446         0.061005      0.259288      0.125965
     -4.17116      8.82253     11.60945        -0.020194      0.004287     -0.018936
      0.09880      2.94542     15.75306         0.004667      0.004376      0.009919
     -0.15853      2.86613      7.42769         0.001222      0.121769      0.027303
     -0.10567      8.81392      0.42842         0.009202      0.004582      0.016903
      4.13192      2.95219      4.46707        -0.000501      0.009487     -0.013079
     -4.18583      3.11910      4.73119        -0.021927     -0.087836     -0.000400
     -6.00354      5.61501      9.69721         0.002363     -0.010328     -0.006626
      2.38492      4.78945      9.76027         0.058862     -0.468977     -0.014575
      1.80412      6.34394      5.73718        -0.042307     -0.014746      0.027647
      1.73009      6.25528     13.65040        -0.017917     -0.015703      0.046345
     -1.72301      0.33407     10.38469         0.012544      0.009860     -0.050211
     -1.74486      0.34527      2.41839        -0.008577     -0.003572      0.029811
      6.11337     11.56779      6.30910         0.007577      0.041808     -0.015002
     -2.47099     11.18573      6.34492         0.015240     -0.022340      0.006965
     -5.84874      0.36097      9.55945         0.006566      0.014419      0.009398
      2.56520      0.37158      9.61314         0.014791      0.204954     -0.003620
      1.71076     11.32738      5.58315        -0.033677      0.009863      0.002237
      1.78796     11.29114     13.65659         0.017574      0.019918      0.011063
      5.93050      6.15799      6.46450         0.002093     -0.028202      0.004896
     -2.32540      6.51948      6.49375         0.024562     -0.042153     -0.040609
     -1.67542      5.49622     10.51681         0.009511     -0.006744     -0.044356
     -1.80812      5.52158      2.40060         0.018207      0.002754     -0.009541
      1.81689      8.34832      9.86025        -0.674827     -0.292579      0.253713
 -----------------------------------------------------------------------------------
    total drift:                                0.037502     -0.011318      0.013447


--------------------------------------------------------------------------------------------------------



  FREE ENERGIE OF THE ION-ELECTRON SYSTEM (eV)
  ---------------------------------------------------
  free  energy   TOTEN  =     -1408.89667941 eV

  energy  without entropy=    -1408.89667941  energy(sigma->0) =    -1408.89667941



--------------------------------------------------------------------------------------------------------


    POTLOK:  cpu time    1.4451: real time    1.4451


--------------------------------------------------------------------------------------------------------


 stress matrix after NEB project (eV)
     -7.27307      0.05647     -2.59159
      0.05638     -6.02999     -0.53923
     -2.59164     -0.53904     -4.71153
  FORCES: max atom, RMS     0.778052    0.195076
  FORCE total and by dimension    1.218248    0.674827
  Stress total and by dimension   11.201676    7.273074
     LOOP+:  cpu time  484.8237: real time  485.5828
    4ORBIT:  cpu time    0.0000: real time    0.0000



 total charge     

# of ion       s       p       d       tot
------------------------------------------
    1        1.785   4.716   0.017   6.518
    2        1.785   4.716   0.018   6.519
    3        1.791   4.717   0.030   6.538
    4        1.786   4.717   0.018   6.521
    5        1.786   4.717   0.018   6.520
    6        1.787   4.717   0.020   6.524
    7        1.788   4.717   0.021   6.526
    8        1.785   4.717   0.017   6.519
    9        1.553   0.422   9.835  11.811
   10        1.536   0.423   9.829  11.789
   11        1.553   0.423   9.835  11.811
   12        1.542   0.421   9.829  11.792
   13        1.554   0.422   9.835  11.811
   14        1.524   0.440   9.829  11.793
   15        1.553   0.423   9.835  11.811
   16        1.549   0.390   9.828  11.767
   17        1.614   3.287   0.007   4.908
   18        1.615   3.288   0.007   4.910
   19        1.615   3.272   0.007   4.893
   20        1.615   3.285   0.007   4.907
   21        1.615   3.286   0.007   4.907
   22        1.616   3.268   0.007   4.891
   23        1.614   3.285   0.007   4.906
   24        1.618   3.284   0.010   4.911
   25        1.614   3.279   0.006   4.899
   26        1.615   3.278   0.006   4.899
   27        1.614   3.281   0.006   4.902
   28        1.614   3.278   0.006   4.898
   29        1.614   3.288   0.007   4.909
   30        1.614   3.273   0.005   4.893
   31        1.615   3.283   0.007   4.904
   32        1.615   3.270   0.006   4.890
   33        1.614   3.280   0.006   4.900
   34        1.614   3.276   0.006   4.896
   35        1.614   3.285   0.007   4.906
   36        1.611   3.272   0.004   4.887
   37        1.614   3.280   0.006   4.900
   38        1.614   3.279   0.006   4.899
   39        1.611   3.286   0.003   4.901
--------------------------------------------------
tot         63.789 116.539  78.958 259.285


 total amount of memory used by VASP MPI-rank0    60643. kBytes
=======================================================================

   base      :      30000. kBytes
   nonlr-proj:       6478. kBytes
   fftplans  :       8423. kBytes
   grid      :       7465. kBytes
   one-center:         77. kBytes
   wavefun   :       8200. kBytes

  
  
 General timing and accounting informations for this job:
 ========================================================
  
                  Total CPU time used (sec):      497.167
                            User time (sec):      495.735
                          System time (sec):        1.432
                         Elapsed time (sec):      498.292
  
                   Maximum memory used (kb):       78244.
                   Average memory used (kb):           0.
  
                          Minor page faults:        20990
                          Major page faults:            0
                 Voluntary context switches:         1969
