<?xml version="1.0" encoding="ISO-8859-1"?>
<modeling>
 <generator>
  <i name="program" type="string">vasp </i>
  <i name="version" type="string">5.4.4.18Apr17-6-g9f103f2a35  </i>
  <i name="subversion" type="string">(build Jun 22 2020 09:27:21) complex            parallel </i>
  <i name="platform" type="string">tx2_gcc-7.3_libsci-18.07_cray-fftw-3.3.8 </i>
  <i name="date" type="string">2021 10 11 </i>
  <i name="time" type="string">20:18:43 </i>
 </generator>
 <incar>
  <i type="string" name="SYSTEM"> CsPbBr3 cubic bulk</i>
  <i type="string" name="PREC">accurate</i>
  <i type="string" name="ALGO"> NORMAL   ! Electronic minimisation algo</i>
  <i type="logical" name="ADDGRID"> T  </i>
  <i type="int" name="ISPIN">     1</i>
  <i type="int" name="NELM">   200</i>
  <i type="int" name="IBRION">     2</i>
  <i name="EDIFF">      0.00000100</i>
  <i name="EDIFFG">     -0.01000000</i>
  <i type="int" name="NSW">     0</i>
  <i type="int" name="ISIF">     2</i>
  <i type="int" name="ISYM">     0</i>
  <i name="ENCUT">    300.00000000</i>
  <i name="POTIM">      0.50000000</i>
  <i name="NUPDOWN">      0.00000000</i>
  <i name="NELECT">    344.00000000</i>
  <i type="string" name="LREAL"> AUTO</i>
  <i type="int" name="ISMEAR">     0</i>
  <i name="SIGMA">      0.01000000</i>
  <i type="logical" name="LWAVE"> F  </i>
  <i type="logical" name="LCHARG"> F  </i>
  <i type="logical" name="LVHAR"> T  </i>
  <i type="int" name="LORBIT">    10</i>
  <i type="logical" name="LASPH"> T  </i>
  <v type="int" name="KPOINT_BSE">    -1     0     0     0</v>
  <i type="int" name="NELM">   200</i>
  <i type="string" name="METAGGA"> SCAN       ! PBE exchange-correlation</i>
  <i type="logical" name="LASPH"> T  </i>
 </incar>
 <structure name="primitive_cell" >
  <crystal>
   <varray name="basis" >
    <v>       8.45648900       0.00000000       8.04030100 </v>
    <v>       0.00000000      11.72984700       0.00000000 </v>
    <v>      -8.45648900       0.00000000       8.04030100 </v>
   </varray>
   <i name="volume">   1595.08833419 </i>
   <varray name="rec_basis" >
    <v>       0.05912619      -0.00000000       0.06218673 </v>
    <v>       0.00000000       0.08525260      -0.00000000 </v>
    <v>      -0.05912619       0.00000000       0.06218673 </v>
   </varray>
  </crystal>
  <varray name="positions" >
   <v>       0.26531300       0.25418400       0.20653600 </v>
   <v>       0.45253000       0.24434500       0.47127700 </v>
   <v>      -0.47790300       0.25168200       0.03348800 </v>
   <v>       0.04237800       0.47072900       0.25619300 </v>
   <v>       0.04722500       0.02943500       0.25355900 </v>
   <v>       0.24807100       0.47869400      -0.04199600 </v>
   <v>       0.44834900      -0.03431100       0.24604700 </v>
   <v>       0.24865700       0.03077400      -0.05971500 </v>
   <v>       0.46344700      -0.45916300       0.25010600 </v>
   <v>      -0.01452700       0.25110500      -0.02621000 </v>
   <v>      -0.49930600      -0.49842300       0.00089900 </v>
   <v>       0.49559700       0.00303400      -0.00418600 </v>
   <v>      -0.00000500      -0.49920200       0.00488100 </v>
   <v>       0.04672500       0.26591100      -0.45829100 </v>
   <v>       0.00407900       0.00104300      -0.00171600 </v>
   <v>      -0.49903500       0.00758100       0.49475900 </v>
   <v>      -0.48805100      -0.49916400      -0.49899500 </v>
   <v>       0.24847000      -0.04638700      -0.45933000 </v>
   <v>       0.26633300      -0.44419700      -0.45868300 </v>
   <v>       0.00547500       0.02510600      -0.49645300 </v>
   <v>       0.29999300       0.26335400      -0.26008700 </v>
   <v>      -0.20940700       0.24520000       0.21500400 </v>
   <v>      -0.03211100       0.49785400      -0.49813900 </v>
   <v>       0.23077200      -0.25477400       0.27799700 </v>
   <v>      -0.25203000       0.40831300       0.46594800 </v>
   <v>      -0.25052000       0.03167800       0.44613900 </v>
   <v>       0.02039400      -0.24859000       0.03289000 </v>
   <v>      -0.24734600      -0.47501500       0.05135800 </v>
   <v>      -0.44505500       0.46856700      -0.24693300 </v>
   <v>      -0.24619800      -0.01381600       0.03088200 </v>
   <v>      -0.45608500       0.02848000      -0.25233500 </v>
   <v>       0.47532900      -0.24785600      -0.03142100 </v>
   <v>      -0.04883300      -0.46672100      -0.25342000 </v>
   <v>      -0.04502600      -0.03740100      -0.25645700 </v>
   <v>       0.21236300      -0.25092100      -0.22151100 </v>
   <v>      -0.29383100      -0.23406700       0.23889300 </v>
   <v>      -0.23009000       0.24109500      -0.25967100 </v>
   <v>      -0.27939800      -0.28828400      -0.49424900 </v>
   <v>      -0.26479200      -0.24987300      -0.19306500 </v>
  </varray>
 </structure>
 <varray name="primitive_index" >
  <v type="int" >        1 </v>
  <v type="int" >       19 </v>
  <v type="int" >       21 </v>
  <v type="int" >       38 </v>
  <v type="int" >       28 </v>
  <v type="int" >       23 </v>
  <v type="int" >       33 </v>
  <v type="int" >       31 </v>
  <v type="int" >       25 </v>
  <v type="int" >       18 </v>
  <v type="int" >       13 </v>
  <v type="int" >       11 </v>
  <v type="int" >       15 </v>
  <v type="int" >       22 </v>
  <v type="int" >        9 </v>
  <v type="int" >       10 </v>
  <v type="int" >       16 </v>
  <v type="int" >       30 </v>
  <v type="int" >       36 </v>
  <v type="int" >       12 </v>
  <v type="int" >        5 </v>
  <v type="int" >        6 </v>
  <v type="int" >       14 </v>
  <v type="int" >        8 </v>
  <v type="int" >       24 </v>
  <v type="int" >       32 </v>
  <v type="int" >       20 </v>
  <v type="int" >       35 </v>
  <v type="int" >       37 </v>
  <v type="int" >       29 </v>
  <v type="int" >       27 </v>
  <v type="int" >       17 </v>
  <v type="int" >       26 </v>
  <v type="int" >       34 </v>
  <v type="int" >        4 </v>
  <v type="int" >        3 </v>
  <v type="int" >        2 </v>
  <v type="int" >       39 </v>
  <v type="int" >        7 </v>
 </varray>
 <kpoints>
  <generation param="Gamma">
   <v type="int" name="divisions">       2        2        2 </v>
   <v name="usershift">      0.00000000       0.00000000       0.00000000 </v>
   <v name="genvec1">      0.50000000       0.00000000       0.00000000 </v>
   <v name="genvec2">      0.00000000       0.50000000       0.00000000 </v>
   <v name="genvec3">      0.00000000       0.00000000       0.50000000 </v>
   <v name="shift">      0.00000000       0.00000000       0.00000000 </v>
  </generation>
  <varray name="kpointlist" >
   <v>       0.00000000       0.00000000       0.00000000 </v>
   <v>       0.50000000       0.00000000       0.00000000 </v>
   <v>       0.00000000       0.50000000       0.00000000 </v>
   <v>       0.50000000       0.50000000       0.00000000 </v>
   <v>       0.00000000       0.00000000       0.50000000 </v>
   <v>       0.50000000       0.00000000       0.50000000 </v>
   <v>       0.00000000       0.50000000       0.50000000 </v>
   <v>       0.50000000       0.50000000       0.50000000 </v>
  </varray>
  <varray name="weights" >
   <v>       0.12500000 </v>
   <v>       0.12500000 </v>
   <v>       0.12500000 </v>
   <v>       0.12500000 </v>
   <v>       0.12500000 </v>
   <v>       0.12500000 </v>
   <v>       0.12500000 </v>
   <v>       0.12500000 </v>
  </varray>
 </kpoints>
 <parameters>
  <separator name="general" >
   <i type="string" name="SYSTEM">CsPbBr3 cubic bulk</i>
   <i type="logical" name="LCOMPAT"> F  </i>
  </separator>
  <separator name="electronic" >
   <i type="string" name="PREC">accura</i>
   <i name="ENMAX">    300.00000000</i>
   <i name="ENAUG">    503.85200000</i>
   <i name="EDIFF">      0.00000100</i>
   <i type="int" name="IALGO">    38</i>
   <i type="int" name="IWAVPR">    10</i>
   <i type="int" name="NBANDS">   208</i>
   <i name="NELECT">    344.00000000</i>
   <i type="int" name="TURBO">     0</i>
   <i type="int" name="IRESTART">     0</i>
   <i type="int" name="NREBOOT">     0</i>
   <i type="int" name="NMIN">     0</i>
   <i name="EREF">      0.00000000</i>
   <separator name="electronic smearing" >
    <i type="int" name="ISMEAR">     0</i>
    <i name="SIGMA">      0.01000000</i>
    <i name="KSPACING">      0.50000000</i>
    <i type="logical" name="KGAMMA"> T  </i>
   </separator>
   <separator name="electronic projectors" >
    <i type="logical" name="LREAL"> T  </i>
    <v name="ROPT">     -0.00025000     -0.00025000     -0.00025000</v>
    <i type="int" name="LMAXPAW">  -100</i>
    <i type="int" name="LMAXMIX">     2</i>
    <i type="logical" name="NLSPLINE"> F  </i>
   </separator>
   <separator name="electronic startup" >
    <i type="int" name="ISTART">     0</i>
    <i type="int" name="ICHARG">     2</i>
    <i type="int" name="INIWAV">     1</i>
   </separator>
   <separator name="electronic spin" >
    <i type="int" name="ISPIN">     1</i>
    <i type="logical" name="LNONCOLLINEAR"> F  </i>
    <v name="MAGMOM">      0.00000000      0.00000000      0.00000000      0.00000000      0.00000000      0.00000000      0.00000000      0.00000000      0.00000000      0.00000000      0.00000000      0.00000000      0.00000000      0.00000000      0.00000000      0.00000000      0.00000000      0.00000000      0.00000000      0.00000000
      0.00000000      0.00000000      0.00000000      0.00000000      0.00000000      0.00000000      0.00000000      0.00000000      0.00000000      0.00000000      0.00000000      0.00000000      0.00000000      0.00000000      0.00000000      0.00000000      0.00000000      0.00000000      0.00000000</v>
    <i name="NUPDOWN">      0.00000000</i>
    <i type="logical" name="LSORBIT"> F  </i>
    <v name="SAXIS">      0.00000000      0.00000000      1.00000000</v>
    <i type="logical" name="LSPIRAL"> F  </i>
    <v name="QSPIRAL">      0.00000000      0.00000000      0.00000000</v>
    <i type="logical" name="LZEROZ"> F  </i>
   </separator>
   <separator name="electronic exchange-correlation" >
    <i type="logical" name="LASPH"> T  </i>
    <i type="logical" name="LMETAGGA"> F  </i>
   </separator>
   <separator name="electronic convergence" >
    <i type="int" name="NELM">   200</i>
    <i type="int" name="NELMDL">    -5</i>
    <i type="int" name="NELMIN">     2</i>
    <i name="ENINI">    300.00000000</i>
    <separator name="electronic convergence detail" >
     <i type="logical" name="LDIAG"> T  </i>
     <i type="logical" name="LSUBROT"> F  </i>
     <i name="WEIMIN">      0.00000000</i>
     <i name="EBREAK">      0.00000000</i>
     <i name="DEPER">      0.30000000</i>
     <i type="int" name="NRMM">     4</i>
     <i name="TIME">      0.40000000</i>
    </separator>
   </separator>
   <separator name="electronic mixer" >
    <i name="AMIX">      0.40000000</i>
    <i name="BMIX">      1.00000000</i>
    <i name="AMIN">      0.10000000</i>
    <i name="AMIX_MAG">      1.60000000</i>
    <i name="BMIX_MAG">      1.00000000</i>
    <separator name="electronic mixer details" >
     <i type="int" name="IMIX">     4</i>
     <i type="logical" name="MIXFIRST"> F  </i>
     <i type="int" name="MAXMIX">   -45</i>
     <i name="WC">    100.00000000</i>
     <i type="int" name="INIMIX">     1</i>
     <i type="int" name="MIXPRE">     1</i>
     <i type="int" name="MREMOVE">     5</i>
    </separator>
   </separator>
   <separator name="electronic dipolcorrection" >
    <i type="logical" name="LDIPOL"> F  </i>
    <i type="logical" name="LMONO"> F  </i>
    <i type="int" name="IDIPOL">     0</i>
    <i name="EPSILON">      1.00000000</i>
    <v name="DIPOL">   -100.00000000   -100.00000000   -100.00000000</v>
    <i name="EFIELD">      0.00000000</i>
   </separator>
  </separator>
  <separator name="grids" >
   <i type="int" name="NGX">    70</i>
   <i type="int" name="NGY">    70</i>
   <i type="int" name="NGZ">    70</i>
   <i type="int" name="NGXF">   140</i>
   <i type="int" name="NGYF">   140</i>
   <i type="int" name="NGZF">   140</i>
   <i type="logical" name="ADDGRID"> T  </i>
  </separator>
  <separator name="ionic" >
   <i type="int" name="NSW">     0</i>
   <i type="int" name="IBRION">    -1</i>
   <i type="int" name="MDALGO">     0</i>
   <i type="int" name="ISIF">     2</i>
   <i name="PSTRESS">      0.00000000</i>
   <i name="EDIFFG">     -0.01000000</i>
   <i type="int" name="NFREE">     1</i>
   <i name="POTIM">      0.50000000</i>
   <i name="SMASS">     -3.00000000</i>
   <i name="SCALEE">      1.00000000</i>
  </separator>
  <separator name="ionic md" >
   <i name="TEBEG">      0.00010000</i>
   <i name="TEEND">      0.00010000</i>
   <i type="int" name="NBLOCK">     1</i>
   <i type="int" name="KBLOCK">     1</i>
   <i type="int" name="NPACO">   256</i>
   <i name="APACO">     16.00000000</i>
  </separator>
  <separator name="symmetry" >
   <i type="int" name="ISYM">     0</i>
   <i name="SYMPREC">      0.00001000</i>
  </separator>
  <separator name="dos" >
   <i type="int" name="LORBIT">    10</i>
   <v name="RWIGS">     -1.00000000     -1.00000000     -1.00000000</v>
   <i type="int" name="NEDOS">   301</i>
   <i name="EMIN">     10.00000000</i>
   <i name="EMAX">    -10.00000000</i>
   <i name="EFERMI">      0.00000000</i>
  </separator>
  <separator name="writing" >
   <i type="int" name="NWRITE">     2</i>
   <i type="logical" name="LWAVE"> F  </i>
   <i type="logical" name="LDOWNSAMPLE"> F  </i>
   <i type="logical" name="LCHARG"> F  </i>
   <i type="logical" name="LPARD"> F  </i>
   <i type="logical" name="LVTOT"> F  </i>
   <i type="logical" name="LVHAR"> T  </i>
   <i type="logical" name="LELF"> F  </i>
   <i type="logical" name="LOPTICS"> F  </i>
   <v name="STM">      0.00000000      0.00000000      0.00000000      0.00000000      0.00000000      0.00000000      0.00000000</v>
  </separator>
  <separator name="performance" >
   <i type="int" name="NPAR">     8</i>
   <i type="int" name="NSIM">     4</i>
   <i type="int" name="NBLK">    -1</i>
   <i type="logical" name="LPLANE"> T  </i>
   <i type="logical" name="LSCALAPACK"> T  </i>
   <i type="logical" name="LSCAAWARE"> F  </i>
   <i type="logical" name="LSCALU"> F  </i>
   <i type="logical" name="LASYNC"> F  </i>
   <i type="logical" name="LORBITALREAL"> F  </i>
  </separator>
  <separator name="miscellaneous" >
   <i type="int" name="IDIOT">     3</i>
   <i type="int" name="ISPECIAL">     0</i>
   <i type="logical" name="LMUSIC"> F  </i>
   <v name="POMASS">    132.90000000    207.20000000     79.90400000</v>
   <v name="DARWINR">      0.00000000      0.00000000      0.00000000</v>
   <v name="DARWINV">      1.00000000      1.00000000      1.00000000</v>
   <i type="logical" name="LCORR"> T  </i>
  </separator>
  <i type="logical" name="GGA_COMPAT"> T  </i>
  <i type="logical" name="LBERRY"> F  </i>
  <i type="int" name="ICORELEVEL">     0</i>
  <i type="logical" name="LDAU"> F  </i>
  <i type="int" name="I_CONSTRAINED_M">     0</i>
  <separator name="electronic exchange-correlation" >
   <i type="string" name="GGA">--</i>
   <i type="int" name="VOSKOWN">     0</i>
   <i type="logical" name="LHFCALC"> F  </i>
   <i type="string" name="PRECFOCK"></i>
   <i type="logical" name="LSYMGRAD"> F  </i>
   <i type="logical" name="LHFONE"> F  </i>
   <i type="logical" name="LRHFCALC"> F  </i>
   <i type="logical" name="LTHOMAS"> F  </i>
   <i type="logical" name="LMODELHF"> F  </i>
   <i name="ENCUT4O">     -1.00000000</i>
   <i type="int" name="EXXOEP">     0</i>
   <i type="int" name="FOURORBIT">     0</i>
   <i name="AEXX">      0.00000000</i>
   <i name="HFALPHA">      0.00000000</i>
   <i name="MCALPHA">      0.00000000</i>
   <i name="ALDAX">      1.00000000</i>
   <i name="AGGAX">      1.00000000</i>
   <i name="ALDAC">      1.00000000</i>
   <i name="AGGAC">      1.00000000</i>
   <i type="int" name="NKREDX">     1</i>
   <i type="int" name="NKREDY">     1</i>
   <i type="int" name="NKREDZ">     1</i>
   <i type="logical" name="SHIFTRED"> F  </i>
   <i type="logical" name="ODDONLY"> F  </i>
   <i type="logical" name="EVENONLY"> F  </i>
   <i type="int" name="LMAXFOCK">     0</i>
   <i type="int" name="NMAXFOCKAE">     0</i>
   <i type="logical" name="LFOCKAEDFT"> F  </i>
   <i name="HFSCREEN">      0.00000000</i>
   <i name="HFSCREENC">      0.00000000</i>
   <i type="int" name="NBANDSGWLOW">     0</i>
  </separator>
  <separator name="vdW DFT" >
   <i type="logical" name="LUSE_VDW"> F  </i>
   <i name="Zab_VDW">     -0.84910000</i>
   <i name="PARAM1">      0.12340000</i>
   <i name="PARAM2">      1.00000000</i>
   <i name="PARAM3">      0.00000000</i>
  </separator>
  <separator name="model GW" >
   <i type="int" name="MODEL_GW">     0</i>
   <i name="MODEL_EPS0">     24.53982053</i>
   <i name="MODEL_ALPHA">      1.00000000</i>
  </separator>
  <separator name="linear response parameters" >
   <i type="logical" name="LEPSILON"> F  </i>
   <i type="logical" name="LRPA"> F  </i>
   <i type="logical" name="LNABLA"> F  </i>
   <i type="logical" name="LVEL"> F  </i>
   <i type="int" name="KINTER">     0</i>
   <i name="CSHIFT">      0.10000000</i>
   <i name="OMEGAMAX">     -1.00000000</i>
   <i name="DEG_THRESHOLD">      0.00200000</i>
   <i name="RTIME">     -0.10000000</i>
   <i name="WPLASMAI">      0.00000000</i>
   <v name="DFIELD">      0.00000000      0.00000000      0.00000000</v>
   <v name="WPLASMA">      0.00000000      0.00000000      0.00000000      0.00000000      0.00000000      0.00000000      0.00000000      0.00000000      0.00000000</v>
  </separator>
  <separator name="orbital magnetization" >
   <i type="logical" name="NUCIND"> F  </i>
   <v name="MAGPOS">      0.00000000      0.00000000      0.00000000</v>
   <i type="logical" name="LNICSALL"> T  </i>
   <i type="logical" name="ORBITALMAG"> F  </i>
   <i type="logical" name="LMAGBLOCH"> F  </i>
   <i type="logical" name="LCHIMAG"> F  </i>
   <i type="logical" name="LGAUGE"> T  </i>
   <i type="int" name="MAGATOM">     0</i>
   <v name="MAGDIPOL">      0.00000000      0.00000000      0.00000000</v>
   <v name="AVECCONST">      0.00000000      0.00000000      0.00000000</v>
  </separator>
  <separator name="response functions" >
   <i type="logical" name="LADDER"> F  </i>
   <i type="logical" name="LRPAFORCE"> F  </i>
   <i type="logical" name="LFXC"> F  </i>
   <i type="logical" name="LHARTREE"> T  </i>
   <i type="int" name="IBSE">     0</i>
   <v type="int" name="KPOINT">    -1     0     0     0</v>
   <i type="logical" name="LTCTE"> F  </i>
   <i type="logical" name="LTETE"> F  </i>
   <i type="logical" name="LTRIPLET"> F  </i>
   <i type="logical" name="LFXCEPS"> F  </i>
   <i type="logical" name="LFXHEG"> F  </i>
   <i type="int" name="NATURALO">     2</i>
   <i type="logical" name="L2ORDER"> F  </i>
   <i type="logical" name="LMP2LT"> F  </i>
   <i type="logical" name="LUSEW"> F  </i>
   <i name="ENCUTGW">     -2.00000000</i>
   <i name="ENCUTGWSOFT">     -2.00000000</i>
   <i name="ENCUTLF">     -1.00000000</i>
   <i type="int" name="LMAXMP2">    -1</i>
   <i name="SCISSOR">      0.00000000</i>
   <i type="int" name="NOMEGA">     0</i>
   <i type="int" name="NOMEGAR">     0</i>
   <i type="int" name="NBANDSGW">    -1</i>
   <i type="int" name="NBANDSO">    -1</i>
   <i type="int" name="NBANDSV">    -1</i>
   <i type="int" name="NELM">   200</i>
   <i type="int" name="NELMHF">     1</i>
   <i type="int" name="DIM">     3</i>
   <i type="int" name="ANTIRES">     0</i>
   <i name="OMEGAMAX">    -30.00000000</i>
   <i name="OMEGAMIN">    -30.00000000</i>
   <i name="OMEGATL">   -200.00000000</i>
   <i type="int" name="OMEGAGRID">   140</i>
   <i name="CSHIFT">     -0.10000000</i>
   <i type="logical" name="SELFENERGY"> F  </i>
   <i type="logical" name="LSPECTRAL"> F  </i>
   <i type="logical" name="LSPECTRALGW"> F  </i>
   <i type="logical" name="LSINGLES"> F  </i>
   <i type="logical" name="LFERMIGW"> F  </i>
   <i type="logical" name="ODDONLYGW"> F  </i>
   <i type="logical" name="EVENONLYGW"> F  </i>
   <i type="int" name="NKREDLFX">     1</i>
   <i type="int" name="NKREDLFY">     1</i>
   <i type="int" name="NKREDLFZ">     1</i>
   <i type="int" name="MAXMEM">  2800</i>
   <i type="int" name="TELESCOPE">     0</i>
   <i type="int" name="TAUPAR">     1</i>
   <i type="int" name="OMEGAPAR">    -1</i>
   <i name="LAMBDA">      1.00000000</i>
  </separator>
  <separator name="External order field" >
   <i name="OFIELD_KAPPA">      0.00000000</i>
   <v name="OFIELD_K">      0.00000000      0.00000000      0.00000000</v>
   <i name="OFIELD_Q6_NEAR">      0.00000000</i>
   <i name="OFIELD_Q6_FAR">      0.00000000</i>
   <i name="OFIELD_A">      0.00000000</i>
  </separator>
 </parameters>
 <atominfo>
  <atoms>      39 </atoms>
  <types>       3 </types>
  <array name="atoms" >
   <dimension dim="1">ion</dimension>
   <field type="string">element</field>
   <field type="int">atomtype</field>
   <set>
    <rc><c>Cs</c><c>   1</c></rc>
    <rc><c>Cs</c><c>   1</c></rc>
    <rc><c>Cs</c><c>   1</c></rc>
    <rc><c>Cs</c><c>   1</c></rc>
    <rc><c>Cs</c><c>   1</c></rc>
    <rc><c>Cs</c><c>   1</c></rc>
    <rc><c>Cs</c><c>   1</c></rc>
    <rc><c>Cs</c><c>   1</c></rc>
    <rc><c>Pb</c><c>   2</c></rc>
    <rc><c>Pb</c><c>   2</c></rc>
    <rc><c>Pb</c><c>   2</c></rc>
    <rc><c>Pb</c><c>   2</c></rc>
    <rc><c>Pb</c><c>   2</c></rc>
    <rc><c>Pb</c><c>   2</c></rc>
    <rc><c>Pb</c><c>   2</c></rc>
    <rc><c>Pb</c><c>   2</c></rc>
    <rc><c>Br</c><c>   3</c></rc>
    <rc><c>Br</c><c>   3</c></rc>
    <rc><c>Br</c><c>   3</c></rc>
    <rc><c>Br</c><c>   3</c></rc>
    <rc><c>Br</c><c>   3</c></rc>
    <rc><c>Br</c><c>   3</c></rc>
    <rc><c>Br</c><c>   3</c></rc>
    <rc><c>Br</c><c>   3</c></rc>
    <rc><c>Br</c><c>   3</c></rc>
    <rc><c>Br</c><c>   3</c></rc>
    <rc><c>Br</c><c>   3</c></rc>
    <rc><c>Br</c><c>   3</c></rc>
    <rc><c>Br</c><c>   3</c></rc>
    <rc><c>Br</c><c>   3</c></rc>
    <rc><c>Br</c><c>   3</c></rc>
    <rc><c>Br</c><c>   3</c></rc>
    <rc><c>Br</c><c>   3</c></rc>
    <rc><c>Br</c><c>   3</c></rc>
    <rc><c>Br</c><c>   3</c></rc>
    <rc><c>Br</c><c>   3</c></rc>
    <rc><c>Br</c><c>   3</c></rc>
    <rc><c>Br</c><c>   3</c></rc>
    <rc><c>Br</c><c>   3</c></rc>
   </set>
  </array>
  <array name="atomtypes" >
   <dimension dim="1">type</dimension>
   <field type="int">atomspertype</field>
   <field type="string">element</field>
   <field>mass</field>
   <field>valence</field>
   <field type="string">pseudopotential</field>
   <set>
    <rc><c>   8</c><c>Cs</c><c>    132.90000000</c><c>      9.00000000</c><c>  PAW_PBE Cs_sv 08Apr2002               </c></rc>
    <rc><c>   8</c><c>Pb</c><c>    207.20000000</c><c>     14.00000000</c><c>  PAW_PBE Pb_d 06Sep2000                </c></rc>
    <rc><c>  23</c><c>Br</c><c>     79.90400000</c><c>      7.00000000</c><c>  PAW_PBE Br 06Sep2000                  </c></rc>
   </set>
  </array>
 </atominfo>
 <structure name="initialpos" >
  <crystal>
   <varray name="basis" >
    <v>       8.45648900       0.00000000       8.04030100 </v>
    <v>       0.00000000      11.72984700       0.00000000 </v>
    <v>      -8.45648900       0.00000000       8.04030100 </v>
   </varray>
   <i name="volume">   1595.08833419 </i>
   <varray name="rec_basis" >
    <v>       0.05912619      -0.00000000       0.06218673 </v>
    <v>       0.00000000       0.08525260      -0.00000000 </v>
    <v>      -0.05912619       0.00000000       0.06218673 </v>
   </varray>
  </crystal>
  <varray name="positions" >
   <v>       0.26531300       0.25418400       0.20653600 </v>
   <v>       0.76991000       0.24109500       0.74032900 </v>
   <v>       0.70616900       0.76593300       0.23889300 </v>
   <v>       0.21236300       0.74907900       0.77848900 </v>
   <v>       0.29999300       0.26335400       0.73991300 </v>
   <v>       0.79059300       0.24520000       0.21500400 </v>
   <v>       0.73520800       0.75012700       0.80693500 </v>
   <v>       0.23077200       0.74522600       0.27799700 </v>
   <v>       0.00407900       0.00104300       0.99828400 </v>
   <v>       0.50096500       0.00758100       0.49475900 </v>
   <v>       0.49559700       0.00303400       0.99581400 </v>
   <v>       0.00547500       0.02510600       0.50354700 </v>
   <v>       0.50069400       0.50157700       0.00089900 </v>
   <v>       0.96788900       0.49785400       0.50186100 </v>
   <v>       0.99999500       0.50079800       0.00488100 </v>
   <v>       0.51194900       0.50083600       0.50100500 </v>
   <v>       0.47532900       0.75214400       0.96857900 </v>
   <v>       0.98547300       0.25110500       0.97379000 </v>
   <v>       0.45253000       0.24434500       0.47127700 </v>
   <v>       0.02039400       0.75141000       0.03289000 </v>
   <v>       0.52209700       0.25168200       0.03348800 </v>
   <v>       0.04672500       0.26591100       0.54170900 </v>
   <v>       0.24807100       0.47869400       0.95800400 </v>
   <v>       0.74797000       0.40831300       0.46594800 </v>
   <v>       0.46344700       0.54083700       0.25010600 </v>
   <v>       0.95116700       0.53327900       0.74658000 </v>
   <v>       0.54391500       0.02848000       0.74766500 </v>
   <v>       0.04722500       0.02943500       0.25355900 </v>
   <v>       0.75380200       0.98618400       0.03088200 </v>
   <v>       0.24847000       0.95361300       0.54067000 </v>
   <v>       0.24865700       0.03077400       0.94028500 </v>
   <v>       0.74948000       0.03167800       0.44613900 </v>
   <v>       0.44834900       0.96568900       0.24604700 </v>
   <v>       0.95497400       0.96259900       0.74354300 </v>
   <v>       0.75265400       0.52498500       0.05135800 </v>
   <v>       0.26633300       0.55580300       0.54131700 </v>
   <v>       0.55494500       0.46856700       0.75306700 </v>
   <v>       0.04237800       0.47072900       0.25619300 </v>
   <v>       0.72060200       0.71171600       0.50575100 </v>
  </varray>
 </structure>
 <calculation>
  <scstep>
   <time name="dav">   16.57   16.57</time>
   <time name="total">   18.03   18.04</time>
   <energy>
    <i name="alphaZ">    872.70583573 </i>
    <i name="ewald"> -17933.51286696 </i>
    <i name="hartreedc">  -7423.89849039 </i>
    <i name="XCdc">    907.93574034 </i>
    <i name="pawpsdc">  21345.28103884 </i>
    <i name="pawaedc"> -22405.85761495 </i>
    <i name="eentropy">     -0.00132091 </i>
    <i name="bandstr">   -244.81086717 </i>
    <i name="atom">  26212.11861568 </i>
    <i name="e_fr_energy">   1329.96007021 </i>
    <i name="e_wo_entrp">   1329.96139112 </i>
    <i name="e_0_energy">   1329.96073066 </i>
   </energy>
  </scstep>
  <scstep>
   <time name="dav">   18.42   18.48</time>
   <time name="total">   18.42   18.48</time>
   <energy>
    <i name="e_fr_energy">  -1110.97870117 </i>
    <i name="e_wo_entrp">  -1110.97870117 </i>
    <i name="e_0_energy">  -1110.97870117 </i>
   </energy>
  </scstep>
  <scstep>
   <time name="dav">   19.48   19.52</time>
   <time name="total">   19.48   19.52</time>
   <energy>
    <i name="e_fr_energy">  -1474.96017967 </i>
    <i name="e_wo_entrp">  -1474.96017967 </i>
    <i name="e_0_energy">  -1474.96017967 </i>
   </energy>
  </scstep>
  <scstep>
   <time name="dav">   17.84   17.89</time>
   <time name="total">   17.84   17.89</time>
   <energy>
    <i name="e_fr_energy">  -1486.75639994 </i>
    <i name="e_wo_entrp">  -1486.75639994 </i>
    <i name="e_0_energy">  -1486.75639994 </i>
   </energy>
  </scstep>
  <scstep>
   <time name="dav">   19.37   19.43</time>
   <time name="total">   22.09   22.15</time>
   <energy>
    <i name="e_fr_energy">  -1487.29843656 </i>
    <i name="e_wo_entrp">  -1487.29843656 </i>
    <i name="e_0_energy">  -1487.29843656 </i>
   </energy>
  </scstep>
  <scstep>
   <time name="dav">   19.13   19.13</time>
   <time name="total">   23.30   23.36</time>
   <energy>
    <i name="e_fr_energy">  -1409.21679459 </i>
    <i name="e_wo_entrp">  -1409.21679459 </i>
    <i name="e_0_energy">  -1409.21679459 </i>
   </energy>
  </scstep>
  <scstep>
   <time name="dav">   18.41   18.41</time>
   <time name="total">   22.64   22.64</time>
   <energy>
    <i name="e_fr_energy">  -1408.64200387 </i>
    <i name="e_wo_entrp">  -1408.64200387 </i>
    <i name="e_0_energy">  -1408.64200387 </i>
   </energy>
  </scstep>
  <scstep>
   <time name="dav">   17.88   17.88</time>
   <time name="total">   22.07   22.10</time>
   <energy>
    <i name="e_fr_energy">  -1408.82343168 </i>
    <i name="e_wo_entrp">  -1408.82343168 </i>
    <i name="e_0_energy">  -1408.82343168 </i>
   </energy>
  </scstep>
  <scstep>
   <time name="dav">   17.38   17.38</time>
   <time name="total">   21.55   21.60</time>
   <energy>
    <i name="e_fr_energy">  -1408.88736299 </i>
    <i name="e_wo_entrp">  -1408.88736299 </i>
    <i name="e_0_energy">  -1408.88736299 </i>
   </energy>
  </scstep>
  <scstep>
   <time name="dav">   19.26   19.27</time>
   <time name="total">   23.48   23.48</time>
   <energy>
    <i name="e_fr_energy">  -1408.89168692 </i>
    <i name="e_wo_entrp">  -1408.89168692 </i>
    <i name="e_0_energy">  -1408.89168692 </i>
   </energy>
  </scstep>
  <scstep>
   <time name="dav">   17.34   17.34</time>
   <time name="total">   21.55   21.56</time>
   <energy>
    <i name="e_fr_energy">  -1408.89406075 </i>
    <i name="e_wo_entrp">  -1408.89406075 </i>
    <i name="e_0_energy">  -1408.89406075 </i>
   </energy>
  </scstep>
  <scstep>
   <time name="dav">   16.90   16.90</time>
   <time name="total">   21.09   21.13</time>
   <energy>
    <i name="e_fr_energy">  -1408.89697163 </i>
    <i name="e_wo_entrp">  -1408.89697163 </i>
    <i name="e_0_energy">  -1408.89697163 </i>
   </energy>
  </scstep>
  <scstep>
   <time name="dav">   19.33   19.33</time>
   <time name="total">   23.52   23.56</time>
   <energy>
    <i name="e_fr_energy">  -1408.89664431 </i>
    <i name="e_wo_entrp">  -1408.89664431 </i>
    <i name="e_0_energy">  -1408.89664431 </i>
   </energy>
  </scstep>
  <scstep>
   <time name="dav">   17.91   17.91</time>
   <time name="total">   22.10   22.14</time>
   <energy>
    <i name="e_fr_energy">  -1408.89662529 </i>
    <i name="e_wo_entrp">  -1408.89662529 </i>
    <i name="e_0_energy">  -1408.89662529 </i>
   </energy>
  </scstep>
  <scstep>
   <time name="dav">   17.47   17.48</time>
   <time name="total">   21.68   21.69</time>
   <energy>
    <i name="e_fr_energy">  -1408.89662910 </i>
    <i name="e_wo_entrp">  -1408.89662910 </i>
    <i name="e_0_energy">  -1408.89662910 </i>
   </energy>
  </scstep>
  <scstep>
   <time name="dav">   17.28   17.28</time>
   <time name="total">   21.49   21.50</time>
   <energy>
    <i name="e_fr_energy">  -1408.89669386 </i>
    <i name="e_wo_entrp">  -1408.89669386 </i>
    <i name="e_0_energy">  -1408.89669386 </i>
   </energy>
  </scstep>
  <scstep>
   <time name="dav">   17.73   17.73</time>
   <time name="total">   21.91   21.96</time>
   <energy>
    <i name="e_fr_energy">  -1408.89669004 </i>
    <i name="e_wo_entrp">  -1408.89669004 </i>
    <i name="e_0_energy">  -1408.89669004 </i>
   </energy>
  </scstep>
  <scstep>
   <time name="dav">   14.36   14.36</time>
   <time name="total">   18.56   18.59</time>
   <energy>
    <i name="e_fr_energy">  -1408.89668719 </i>
    <i name="e_wo_entrp">  -1408.89668719 </i>
    <i name="e_0_energy">  -1408.89668719 </i>
   </energy>
  </scstep>
  <scstep>
   <time name="dav">   13.34   13.34</time>
   <time name="total">   17.51   17.55</time>
   <energy>
    <i name="e_fr_energy">  -1408.89668396 </i>
    <i name="e_wo_entrp">  -1408.89668396 </i>
    <i name="e_0_energy">  -1408.89668396 </i>
   </energy>
  </scstep>
  <scstep>
   <time name="dav">   12.92   12.92</time>
   <time name="total">   17.11   17.15</time>
   <energy>
    <i name="e_fr_energy">  -1408.89667957 </i>
    <i name="e_wo_entrp">  -1408.89667957 </i>
    <i name="e_0_energy">  -1408.89667957 </i>
   </energy>
  </scstep>
  <scstep>
   <time name="dav">   12.56   12.56</time>
   <time name="total">   14.05   14.08</time>
   <energy>
    <i name="alphaZ">    872.70583573 </i>
    <i name="ewald"> -17933.51286696 </i>
    <i name="hartreedc">  -7452.86764246 </i>
    <i name="XCdc">    943.33754703 </i>
    <i name="pawpsdc">  22721.94869534 </i>
    <i name="pawaedc"> -23779.76533387 </i>
    <i name="eentropy">     -0.00000000 </i>
    <i name="bandstr">  -2992.86152989 </i>
    <i name="atom">  26212.11861568 </i>
    <i name="e_fr_energy">  -1408.89667941 </i>
    <i name="e_wo_entrp">  -1408.89667941 </i>
    <i name="e_0_energy">  -1408.89667941 </i>
   </energy>
  </scstep>
  <structure>
   <crystal>
    <varray name="basis" >
     <v>       8.45648900       0.00000000       8.04030100 </v>
     <v>       0.00000000      11.72984700       0.00000000 </v>
     <v>      -8.45648900       0.00000000       8.04030100 </v>
    </varray>
    <i name="volume">   1595.08833419 </i>
    <varray name="rec_basis" >
     <v>       0.05912619      -0.00000000       0.06218673 </v>
     <v>       0.00000000       0.08525260      -0.00000000 </v>
     <v>      -0.05912619       0.00000000       0.06218673 </v>
    </varray>
   </crystal>
   <varray name="positions" >
    <v>       0.26531300       0.25418400       0.20653600 </v>
    <v>       0.76991000       0.24109500       0.74032900 </v>
    <v>       0.70616900       0.76593300       0.23889300 </v>
    <v>       0.21236300       0.74907900       0.77848900 </v>
    <v>       0.29999300       0.26335400       0.73991300 </v>
    <v>       0.79059300       0.24520000       0.21500400 </v>
    <v>       0.73520800       0.75012700       0.80693500 </v>
    <v>       0.23077200       0.74522600       0.27799700 </v>
    <v>       0.00407900       0.00104300       0.99828400 </v>
    <v>       0.50096500       0.00758100       0.49475900 </v>
    <v>       0.49559700       0.00303400       0.99581400 </v>
    <v>       0.00547500       0.02510600       0.50354700 </v>
    <v>       0.50069400       0.50157700       0.00089900 </v>
    <v>       0.96788900       0.49785400       0.50186100 </v>
    <v>       0.99999500       0.50079800       0.00488100 </v>
    <v>       0.51194900       0.50083600       0.50100500 </v>
    <v>       0.47532900       0.75214400       0.96857900 </v>
    <v>       0.98547300       0.25110500       0.97379000 </v>
    <v>       0.45253000       0.24434500       0.47127700 </v>
    <v>       0.02039400       0.75141000       0.03289000 </v>
    <v>       0.52209700       0.25168200       0.03348800 </v>
    <v>       0.04672500       0.26591100       0.54170900 </v>
    <v>       0.24807100       0.47869400       0.95800400 </v>
    <v>       0.74797000       0.40831300       0.46594800 </v>
    <v>       0.46344700       0.54083700       0.25010600 </v>
    <v>       0.95116700       0.53327900       0.74658000 </v>
    <v>       0.54391500       0.02848000       0.74766500 </v>
    <v>       0.04722500       0.02943500       0.25355900 </v>
    <v>       0.75380200       0.98618400       0.03088200 </v>
    <v>       0.24847000       0.95361300       0.54067000 </v>
    <v>       0.24865700       0.03077400       0.94028500 </v>
    <v>       0.74948000       0.03167800       0.44613900 </v>
    <v>       0.44834900       0.96568900       0.24604700 </v>
    <v>       0.95497400       0.96259900       0.74354300 </v>
    <v>       0.75265400       0.52498500       0.05135800 </v>
    <v>       0.26633300       0.55580300       0.54131700 </v>
    <v>       0.55494500       0.46856700       0.75306700 </v>
    <v>       0.04237800       0.47072900       0.25619300 </v>
    <v>       0.72060200       0.71171600       0.50575100 </v>
   </varray>
  </structure>
  <varray name="forces" >
   <v>       0.00126162       0.00492167      -0.02485879 </v>
   <v>       0.03719530      -0.00162227      -0.01055007 </v>
   <v>       0.39130768       0.11333166      -0.42039395 </v>
   <v>      -0.03342394      -0.00471279       0.02042126 </v>
   <v>      -0.01011815       0.01498557       0.02439883 </v>
   <v>       0.01191155      -0.04654769      -0.02140811 </v>
   <v>       0.03987006      -0.01007482      -0.01622419 </v>
   <v>       0.00197164      -0.02378555      -0.02273958 </v>
   <v>       0.01385023      -0.02528171      -0.02808302 </v>
   <v>       0.15274186      -0.02286100       0.09698982 </v>
   <v>       0.00481824      -0.02599531       0.01569267 </v>
   <v>      -0.08562894       0.02134182      -0.06226630 </v>
   <v>       0.01649208       0.02304417       0.01392270 </v>
   <v>       0.04187734       0.25338343       0.09838881 </v>
   <v>      -0.03018445       0.01568619      -0.01849781 </v>
   <v>       0.06100545       0.25928839       0.12596532 </v>
   <v>      -0.02019371       0.00428718      -0.01893644 </v>
   <v>       0.00466679       0.00437614       0.00991916 </v>
   <v>       0.00122200       0.12176859       0.02730271 </v>
   <v>       0.00920190       0.00458216       0.01690301 </v>
   <v>      -0.00050108       0.00948684      -0.01307939 </v>
   <v>      -0.02192729      -0.08783642      -0.00040037 </v>
   <v>       0.00236328      -0.01032807      -0.00662641 </v>
   <v>       0.05886168      -0.46897653      -0.01457509 </v>
   <v>      -0.04230749      -0.01474579       0.02764676 </v>
   <v>      -0.01791728      -0.01570286       0.04634509 </v>
   <v>       0.01254426       0.00985984      -0.05021060 </v>
   <v>      -0.00857680      -0.00357187       0.02981084 </v>
   <v>       0.00757710       0.04180759      -0.01500225 </v>
   <v>       0.01523991      -0.02233953       0.00696473 </v>
   <v>       0.00656580       0.01441887       0.00939795 </v>
   <v>       0.01479086       0.20495415      -0.00362010 </v>
   <v>      -0.03367696       0.00986314       0.00223681 </v>
   <v>       0.01757370       0.01991847       0.01106282 </v>
   <v>       0.00209276      -0.02820184       0.00489644 </v>
   <v>       0.02456187      -0.04215271      -0.04060926 </v>
   <v>       0.00951092      -0.00674374      -0.04435602 </v>
   <v>       0.01820710       0.00275392      -0.00954105 </v>
   <v>      -0.67482690      -0.29257928       0.25371306 </v>
  </varray>
  <varray name="stress" >
   <v>      -7.30539762       0.05671823      -2.60310994 </v>
   <v>       0.05663084      -6.05678774      -0.54162155 </v>
   <v>      -2.60316259      -0.54143314      -4.73246816 </v>
  </varray>
  <energy>
   <i name="e_fr_energy">  -1408.89667941 </i>
   <i name="e_wo_entrp">  -1408.89667941 </i>
   <i name="e_0_energy">     -0.00000000 </i>
  </energy>
  <time name="totalsc">  484.82  485.58</time>
  <eigenvalues>
   <array>
    <dimension dim="1">band</dimension>
    <dimension dim="2">kpoint</dimension>
    <dimension dim="3">spin</dimension>
    <field>eigene</field>
    <field>occ</field>
    <set>
     <set comment="spin 1">
      <set comment="kpoint 1">
       <r>  -20.8996    1.0000 </r>
       <r>  -20.8227    1.0000 </r>
       <r>  -20.8121    1.0000 </r>
       <r>  -20.8100    1.0000 </r>
       <r>  -20.7417    1.0000 </r>
       <r>  -20.6887    1.0000 </r>
       <r>  -20.5304    1.0000 </r>
       <r>  -20.5088    1.0000 </r>
       <r>  -16.8459    1.0000 </r>
       <r>  -16.7873    1.0000 </r>
       <r>  -16.7664    1.0000 </r>
       <r>  -16.7647    1.0000 </r>
       <r>  -16.7238    1.0000 </r>
       <r>  -16.7179    1.0000 </r>
       <r>  -16.7134    1.0000 </r>
       <r>  -16.6901    1.0000 </r>
       <r>  -16.6805    1.0000 </r>
       <r>  -16.6655    1.0000 </r>
       <r>  -16.6528    1.0000 </r>
       <r>  -16.6357    1.0000 </r>
       <r>  -16.6174    1.0000 </r>
       <r>  -16.6010    1.0000 </r>
       <r>  -16.5909    1.0000 </r>
       <r>  -16.5860    1.0000 </r>
       <r>  -16.5630    1.0000 </r>
       <r>  -16.5413    1.0000 </r>
       <r>  -16.5275    1.0000 </r>
       <r>  -16.5003    1.0000 </r>
       <r>  -16.4735    1.0000 </r>
       <r>  -16.4707    1.0000 </r>
       <r>  -16.4549    1.0000 </r>
       <r>  -16.4389    1.0000 </r>
       <r>  -16.4188    1.0000 </r>
       <r>  -16.4042    1.0000 </r>
       <r>  -16.3800    1.0000 </r>
       <r>  -16.3716    1.0000 </r>
       <r>  -16.3457    1.0000 </r>
       <r>  -16.3383    1.0000 </r>
       <r>  -16.3305    1.0000 </r>
       <r>  -16.3171    1.0000 </r>
       <r>  -16.3156    1.0000 </r>
       <r>  -16.3103    1.0000 </r>
       <r>  -16.3097    1.0000 </r>
       <r>  -16.3014    1.0000 </r>
       <r>  -16.3008    1.0000 </r>
       <r>  -16.2818    1.0000 </r>
       <r>  -16.2781    1.0000 </r>
       <r>  -16.2683    1.0000 </r>
       <r>  -14.6706    1.0000 </r>
       <r>  -14.4407    1.0000 </r>
       <r>  -14.3478    1.0000 </r>
       <r>  -14.2995    1.0000 </r>
       <r>  -14.1787    1.0000 </r>
       <r>  -14.1577    1.0000 </r>
       <r>  -14.1510    1.0000 </r>
       <r>  -14.1099    1.0000 </r>
       <r>  -14.1084    1.0000 </r>
       <r>  -14.0889    1.0000 </r>
       <r>  -14.0758    1.0000 </r>
       <r>  -14.0685    1.0000 </r>
       <r>  -14.0588    1.0000 </r>
       <r>  -14.0535    1.0000 </r>
       <r>  -14.0244    1.0000 </r>
       <r>  -14.0059    1.0000 </r>
       <r>  -13.9377    1.0000 </r>
       <r>  -13.8599    1.0000 </r>
       <r>  -13.8422    1.0000 </r>
       <r>  -13.7829    1.0000 </r>
       <r>  -13.7780    1.0000 </r>
       <r>  -13.5728    1.0000 </r>
       <r>  -13.0462    1.0000 </r>
       <r>   -8.2616    1.0000 </r>
       <r>   -7.8447    1.0000 </r>
       <r>   -7.8093    1.0000 </r>
       <r>   -7.7319    1.0000 </r>
       <r>   -7.3578    1.0000 </r>
       <r>   -7.3342    1.0000 </r>
       <r>   -7.3007    1.0000 </r>
       <r>   -7.2777    1.0000 </r>
       <r>   -7.2637    1.0000 </r>
       <r>   -7.2537    1.0000 </r>
       <r>   -7.2382    1.0000 </r>
       <r>   -7.2296    1.0000 </r>
       <r>   -7.2216    1.0000 </r>
       <r>   -7.2175    1.0000 </r>
       <r>   -7.2081    1.0000 </r>
       <r>   -7.2044    1.0000 </r>
       <r>   -7.1931    1.0000 </r>
       <r>   -7.1871    1.0000 </r>
       <r>   -7.1805    1.0000 </r>
       <r>   -7.1642    1.0000 </r>
       <r>   -7.1379    1.0000 </r>
       <r>   -7.1194    1.0000 </r>
       <r>   -7.1156    1.0000 </r>
       <r>   -7.0926    1.0000 </r>
       <r>   -7.0884    1.0000 </r>
       <r>   -6.9992    1.0000 </r>
       <r>   -6.9672    1.0000 </r>
       <r>   -6.9526    1.0000 </r>
       <r>   -6.9476    1.0000 </r>
       <r>   -6.9266    1.0000 </r>
       <r>   -6.8753    1.0000 </r>
       <r>   -6.6286    1.0000 </r>
       <r>   -3.4375    1.0000 </r>
       <r>   -3.3604    1.0000 </r>
       <r>   -3.3243    1.0000 </r>
       <r>   -3.3133    1.0000 </r>
       <r>   -3.2680    1.0000 </r>
       <r>   -3.2345    1.0000 </r>
       <r>   -3.2097    1.0000 </r>
       <r>   -3.1669    1.0000 </r>
       <r>   -3.1028    1.0000 </r>
       <r>   -3.0270    1.0000 </r>
       <r>   -2.9039    1.0000 </r>
       <r>   -2.7545    1.0000 </r>
       <r>   -2.3232    1.0000 </r>
       <r>   -2.2650    1.0000 </r>
       <r>   -2.1775    1.0000 </r>
       <r>   -2.0828    1.0000 </r>
       <r>   -2.0517    1.0000 </r>
       <r>   -1.9950    1.0000 </r>
       <r>   -1.9690    1.0000 </r>
       <r>   -1.9228    1.0000 </r>
       <r>   -1.8768    1.0000 </r>
       <r>   -1.8562    1.0000 </r>
       <r>   -1.8196    1.0000 </r>
       <r>   -1.7469    1.0000 </r>
       <r>   -1.7185    1.0000 </r>
       <r>   -1.7035    1.0000 </r>
       <r>   -1.6425    1.0000 </r>
       <r>   -1.6229    1.0000 </r>
       <r>   -1.5938    1.0000 </r>
       <r>   -1.5646    1.0000 </r>
       <r>   -1.5572    1.0000 </r>
       <r>   -1.5504    1.0000 </r>
       <r>   -1.5357    1.0000 </r>
       <r>   -1.5113    1.0000 </r>
       <r>   -1.4857    1.0000 </r>
       <r>   -1.4732    1.0000 </r>
       <r>   -1.4684    1.0000 </r>
       <r>   -1.4471    1.0000 </r>
       <r>   -1.4433    1.0000 </r>
       <r>   -1.4350    1.0000 </r>
       <r>   -1.4267    1.0000 </r>
       <r>   -1.4002    1.0000 </r>
       <r>   -1.3860    1.0000 </r>
       <r>   -1.3739    1.0000 </r>
       <r>   -1.3649    1.0000 </r>
       <r>   -1.3454    1.0000 </r>
       <r>   -1.3365    1.0000 </r>
       <r>   -1.3094    1.0000 </r>
       <r>   -1.2928    1.0000 </r>
       <r>   -1.2630    1.0000 </r>
       <r>   -1.2272    1.0000 </r>
       <r>   -1.2022    1.0000 </r>
       <r>   -1.1677    1.0000 </r>
       <r>   -1.1644    1.0000 </r>
       <r>   -1.1102    1.0000 </r>
       <r>   -1.0791    1.0000 </r>
       <r>   -1.0773    1.0000 </r>
       <r>   -1.0011    1.0000 </r>
       <r>   -0.9312    1.0000 </r>
       <r>   -0.8865    1.0000 </r>
       <r>   -0.8473    1.0000 </r>
       <r>   -0.7765    1.0000 </r>
       <r>   -0.7026    1.0000 </r>
       <r>   -0.5441    1.0000 </r>
       <r>   -0.4836    1.0000 </r>
       <r>   -0.2587    1.0000 </r>
       <r>   -0.2047    1.0000 </r>
       <r>   -0.1797    1.0000 </r>
       <r>    0.3316    1.0000 </r>
       <r>    2.5363    0.0000 </r>
       <r>    2.6434    0.0000 </r>
       <r>    2.6951    0.0000 </r>
       <r>    2.8559    0.0000 </r>
       <r>    2.9808    0.0000 </r>
       <r>    3.0307    0.0000 </r>
       <r>    3.1185    0.0000 </r>
       <r>    3.1409    0.0000 </r>
       <r>    3.2704    0.0000 </r>
       <r>    3.3744    0.0000 </r>
       <r>    3.4617    0.0000 </r>
       <r>    3.5566    0.0000 </r>
       <r>    4.1583    0.0000 </r>
       <r>    4.5715    0.0000 </r>
       <r>    4.8524    0.0000 </r>
       <r>    5.1500    0.0000 </r>
       <r>    5.4753    0.0000 </r>
       <r>    5.4859    0.0000 </r>
       <r>    5.7435    0.0000 </r>
       <r>    5.7544    0.0000 </r>
       <r>    5.8225    0.0000 </r>
       <r>    5.8788    0.0000 </r>
       <r>    5.9843    0.0000 </r>
       <r>    6.0499    0.0000 </r>
       <r>    6.0770    0.0000 </r>
       <r>    6.1401    0.0000 </r>
       <r>    6.2009    0.0000 </r>
       <r>    6.2410    0.0000 </r>
       <r>    6.3236    0.0000 </r>
       <r>    6.4014    0.0000 </r>
       <r>    6.4242    0.0000 </r>
       <r>    6.4509    0.0000 </r>
       <r>    6.5381    0.0000 </r>
       <r>    6.5739    0.0000 </r>
       <r>    6.6395    0.0000 </r>
       <r>    6.7107    0.0000 </r>
      </set>
      <set comment="kpoint 2">
       <r>  -20.8996    1.0000 </r>
       <r>  -20.8227    1.0000 </r>
       <r>  -20.8117    1.0000 </r>
       <r>  -20.8103    1.0000 </r>
       <r>  -20.7417    1.0000 </r>
       <r>  -20.6887    1.0000 </r>
       <r>  -20.5304    1.0000 </r>
       <r>  -20.5088    1.0000 </r>
       <r>  -16.8455    1.0000 </r>
       <r>  -16.7868    1.0000 </r>
       <r>  -16.7639    1.0000 </r>
       <r>  -16.7620    1.0000 </r>
       <r>  -16.7241    1.0000 </r>
       <r>  -16.7186    1.0000 </r>
       <r>  -16.7140    1.0000 </r>
       <r>  -16.6901    1.0000 </r>
       <r>  -16.6805    1.0000 </r>
       <r>  -16.6690    1.0000 </r>
       <r>  -16.6530    1.0000 </r>
       <r>  -16.6357    1.0000 </r>
       <r>  -16.6175    1.0000 </r>
       <r>  -16.6010    1.0000 </r>
       <r>  -16.5909    1.0000 </r>
       <r>  -16.5874    1.0000 </r>
       <r>  -16.5630    1.0000 </r>
       <r>  -16.5413    1.0000 </r>
       <r>  -16.5275    1.0000 </r>
       <r>  -16.4957    1.0000 </r>
       <r>  -16.4735    1.0000 </r>
       <r>  -16.4571    1.0000 </r>
       <r>  -16.4515    1.0000 </r>
       <r>  -16.4254    1.0000 </r>
       <r>  -16.4233    1.0000 </r>
       <r>  -16.4155    1.0000 </r>
       <r>  -16.3934    1.0000 </r>
       <r>  -16.3794    1.0000 </r>
       <r>  -16.3457    1.0000 </r>
       <r>  -16.3383    1.0000 </r>
       <r>  -16.3304    1.0000 </r>
       <r>  -16.3171    1.0000 </r>
       <r>  -16.3156    1.0000 </r>
       <r>  -16.3103    1.0000 </r>
       <r>  -16.3097    1.0000 </r>
       <r>  -16.3014    1.0000 </r>
       <r>  -16.3008    1.0000 </r>
       <r>  -16.2819    1.0000 </r>
       <r>  -16.2781    1.0000 </r>
       <r>  -16.2683    1.0000 </r>
       <r>  -14.6676    1.0000 </r>
       <r>  -14.4524    1.0000 </r>
       <r>  -14.3210    1.0000 </r>
       <r>  -14.2818    1.0000 </r>
       <r>  -14.2675    1.0000 </r>
       <r>  -14.1731    1.0000 </r>
       <r>  -14.1549    1.0000 </r>
       <r>  -14.1199    1.0000 </r>
       <r>  -14.1077    1.0000 </r>
       <r>  -14.1050    1.0000 </r>
       <r>  -14.0807    1.0000 </r>
       <r>  -14.0653    1.0000 </r>
       <r>  -14.0567    1.0000 </r>
       <r>  -14.0253    1.0000 </r>
       <r>  -13.9584    1.0000 </r>
       <r>  -13.9100    1.0000 </r>
       <r>  -13.9063    1.0000 </r>
       <r>  -13.8761    1.0000 </r>
       <r>  -13.8579    1.0000 </r>
       <r>  -13.8396    1.0000 </r>
       <r>  -13.8063    1.0000 </r>
       <r>  -13.5762    1.0000 </r>
       <r>  -13.0463    1.0000 </r>
       <r>   -8.1005    1.0000 </r>
       <r>   -7.9816    1.0000 </r>
       <r>   -7.6784    1.0000 </r>
       <r>   -7.6080    1.0000 </r>
       <r>   -7.5601    1.0000 </r>
       <r>   -7.4578    1.0000 </r>
       <r>   -7.3255    1.0000 </r>
       <r>   -7.2976    1.0000 </r>
       <r>   -7.2541    1.0000 </r>
       <r>   -7.2479    1.0000 </r>
       <r>   -7.2334    1.0000 </r>
       <r>   -7.2258    1.0000 </r>
       <r>   -7.2218    1.0000 </r>
       <r>   -7.2181    1.0000 </r>
       <r>   -7.2111    1.0000 </r>
       <r>   -7.1998    1.0000 </r>
       <r>   -7.1957    1.0000 </r>
       <r>   -7.1830    1.0000 </r>
       <r>   -7.1680    1.0000 </r>
       <r>   -7.1389    1.0000 </r>
       <r>   -7.1240    1.0000 </r>
       <r>   -7.1179    1.0000 </r>
       <r>   -7.1017    1.0000 </r>
       <r>   -7.0893    1.0000 </r>
       <r>   -7.0386    1.0000 </r>
       <r>   -6.9819    1.0000 </r>
       <r>   -6.9625    1.0000 </r>
       <r>   -6.9550    1.0000 </r>
       <r>   -6.9382    1.0000 </r>
       <r>   -6.9311    1.0000 </r>
       <r>   -6.9191    1.0000 </r>
       <r>   -6.8707    1.0000 </r>
       <r>   -3.3974    1.0000 </r>
       <r>   -3.3387    1.0000 </r>
       <r>   -3.3168    1.0000 </r>
       <r>   -3.2813    1.0000 </r>
       <r>   -3.2114    1.0000 </r>
       <r>   -3.1485    1.0000 </r>
       <r>   -3.0398    1.0000 </r>
       <r>   -2.8574    1.0000 </r>
       <r>   -2.7245    1.0000 </r>
       <r>   -2.5594    1.0000 </r>
       <r>   -2.5405    1.0000 </r>
       <r>   -2.5214    1.0000 </r>
       <r>   -2.4374    1.0000 </r>
       <r>   -2.4116    1.0000 </r>
       <r>   -2.3238    1.0000 </r>
       <r>   -2.2683    1.0000 </r>
       <r>   -2.2026    1.0000 </r>
       <r>   -2.1464    1.0000 </r>
       <r>   -2.0753    1.0000 </r>
       <r>   -2.0462    1.0000 </r>
       <r>   -1.9866    1.0000 </r>
       <r>   -1.9717    1.0000 </r>
       <r>   -1.9307    1.0000 </r>
       <r>   -1.8121    1.0000 </r>
       <r>   -1.7946    1.0000 </r>
       <r>   -1.7891    1.0000 </r>
       <r>   -1.7322    1.0000 </r>
       <r>   -1.6980    1.0000 </r>
       <r>   -1.6326    1.0000 </r>
       <r>   -1.6202    1.0000 </r>
       <r>   -1.5866    1.0000 </r>
       <r>   -1.5503    1.0000 </r>
       <r>   -1.5431    1.0000 </r>
       <r>   -1.5266    1.0000 </r>
       <r>   -1.5113    1.0000 </r>
       <r>   -1.4905    1.0000 </r>
       <r>   -1.4625    1.0000 </r>
       <r>   -1.4524    1.0000 </r>
       <r>   -1.4402    1.0000 </r>
       <r>   -1.4167    1.0000 </r>
       <r>   -1.3999    1.0000 </r>
       <r>   -1.3944    1.0000 </r>
       <r>   -1.3736    1.0000 </r>
       <r>   -1.3675    1.0000 </r>
       <r>   -1.3466    1.0000 </r>
       <r>   -1.3404    1.0000 </r>
       <r>   -1.3019    1.0000 </r>
       <r>   -1.2861    1.0000 </r>
       <r>   -1.2523    1.0000 </r>
       <r>   -1.2399    1.0000 </r>
       <r>   -1.2315    1.0000 </r>
       <r>   -1.2020    1.0000 </r>
       <r>   -1.1557    1.0000 </r>
       <r>   -1.1501    1.0000 </r>
       <r>   -1.1422    1.0000 </r>
       <r>   -1.1166    1.0000 </r>
       <r>   -1.0853    1.0000 </r>
       <r>   -1.0425    1.0000 </r>
       <r>   -0.9590    1.0000 </r>
       <r>   -0.9313    1.0000 </r>
       <r>   -0.8919    1.0000 </r>
       <r>   -0.8330    1.0000 </r>
       <r>   -0.7282    1.0000 </r>
       <r>   -0.6548    1.0000 </r>
       <r>   -0.5627    1.0000 </r>
       <r>   -0.5406    1.0000 </r>
       <r>   -0.2022    1.0000 </r>
       <r>   -0.1129    1.0000 </r>
       <r>   -0.0865    1.0000 </r>
       <r>    2.4233    0.0000 </r>
       <r>    2.7902    0.0000 </r>
       <r>    2.8829    0.0000 </r>
       <r>    2.9684    0.0000 </r>
       <r>    3.1426    0.0000 </r>
       <r>    3.2013    0.0000 </r>
       <r>    3.2333    0.0000 </r>
       <r>    3.3108    0.0000 </r>
       <r>    3.9549    0.0000 </r>
       <r>    4.0481    0.0000 </r>
       <r>    4.2058    0.0000 </r>
       <r>    4.2490    0.0000 </r>
       <r>    4.3933    0.0000 </r>
       <r>    4.4609    0.0000 </r>
       <r>    4.6299    0.0000 </r>
       <r>    4.6687    0.0000 </r>
       <r>    4.8346    0.0000 </r>
       <r>    4.8650    0.0000 </r>
       <r>    5.4812    0.0000 </r>
       <r>    5.5557    0.0000 </r>
       <r>    5.5902    0.0000 </r>
       <r>    5.6999    0.0000 </r>
       <r>    5.7994    0.0000 </r>
       <r>    5.9392    0.0000 </r>
       <r>    6.0896    0.0000 </r>
       <r>    6.1568    0.0000 </r>
       <r>    6.1774    0.0000 </r>
       <r>    6.1805    0.0000 </r>
       <r>    6.2259    0.0000 </r>
       <r>    6.2680    0.0000 </r>
       <r>    6.3855    0.0000 </r>
       <r>    6.4225    0.0000 </r>
       <r>    6.4770    0.0000 </r>
       <r>    6.5376    0.0000 </r>
       <r>    6.6243    0.0000 </r>
       <r>    6.6788    0.0000 </r>
      </set>
      <set comment="kpoint 3">
       <r>  -20.8996    1.0000 </r>
       <r>  -20.8227    1.0000 </r>
       <r>  -20.8121    1.0000 </r>
       <r>  -20.8100    1.0000 </r>
       <r>  -20.7417    1.0000 </r>
       <r>  -20.6887    1.0000 </r>
       <r>  -20.5304    1.0000 </r>
       <r>  -20.5088    1.0000 </r>
       <r>  -16.8459    1.0000 </r>
       <r>  -16.7873    1.0000 </r>
       <r>  -16.7664    1.0000 </r>
       <r>  -16.7647    1.0000 </r>
       <r>  -16.7238    1.0000 </r>
       <r>  -16.7179    1.0000 </r>
       <r>  -16.7132    1.0000 </r>
       <r>  -16.6901    1.0000 </r>
       <r>  -16.6805    1.0000 </r>
       <r>  -16.6655    1.0000 </r>
       <r>  -16.6528    1.0000 </r>
       <r>  -16.6357    1.0000 </r>
       <r>  -16.6175    1.0000 </r>
       <r>  -16.6010    1.0000 </r>
       <r>  -16.5909    1.0000 </r>
       <r>  -16.5860    1.0000 </r>
       <r>  -16.5630    1.0000 </r>
       <r>  -16.5412    1.0000 </r>
       <r>  -16.5275    1.0000 </r>
       <r>  -16.4810    1.0000 </r>
       <r>  -16.4735    1.0000 </r>
       <r>  -16.4611    1.0000 </r>
       <r>  -16.4562    1.0000 </r>
       <r>  -16.4332    1.0000 </r>
       <r>  -16.4288    1.0000 </r>
       <r>  -16.4050    1.0000 </r>
       <r>  -16.4005    1.0000 </r>
       <r>  -16.3761    1.0000 </r>
       <r>  -16.3457    1.0000 </r>
       <r>  -16.3383    1.0000 </r>
       <r>  -16.3305    1.0000 </r>
       <r>  -16.3170    1.0000 </r>
       <r>  -16.3156    1.0000 </r>
       <r>  -16.3103    1.0000 </r>
       <r>  -16.3097    1.0000 </r>
       <r>  -16.3014    1.0000 </r>
       <r>  -16.3008    1.0000 </r>
       <r>  -16.2818    1.0000 </r>
       <r>  -16.2781    1.0000 </r>
       <r>  -16.2683    1.0000 </r>
       <r>  -14.6693    1.0000 </r>
       <r>  -14.4350    1.0000 </r>
       <r>  -14.3494    1.0000 </r>
       <r>  -14.3060    1.0000 </r>
       <r>  -14.2360    1.0000 </r>
       <r>  -14.1726    1.0000 </r>
       <r>  -14.1589    1.0000 </r>
       <r>  -14.1096    1.0000 </r>
       <r>  -14.0917    1.0000 </r>
       <r>  -14.0806    1.0000 </r>
       <r>  -14.0733    1.0000 </r>
       <r>  -14.0715    1.0000 </r>
       <r>  -14.0545    1.0000 </r>
       <r>  -14.0245    1.0000 </r>
       <r>  -13.9761    1.0000 </r>
       <r>  -13.9304    1.0000 </r>
       <r>  -13.9235    1.0000 </r>
       <r>  -13.9005    1.0000 </r>
       <r>  -13.8745    1.0000 </r>
       <r>  -13.8207    1.0000 </r>
       <r>  -13.7788    1.0000 </r>
       <r>  -13.5726    1.0000 </r>
       <r>  -13.0461    1.0000 </r>
       <r>   -8.1703    1.0000 </r>
       <r>   -7.9652    1.0000 </r>
       <r>   -7.7026    1.0000 </r>
       <r>   -7.6088    1.0000 </r>
       <r>   -7.4798    1.0000 </r>
       <r>   -7.4321    1.0000 </r>
       <r>   -7.3256    1.0000 </r>
       <r>   -7.2953    1.0000 </r>
       <r>   -7.2605    1.0000 </r>
       <r>   -7.2528    1.0000 </r>
       <r>   -7.2372    1.0000 </r>
       <r>   -7.2239    1.0000 </r>
       <r>   -7.2206    1.0000 </r>
       <r>   -7.2153    1.0000 </r>
       <r>   -7.2034    1.0000 </r>
       <r>   -7.1994    1.0000 </r>
       <r>   -7.1960    1.0000 </r>
       <r>   -7.1888    1.0000 </r>
       <r>   -7.1638    1.0000 </r>
       <r>   -7.1448    1.0000 </r>
       <r>   -7.1199    1.0000 </r>
       <r>   -7.1132    1.0000 </r>
       <r>   -7.1043    1.0000 </r>
       <r>   -7.0921    1.0000 </r>
       <r>   -7.0463    1.0000 </r>
       <r>   -6.9991    1.0000 </r>
       <r>   -6.9668    1.0000 </r>
       <r>   -6.9532    1.0000 </r>
       <r>   -6.9449    1.0000 </r>
       <r>   -6.9249    1.0000 </r>
       <r>   -6.8823    1.0000 </r>
       <r>   -6.8598    1.0000 </r>
       <r>   -3.3337    1.0000 </r>
       <r>   -3.3060    1.0000 </r>
       <r>   -3.2866    1.0000 </r>
       <r>   -3.2604    1.0000 </r>
       <r>   -3.2109    1.0000 </r>
       <r>   -3.1631    1.0000 </r>
       <r>   -3.1485    1.0000 </r>
       <r>   -3.0447    1.0000 </r>
       <r>   -2.9239    1.0000 </r>
       <r>   -2.7537    1.0000 </r>
       <r>   -2.5424    1.0000 </r>
       <r>   -2.5197    1.0000 </r>
       <r>   -2.4748    1.0000 </r>
       <r>   -2.4568    1.0000 </r>
       <r>   -2.3406    1.0000 </r>
       <r>   -2.2327    1.0000 </r>
       <r>   -2.1303    1.0000 </r>
       <r>   -2.0692    1.0000 </r>
       <r>   -2.0250    1.0000 </r>
       <r>   -2.0002    1.0000 </r>
       <r>   -1.9862    1.0000 </r>
       <r>   -1.9237    1.0000 </r>
       <r>   -1.8969    1.0000 </r>
       <r>   -1.8024    1.0000 </r>
       <r>   -1.7415    1.0000 </r>
       <r>   -1.7356    1.0000 </r>
       <r>   -1.7295    1.0000 </r>
       <r>   -1.6467    1.0000 </r>
       <r>   -1.6195    1.0000 </r>
       <r>   -1.6044    1.0000 </r>
       <r>   -1.5820    1.0000 </r>
       <r>   -1.5587    1.0000 </r>
       <r>   -1.5417    1.0000 </r>
       <r>   -1.5094    1.0000 </r>
       <r>   -1.5019    1.0000 </r>
       <r>   -1.4977    1.0000 </r>
       <r>   -1.4688    1.0000 </r>
       <r>   -1.4579    1.0000 </r>
       <r>   -1.4370    1.0000 </r>
       <r>   -1.4295    1.0000 </r>
       <r>   -1.4060    1.0000 </r>
       <r>   -1.3895    1.0000 </r>
       <r>   -1.3648    1.0000 </r>
       <r>   -1.3566    1.0000 </r>
       <r>   -1.3489    1.0000 </r>
       <r>   -1.3226    1.0000 </r>
       <r>   -1.3073    1.0000 </r>
       <r>   -1.2686    1.0000 </r>
       <r>   -1.2478    1.0000 </r>
       <r>   -1.2395    1.0000 </r>
       <r>   -1.2278    1.0000 </r>
       <r>   -1.1886    1.0000 </r>
       <r>   -1.1810    1.0000 </r>
       <r>   -1.1618    1.0000 </r>
       <r>   -1.1481    1.0000 </r>
       <r>   -1.1234    1.0000 </r>
       <r>   -1.1029    1.0000 </r>
       <r>   -1.0721    1.0000 </r>
       <r>   -0.9366    1.0000 </r>
       <r>   -0.8919    1.0000 </r>
       <r>   -0.8358    1.0000 </r>
       <r>   -0.7044    1.0000 </r>
       <r>   -0.6929    1.0000 </r>
       <r>   -0.6271    1.0000 </r>
       <r>   -0.5514    1.0000 </r>
       <r>   -0.5097    1.0000 </r>
       <r>   -0.2980    1.0000 </r>
       <r>   -0.1008    1.0000 </r>
       <r>   -0.0253    1.0000 </r>
       <r>    2.6787    0.0000 </r>
       <r>    2.7069    0.0000 </r>
       <r>    2.9018    0.0000 </r>
       <r>    2.9266    0.0000 </r>
       <r>    3.0070    0.0000 </r>
       <r>    3.1341    0.0000 </r>
       <r>    3.2012    0.0000 </r>
       <r>    3.2179    0.0000 </r>
       <r>    3.3544    0.0000 </r>
       <r>    3.5105    0.0000 </r>
       <r>    3.9203    0.0000 </r>
       <r>    4.1075    0.0000 </r>
       <r>    4.5349    0.0000 </r>
       <r>    4.6065    0.0000 </r>
       <r>    4.8313    0.0000 </r>
       <r>    4.8630    0.0000 </r>
       <r>    5.2227    0.0000 </r>
       <r>    5.4457    0.0000 </r>
       <r>    5.5286    0.0000 </r>
       <r>    5.5465    0.0000 </r>
       <r>    5.6511    0.0000 </r>
       <r>    5.7445    0.0000 </r>
       <r>    5.8194    0.0000 </r>
       <r>    5.9843    0.0000 </r>
       <r>    6.0772    0.0000 </r>
       <r>    6.0956    0.0000 </r>
       <r>    6.1313    0.0000 </r>
       <r>    6.1878    0.0000 </r>
       <r>    6.2874    0.0000 </r>
       <r>    6.3163    0.0000 </r>
       <r>    6.3690    0.0000 </r>
       <r>    6.4651    0.0000 </r>
       <r>    6.5562    0.0000 </r>
       <r>    6.5865    0.0000 </r>
       <r>    6.6211    0.0000 </r>
       <r>    6.6323    0.0000 </r>
      </set>
      <set comment="kpoint 4">
       <r>  -20.8996    1.0000 </r>
       <r>  -20.8227    1.0000 </r>
       <r>  -20.8117    1.0000 </r>
       <r>  -20.8103    1.0000 </r>
       <r>  -20.7417    1.0000 </r>
       <r>  -20.6887    1.0000 </r>
       <r>  -20.5304    1.0000 </r>
       <r>  -20.5088    1.0000 </r>
       <r>  -16.8455    1.0000 </r>
       <r>  -16.7868    1.0000 </r>
       <r>  -16.7640    1.0000 </r>
       <r>  -16.7620    1.0000 </r>
       <r>  -16.7241    1.0000 </r>
       <r>  -16.7187    1.0000 </r>
       <r>  -16.7138    1.0000 </r>
       <r>  -16.6900    1.0000 </r>
       <r>  -16.6805    1.0000 </r>
       <r>  -16.6690    1.0000 </r>
       <r>  -16.6530    1.0000 </r>
       <r>  -16.6357    1.0000 </r>
       <r>  -16.6176    1.0000 </r>
       <r>  -16.6010    1.0000 </r>
       <r>  -16.5909    1.0000 </r>
       <r>  -16.5874    1.0000 </r>
       <r>  -16.5630    1.0000 </r>
       <r>  -16.5413    1.0000 </r>
       <r>  -16.5275    1.0000 </r>
       <r>  -16.4735    1.0000 </r>
       <r>  -16.4696    1.0000 </r>
       <r>  -16.4518    1.0000 </r>
       <r>  -16.4448    1.0000 </r>
       <r>  -16.4327    1.0000 </r>
       <r>  -16.4238    1.0000 </r>
       <r>  -16.4228    1.0000 </r>
       <r>  -16.4071    1.0000 </r>
       <r>  -16.3912    1.0000 </r>
       <r>  -16.3457    1.0000 </r>
       <r>  -16.3384    1.0000 </r>
       <r>  -16.3304    1.0000 </r>
       <r>  -16.3171    1.0000 </r>
       <r>  -16.3156    1.0000 </r>
       <r>  -16.3104    1.0000 </r>
       <r>  -16.3097    1.0000 </r>
       <r>  -16.3014    1.0000 </r>
       <r>  -16.3008    1.0000 </r>
       <r>  -16.2819    1.0000 </r>
       <r>  -16.2781    1.0000 </r>
       <r>  -16.2684    1.0000 </r>
       <r>  -14.6664    1.0000 </r>
       <r>  -14.4484    1.0000 </r>
       <r>  -14.3116    1.0000 </r>
       <r>  -14.2925    1.0000 </r>
       <r>  -14.2630    1.0000 </r>
       <r>  -14.2419    1.0000 </r>
       <r>  -14.2129    1.0000 </r>
       <r>  -14.1141    1.0000 </r>
       <r>  -14.0828    1.0000 </r>
       <r>  -14.0823    1.0000 </r>
       <r>  -14.0658    1.0000 </r>
       <r>  -14.0270    1.0000 </r>
       <r>  -13.9835    1.0000 </r>
       <r>  -13.9583    1.0000 </r>
       <r>  -13.9498    1.0000 </r>
       <r>  -13.9352    1.0000 </r>
       <r>  -13.9241    1.0000 </r>
       <r>  -13.9074    1.0000 </r>
       <r>  -13.8865    1.0000 </r>
       <r>  -13.8628    1.0000 </r>
       <r>  -13.8136    1.0000 </r>
       <r>  -13.5761    1.0000 </r>
       <r>  -13.0461    1.0000 </r>
       <r>   -8.0302    1.0000 </r>
       <r>   -7.8814    1.0000 </r>
       <r>   -7.7784    1.0000 </r>
       <r>   -7.6922    1.0000 </r>
       <r>   -7.4144    1.0000 </r>
       <r>   -7.3628    1.0000 </r>
       <r>   -7.3122    1.0000 </r>
       <r>   -7.2921    1.0000 </r>
       <r>   -7.2857    1.0000 </r>
       <r>   -7.2620    1.0000 </r>
       <r>   -7.2359    1.0000 </r>
       <r>   -7.2304    1.0000 </r>
       <r>   -7.2252    1.0000 </r>
       <r>   -7.2229    1.0000 </r>
       <r>   -7.2180    1.0000 </r>
       <r>   -7.2089    1.0000 </r>
       <r>   -7.1940    1.0000 </r>
       <r>   -7.1883    1.0000 </r>
       <r>   -7.1844    1.0000 </r>
       <r>   -7.1556    1.0000 </r>
       <r>   -7.1451    1.0000 </r>
       <r>   -7.1415    1.0000 </r>
       <r>   -7.1146    1.0000 </r>
       <r>   -7.1080    1.0000 </r>
       <r>   -7.0882    1.0000 </r>
       <r>   -7.0550    1.0000 </r>
       <r>   -6.9985    1.0000 </r>
       <r>   -6.9678    1.0000 </r>
       <r>   -6.9525    1.0000 </r>
       <r>   -6.9464    1.0000 </r>
       <r>   -6.9239    1.0000 </r>
       <r>   -6.8730    1.0000 </r>
       <r>   -3.2861    1.0000 </r>
       <r>   -3.2616    1.0000 </r>
       <r>   -3.2523    1.0000 </r>
       <r>   -3.1808    1.0000 </r>
       <r>   -3.0571    1.0000 </r>
       <r>   -2.8674    1.0000 </r>
       <r>   -2.7398    1.0000 </r>
       <r>   -2.6806    1.0000 </r>
       <r>   -2.6442    1.0000 </r>
       <r>   -2.6245    1.0000 </r>
       <r>   -2.6085    1.0000 </r>
       <r>   -2.4924    1.0000 </r>
       <r>   -2.4062    1.0000 </r>
       <r>   -2.3833    1.0000 </r>
       <r>   -2.3656    1.0000 </r>
       <r>   -2.3474    1.0000 </r>
       <r>   -2.3398    1.0000 </r>
       <r>   -2.2865    1.0000 </r>
       <r>   -2.1762    1.0000 </r>
       <r>   -2.1287    1.0000 </r>
       <r>   -2.0518    1.0000 </r>
       <r>   -1.9549    1.0000 </r>
       <r>   -1.9371    1.0000 </r>
       <r>   -1.8723    1.0000 </r>
       <r>   -1.8130    1.0000 </r>
       <r>   -1.7642    1.0000 </r>
       <r>   -1.7309    1.0000 </r>
       <r>   -1.7155    1.0000 </r>
       <r>   -1.6986    1.0000 </r>
       <r>   -1.6703    1.0000 </r>
       <r>   -1.6567    1.0000 </r>
       <r>   -1.6113    1.0000 </r>
       <r>   -1.5915    1.0000 </r>
       <r>   -1.5751    1.0000 </r>
       <r>   -1.5232    1.0000 </r>
       <r>   -1.5184    1.0000 </r>
       <r>   -1.5060    1.0000 </r>
       <r>   -1.4927    1.0000 </r>
       <r>   -1.4666    1.0000 </r>
       <r>   -1.4536    1.0000 </r>
       <r>   -1.4401    1.0000 </r>
       <r>   -1.3890    1.0000 </r>
       <r>   -1.3816    1.0000 </r>
       <r>   -1.3418    1.0000 </r>
       <r>   -1.3034    1.0000 </r>
       <r>   -1.2778    1.0000 </r>
       <r>   -1.2504    1.0000 </r>
       <r>   -1.2431    1.0000 </r>
       <r>   -1.2354    1.0000 </r>
       <r>   -1.2055    1.0000 </r>
       <r>   -1.2009    1.0000 </r>
       <r>   -1.1896    1.0000 </r>
       <r>   -1.1741    1.0000 </r>
       <r>   -1.1623    1.0000 </r>
       <r>   -1.1559    1.0000 </r>
       <r>   -1.1397    1.0000 </r>
       <r>   -1.1006    1.0000 </r>
       <r>   -1.0730    1.0000 </r>
       <r>   -0.9658    1.0000 </r>
       <r>   -0.9305    1.0000 </r>
       <r>   -0.9247    1.0000 </r>
       <r>   -0.9059    1.0000 </r>
       <r>   -0.7425    1.0000 </r>
       <r>   -0.5832    1.0000 </r>
       <r>   -0.5611    1.0000 </r>
       <r>   -0.5202    1.0000 </r>
       <r>   -0.4709    1.0000 </r>
       <r>   -0.3967    1.0000 </r>
       <r>   -0.2896    1.0000 </r>
       <r>    2.7385    0.0000 </r>
       <r>    2.9108    0.0000 </r>
       <r>    2.9777    0.0000 </r>
       <r>    3.0442    0.0000 </r>
       <r>    3.1047    0.0000 </r>
       <r>    3.2129    0.0000 </r>
       <r>    3.5782    0.0000 </r>
       <r>    3.9861    0.0000 </r>
       <r>    4.1385    0.0000 </r>
       <r>    4.2072    0.0000 </r>
       <r>    4.3745    0.0000 </r>
       <r>    4.4597    0.0000 </r>
       <r>    4.5355    0.0000 </r>
       <r>    4.5971    0.0000 </r>
       <r>    4.6525    0.0000 </r>
       <r>    4.7228    0.0000 </r>
       <r>    4.7711    0.0000 </r>
       <r>    4.8046    0.0000 </r>
       <r>    4.8210    0.0000 </r>
       <r>    4.8493    0.0000 </r>
       <r>    5.5998    0.0000 </r>
       <r>    5.7355    0.0000 </r>
       <r>    5.8005    0.0000 </r>
       <r>    5.8615    0.0000 </r>
       <r>    5.9396    0.0000 </r>
       <r>    5.9845    0.0000 </r>
       <r>    6.0309    0.0000 </r>
       <r>    6.0944    0.0000 </r>
       <r>    6.2215    0.0000 </r>
       <r>    6.2759    0.0000 </r>
       <r>    6.3436    0.0000 </r>
       <r>    6.3808    0.0000 </r>
       <r>    6.3987    0.0000 </r>
       <r>    6.4842    0.0000 </r>
       <r>    6.4965    0.0000 </r>
       <r>    6.5214    0.0000 </r>
      </set>
      <set comment="kpoint 5">
       <r>  -20.8996    1.0000 </r>
       <r>  -20.8227    1.0000 </r>
       <r>  -20.8121    1.0000 </r>
       <r>  -20.8100    1.0000 </r>
       <r>  -20.7417    1.0000 </r>
       <r>  -20.6887    1.0000 </r>
       <r>  -20.5302    1.0000 </r>
       <r>  -20.5090    1.0000 </r>
       <r>  -16.8456    1.0000 </r>
       <r>  -16.7870    1.0000 </r>
       <r>  -16.7650    1.0000 </r>
       <r>  -16.7630    1.0000 </r>
       <r>  -16.7239    1.0000 </r>
       <r>  -16.7180    1.0000 </r>
       <r>  -16.7124    1.0000 </r>
       <r>  -16.6901    1.0000 </r>
       <r>  -16.6805    1.0000 </r>
       <r>  -16.6634    1.0000 </r>
       <r>  -16.6528    1.0000 </r>
       <r>  -16.6359    1.0000 </r>
       <r>  -16.6151    1.0000 </r>
       <r>  -16.6010    1.0000 </r>
       <r>  -16.5909    1.0000 </r>
       <r>  -16.5849    1.0000 </r>
       <r>  -16.5630    1.0000 </r>
       <r>  -16.5413    1.0000 </r>
       <r>  -16.5271    1.0000 </r>
       <r>  -16.5006    1.0000 </r>
       <r>  -16.4735    1.0000 </r>
       <r>  -16.4722    1.0000 </r>
       <r>  -16.4562    1.0000 </r>
       <r>  -16.4408    1.0000 </r>
       <r>  -16.4210    1.0000 </r>
       <r>  -16.4062    1.0000 </r>
       <r>  -16.3837    1.0000 </r>
       <r>  -16.3719    1.0000 </r>
       <r>  -16.3458    1.0000 </r>
       <r>  -16.3384    1.0000 </r>
       <r>  -16.3305    1.0000 </r>
       <r>  -16.3171    1.0000 </r>
       <r>  -16.3156    1.0000 </r>
       <r>  -16.3103    1.0000 </r>
       <r>  -16.3097    1.0000 </r>
       <r>  -16.3014    1.0000 </r>
       <r>  -16.3008    1.0000 </r>
       <r>  -16.2818    1.0000 </r>
       <r>  -16.2781    1.0000 </r>
       <r>  -16.2683    1.0000 </r>
       <r>  -14.6692    1.0000 </r>
       <r>  -14.4307    1.0000 </r>
       <r>  -14.3783    1.0000 </r>
       <r>  -14.2905    1.0000 </r>
       <r>  -14.2072    1.0000 </r>
       <r>  -14.1839    1.0000 </r>
       <r>  -14.1576    1.0000 </r>
       <r>  -14.1354    1.0000 </r>
       <r>  -14.1078    1.0000 </r>
       <r>  -14.0857    1.0000 </r>
       <r>  -14.0613    1.0000 </r>
       <r>  -14.0397    1.0000 </r>
       <r>  -14.0291    1.0000 </r>
       <r>  -14.0144    1.0000 </r>
       <r>  -14.0016    1.0000 </r>
       <r>  -13.9806    1.0000 </r>
       <r>  -13.9228    1.0000 </r>
       <r>  -13.8793    1.0000 </r>
       <r>  -13.8567    1.0000 </r>
       <r>  -13.8170    1.0000 </r>
       <r>  -13.7824    1.0000 </r>
       <r>  -13.5777    1.0000 </r>
       <r>  -13.0464    1.0000 </r>
       <r>   -8.0451    1.0000 </r>
       <r>   -8.0344    1.0000 </r>
       <r>   -7.6919    1.0000 </r>
       <r>   -7.5661    1.0000 </r>
       <r>   -7.5057    1.0000 </r>
       <r>   -7.4774    1.0000 </r>
       <r>   -7.3270    1.0000 </r>
       <r>   -7.2939    1.0000 </r>
       <r>   -7.2569    1.0000 </r>
       <r>   -7.2532    1.0000 </r>
       <r>   -7.2488    1.0000 </r>
       <r>   -7.2374    1.0000 </r>
       <r>   -7.2193    1.0000 </r>
       <r>   -7.2148    1.0000 </r>
       <r>   -7.2064    1.0000 </r>
       <r>   -7.1988    1.0000 </r>
       <r>   -7.1944    1.0000 </r>
       <r>   -7.1868    1.0000 </r>
       <r>   -7.1806    1.0000 </r>
       <r>   -7.1661    1.0000 </r>
       <r>   -7.1353    1.0000 </r>
       <r>   -7.1191    1.0000 </r>
       <r>   -7.1171    1.0000 </r>
       <r>   -7.0898    1.0000 </r>
       <r>   -7.0836    1.0000 </r>
       <r>   -7.0231    1.0000 </r>
       <r>   -6.9982    1.0000 </r>
       <r>   -6.9552    1.0000 </r>
       <r>   -6.9502    1.0000 </r>
       <r>   -6.9237    1.0000 </r>
       <r>   -6.8509    1.0000 </r>
       <r>   -6.8046    1.0000 </r>
       <r>   -3.4307    1.0000 </r>
       <r>   -3.3293    1.0000 </r>
       <r>   -3.3056    1.0000 </r>
       <r>   -3.2023    1.0000 </r>
       <r>   -3.1888    1.0000 </r>
       <r>   -3.1010    1.0000 </r>
       <r>   -3.0065    1.0000 </r>
       <r>   -2.8386    1.0000 </r>
       <r>   -2.6527    1.0000 </r>
       <r>   -2.5716    1.0000 </r>
       <r>   -2.5622    1.0000 </r>
       <r>   -2.5159    1.0000 </r>
       <r>   -2.4618    1.0000 </r>
       <r>   -2.4255    1.0000 </r>
       <r>   -2.3845    1.0000 </r>
       <r>   -2.2332    1.0000 </r>
       <r>   -2.2175    1.0000 </r>
       <r>   -2.1043    1.0000 </r>
       <r>   -2.0948    1.0000 </r>
       <r>   -2.0557    1.0000 </r>
       <r>   -2.0191    1.0000 </r>
       <r>   -1.9982    1.0000 </r>
       <r>   -1.8671    1.0000 </r>
       <r>   -1.8522    1.0000 </r>
       <r>   -1.8320    1.0000 </r>
       <r>   -1.7616    1.0000 </r>
       <r>   -1.7395    1.0000 </r>
       <r>   -1.7101    1.0000 </r>
       <r>   -1.6777    1.0000 </r>
       <r>   -1.6166    1.0000 </r>
       <r>   -1.5783    1.0000 </r>
       <r>   -1.5588    1.0000 </r>
       <r>   -1.5327    1.0000 </r>
       <r>   -1.5196    1.0000 </r>
       <r>   -1.4910    1.0000 </r>
       <r>   -1.4734    1.0000 </r>
       <r>   -1.4571    1.0000 </r>
       <r>   -1.4504    1.0000 </r>
       <r>   -1.4227    1.0000 </r>
       <r>   -1.4158    1.0000 </r>
       <r>   -1.4108    1.0000 </r>
       <r>   -1.3859    1.0000 </r>
       <r>   -1.3768    1.0000 </r>
       <r>   -1.3645    1.0000 </r>
       <r>   -1.3556    1.0000 </r>
       <r>   -1.3406    1.0000 </r>
       <r>   -1.3244    1.0000 </r>
       <r>   -1.2867    1.0000 </r>
       <r>   -1.2668    1.0000 </r>
       <r>   -1.2566    1.0000 </r>
       <r>   -1.2506    1.0000 </r>
       <r>   -1.2290    1.0000 </r>
       <r>   -1.2038    1.0000 </r>
       <r>   -1.1908    1.0000 </r>
       <r>   -1.1626    1.0000 </r>
       <r>   -1.1155    1.0000 </r>
       <r>   -1.0656    1.0000 </r>
       <r>   -1.0382    1.0000 </r>
       <r>   -0.9771    1.0000 </r>
       <r>   -0.9375    1.0000 </r>
       <r>   -0.9087    1.0000 </r>
       <r>   -0.8853    1.0000 </r>
       <r>   -0.6308    1.0000 </r>
       <r>   -0.5831    1.0000 </r>
       <r>   -0.5417    1.0000 </r>
       <r>   -0.4989    1.0000 </r>
       <r>   -0.4777    1.0000 </r>
       <r>   -0.1861    1.0000 </r>
       <r>    0.0678    1.0000 </r>
       <r>    2.5902    0.0000 </r>
       <r>    2.7480    0.0000 </r>
       <r>    2.9110    0.0000 </r>
       <r>    2.9327    0.0000 </r>
       <r>    2.9442    0.0000 </r>
       <r>    3.2980    0.0000 </r>
       <r>    3.3384    0.0000 </r>
       <r>    3.3872    0.0000 </r>
       <r>    4.0774    0.0000 </r>
       <r>    4.1341    0.0000 </r>
       <r>    4.2548    0.0000 </r>
       <r>    4.3901    0.0000 </r>
       <r>    4.4556    0.0000 </r>
       <r>    4.5292    0.0000 </r>
       <r>    4.6272    0.0000 </r>
       <r>    4.6361    0.0000 </r>
       <r>    4.6776    0.0000 </r>
       <r>    4.8808    0.0000 </r>
       <r>    5.1916    0.0000 </r>
       <r>    5.3956    0.0000 </r>
       <r>    5.5014    0.0000 </r>
       <r>    5.5795    0.0000 </r>
       <r>    5.7112    0.0000 </r>
       <r>    5.9978    0.0000 </r>
       <r>    6.0273    0.0000 </r>
       <r>    6.0932    0.0000 </r>
       <r>    6.1729    0.0000 </r>
       <r>    6.2030    0.0000 </r>
       <r>    6.3080    0.0000 </r>
       <r>    6.3549    0.0000 </r>
       <r>    6.4047    0.0000 </r>
       <r>    6.4555    0.0000 </r>
       <r>    6.4660    0.0000 </r>
       <r>    6.5352    0.0000 </r>
       <r>    6.5927    0.0000 </r>
       <r>    6.6297    0.0000 </r>
      </set>
      <set comment="kpoint 6">
       <r>  -20.8996    1.0000 </r>
       <r>  -20.8226    1.0000 </r>
       <r>  -20.8118    1.0000 </r>
       <r>  -20.8103    1.0000 </r>
       <r>  -20.7417    1.0000 </r>
       <r>  -20.6887    1.0000 </r>
       <r>  -20.5302    1.0000 </r>
       <r>  -20.5090    1.0000 </r>
       <r>  -16.8452    1.0000 </r>
       <r>  -16.7864    1.0000 </r>
       <r>  -16.7622    1.0000 </r>
       <r>  -16.7605    1.0000 </r>
       <r>  -16.7241    1.0000 </r>
       <r>  -16.7187    1.0000 </r>
       <r>  -16.7132    1.0000 </r>
       <r>  -16.6901    1.0000 </r>
       <r>  -16.6805    1.0000 </r>
       <r>  -16.6668    1.0000 </r>
       <r>  -16.6529    1.0000 </r>
       <r>  -16.6358    1.0000 </r>
       <r>  -16.6152    1.0000 </r>
       <r>  -16.6010    1.0000 </r>
       <r>  -16.5909    1.0000 </r>
       <r>  -16.5863    1.0000 </r>
       <r>  -16.5630    1.0000 </r>
       <r>  -16.5413    1.0000 </r>
       <r>  -16.5271    1.0000 </r>
       <r>  -16.4962    1.0000 </r>
       <r>  -16.4735    1.0000 </r>
       <r>  -16.4579    1.0000 </r>
       <r>  -16.4533    1.0000 </r>
       <r>  -16.4267    1.0000 </r>
       <r>  -16.4261    1.0000 </r>
       <r>  -16.4167    1.0000 </r>
       <r>  -16.3961    1.0000 </r>
       <r>  -16.3813    1.0000 </r>
       <r>  -16.3457    1.0000 </r>
       <r>  -16.3383    1.0000 </r>
       <r>  -16.3304    1.0000 </r>
       <r>  -16.3171    1.0000 </r>
       <r>  -16.3156    1.0000 </r>
       <r>  -16.3103    1.0000 </r>
       <r>  -16.3097    1.0000 </r>
       <r>  -16.3014    1.0000 </r>
       <r>  -16.3008    1.0000 </r>
       <r>  -16.2818    1.0000 </r>
       <r>  -16.2781    1.0000 </r>
       <r>  -16.2684    1.0000 </r>
       <r>  -14.6666    1.0000 </r>
       <r>  -14.4450    1.0000 </r>
       <r>  -14.3391    1.0000 </r>
       <r>  -14.3078    1.0000 </r>
       <r>  -14.2708    1.0000 </r>
       <r>  -14.1663    1.0000 </r>
       <r>  -14.1553    1.0000 </r>
       <r>  -14.1509    1.0000 </r>
       <r>  -14.1377    1.0000 </r>
       <r>  -14.1071    1.0000 </r>
       <r>  -14.0647    1.0000 </r>
       <r>  -14.0125    1.0000 </r>
       <r>  -13.9720    1.0000 </r>
       <r>  -13.9666    1.0000 </r>
       <r>  -13.9518    1.0000 </r>
       <r>  -13.9360    1.0000 </r>
       <r>  -13.9262    1.0000 </r>
       <r>  -13.8950    1.0000 </r>
       <r>  -13.8732    1.0000 </r>
       <r>  -13.8470    1.0000 </r>
       <r>  -13.8342    1.0000 </r>
       <r>  -13.5795    1.0000 </r>
       <r>  -13.0465    1.0000 </r>
       <r>   -7.9231    1.0000 </r>
       <r>   -7.8243    1.0000 </r>
       <r>   -7.7808    1.0000 </r>
       <r>   -7.7258    1.0000 </r>
       <r>   -7.5546    1.0000 </r>
       <r>   -7.3762    1.0000 </r>
       <r>   -7.3381    1.0000 </r>
       <r>   -7.3030    1.0000 </r>
       <r>   -7.2649    1.0000 </r>
       <r>   -7.2562    1.0000 </r>
       <r>   -7.2519    1.0000 </r>
       <r>   -7.2366    1.0000 </r>
       <r>   -7.2293    1.0000 </r>
       <r>   -7.2205    1.0000 </r>
       <r>   -7.2147    1.0000 </r>
       <r>   -7.2013    1.0000 </r>
       <r>   -7.1990    1.0000 </r>
       <r>   -7.1851    1.0000 </r>
       <r>   -7.1793    1.0000 </r>
       <r>   -7.1602    1.0000 </r>
[...]
        <r>  0.0002  0.0012  0.0007 </r>
        <r>  0.0005  0.0012  0.0008 </r>
        <r>  0.0005  0.0002  0.0015 </r>
        <r>  0.0001  0.0010  0.0002 </r>
        <r>  0.0000  0.0035  0.0007 </r>
        <r>  0.0009  0.0013  0.0005 </r>
        <r>  0.0002  0.0015  0.0003 </r>
        <r>  0.0029  0.0015  0.0017 </r>
        <r>  0.0000  0.0008  0.0001 </r>
       </set>
       <set comment="band 199">
        <r>  0.0002  0.0002  0.0060 </r>
        <r>  0.0000  0.0002  0.0067 </r>
        <r>  0.0093  0.0038  0.0138 </r>
        <r>  0.0047  0.0004  0.0073 </r>
        <r>  0.0003  0.0001  0.0022 </r>
        <r>  0.0000  0.0002  0.0005 </r>
        <r>  0.0005  0.0004  0.0052 </r>
        <r>  0.0000  0.0020  0.0176 </r>
        <r>  0.0000  0.0014  0.0001 </r>
        <r>  0.0001  0.0023  0.0001 </r>
        <r>  0.0000  0.0029  0.0002 </r>
        <r>  0.0000  0.0153  0.0005 </r>
        <r>  0.0000  0.0009  0.0001 </r>
        <r>  0.0000  0.0153  0.0006 </r>
        <r>  0.0000  0.0003  0.0001 </r>
        <r>  0.0001  0.0037  0.0003 </r>
        <r>  0.0000  0.0051  0.0003 </r>
        <r>  0.0000  0.0009  0.0001 </r>
        <r>  0.0006  0.0040  0.0003 </r>
        <r>  0.0017  0.0039  0.0041 </r>
        <r>  0.0000  0.0000  0.0002 </r>
        <r>  0.0004  0.0055  0.0004 </r>
        <r>  0.0001  0.0006  0.0005 </r>
        <r>  0.0001  0.0000  0.0009 </r>
        <r>  0.0007  0.0003  0.0011 </r>
        <r>  0.0000  0.0036  0.0016 </r>
        <r>  0.0004  0.0013  0.0008 </r>
        <r>  0.0009  0.0050  0.0011 </r>
        <r>  0.0003  0.0014  0.0010 </r>
        <r>  0.0009  0.0019  0.0011 </r>
        <r>  0.0000  0.0006  0.0003 </r>
        <r>  0.0005  0.0021  0.0010 </r>
        <r>  0.0010  0.0002  0.0008 </r>
        <r>  0.0002  0.0020  0.0011 </r>
        <r>  0.0001  0.0023  0.0006 </r>
        <r>  0.0005  0.0014  0.0007 </r>
        <r>  0.0004  0.0009  0.0002 </r>
        <r>  0.0005  0.0024  0.0020 </r>
        <r>  0.0002  0.0005  0.0010 </r>
       </set>
       <set comment="band 200">
        <r>  0.0027  0.0008  0.0037 </r>
        <r>  0.0041  0.0020  0.0094 </r>
        <r>  0.0012  0.0000  0.0063 </r>
        <r>  0.0007  0.0011  0.0145 </r>
        <r>  0.0083  0.0005  0.0077 </r>
        <r>  0.0000  0.0004  0.0121 </r>
        <r>  0.0003  0.0002  0.0075 </r>
        <r>  0.0008  0.0006  0.0043 </r>
        <r>  0.0000  0.0016  0.0000 </r>
        <r>  0.0004  0.0020  0.0004 </r>
        <r>  0.0000  0.0036  0.0001 </r>
        <r>  0.0002  0.0027  0.0005 </r>
        <r>  0.0000  0.0019  0.0001 </r>
        <r>  0.0000  0.0031  0.0002 </r>
        <r>  0.0000  0.0045  0.0001 </r>
        <r>  0.0002  0.0062  0.0002 </r>
        <r>  0.0001  0.0029  0.0012 </r>
        <r>  0.0001  0.0031  0.0027 </r>
        <r>  0.0037  0.0006  0.0017 </r>
        <r>  0.0003  0.0006  0.0012 </r>
        <r>  0.0004  0.0040  0.0004 </r>
        <r>  0.0025  0.0018  0.0018 </r>
        <r>  0.0000  0.0044  0.0009 </r>
        <r>  0.0003  0.0050  0.0005 </r>
        <r>  0.0003  0.0039  0.0006 </r>
        <r>  0.0008  0.0023  0.0008 </r>
        <r>  0.0003  0.0048  0.0010 </r>
        <r>  0.0000  0.0008  0.0003 </r>
        <r>  0.0001  0.0013  0.0003 </r>
        <r>  0.0001  0.0005  0.0007 </r>
        <r>  0.0002  0.0003  0.0012 </r>
        <r>  0.0005  0.0013  0.0007 </r>
        <r>  0.0003  0.0026  0.0009 </r>
        <r>  0.0000  0.0006  0.0011 </r>
        <r>  0.0008  0.0005  0.0013 </r>
        <r>  0.0014  0.0010  0.0014 </r>
        <r>  0.0026  0.0004  0.0024 </r>
        <r>  0.0002  0.0016  0.0006 </r>
        <r>  0.0000  0.0006  0.0007 </r>
       </set>
       <set comment="band 201">
        <r>  0.0023  0.0011  0.0081 </r>
        <r>  0.0048  0.0006  0.0054 </r>
        <r>  0.0032  0.0001  0.0063 </r>
        <r>  0.0058  0.0009  0.0080 </r>
        <r>  0.0002  0.0007  0.0061 </r>
        <r>  0.0037  0.0001  0.0055 </r>
        <r>  0.0001  0.0015  0.0031 </r>
        <r>  0.0042  0.0007  0.0069 </r>
        <r>  0.0000  0.0034  0.0000 </r>
        <r>  0.0000  0.0093  0.0003 </r>
        <r>  0.0000  0.0004  0.0001 </r>
        <r>  0.0000  0.0012  0.0001 </r>
        <r>  0.0000  0.0145  0.0001 </r>
        <r>  0.0000  0.0035  0.0003 </r>
        <r>  0.0000  0.0030  0.0005 </r>
        <r>  0.0000  0.0041  0.0004 </r>
        <r>  0.0024  0.0029  0.0020 </r>
        <r>  0.0020  0.0012  0.0020 </r>
        <r>  0.0001  0.0003  0.0017 </r>
        <r>  0.0002  0.0064  0.0002 </r>
        <r>  0.0006  0.0057  0.0010 </r>
        <r>  0.0000  0.0018  0.0002 </r>
        <r>  0.0023  0.0004  0.0024 </r>
        <r>  0.0001  0.0002  0.0011 </r>
        <r>  0.0010  0.0030  0.0020 </r>
        <r>  0.0011  0.0016  0.0009 </r>
        <r>  0.0012  0.0025  0.0024 </r>
        <r>  0.0005  0.0009  0.0008 </r>
        <r>  0.0007  0.0007  0.0006 </r>
        <r>  0.0001  0.0011  0.0017 </r>
        <r>  0.0000  0.0033  0.0002 </r>
        <r>  0.0003  0.0018  0.0006 </r>
        <r>  0.0009  0.0050  0.0019 </r>
        <r>  0.0003  0.0020  0.0001 </r>
        <r>  0.0001  0.0037  0.0009 </r>
        <r>  0.0000  0.0015  0.0006 </r>
        <r>  0.0000  0.0053  0.0002 </r>
        <r>  0.0004  0.0014  0.0013 </r>
        <r>  0.0004  0.0006  0.0003 </r>
       </set>
       <set comment="band 202">
        <r>  0.0012  0.0014  0.0098 </r>
        <r>  0.0045  0.0003  0.0024 </r>
        <r>  0.0013  0.0004  0.0038 </r>
        <r>  0.0019  0.0009  0.0046 </r>
        <r>  0.0042  0.0009  0.0129 </r>
        <r>  0.0041  0.0003  0.0070 </r>
        <r>  0.0008  0.0007  0.0020 </r>
        <r>  0.0073  0.0007  0.0083 </r>
        <r>  0.0000  0.0046  0.0004 </r>
        <r>  0.0000  0.0022  0.0002 </r>
        <r>  0.0000  0.0150  0.0001 </r>
        <r>  0.0000  0.0043  0.0000 </r>
        <r>  0.0000  0.0013  0.0001 </r>
        <r>  0.0000  0.0009  0.0001 </r>
        <r>  0.0000  0.0068  0.0001 </r>
        <r>  0.0000  0.0048  0.0003 </r>
        <r>  0.0027  0.0015  0.0018 </r>
        <r>  0.0037  0.0012  0.0036 </r>
        <r>  0.0002  0.0005  0.0029 </r>
        <r>  0.0002  0.0086  0.0007 </r>
        <r>  0.0003  0.0061  0.0012 </r>
        <r>  0.0004  0.0032  0.0004 </r>
        <r>  0.0003  0.0060  0.0005 </r>
        <r>  0.0000  0.0027  0.0007 </r>
        <r>  0.0015  0.0026  0.0019 </r>
        <r>  0.0003  0.0008  0.0005 </r>
        <r>  0.0001  0.0030  0.0002 </r>
        <r>  0.0004  0.0016  0.0010 </r>
        <r>  0.0002  0.0053  0.0006 </r>
        <r>  0.0002  0.0006  0.0002 </r>
        <r>  0.0026  0.0009  0.0040 </r>
        <r>  0.0000  0.0007  0.0007 </r>
        <r>  0.0004  0.0058  0.0010 </r>
        <r>  0.0004  0.0011  0.0004 </r>
        <r>  0.0006  0.0001  0.0004 </r>
        <r>  0.0001  0.0002  0.0018 </r>
        <r>  0.0001  0.0026  0.0011 </r>
        <r>  0.0002  0.0003  0.0000 </r>
        <r>  0.0000  0.0002  0.0003 </r>
       </set>
       <set comment="band 203">
        <r>  0.0091  0.0009  0.0062 </r>
        <r>  0.0001  0.0002  0.0081 </r>
        <r>  0.0000  0.0003  0.0026 </r>
        <r>  0.0002  0.0006  0.0031 </r>
        <r>  0.0058  0.0022  0.0069 </r>
        <r>  0.0087  0.0012  0.0144 </r>
        <r>  0.0000  0.0002  0.0042 </r>
        <r>  0.0000  0.0001  0.0091 </r>
        <r>  0.0000  0.0039  0.0001 </r>
        <r>  0.0002  0.0058  0.0001 </r>
        <r>  0.0000  0.0081  0.0001 </r>
        <r>  0.0001  0.0011  0.0001 </r>
        <r>  0.0000  0.0042  0.0002 </r>
        <r>  0.0002  0.0005  0.0001 </r>
        <r>  0.0000  0.0042  0.0000 </r>
        <r>  0.0001  0.0081  0.0000 </r>
        <r>  0.0000  0.0082  0.0003 </r>
        <r>  0.0002  0.0028  0.0010 </r>
        <r>  0.0019  0.0062  0.0011 </r>
        <r>  0.0000  0.0004  0.0002 </r>
        <r>  0.0038  0.0015  0.0047 </r>
        <r>  0.0002  0.0006  0.0029 </r>
        <r>  0.0022  0.0014  0.0018 </r>
        <r>  0.0005  0.0021  0.0003 </r>
        <r>  0.0020  0.0021  0.0014 </r>
        <r>  0.0004  0.0000  0.0004 </r>
        <r>  0.0007  0.0044  0.0010 </r>
        <r>  0.0001  0.0018  0.0020 </r>
        <r>  0.0000  0.0036  0.0004 </r>
        <r>  0.0000  0.0011  0.0007 </r>
        <r>  0.0013  0.0023  0.0012 </r>
        <r>  0.0004  0.0017  0.0006 </r>
        <r>  0.0015  0.0008  0.0014 </r>
        <r>  0.0001  0.0001  0.0003 </r>
        <r>  0.0001  0.0044  0.0004 </r>
        <r>  0.0000  0.0023  0.0003 </r>
        <r>  0.0005  0.0042  0.0013 </r>
        <r>  0.0001  0.0033  0.0019 </r>
        <r>  0.0000  0.0004  0.0001 </r>
       </set>
       <set comment="band 204">
        <r>  0.0019  0.0002  0.0050 </r>
        <r>  0.0002  0.0007  0.0116 </r>
        <r>  0.0000  0.0001  0.0038 </r>
        <r>  0.0041  0.0013  0.0277 </r>
        <r>  0.0001  0.0001  0.0188 </r>
        <r>  0.0001  0.0001  0.0053 </r>
        <r>  0.0002  0.0009  0.0078 </r>
        <r>  0.0002  0.0013  0.0149 </r>
        <r>  0.0000  0.0035  0.0008 </r>
        <r>  0.0000  0.0022  0.0003 </r>
        <r>  0.0000  0.0014  0.0003 </r>
        <r>  0.0001  0.0165  0.0008 </r>
        <r>  0.0000  0.0010  0.0002 </r>
        <r>  0.0000  0.0118  0.0019 </r>
        <r>  0.0000  0.0069  0.0002 </r>
        <r>  0.0000  0.0044  0.0001 </r>
        <r>  0.0005  0.0021  0.0017 </r>
        <r>  0.0001  0.0020  0.0007 </r>
        <r>  0.0012  0.0003  0.0011 </r>
        <r>  0.0013  0.0010  0.0018 </r>
        <r>  0.0000  0.0010  0.0009 </r>
        <r>  0.0004  0.0051  0.0037 </r>
        <r>  0.0001  0.0004  0.0018 </r>
        <r>  0.0000  0.0040  0.0012 </r>
        <r>  0.0003  0.0005  0.0009 </r>
        <r>  0.0016  0.0016  0.0037 </r>
        <r>  0.0004  0.0005  0.0019 </r>
        <r>  0.0002  0.0009  0.0012 </r>
        <r>  0.0002  0.0015  0.0003 </r>
        <r>  0.0003  0.0018  0.0010 </r>
        <r>  0.0002  0.0015  0.0014 </r>
        <r>  0.0001  0.0025  0.0004 </r>
        <r>  0.0003  0.0011  0.0003 </r>
        <r>  0.0000  0.0030  0.0023 </r>
        <r>  0.0000  0.0002  0.0001 </r>
        <r>  0.0009  0.0037  0.0018 </r>
        <r>  0.0000  0.0012  0.0005 </r>
        <r>  0.0001  0.0014  0.0010 </r>
        <r>  0.0001  0.0014  0.0003 </r>
       </set>
       <set comment="band 205">
        <r>  0.0005  0.0003  0.0213 </r>
        <r>  0.0001  0.0001  0.0066 </r>
        <r>  0.0004  0.0004  0.0145 </r>
        <r>  0.0026  0.0001  0.0157 </r>
        <r>  0.0004  0.0002  0.0103 </r>
        <r>  0.0003  0.0002  0.0194 </r>
        <r>  0.0002  0.0002  0.0122 </r>
        <r>  0.0011  0.0009  0.0158 </r>
        <r>  0.0000  0.0033  0.0006 </r>
        <r>  0.0001  0.0042  0.0003 </r>
        <r>  0.0000  0.0055  0.0006 </r>
        <r>  0.0000  0.0019  0.0006 </r>
        <r>  0.0001  0.0097  0.0005 </r>
        <r>  0.0001  0.0040  0.0002 </r>
        <r>  0.0001  0.0022  0.0009 </r>
        <r>  0.0000  0.0074  0.0002 </r>
        <r>  0.0007  0.0009  0.0024 </r>
        <r>  0.0001  0.0003  0.0004 </r>
        <r>  0.0001  0.0003  0.0006 </r>
        <r>  0.0000  0.0010  0.0011 </r>
        <r>  0.0002  0.0002  0.0008 </r>
        <r>  0.0000  0.0014  0.0003 </r>
        <r>  0.0010  0.0016  0.0017 </r>
        <r>  0.0003  0.0013  0.0012 </r>
        <r>  0.0008  0.0004  0.0032 </r>
        <r>  0.0000  0.0002  0.0013 </r>
        <r>  0.0011  0.0012  0.0014 </r>
        <r>  0.0007  0.0013  0.0020 </r>
        <r>  0.0004  0.0005  0.0031 </r>
        <r>  0.0002  0.0004  0.0012 </r>
        <r>  0.0007  0.0016  0.0022 </r>
        <r>  0.0005  0.0027  0.0010 </r>
        <r>  0.0002  0.0003  0.0016 </r>
        <r>  0.0001  0.0001  0.0019 </r>
        <r>  0.0002  0.0001  0.0020 </r>
        <r>  0.0014  0.0009  0.0015 </r>
        <r>  0.0000  0.0032  0.0003 </r>
        <r>  0.0007  0.0014  0.0019 </r>
        <r>  0.0000  0.0006  0.0004 </r>
       </set>
       <set comment="band 206">
        <r>  0.0002  0.0001  0.0046 </r>
        <r>  0.0025  0.0007  0.0055 </r>
        <r>  0.0009  0.0014  0.0262 </r>
        <r>  0.0028  0.0006  0.0065 </r>
        <r>  0.0002  0.0008  0.0122 </r>
        <r>  0.0014  0.0002  0.0094 </r>
        <r>  0.0052  0.0009  0.0125 </r>
        <r>  0.0001  0.0020  0.0105 </r>
        <r>  0.0000  0.0020  0.0006 </r>
        <r>  0.0000  0.0110  0.0007 </r>
        <r>  0.0000  0.0032  0.0002 </r>
        <r>  0.0002  0.0046  0.0001 </r>
        <r>  0.0000  0.0056  0.0001 </r>
        <r>  0.0000  0.0065  0.0003 </r>
        <r>  0.0000  0.0043  0.0000 </r>
        <r>  0.0000  0.0032  0.0003 </r>
        <r>  0.0005  0.0026  0.0001 </r>
        <r>  0.0002  0.0035  0.0005 </r>
        <r>  0.0001  0.0008  0.0008 </r>
        <r>  0.0020  0.0020  0.0021 </r>
        <r>  0.0002  0.0001  0.0009 </r>
        <r>  0.0001  0.0023  0.0002 </r>
        <r>  0.0001  0.0028  0.0009 </r>
        <r>  0.0000  0.0021  0.0004 </r>
        <r>  0.0000  0.0028  0.0018 </r>
        <r>  0.0002  0.0022  0.0005 </r>
        <r>  0.0011  0.0006  0.0033 </r>
        <r>  0.0000  0.0020  0.0003 </r>
        <r>  0.0002  0.0026  0.0011 </r>
        <r>  0.0001  0.0021  0.0005 </r>
        <r>  0.0003  0.0003  0.0009 </r>
        <r>  0.0008  0.0003  0.0017 </r>
        <r>  0.0001  0.0032  0.0022 </r>
        <r>  0.0028  0.0005  0.0027 </r>
        <r>  0.0012  0.0026  0.0038 </r>
        <r>  0.0003  0.0032  0.0006 </r>
        <r>  0.0006  0.0018  0.0008 </r>
        <r>  0.0000  0.0009  0.0005 </r>
        <r>  0.0002  0.0041  0.0020 </r>
       </set>
       <set comment="band 207">
        <r>  0.0002  0.0004  0.0135 </r>
        <r>  0.0005  0.0014  0.0274 </r>
        <r>  0.0001  0.0009  0.0144 </r>
        <r>  0.0005  0.0006  0.0105 </r>
        <r>  0.0002  0.0011  0.0110 </r>
        <r>  0.0018  0.0000  0.0053 </r>
        <r>  0.0000  0.0002  0.0048 </r>
        <r>  0.0009  0.0014  0.0174 </r>
        <r>  0.0000  0.0049  0.0001 </r>
        <r>  0.0000  0.0051  0.0007 </r>
        <r>  0.0000  0.0072  0.0001 </r>
        <r>  0.0000  0.0063  0.0005 </r>
        <r>  0.0000  0.0009  0.0006 </r>
        <r>  0.0001  0.0061  0.0006 </r>
        <r>  0.0000  0.0026  0.0007 </r>
        <r>  0.0001  0.0134  0.0002 </r>
        <r>  0.0000  0.0006  0.0007 </r>
        <r>  0.0001  0.0015  0.0017 </r>
        <r>  0.0013  0.0055  0.0015 </r>
        <r>  0.0000  0.0011  0.0015 </r>
        <r>  0.0004  0.0013  0.0014 </r>
        <r>  0.0009  0.0002  0.0013 </r>
        <r>  0.0001  0.0003  0.0011 </r>
        <r>  0.0002  0.0009  0.0017 </r>
        <r>  0.0004  0.0010  0.0013 </r>
        <r>  0.0002  0.0028  0.0008 </r>
        <r>  0.0004  0.0019  0.0018 </r>
        <r>  0.0001  0.0003  0.0008 </r>
        <r>  0.0009  0.0018  0.0011 </r>
        <r>  0.0008  0.0031  0.0018 </r>
        <r>  0.0002  0.0011  0.0012 </r>
        <r>  0.0000  0.0019  0.0008 </r>
        <r>  0.0001  0.0032  0.0018 </r>
        <r>  0.0002  0.0012  0.0015 </r>
        <r>  0.0003  0.0016  0.0010 </r>
        <r>  0.0002  0.0005  0.0011 </r>
        <r>  0.0002  0.0010  0.0021 </r>
        <r>  0.0007  0.0006  0.0021 </r>
        <r>  0.0001  0.0015  0.0006 </r>
       </set>
       <set comment="band 208">
        <r>  0.0003  0.0004  0.0118 </r>
        <r>  0.0001  0.0005  0.0311 </r>
        <r>  0.0001  0.0002  0.0054 </r>
        <r>  0.0001  0.0007  0.0122 </r>
        <r>  0.0002  0.0008  0.0284 </r>
        <r>  0.0005  0.0004  0.0079 </r>
        <r>  0.0016  0.0003  0.0066 </r>
        <r>  0.0005  0.0005  0.0139 </r>
        <r>  0.0000  0.0023  0.0002 </r>
        <r>  0.0000  0.0046  0.0003 </r>
        <r>  0.0000  0.0049  0.0002 </r>
        <r>  0.0001  0.0056  0.0003 </r>
        <r>  0.0000  0.0032  0.0007 </r>
        <r>  0.0000  0.0065  0.0007 </r>
        <r>  0.0000  0.0036  0.0005 </r>
        <r>  0.0001  0.0047  0.0003 </r>
        <r>  0.0005  0.0004  0.0008 </r>
        <r>  0.0000  0.0006  0.0002 </r>
        <r>  0.0004  0.0043  0.0017 </r>
        <r>  0.0002  0.0009  0.0013 </r>
        <r>  0.0001  0.0009  0.0010 </r>
        <r>  0.0008  0.0007  0.0022 </r>
        <r>  0.0001  0.0016  0.0020 </r>
        <r>  0.0004  0.0013  0.0014 </r>
        <r>  0.0002  0.0013  0.0009 </r>
        <r>  0.0013  0.0014  0.0027 </r>
        <r>  0.0004  0.0021  0.0037 </r>
        <r>  0.0002  0.0010  0.0006 </r>
        <r>  0.0002  0.0012  0.0008 </r>
        <r>  0.0004  0.0026  0.0015 </r>
        <r>  0.0002  0.0016  0.0011 </r>
        <r>  0.0000  0.0009  0.0005 </r>
        <r>  0.0002  0.0017  0.0010 </r>
        <r>  0.0001  0.0014  0.0013 </r>
        <r>  0.0001  0.0016  0.0005 </r>
        <r>  0.0000  0.0008  0.0011 </r>
        <r>  0.0001  0.0021  0.0030 </r>
        <r>  0.0004  0.0006  0.0023 </r>
        <r>  0.0002  0.0006  0.0002 </r>
       </set>
      </set>
     </set>
    </set>
   </array>
  </projected>
 </calculation>
 <structure name="finalpos" >
  <crystal>
   <varray name="basis" >
    <v>       8.45648900       0.00000000       8.04030100 </v>
    <v>       0.00000000      11.72984700       0.00000000 </v>
    <v>      -8.45648900       0.00000000       8.04030100 </v>
   </varray>
   <i name="volume">   1595.08833419 </i>
   <varray name="rec_basis" >
    <v>       0.05912619      -0.00000000       0.06218673 </v>
    <v>       0.00000000       0.08525260      -0.00000000 </v>
    <v>      -0.05912619       0.00000000       0.06218673 </v>
   </varray>
  </crystal>
  <varray name="positions" >
   <v>       0.26531300       0.25418400       0.20653600 </v>
   <v>       0.76991000       0.24109500       0.74032900 </v>
   <v>       0.70616900       0.76593300       0.23889300 </v>
   <v>       0.21236300       0.74907900       0.77848900 </v>
   <v>       0.29999300       0.26335400       0.73991300 </v>
   <v>       0.79059300       0.24520000       0.21500400 </v>
   <v>       0.73520800       0.75012700       0.80693500 </v>
   <v>       0.23077200       0.74522600       0.27799700 </v>
   <v>       0.00407900       0.00104300       0.99828400 </v>
   <v>       0.50096500       0.00758100       0.49475900 </v>
   <v>       0.49559700       0.00303400       0.99581400 </v>
   <v>       0.00547500       0.02510600       0.50354700 </v>
   <v>       0.50069400       0.50157700       0.00089900 </v>
   <v>       0.96788900       0.49785400       0.50186100 </v>
   <v>       0.99999500       0.50079800       0.00488100 </v>
   <v>       0.51194900       0.50083600       0.50100500 </v>
   <v>       0.47532900       0.75214400       0.96857900 </v>
   <v>       0.98547300       0.25110500       0.97379000 </v>
   <v>       0.45253000       0.24434500       0.47127700 </v>
   <v>       0.02039400       0.75141000       0.03289000 </v>
   <v>       0.52209700       0.25168200       0.03348800 </v>
   <v>       0.04672500       0.26591100       0.54170900 </v>
   <v>       0.24807100       0.47869400       0.95800400 </v>
   <v>       0.74797000       0.40831300       0.46594800 </v>
   <v>       0.46344700       0.54083700       0.25010600 </v>
   <v>       0.95116700       0.53327900       0.74658000 </v>
   <v>       0.54391500       0.02848000       0.74766500 </v>
   <v>       0.04722500       0.02943500       0.25355900 </v>
   <v>       0.75380200       0.98618400       0.03088200 </v>
   <v>       0.24847000       0.95361300       0.54067000 </v>
   <v>       0.24865700       0.03077400       0.94028500 </v>
   <v>       0.74948000       0.03167800       0.44613900 </v>
   <v>       0.44834900       0.96568900       0.24604700 </v>
   <v>       0.95497400       0.96259900       0.74354300 </v>
   <v>       0.75265400       0.52498500       0.05135800 </v>
   <v>       0.26633300       0.55580300       0.54131700 </v>
   <v>       0.55494500       0.46856700       0.75306700 </v>
   <v>       0.04237800       0.47072900       0.25619300 </v>
   <v>       0.72060200       0.71171600       0.50575100 </v>
  </varray>
 </structure>
</modeling>
