CsPbBr3 cubic bulk                      
           1
     8.456489    0.000000    8.040301
     0.000000   11.729847    0.000000
    -8.456489    0.000000    8.040301
   Cs   Pb   Br
   8   8  23
Direct configuration=     1
   0.26531300  0.25418400  0.20653600
   0.76991000  0.24109500  0.74032900
   0.70616900  0.76593300  0.23889300
   0.21236300  0.74907900  0.77848900
   0.29999300  0.26335400  0.73991300
   0.79059300  0.24520000  0.21500400
   0.73520800  0.75012700  0.80693500
   0.23077200  0.74522600  0.27799700
   0.00407900  0.00104300  0.99828400
   0.50096500  0.00758100  0.49475900
   0.49559700  0.00303400  0.99581400
   0.00547500  0.02510600  0.50354700
   0.50069400  0.50157700  0.00089900
   0.96788900  0.49785400  0.50186100
   0.99999500  0.50079800  0.00488100
   0.51194900  0.50083600  0.50100500
   0.47532900  0.75214400  0.96857900
   0.98547300  0.25110500  0.97379000
   0.45253000  0.24434500  0.47127700
   0.02039400  0.75141000  0.03289000
   0.52209700  0.25168200  0.03348800
   0.04672500  0.26591100  0.54170900
   0.24807100  0.47869400  0.95800400
   0.74797000  0.40831300  0.46594800
   0.46344700  0.54083700  0.25010600
   0.95116700  0.53327900  0.74658000
   0.54391500  0.02848000  0.74766500
   0.04722500  0.02943500  0.25355900
   0.75380200  0.98618400  0.03088200
   0.24847000  0.95361300  0.54067000
   0.24865700  0.03077400  0.94028500
   0.74948000  0.03167800  0.44613900
   0.44834900  0.96568900  0.24604700
   0.95497400  0.96259900  0.74354300
   0.75265400  0.52498500  0.05135800
   0.26633300  0.55580300  0.54131700
   0.55494500  0.46856700  0.75306700
   0.04237800  0.47072900  0.25619300
   0.72060200  0.71171600  0.50575100
