  20  20   1   0
  0.4016144E+02  0.8756818E-09  0.1182145E-08  0.7759296E-09  0.5000000E-15
   1.0000000000000000E-004
  CAR 
 CsPbBr3 cubic bulk                      
      8.64830627    -22.15726347  301      0.45915899      1.00000000
    -22.157  0.0000E+00  0.0000E+00
    -22.055  0.0000E+00  0.0000E+00
    -21.952  0.0000E+00  0.0000E+00
    -21.849  0.0000E+00  0.0000E+00
    -21.747  0.0000E+00  0.0000E+00
    -21.644  0.0000E+00  0.0000E+00
    -21.541  0.0000E+00  0.0000E+00
    -21.438  0.0000E+00  0.0000E+00
    -21.336  0.0000E+00  0.0000E+00
    -21.233  0.0000E+00  0.0000E+00
    -21.130  0.0000E+00  0.0000E+00
    -21.028  0.0000E+00  0.0000E+00
    -20.925  0.0000E+00  0.0000E+00
    -20.822  0.0000E+00  0.0000E+00
    -20.720  0.7791E+02  0.8000E+01
    -20.617  0.0000E+00  0.8000E+01
    -20.514  0.0000E+00  0.8000E+01
    -20.412  0.0000E+00  0.8000E+01
    -20.309  0.0000E+00  0.8000E+01
    -20.206  0.0000E+00  0.8000E+01
    -20.104  0.0000E+00  0.8000E+01
    -20.001  0.0000E+00  0.8000E+01
    -19.898  0.0000E+00  0.8000E+01
    -19.796  0.0000E+00  0.8000E+01
    -19.693  0.0000E+00  0.8000E+01
    -19.590  0.0000E+00  0.8000E+01
    -19.487  0.0000E+00  0.8000E+01
    -19.385  0.0000E+00  0.8000E+01
    -19.282  0.0000E+00  0.8000E+01
    -19.179  0.0000E+00  0.8000E+01
    -19.077  0.0000E+00  0.8000E+01
    -18.974  0.0000E+00  0.8000E+01
    -18.871  0.0000E+00  0.8000E+01
    -18.769  0.0000E+00  0.8000E+01
    -18.666  0.0000E+00  0.8000E+01
    -18.563  0.0000E+00  0.8000E+01
    -18.461  0.0000E+00  0.8000E+01
    -18.358  0.0000E+00  0.8000E+01
    -18.255  0.0000E+00  0.8000E+01
    -18.153  0.0000E+00  0.8000E+01
    -18.050  0.0000E+00  0.8000E+01
    -17.947  0.0000E+00  0.8000E+01
    -17.844  0.0000E+00  0.8000E+01
    -17.742  0.0000E+00  0.8000E+01
    -17.639  0.0000E+00  0.8000E+01
    -17.536  0.0000E+00  0.8000E+01
    -17.434  0.0000E+00  0.8000E+01
    -17.331  0.0000E+00  0.8000E+01
    -17.228  0.0000E+00  0.8000E+01
    -17.126  0.0000E+00  0.8000E+01
    -17.023  0.0000E+00  0.8000E+01
    -16.920  0.0000E+00  0.8000E+01
    -16.818  0.0000E+00  0.8000E+01
    -16.715  0.0000E+00  0.8000E+01
    -16.612  0.0000E+00  0.8000E+01
    -16.510  0.1633E+02  0.9677E+01
    -16.407  0.1039E+03  0.2400E+02
    -16.304  0.2337E+03  0.4800E+02
    -16.202  0.0000E+00  0.4800E+02
    -16.099  0.0000E+00  0.4800E+02
    -15.996  0.0000E+00  0.4800E+02
    -15.893  0.0000E+00  0.4800E+02
    -15.791  0.0000E+00  0.4800E+02
    -15.688  0.0000E+00  0.4800E+02
    -15.585  0.0000E+00  0.4800E+02
    -15.483  0.0000E+00  0.4800E+02
    -15.380  0.0000E+00  0.4800E+02
    -15.277  0.0000E+00  0.4800E+02
    -15.175  0.0000E+00  0.4800E+02
    -15.072  0.0000E+00  0.4800E+02
    -14.969  0.0000E+00  0.4800E+02
    -14.867  0.0000E+00  0.4800E+02
    -14.764  0.0000E+00  0.4800E+02
    -14.661  0.0000E+00  0.4800E+02
    -14.559  0.0000E+00  0.4800E+02
    -14.456  0.0000E+00  0.4800E+02
    -14.353  0.3924E-06  0.4800E+02
    -14.251  0.7455E+01  0.4877E+02
    -14.148  0.2397E+02  0.5124E+02
    -14.045  0.3747E+02  0.5629E+02
    -13.942  0.2570E+02  0.5975E+02
    -13.840  0.4675E+02  0.6624E+02
    -13.737  0.3898E+02  0.7145E+02
    -13.634  0.0000E+00  0.7200E+02
    -13.532  0.0000E+00  0.7200E+02
    -13.429  0.0000E+00  0.7200E+02
    -13.326  0.0000E+00  0.7200E+02
    -13.224  0.0000E+00  0.7200E+02
    -13.121  0.0000E+00  0.7200E+02
    -13.018  0.0000E+00  0.7200E+02
    -12.916  0.0000E+00  0.7200E+02
    -12.813  0.0000E+00  0.7200E+02
    -12.710  0.0000E+00  0.7200E+02
    -12.608  0.0000E+00  0.7200E+02
    -12.505  0.0000E+00  0.7200E+02
    -12.402  0.0000E+00  0.7200E+02
    -12.299  0.0000E+00  0.7200E+02
    -12.197  0.0000E+00  0.7200E+02
    -12.094  0.0000E+00  0.7200E+02
    -11.991  0.0000E+00  0.7200E+02
    -11.889  0.0000E+00  0.7200E+02
    -11.786  0.0000E+00  0.7200E+02
    -11.683  0.0000E+00  0.7200E+02
    -11.581  0.0000E+00  0.7200E+02
    -11.478  0.0000E+00  0.7200E+02
    -11.375  0.0000E+00  0.7200E+02
    -11.273  0.0000E+00  0.7200E+02
    -11.170  0.0000E+00  0.7200E+02
    -11.067  0.0000E+00  0.7200E+02
    -10.965  0.0000E+00  0.7200E+02
    -10.862  0.0000E+00  0.7200E+02
    -10.759  0.0000E+00  0.7200E+02
    -10.657  0.0000E+00  0.7200E+02
    -10.554  0.0000E+00  0.7200E+02
    -10.451  0.0000E+00  0.7200E+02
    -10.348  0.0000E+00  0.7200E+02
    -10.246  0.0000E+00  0.7200E+02
    -10.143  0.0000E+00  0.7200E+02
    -10.040  0.0000E+00  0.7200E+02
     -9.938  0.0000E+00  0.7200E+02
     -9.835  0.0000E+00  0.7200E+02
     -9.732  0.0000E+00  0.7200E+02
     -9.630  0.0000E+00  0.7200E+02
     -9.527  0.0000E+00  0.7200E+02
     -9.424  0.0000E+00  0.7200E+02
     -9.322  0.0000E+00  0.7200E+02
     -9.219  0.0000E+00  0.7200E+02
     -9.116  0.0000E+00  0.7200E+02
     -9.014  0.0000E+00  0.7200E+02
     -8.911  0.0000E+00  0.7200E+02
     -8.808  0.0000E+00  0.7200E+02
     -8.705  0.0000E+00  0.7200E+02
     -8.603  0.0000E+00  0.7200E+02
     -8.500  0.0000E+00  0.7200E+02
     -8.397  0.0000E+00  0.7200E+02
     -8.295  0.0000E+00  0.7200E+02
     -8.192  0.9390E-05  0.7200E+02
     -8.089  0.1082E+01  0.7211E+02
     -7.987  0.3330E-02  0.7211E+02
     -7.884  0.4328E+01  0.7278E+02
     -7.781  0.4328E+01  0.7322E+02
     -7.679  0.8659E+01  0.7411E+02
     -7.576  0.1298E+02  0.7556E+02
     -7.473  0.4536E+01  0.7602E+02
     -7.371  0.8405E+01  0.7709E+02
     -7.268  0.1035E+02  0.7840E+02
     -7.165  0.7221E+02  0.8608E+02
     -7.063  0.8981E+02  0.1028E+03
     -6.960  0.5081E+01  0.1033E+03
     -6.857  0.4328E+01  0.1039E+03
     -6.754  0.0000E+00  0.1039E+03
     -6.652  0.2003E-11  0.1039E+03
     -6.549  0.1082E+01  0.1040E+03
     -6.446  0.0000E+00  0.1040E+03
     -6.344  0.0000E+00  0.1040E+03
     -6.241  0.0000E+00  0.1040E+03
     -6.138  0.0000E+00  0.1040E+03
     -6.036  0.0000E+00  0.1040E+03
     -5.933  0.0000E+00  0.1040E+03
     -5.830  0.0000E+00  0.1040E+03
     -5.728  0.0000E+00  0.1040E+03
     -5.625  0.0000E+00  0.1040E+03
     -5.522  0.0000E+00  0.1040E+03
     -5.420  0.0000E+00  0.1040E+03
     -5.317  0.0000E+00  0.1040E+03
     -5.214  0.0000E+00  0.1040E+03
     -5.112  0.0000E+00  0.1040E+03
     -5.009  0.0000E+00  0.1040E+03
     -4.906  0.0000E+00  0.1040E+03
     -4.803  0.0000E+00  0.1040E+03
     -4.701  0.0000E+00  0.1040E+03
     -4.598  0.0000E+00  0.1040E+03
     -4.495  0.0000E+00  0.1040E+03
     -4.393  0.0000E+00  0.1040E+03
     -4.290  0.0000E+00  0.1040E+03
     -4.187  0.0000E+00  0.1040E+03
     -4.085  0.0000E+00  0.1040E+03
     -3.982  0.0000E+00  0.1040E+03
     -3.879  0.0000E+00  0.1040E+03
     -3.777  0.0000E+00  0.1040E+03
     -3.674  0.0000E+00  0.1040E+03
     -3.571  0.0000E+00  0.1040E+03
     -3.469  0.0000E+00  0.1040E+03
     -3.366  0.0000E+00  0.1040E+03
     -3.263  0.7097E+01  0.1047E+03
     -3.160  0.1186E+02  0.1063E+03
     -3.058  0.1694E+02  0.1081E+03
     -2.955  0.7577E+01  0.1089E+03
     -2.852  0.7987E+01  0.1097E+03
     -2.750  0.1198E+02  0.1115E+03
     -2.647  0.6471E+01  0.1133E+03
     -2.544  0.5726E+01  0.1139E+03
     -2.442  0.1747E+02  0.1158E+03
     -2.339  0.1868E+02  0.1179E+03
     -2.236  0.2437E+01  0.1183E+03
     -2.134  0.1474E+02  0.1204E+03
     -2.031  0.2501E+02  0.1233E+03
     -1.928  0.2947E+02  0.1265E+03
     -1.826  0.3310E+01  0.1269E+03
     -1.723  0.1576E+02  0.1288E+03
     -1.620  0.3508E+02  0.1340E+03
     -1.518  0.9190E+01  0.1355E+03
     -1.415  0.3251E+02  0.1414E+03
     -1.312  0.5766E+02  0.1489E+03
     -1.209  0.3032E+02  0.1539E+03
     -1.107  0.5051E+02  0.1611E+03
     -1.004  0.3409E+02  0.1665E+03
     -0.901  0.8602E+01  0.1682E+03
     -0.799  0.1296E+02  0.1700E+03
     -0.696  0.1691E+02  0.1717E+03
     -0.593  0.1149E+02  0.1733E+03
     -0.491  0.7181E+01  0.1741E+03
     -0.388  0.4328E+01  0.1747E+03
     -0.285  0.1602E-08  0.1747E+03
     -0.183  0.3122E+01  0.1750E+03
     -0.080  0.8656E+01  0.1759E+03
      0.023  0.0000E+00  0.1759E+03
      0.125  0.0000E+00  0.1759E+03
      0.228  0.0000E+00  0.1759E+03
      0.331  0.2181E-01  0.1759E+03
      0.433  0.0000E+00  0.1760E+03
      0.536  0.0000E+00  0.1760E+03
      0.639  0.0000E+00  0.1760E+03
      0.742  0.0000E+00  0.1760E+03
      0.844  0.0000E+00  0.1760E+03
      0.947  0.0000E+00  0.1760E+03
      1.050  0.0000E+00  0.1760E+03
      1.152  0.0000E+00  0.1760E+03
      1.255  0.0000E+00  0.1760E+03
      1.358  0.0000E+00  0.1760E+03
      1.460  0.0000E+00  0.1760E+03
      1.563  0.0000E+00  0.1760E+03
      1.666  0.0000E+00  0.1760E+03
      1.768  0.0000E+00  0.1760E+03
      1.871  0.0000E+00  0.1760E+03
      1.974  0.0000E+00  0.1760E+03
      2.076  0.0000E+00  0.1760E+03
      2.179  0.0000E+00  0.1760E+03
      2.282  0.0000E+00  0.1760E+03
      2.385  0.0000E+00  0.1760E+03
      2.487  0.0000E+00  0.1760E+03
      2.590  0.1082E+01  0.1761E+03
      2.693  0.2703E-06  0.1761E+03
      2.795  0.3018E+01  0.1764E+03
      2.898  0.4207E+01  0.1769E+03
      3.001  0.1036E+02  0.1780E+03
      3.103  0.2071E+00  0.1780E+03
      3.206  0.1473E+02  0.1800E+03
      3.309  0.2164E+01  0.1802E+03
      3.411  0.5624E+01  0.1808E+03
      3.514  0.4328E+01  0.1816E+03
      3.617  0.4324E+01  0.1820E+03
      3.719  0.4328E+01  0.1824E+03
      3.822  0.5126E+01  0.1830E+03
      3.925  0.6357E+01  0.1840E+03
      4.027  0.4328E+01  0.1851E+03
      4.130  0.6381E+01  0.1858E+03
      4.233  0.2164E+01  0.1860E+03
      4.336  0.2164E+01  0.1862E+03
      4.438  0.8657E+01  0.1871E+03
      4.541  0.8657E+01  0.1880E+03
      4.644  0.8655E+01  0.1889E+03
      4.746  0.1507E+02  0.1904E+03
      4.849  0.6616E+01  0.1911E+03
      4.952  0.4650E+01  0.1918E+03
      5.054  0.1097E+02  0.1930E+03
      5.157  0.6433E+01  0.1939E+03
      5.260  0.7970E+01  0.1947E+03
      5.362  0.4328E+01  0.1952E+03
      5.465  0.6726E+01  0.1959E+03
      5.568  0.4018E-02  0.1960E+03
      5.670  0.1188E+02  0.1974E+03
      5.773  0.2182E+01  0.1977E+03
      5.876  0.8659E+01  0.1988E+03
      5.978  0.5427E+01  0.1994E+03
      6.081  0.7586E+01  0.2007E+03
      6.184  0.6522E+01  0.2024E+03
      6.287  0.7560E+01  0.2034E+03
      6.389  0.1405E+02  0.2053E+03
      6.492  0.3043E+02  0.2088E+03
      6.595  0.1018E+02  0.2099E+03
      6.697  0.2753E+02  0.2133E+03
      6.800  0.1290E+02  0.2148E+03
      6.903  0.1585E+02  0.2174E+03
      7.005  0.1688E+02  0.2197E+03
      7.108  0.1263E+02  0.2214E+03
      7.211  0.1839E+02  0.2236E+03
      7.313  0.4328E+01  0.2240E+03
      7.416  0.0000E+00  0.2240E+03
      7.519  0.0000E+00  0.2240E+03
      7.621  0.0000E+00  0.2240E+03
      7.724  0.0000E+00  0.2240E+03
      7.827  0.0000E+00  0.2240E+03
      7.930  0.0000E+00  0.2240E+03
      8.032  0.0000E+00  0.2240E+03
      8.135  0.0000E+00  0.2240E+03
      8.238  0.0000E+00  0.2240E+03
      8.340  0.0000E+00  0.2240E+03
      8.443  0.0000E+00  0.2240E+03
      8.546  0.0000E+00  0.2240E+03
      8.648  0.0000E+00  0.2240E+03
      8.64830627    -22.15726347  301      0.45915899      1.00000000
    -22.157  0.0000E+00  0.0000E+00  0.0000E+00
    -22.055  0.0000E+00  0.0000E+00  0.0000E+00
    -21.952  0.0000E+00  0.0000E+00  0.0000E+00
    -21.849  0.0000E+00  0.0000E+00  0.0000E+00
    -21.747  0.0000E+00  0.0000E+00  0.0000E+00
    -21.644  0.0000E+00  0.0000E+00  0.0000E+00
    -21.541  0.0000E+00  0.0000E+00  0.0000E+00
    -21.438  0.0000E+00  0.0000E+00  0.0000E+00
    -21.336  0.0000E+00  0.0000E+00  0.0000E+00
    -21.233  0.0000E+00  0.0000E+00  0.0000E+00
    -21.130  0.0000E+00  0.0000E+00  0.0000E+00
    -21.028  0.0000E+00  0.0000E+00  0.0000E+00
    -20.925  0.0000E+00  0.0000E+00  0.0000E+00
    -20.822  0.0000E+00  0.0000E+00  0.0000E+00
    -20.720  0.1729E+02  0.1413E-04  0.2254E-05
    -20.617  0.0000E+00  0.0000E+00  0.0000E+00
    -20.514  0.0000E+00  0.0000E+00  0.0000E+00
    -20.412  0.0000E+00  0.0000E+00  0.0000E+00
    -20.309  0.0000E+00  0.0000E+00  0.0000E+00
    -20.206  0.0000E+00  0.0000E+00  0.0000E+00
    -20.104  0.0000E+00  0.0000E+00  0.0000E+00
    -20.001  0.0000E+00  0.0000E+00  0.0000E+00
    -19.898  0.0000E+00  0.0000E+00  0.0000E+00
    -19.796  0.0000E+00  0.0000E+00  0.0000E+00
    -19.693  0.0000E+00  0.0000E+00  0.0000E+00
    -19.590  0.0000E+00  0.0000E+00  0.0000E+00
    -19.487  0.0000E+00  0.0000E+00  0.0000E+00
    -19.385  0.0000E+00  0.0000E+00  0.0000E+00
    -19.282  0.0000E+00  0.0000E+00  0.0000E+00
    -19.179  0.0000E+00  0.0000E+00  0.0000E+00
    -19.077  0.0000E+00  0.0000E+00  0.0000E+00
    -18.974  0.0000E+00  0.0000E+00  0.0000E+00
    -18.871  0.0000E+00  0.0000E+00  0.0000E+00
    -18.769  0.0000E+00  0.0000E+00  0.0000E+00
    -18.666  0.0000E+00  0.0000E+00  0.0000E+00
    -18.563  0.0000E+00  0.0000E+00  0.0000E+00
    -18.461  0.0000E+00  0.0000E+00  0.0000E+00
    -18.358  0.0000E+00  0.0000E+00  0.0000E+00
    -18.255  0.0000E+00  0.0000E+00  0.0000E+00
    -18.153  0.0000E+00  0.0000E+00  0.0000E+00
    -18.050  0.0000E+00  0.0000E+00  0.0000E+00
    -17.947  0.0000E+00  0.0000E+00  0.0000E+00
    -17.844  0.0000E+00  0.0000E+00  0.0000E+00
    -17.742  0.0000E+00  0.0000E+00  0.0000E+00
    -17.639  0.0000E+00  0.0000E+00  0.0000E+00
    -17.536  0.0000E+00  0.0000E+00  0.0000E+00
    -17.434  0.0000E+00  0.0000E+00  0.0000E+00
    -17.331  0.0000E+00  0.0000E+00  0.0000E+00
    -17.228  0.0000E+00  0.0000E+00  0.0000E+00
    -17.126  0.0000E+00  0.0000E+00  0.0000E+00
    -17.023  0.0000E+00  0.0000E+00  0.0000E+00
    -16.920  0.0000E+00  0.0000E+00  0.0000E+00
    -16.818  0.0000E+00  0.0000E+00  0.0000E+00
    -16.715  0.0000E+00  0.0000E+00  0.0000E+00
    -16.612  0.0000E+00  0.0000E+00  0.0000E+00
    -16.510  0.2883E-04  0.1510E-04  0.4158E-05
    -16.407  0.4177E-04  0.6420E-04  0.9987E-05
    -16.304  0.9185E-04  0.4853E-04  0.6005E-05
    -16.202  0.0000E+00  0.0000E+00  0.0000E+00
    -16.099  0.0000E+00  0.0000E+00  0.0000E+00
    -15.996  0.0000E+00  0.0000E+00  0.0000E+00
    -15.893  0.0000E+00  0.0000E+00  0.0000E+00
    -15.791  0.0000E+00  0.0000E+00  0.0000E+00
    -15.688  0.0000E+00  0.0000E+00  0.0000E+00
    -15.585  0.0000E+00  0.0000E+00  0.0000E+00
    -15.483  0.0000E+00  0.0000E+00  0.0000E+00
    -15.380  0.0000E+00  0.0000E+00  0.0000E+00
    -15.277  0.0000E+00  0.0000E+00  0.0000E+00
    -15.175  0.0000E+00  0.0000E+00  0.0000E+00
    -15.072  0.0000E+00  0.0000E+00  0.0000E+00
    -14.969  0.0000E+00  0.0000E+00  0.0000E+00
    -14.867  0.0000E+00  0.0000E+00  0.0000E+00
    -14.764  0.0000E+00  0.0000E+00  0.0000E+00
    -14.661  0.0000E+00  0.0000E+00  0.0000E+00
    -14.559  0.0000E+00  0.0000E+00  0.0000E+00
    -14.456  0.0000E+00  0.0000E+00  0.0000E+00
    -14.353  0.1824E-09  0.2039E-11  0.1169E-12
    -14.251  0.2538E-02  0.5723E-03  0.8199E-05
    -14.148  0.3931E-02  0.4181E-02  0.7902E-04
    -14.045  0.1349E-02  0.6100E-02  0.3339E-03
    -13.942  0.2014E-02  0.3712E-02  0.3176E-03
    -13.840  0.9274E-03  0.4234E-02  0.3862E-03
    -13.737  0.9530E-03  0.2514E-02  0.4294E-03
    -13.634  0.0000E+00  0.0000E+00  0.0000E+00
    -13.532  0.0000E+00  0.0000E+00  0.0000E+00
    -13.429  0.0000E+00  0.0000E+00  0.0000E+00
    -13.326  0.0000E+00  0.0000E+00  0.0000E+00
    -13.224  0.0000E+00  0.0000E+00  0.0000E+00
    -13.121  0.0000E+00  0.0000E+00  0.0000E+00
    -13.018  0.0000E+00  0.0000E+00  0.0000E+00
    -12.916  0.0000E+00  0.0000E+00  0.0000E+00
    -12.813  0.0000E+00  0.0000E+00  0.0000E+00
    -12.710  0.0000E+00  0.0000E+00  0.0000E+00
    -12.608  0.0000E+00  0.0000E+00  0.0000E+00
    -12.505  0.0000E+00  0.0000E+00  0.0000E+00
    -12.402  0.0000E+00  0.0000E+00  0.0000E+00
    -12.299  0.0000E+00  0.0000E+00  0.0000E+00
    -12.197  0.0000E+00  0.0000E+00  0.0000E+00
    -12.094  0.0000E+00  0.0000E+00  0.0000E+00
    -11.991  0.0000E+00  0.0000E+00  0.0000E+00
    -11.889  0.0000E+00  0.0000E+00  0.0000E+00
    -11.786  0.0000E+00  0.0000E+00  0.0000E+00
    -11.683  0.0000E+00  0.0000E+00  0.0000E+00
    -11.581  0.0000E+00  0.0000E+00  0.0000E+00
    -11.478  0.0000E+00  0.0000E+00  0.0000E+00
    -11.375  0.0000E+00  0.0000E+00  0.0000E+00
    -11.273  0.0000E+00  0.0000E+00  0.0000E+00
    -11.170  0.0000E+00  0.0000E+00  0.0000E+00
    -11.067  0.0000E+00  0.0000E+00  0.0000E+00
    -10.965  0.0000E+00  0.0000E+00  0.0000E+00
    -10.862  0.0000E+00  0.0000E+00  0.0000E+00
    -10.759  0.0000E+00  0.0000E+00  0.0000E+00
    -10.657  0.0000E+00  0.0000E+00  0.0000E+00
    -10.554  0.0000E+00  0.0000E+00  0.0000E+00
    -10.451  0.0000E+00  0.0000E+00  0.0000E+00
    -10.348  0.0000E+00  0.0000E+00  0.0000E+00
    -10.246  0.0000E+00  0.0000E+00  0.0000E+00
    -10.143  0.0000E+00  0.0000E+00  0.0000E+00
    -10.040  0.0000E+00  0.0000E+00  0.0000E+00
     -9.938  0.0000E+00  0.0000E+00  0.0000E+00
     -9.835  0.0000E+00  0.0000E+00  0.0000E+00
     -9.732  0.0000E+00  0.0000E+00  0.0000E+00
     -9.630  0.0000E+00  0.0000E+00  0.0000E+00
     -9.527  0.0000E+00  0.0000E+00  0.0000E+00
     -9.424  0.0000E+00  0.0000E+00  0.0000E+00
     -9.322  0.0000E+00  0.0000E+00  0.0000E+00
     -9.219  0.0000E+00  0.0000E+00  0.0000E+00
     -9.116  0.0000E+00  0.0000E+00  0.0000E+00
     -9.014  0.0000E+00  0.0000E+00  0.0000E+00
     -8.911  0.0000E+00  0.0000E+00  0.0000E+00
     -8.808  0.0000E+00  0.0000E+00  0.0000E+00
     -8.705  0.0000E+00  0.0000E+00  0.0000E+00
     -8.603  0.0000E+00  0.0000E+00  0.0000E+00
     -8.500  0.0000E+00  0.0000E+00  0.0000E+00
     -8.397  0.0000E+00  0.0000E+00  0.0000E+00
     -8.295  0.0000E+00  0.0000E+00  0.0000E+00
     -8.192  0.9439E-25  0.2461E-08  0.8207E-10
     -8.089  0.1088E-19  0.2836E-03  0.9458E-05
     -7.987  0.5235E-21  0.2843E-05  0.1639E-07
     -7.884  0.1328E-05  0.4683E-02  0.3735E-04
     -7.781  0.8130E-17  0.7271E-02  0.3322E-04
     -7.679  0.1421E-04  0.2465E-01  0.5504E-04
     -7.576  0.2279E-04  0.4813E-01  0.6739E-04
     -7.473  0.2454E-06  0.1922E-01  0.2670E-04
     -7.371  0.2681E-04  0.9185E-01  0.3661E-04
     -7.268  0.5893E-04  0.3440E+00  0.3547E-04
     -7.165  0.3156E-04  0.1324E+02  0.4893E-04
     -7.063  0.3477E-04  0.1631E+02  0.3708E-04
     -6.960  0.1542E-04  0.1347E+00  0.3017E-04
     -6.857  0.3480E-04  0.6073E-01  0.1283E-04
     -6.754  0.0000E+00  0.0000E+00  0.0000E+00
     -6.652  0.1663E-16  0.6306E-14  0.1515E-17
     -6.549  0.8982E-05  0.3407E-02  0.8182E-06
     -6.446  0.0000E+00  0.0000E+00  0.0000E+00
     -6.344  0.0000E+00  0.0000E+00  0.0000E+00
     -6.241  0.0000E+00  0.0000E+00  0.0000E+00
     -6.138  0.0000E+00  0.0000E+00  0.0000E+00
     -6.036  0.0000E+00  0.0000E+00  0.0000E+00
     -5.933  0.0000E+00  0.0000E+00  0.0000E+00
     -5.830  0.0000E+00  0.0000E+00  0.0000E+00
     -5.728  0.0000E+00  0.0000E+00  0.0000E+00
     -5.625  0.0000E+00  0.0000E+00  0.0000E+00
     -5.522  0.0000E+00  0.0000E+00  0.0000E+00
     -5.420  0.0000E+00  0.0000E+00  0.0000E+00
     -5.317  0.0000E+00  0.0000E+00  0.0000E+00
     -5.214  0.0000E+00  0.0000E+00  0.0000E+00
     -5.112  0.0000E+00  0.0000E+00  0.0000E+00
     -5.009  0.0000E+00  0.0000E+00  0.0000E+00
     -4.906  0.0000E+00  0.0000E+00  0.0000E+00
     -4.803  0.0000E+00  0.0000E+00  0.0000E+00
     -4.701  0.0000E+00  0.0000E+00  0.0000E+00
     -4.598  0.0000E+00  0.0000E+00  0.0000E+00
     -4.495  0.0000E+00  0.0000E+00  0.0000E+00
     -4.393  0.0000E+00  0.0000E+00  0.0000E+00
     -4.290  0.0000E+00  0.0000E+00  0.0000E+00
     -4.187  0.0000E+00  0.0000E+00  0.0000E+00
     -4.085  0.0000E+00  0.0000E+00  0.0000E+00
     -3.982  0.0000E+00  0.0000E+00  0.0000E+00
     -3.879  0.0000E+00  0.0000E+00  0.0000E+00
     -3.777  0.0000E+00  0.0000E+00  0.0000E+00
     -3.674  0.0000E+00  0.0000E+00  0.0000E+00
     -3.571  0.0000E+00  0.0000E+00  0.0000E+00
     -3.469  0.0000E+00  0.0000E+00  0.0000E+00
     -3.366  0.0000E+00  0.0000E+00  0.0000E+00
     -3.263  0.6057E-04  0.1171E-01  0.5674E-03
     -3.160  0.5905E-04  0.5693E-02  0.9604E-03
     -3.058  0.9016E-03  0.2654E-01  0.2344E-02
     -2.955  0.2310E-03  0.6469E-02  0.1005E-02
     -2.852  0.4280E-03  0.1260E-01  0.6394E-03
     -2.750  0.4503E-03  0.1868E-01  0.1105E-02
     -2.647  0.8146E-03  0.1081E-01  0.6540E-03
     -2.544  0.6414E-16  0.2798E-02  0.3034E-03
     -2.442  0.9094E-03  0.2728E-01  0.1661E-02
     -2.339  0.2573E-02  0.1394E-01  0.2566E-02
     -2.236  0.9142E-03  0.1886E-02  0.2982E-03
     -2.134  0.6170E-02  0.1631E-01  0.1555E-02
     -2.031  0.1568E-01  0.4253E-01  0.3860E-02
     -1.928  0.2025E-01  0.5857E-01  0.6115E-02
     -1.826  0.1149E-02  0.2035E-01  0.2397E-03
     -1.723  0.1010E-02  0.8219E-01  0.4277E-02
     -1.620  0.1633E-02  0.1290E+00  0.1452E-01
     -1.518  0.1167E-02  0.1971E-01  0.3382E-02
     -1.415  0.2597E-02  0.4675E-01  0.1574E-01
     -1.312  0.4308E-02  0.9972E-01  0.2248E-01
     -1.209  0.4919E-02  0.4746E-01  0.9038E-02
     -1.107  0.1144E-02  0.9634E-01  0.1404E-01
     -1.004  0.1157E-02  0.2965E-01  0.8803E-02
     -0.901  0.1782E-03  0.1347E-01  0.2156E-02
     -0.799  0.6734E-03  0.1634E-01  0.3990E-02
     -0.696  0.7782E-03  0.1865E-01  0.2539E-02
     -0.593  0.7909E-03  0.4242E-02  0.1303E-02
     -0.491  0.3516E-03  0.3645E-02  0.1091E-02
     -0.388  0.1589E-15  0.2902E-02  0.8169E-04
     -0.285  0.3739E-13  0.7688E-12  0.1931E-12
     -0.183  0.2526E-04  0.6007E-03  0.4546E-03
     -0.080  0.1563E-04  0.2361E-02  0.1328E-02
      0.023  0.0000E+00  0.0000E+00  0.0000E+00
      0.125  0.0000E+00  0.0000E+00  0.0000E+00
      0.228  0.0000E+00  0.0000E+00  0.0000E+00
      0.331  0.2985E-19  0.2574E-05  0.3190E-05
      0.433  0.0000E+00  0.0000E+00  0.0000E+00
      0.536  0.0000E+00  0.0000E+00  0.0000E+00
      0.639  0.0000E+00  0.0000E+00  0.0000E+00
      0.742  0.0000E+00  0.0000E+00  0.0000E+00
      0.844  0.0000E+00  0.0000E+00  0.0000E+00
      0.947  0.0000E+00  0.0000E+00  0.0000E+00
      1.050  0.0000E+00  0.0000E+00  0.0000E+00
      1.152  0.0000E+00  0.0000E+00  0.0000E+00
      1.255  0.0000E+00  0.0000E+00  0.0000E+00
      1.358  0.0000E+00  0.0000E+00  0.0000E+00
      1.460  0.0000E+00  0.0000E+00  0.0000E+00
      1.563  0.0000E+00  0.0000E+00  0.0000E+00
      1.666  0.0000E+00  0.0000E+00  0.0000E+00
      1.768  0.0000E+00  0.0000E+00  0.0000E+00
      1.871  0.0000E+00  0.0000E+00  0.0000E+00
      1.974  0.0000E+00  0.0000E+00  0.0000E+00
      2.076  0.0000E+00  0.0000E+00  0.0000E+00
      2.179  0.0000E+00  0.0000E+00  0.0000E+00
      2.282  0.0000E+00  0.0000E+00  0.0000E+00
      2.385  0.0000E+00  0.0000E+00  0.0000E+00
      2.487  0.0000E+00  0.0000E+00  0.0000E+00
      2.590  0.8686E-16  0.1069E-03  0.1209E-02
      2.693  0.1487E-10  0.6824E-10  0.1075E-09
      2.795  0.3629E-03  0.5443E-03  0.1653E-02
      2.898  0.2784E-03  0.1019E-02  0.1475E-02
      3.001  0.3098E-03  0.4524E-02  0.5171E-02
      3.103  0.1749E-04  0.3598E-04  0.3836E-04
      3.206  0.1263E-02  0.7202E-02  0.5424E-02
      3.309  0.1142E-16  0.6165E-03  0.2282E-02
      3.411  0.1003E-02  0.2212E-02  0.2692E-02
      3.514  0.6375E-03  0.1252E-02  0.3371E-02
      3.617  0.6010E-03  0.1466E-02  0.3404E-02
      3.719  0.6775E-03  0.6161E-03  0.2874E-02
      3.822  0.1779E-04  0.2762E-03  0.2300E-02
      3.925  0.1704E-03  0.1004E-02  0.3011E-02
      4.027  0.2181E-03  0.1235E-02  0.2236E-02
      4.130  0.3041E-03  0.1312E-02  0.1778E-02
      4.233  0.1756E-03  0.7285E-03  0.5065E-03
      4.336  0.1069E-03  0.5136E-03  0.2585E-02
      4.438  0.9565E-03  0.2990E-02  0.8743E-02
      4.541  0.1196E-03  0.3663E-02  0.8537E-02
      4.644  0.8840E-03  0.1983E-02  0.3421E-02
      4.746  0.1713E-02  0.4103E-02  0.1143E-01
      4.849  0.1566E-02  0.2757E-02  0.6365E-02
      4.952  0.5230E-02  0.3095E-02  0.4117E-02
      5.054  0.3291E-02  0.2488E-02  0.1038E-01
      5.157  0.2474E-03  0.1103E-02  0.4494E-02
      5.260  0.1310E-01  0.4912E-02  0.5791E-02
      5.362  0.4378E-02  0.3358E-02  0.2928E-02
      5.465  0.4940E-03  0.3359E-03  0.8928E-02
      5.568  0.3274E-04  0.5547E-05  0.1101E-04
      5.670  0.7303E-04  0.8275E-03  0.1969E-01
      5.773  0.1518E-01  0.3825E-02  0.7799E-02
      5.876  0.9759E-02  0.2815E-02  0.1833E-01
      5.978  0.1379E-03  0.5412E-03  0.1174E-01
      6.081  0.3578E-01  0.7927E-02  0.4577E-01
      6.184  0.5879E-02  0.2491E-02  0.1209E+00
      6.287  0.1020E-01  0.5394E-02  0.1905E+00
      6.389  0.4464E-01  0.2589E-01  0.2418E+00
      6.492  0.6388E-01  0.3767E-01  0.7607E+00
      6.595  0.3027E-01  0.6426E-02  0.2463E+00
      6.697  0.3741E-01  0.3094E-01  0.7693E+00
      6.800  0.2498E-01  0.1943E-01  0.3617E+00
      6.903  0.6405E-02  0.3793E-01  0.5269E+00
      7.005  0.1764E-01  0.1650E-01  0.6581E+00
      7.108  0.3369E-01  0.2018E-01  0.4072E+00
      7.211  0.6776E-02  0.5320E-01  0.5005E+00
      7.313  0.1625E-04  0.8262E-02  0.1565E+00
      7.416  0.0000E+00  0.0000E+00  0.0000E+00
      7.519  0.0000E+00  0.0000E+00  0.0000E+00
      7.621  0.0000E+00  0.0000E+00  0.0000E+00
      7.724  0.0000E+00  0.0000E+00  0.0000E+00
      7.827  0.0000E+00  0.0000E+00  0.0000E+00
      7.930  0.0000E+00  0.0000E+00  0.0000E+00
      8.032  0.0000E+00  0.0000E+00  0.0000E+00
      8.135  0.0000E+00  0.0000E+00  0.0000E+00
      8.238  0.0000E+00  0.0000E+00  0.0000E+00
      8.340  0.0000E+00  0.0000E+00  0.0000E+00
      8.443  0.0000E+00  0.0000E+00  0.0000E+00
      8.546  0.0000E+00  0.0000E+00  0.0000E+00
      8.648  0.0000E+00  0.0000E+00  0.0000E+00
      8.64830627    -22.15726347  301      0.45915899      1.00000000
    -22.157  0.0000E+00  0.0000E+00  0.0000E+00
    -22.055  0.0000E+00  0.0000E+00  0.0000E+00
    -21.952  0.0000E+00  0.0000E+00  0.0000E+00
    -21.849  0.0000E+00  0.0000E+00  0.0000E+00
    -21.747  0.0000E+00  0.0000E+00  0.0000E+00
    -21.644  0.0000E+00  0.0000E+00  0.0000E+00
    -21.541  0.0000E+00  0.0000E+00  0.0000E+00
    -21.438  0.0000E+00  0.0000E+00  0.0000E+00
    -21.336  0.0000E+00  0.0000E+00  0.0000E+00
    -21.233  0.0000E+00  0.0000E+00  0.0000E+00
    -21.130  0.0000E+00  0.0000E+00  0.0000E+00
    -21.028  0.0000E+00  0.0000E+00  0.0000E+00
    -20.925  0.0000E+00  0.0000E+00  0.0000E+00
    -20.822  0.0000E+00  0.0000E+00  0.0000E+00
    -20.720  0.1729E+02  0.1412E-04  0.2268E-05
    -20.617  0.0000E+00  0.0000E+00  0.0000E+00
    -20.514  0.0000E+00  0.0000E+00  0.0000E+00
    -20.412  0.0000E+00  0.0000E+00  0.0000E+00
    -20.309  0.0000E+00  0.0000E+00  0.0000E+00
    -20.206  0.0000E+00  0.0000E+00  0.0000E+00
    -20.104  0.0000E+00  0.0000E+00  0.0000E+00
    -20.001  0.0000E+00  0.0000E+00  0.0000E+00
    -19.898  0.0000E+00  0.0000E+00  0.0000E+00
    -19.796  0.0000E+00  0.0000E+00  0.0000E+00
    -19.693  0.0000E+00  0.0000E+00  0.0000E+00
    -19.590  0.0000E+00  0.0000E+00  0.0000E+00
    -19.487  0.0000E+00  0.0000E+00  0.0000E+00
    -19.385  0.0000E+00  0.0000E+00  0.0000E+00
    -19.282  0.0000E+00  0.0000E+00  0.0000E+00
    -19.179  0.0000E+00  0.0000E+00  0.0000E+00
    -19.077  0.0000E+00  0.0000E+00  0.0000E+00
    -18.974  0.0000E+00  0.0000E+00  0.0000E+00
    -18.871  0.0000E+00  0.0000E+00  0.0000E+00
    -18.769  0.0000E+00  0.0000E+00  0.0000E+00
    -18.666  0.0000E+00  0.0000E+00  0.0000E+00
    -18.563  0.0000E+00  0.0000E+00  0.0000E+00
    -18.461  0.0000E+00  0.0000E+00  0.0000E+00
    -18.358  0.0000E+00  0.0000E+00  0.0000E+00
    -18.255  0.0000E+00  0.0000E+00  0.0000E+00
    -18.153  0.0000E+00  0.0000E+00  0.0000E+00
    -18.050  0.0000E+00  0.0000E+00  0.0000E+00
    -17.947  0.0000E+00  0.0000E+00  0.0000E+00
    -17.844  0.0000E+00  0.0000E+00  0.0000E+00
    -17.742  0.0000E+00  0.0000E+00  0.0000E+00
    -17.639  0.0000E+00  0.0000E+00  0.0000E+00
    -17.536  0.0000E+00  0.0000E+00  0.0000E+00
    -17.434  0.0000E+00  0.0000E+00  0.0000E+00
    -17.331  0.0000E+00  0.0000E+00  0.0000E+00
    -17.228  0.0000E+00  0.0000E+00  0.0000E+00
    -17.126  0.0000E+00  0.0000E+00  0.0000E+00
    -17.023  0.0000E+00  0.0000E+00  0.0000E+00
    -16.920  0.0000E+00  0.0000E+00  0.0000E+00
    -16.818  0.0000E+00  0.0000E+00  0.0000E+00
    -16.715  0.0000E+00  0.0000E+00  0.0000E+00
    -16.612  0.0000E+00  0.0000E+00  0.0000E+00
    -16.510  0.2635E-04  0.1465E-04  0.4055E-05
    -16.407  0.3439E-04  0.6915E-04  0.1069E-04
    -16.304  0.9092E-04  0.4837E-04  0.5973E-05
    -16.202  0.0000E+00  0.0000E+00  0.0000E+00
    -16.099  0.0000E+00  0.0000E+00  0.0000E+00
    -15.996  0.0000E+00  0.0000E+00  0.0000E+00
    -15.893  0.0000E+00  0.0000E+00  0.0000E+00
    -15.791  0.0000E+00  0.0000E+00  0.0000E+00
    -15.688  0.0000E+00  0.0000E+00  0.0000E+00
    -15.585  0.0000E+00  0.0000E+00  0.0000E+00
    -15.483  0.0000E+00  0.0000E+00  0.0000E+00
    -15.380  0.0000E+00  0.0000E+00  0.0000E+00
    -15.277  0.0000E+00  0.0000E+00  0.0000E+00
    -15.175  0.0000E+00  0.0000E+00  0.0000E+00
    -15.072  0.0000E+00  0.0000E+00  0.0000E+00
    -14.969  0.0000E+00  0.0000E+00  0.0000E+00
    -14.867  0.0000E+00  0.0000E+00  0.0000E+00
    -14.764  0.0000E+00  0.0000E+00  0.0000E+00
    -14.661  0.0000E+00  0.0000E+00  0.0000E+00
    -14.559  0.0000E+00  0.0000E+00  0.0000E+00
    -14.456  0.0000E+00  0.0000E+00  0.0000E+00
    -14.353  0.1824E-09  0.2039E-11  0.1169E-12
    -14.251  0.2538E-02  0.5723E-03  0.8200E-05
    -14.148  0.4324E-02  0.3505E-02  0.8599E-04
    -14.045  0.1526E-02  0.7008E-02  0.3287E-03
    -13.942  0.4016E-03  0.1870E-02  0.1972E-03
    -13.840  0.1825E-02  0.4945E-02  0.5897E-03
    -13.737  0.9383E-03  0.2342E-02  0.3623E-03
    -13.634  0.0000E+00  0.0000E+00  0.0000E+00
    -13.532  0.0000E+00  0.0000E+00  0.0000E+00
    -13.429  0.0000E+00  0.0000E+00  0.0000E+00
    -13.326  0.0000E+00  0.0000E+00  0.0000E+00
    -13.224  0.0000E+00  0.0000E+00  0.0000E+00
    -13.121  0.0000E+00  0.0000E+00  0.0000E+00
    -13.018  0.0000E+00  0.0000E+00  0.0000E+00