 vasp.5.4.4.18Apr17-6-g9f103f2a35 (build Jun 29 2021 12:58:12) complex           
 executed on tx2_gcc-7.3_libsci-1 date 2021.09.21  08:28:56
 running on   64 total cores
 distrk:  each k-point on   64 cores,    1 groups
 distr:  one band on NCORES_PER_BAND=   8 cores,    8 groups


--------------------------------------------------------------------------------------------------------


 INCAR:
 POTCAR:    PAW_PBE Cs_sv 08Apr2002               
 POTCAR:    PAW_PBE Pb_d 06Sep2000                
 POTCAR:    PAW_PBE Br 06Sep2000                  
 POTCAR:    PAW_PBE Cs_sv 08Apr2002               
   SHA256 =  c1463496f0f6037ed62c6012a8013a89ee9ad6ffb38599dcd6c079e7ed31779b Cs
   COPYR  = (c) Copyright 08Apr2002 Georg Kresse                                
   COPYR  = This file is part of the software VASP. Any use, copying, and all ot
   COPYR  = If you do not have a valid VASP license, you may not use, copy or di
   VRHFIN =Cs: 5s5p6s                                                           
   LEXCH  = PE                                                                  
   EATOM  =   555.6835 eV,   40.8416 Ry                                         
                                                                                
   TITEL  = PAW_PBE Cs_sv 08Apr2002                                             
   LULTRA =        F    use ultrasoft PP ?                                      
   IUNSCR =        1    unscreen: 0-lin 1-nonlin 2-no                           
   RPACOR =    2.200    partial core radius                                     
   POMASS =  132.900; ZVAL   =    9.000    mass and valenz                      
   RCORE  =    2.500    outmost cutoff radius                                   
   RWIGS  =    2.500; RWIGS  =    1.323    wigner-seitz radius (au A)           
   ENMAX  =  220.318; ENMIN  =  165.238 eV                                      
   RCLOC  =    2.207    cutoff for local pot                                    
   LCOR   =        T    correct aug charges                                     
   LPAW   =        T    paw PP                                                  
   EAUG   =  407.933                                                            
   DEXC   =    0.000                                                            
   RMAX   =    2.554    core radius for proj-oper                               
   RAUG   =    1.300    factor for augmentation sphere                          
   RDEP   =    2.590    radius for radial grids                                 
   RDEPT  =    2.117    core radius for aug-charge                              
                                                                                
   Atomic configuration                                                         
   13 entries                                                                   
     n  l   j            E        occ.                                          
     1  0  0.50    -35790.1377   2.0000                                         
     2  0  0.50     -5613.6201   2.0000                                         
     2  1  1.50     -5035.0101   6.0000                                         
     3  0  0.50     -1167.0767   2.0000                                         
     3  1  1.50      -980.9754   6.0000                                         
     3  2  2.50      -708.0703  10.0000                                         
     4  0  0.50      -220.2386   2.0000                                         
     4  1  1.50      -160.7596   6.0000                                         
     4  2  2.50       -74.2354  10.0000                                         
     5  0  0.50       -26.7287   2.0000                                         
     6  0  0.50        -2.0862   1.0000                                         
     5  1  1.50       -13.5159   6.0000                                         
     5  2  2.50        -0.4136   0.0000                                         
   Description                                                                  
     l       E           TYP  RCUT    TYP  RCUT                                 
     0    -26.7287425     23  1.900                                             
     0     -2.0862306     23  1.900                                             
     1    -13.5158719     23  2.500                                             
     1     -2.7211652     23  2.500                                             
     2     -0.4136171     23  2.500                                             
  local pseudopotential read in
  partial core-charges read in
  partial kinetic energy density read in
  atomic valenz-charges read in
  non local Contribution for L=           0  read in
    real space projection operators read in
  non local Contribution for L=           0  read in
    real space projection operators read in
  non local Contribution for L=           1  read in
    real space projection operators read in
  non local Contribution for L=           1  read in
    real space projection operators read in
  non local Contribution for L=           2  read in
    real space projection operators read in
    PAW grid and wavefunctions read in

   number of l-projection  operators is LMAX  =           5
   number of lm-projection operators is LMMAX =          13

 POTCAR:    PAW_PBE Pb_d 06Sep2000                
   SHA256 =  fb885b08f0fba73a15f6a6b0e39bd200c13ec96ef97cf3ecd8e63bade5137abd Pb
   COPYR  = (c) Copyright 06Sep2000 Georg Kresse                                
   COPYR  = This file is part of the software VASP. Any use, copying, and all ot
   COPYR  = If you do not have a valid VASP license, you may not use, copy or di
   VRHFIN =Pb:                                                                  
   LEXCH  = PE                                                                  
   EATOM  =  1661.6185 eV,  122.1255 Ry                                         
                                                                                
   TITEL  = PAW_PBE Pb_d 06Sep2000                                              
   LULTRA =        F    use ultrasoft PP ?                                      
   IUNSCR =        1    unscreen: 0-lin 1-nonlin 2-no                           
   RPACOR =    2.200    partial core radius                                     
   POMASS =  207.200; ZVAL   =   14.000    mass and valenz                      
   RCORE  =    2.500    outmost cutoff radius                                   
   RWIGS  =    3.260; RWIGS  =    1.725    wigner-seitz radius (au A)           
   ENMAX  =  237.835; ENMIN  =  178.376 eV                                      
   ICORE  =        3    local potential                                         
   LCOR   =        T    correct aug charges                                     
   LPAW   =        T    paw PP                                                  
   EAUG   =  391.914                                                            
   DEXC   =    0.000                                                            
   RMAX   =    2.565    core radius for proj-oper                               
   RAUG   =    1.300    factor for augmentation sphere                          
   RDEP   =    2.643    radius for radial grids                                 
   RDEPT  =    2.092    core radius for aug-charge                              
                                                                                
   Atomic configuration                                                         
   16 entries                                                                   
     n  l   j            E        occ.                                          
     1  0  0.50    -88091.8466   2.0000                                         
     2  0  0.50    -15753.4197   2.0000                                         
     2  1  1.50    -13508.1797   6.0000                                         
     3  0  0.50     -3781.7194   2.0000                                         
     3  1  1.50     -3138.2529   6.0000                                         
     3  2  2.50     -2483.2977  10.0000                                         
     4  0  0.50      -856.2895   2.0000                                         
     4  1  1.50      -645.4942   6.0000                                         
     4  2  2.50      -401.8768  10.0000                                         
     4  3  3.50      -132.9059  14.0000                                         
     5  0  0.50      -144.0950   2.0000                                         
     5  1  1.50       -85.7879   6.0000                                         
     5  2  2.50       -21.1769  10.0000                                         
     6  0  0.50       -12.0372   2.0000                                         
     6  1  1.50        -3.4971   2.0000                                         
     5  3  2.50        -2.7212   0.0000                                         
   Description                                                                  
     l       E           TYP  RCUT    TYP  RCUT                                 
     2    -21.1768523     23  2.500                                             
     2      1.3605826     23  2.500                                             
     0    -12.0371562     23  2.500                                             
     0     13.6058260     23  2.500                                             
     1     -3.4971339     23  2.500                                             
     1     13.6058260     23  2.500                                             
     3     -1.3605826      7  2.500                                             
  local pseudopotential read in
  partial core-charges read in
  partial kinetic energy density read in
  atomic valenz-charges read in
  non local Contribution for L=           2  read in
    real space projection operators read in
  non local Contribution for L=           2  read in
    real space projection operators read in
  non local Contribution for L=           0  read in
    real space projection operators read in
  non local Contribution for L=           0  read in
    real space projection operators read in
  non local Contribution for L=           1  read in
    real space projection operators read in
  non local Contribution for L=           1  read in
    real space projection operators read in
    PAW grid and wavefunctions read in

   number of l-projection  operators is LMAX  =           6
   number of lm-projection operators is LMMAX =          18

 POTCAR:    PAW_PBE Br 06Sep2000                  
   SHA256 =  96a73d2954943bbee26f4990d676cc6c3bf44b8dd2c75cd4b3b825d8403f0103 Br
   COPYR  = (c) Copyright 06Sep2000 Georg Kresse                                
   COPYR  = This file is part of the software VASP. Any use, copying, and all ot
   COPYR  = If you do not have a valid VASP license, you may not use, copy or di
   VRHFIN =Br: s2p5                                                             
   LEXCH  = PE                                                                  
   EATOM  =   368.4488 eV,   27.0802 Ry                                         
                                                                                
   TITEL  = PAW_PBE Br 06Sep2000                                                
   LULTRA =        F    use ultrasoft PP ?                                      
   IUNSCR =        1    unscreen: 0-lin 1-nonlin 2-no                           
   RPACOR =    1.900    partial core radius                                     
   POMASS =   79.904; ZVAL   =    7.000    mass and valenz                      
   RCORE  =    2.100    outmost cutoff radius                                   
   RWIGS  =    2.200; RWIGS  =    1.164    wigner-seitz radius (au A)           
   ENMAX  =  216.285; ENMIN  =  162.214 eV                                      
   ICORE  =        3    local potential                                         
   LCOR   =        T    correct aug charges                                     
   LPAW   =        T    paw PP                                                  
   EAUG   =  503.852                                                            
   DEXC   =    0.000                                                            
   RMAX   =    2.139    core radius for proj-oper                               
   RAUG   =    1.300    factor for augmentation sphere                          
   RDEP   =    2.186    radius for radial grids                                 
   RDEPT  =    1.890    core radius for aug-charge                              
                                                                                
   Atomic configuration                                                         
   10 entries                                                                   
     n  l   j            E        occ.                                          
     1  0  0.50    -13316.2796   2.0000                                         
     2  0  0.50     -1732.8239   2.0000                                         
     2  1  1.50     -1528.2193   6.0000                                         
     3  0  0.50      -238.0460   2.0000                                         
     3  1  1.50      -173.4609   6.0000                                         
     3  2  2.50       -66.7132  10.0000                                         
     4  0  0.50       -20.1334   2.0000                                         
     4  1  0.50        -7.8591   5.0000                                         
     4  2  2.50        -8.1635   0.0000                                         
     4  3  2.50        -8.1635   0.0000                                         
   Description                                                                  
     l       E           TYP  RCUT    TYP  RCUT                                 
     0    -20.1333652     23  2.100                                             
     0    -21.4939478     23  2.100                                             
     1     -7.8591052     23  2.100                                             
     1     -3.1608434     23  2.100                                             
     2     -8.1634956     23  2.100                                             
     3     -1.3605826      7  2.100                                             
  local pseudopotential read in
  partial core-charges read in
  partial kinetic energy density read in
  atomic valenz-charges read in
  non local Contribution for L=           0  read in
    real space projection operators read in
  non local Contribution for L=           0  read in
    real space projection operators read in
  non local Contribution for L=           1  read in
    real space projection operators read in
  non local Contribution for L=           1  read in
    real space projection operators read in
  non local Contribution for L=           2  read in
    real space projection operators read in
    PAW grid and wavefunctions read in

   number of l-projection  operators is LMAX  =           5
   number of lm-projection operators is LMMAX =          13

 Optimization of the real space projectors (new method)

 maximal supplied QI-value         = 15.12
 optimisation between [QCUT,QGAM] = [  8.77, 17.69] = [ 21.53, 87.61] Ry 
 Optimized for a Real-space Cutoff    1.85 Angstroem

   l    n(q)    QCUT    max X(q) W(low)/X(q) W(high)/X(q)  e(spline) 
   0     10     8.768    25.322    0.81E-04    0.51E-04    0.48E-06
   0     10     8.768    99.187    0.78E-04    0.50E-04    0.47E-06
   1      9     8.768    11.761    0.21E-03    0.20E-03    0.37E-06
   1      9     8.768     8.275    0.24E-03    0.22E-03    0.41E-06
   2      9     8.768     3.829    0.23E-04    0.15E-03    0.18E-06
 Optimization of the real space projectors (new method)

 maximal supplied QI-value         = 15.12
 optimisation between [QCUT,QGAM] = [  8.77, 17.69] = [ 21.53, 87.61] Ry 
 Optimized for a Real-space Cutoff    1.59 Angstroem

   l    n(q)    QCUT    max X(q) W(low)/X(q) W(high)/X(q)  e(spline) 
   2      7     8.768     3.846    0.48E-04    0.11E-03    0.11E-06
   2      7     8.768     8.593    0.20E-03    0.22E-04    0.24E-06
   0      8     8.768    20.082    0.68E-04    0.88E-04    0.41E-07
   0      8     8.768     8.597    0.89E-04    0.13E-03    0.59E-07
   1      8     8.768    33.223    0.15E-03    0.53E-04    0.87E-07
   1      8     8.768    15.899    0.14E-03    0.44E-04    0.78E-07
 Optimization of the real space projectors (new method)

 maximal supplied QI-value         = 17.95
 optimisation between [QCUT,QGAM] = [  8.80, 17.59] = [ 21.67, 86.68] Ry 
 Optimized for a Real-space Cutoff    1.59 Angstroem

   l    n(q)    QCUT    max X(q) W(low)/X(q) W(high)/X(q)  e(spline) 
   0      8     8.797   175.082    0.82E-04    0.14E-03    0.89E-07
   0      8     8.797   174.004    0.79E-04    0.14E-03    0.86E-07
   1      8     8.797    54.315    0.16E-03    0.14E-04    0.30E-06
   1      8     8.797    42.441    0.16E-03    0.14E-04    0.30E-06
   2      7     8.797     3.596    0.92E-04    0.15E-03    0.85E-07
  PAW_PBE Cs_sv 08Apr2002               :
 energy of atom  1       EATOM= -555.6835
 kinetic energy error for atom=    0.0069 (will be added to EATOM!!)
  PAW_PBE Pb_d 06Sep2000                :
 energy of atom  2       EATOM=-1661.6185
 kinetic energy error for atom=    0.0498 (will be added to EATOM!!)
  PAW_PBE Br 06Sep2000                  :
 energy of atom  3       EATOM= -368.4488
 kinetic energy error for atom=    0.0072 (will be added to EATOM!!)


 POSCAR: Cs4 Pb4 Br12                            
  positions in direct lattice
  velocities in cartesian coordinates

 METAGGA = SCAN     LMAXTAU =  6    LMIXTAU =  F

 exchange correlation table for  LEXCH =        8
   RHO(1)=    0.500       N(1)  =     2000
   RHO(2)=  100.500       N(2)  =     4000

 VTST: version 3.2, (02/03/18)

 CHAIN: initializing optimizer
 
 OPT: Using VASP Conjugate-Gradient optimizer
 CHAIN: Read ICHAIN            0

 POSCAR: Cs4 Pb4 Br12                            
  positions in direct lattice
  velocities in cartesian coordinates



--------------------------------------------------------------------------------------------------------


 ion  position               nearest neighbor table
   1  0.075  0.250  0.469-
   2  0.425  0.750  0.969-
   3  0.575  0.250  0.031-
   4  0.925  0.750  0.531-
   5  0.000  0.000  0.000-  10 3.00  11 3.00  15 3.02  18 3.02  17 3.04  16 3.04
   6  0.500  0.000  0.500-   9 3.00  12 3.00  16 3.02  17 3.02  18 3.04  15 3.04
   7  0.500  0.500  0.500-   9 3.00  12 3.00  19 3.02  13 3.02  14 3.04  20 3.04
   8  0.000  0.500  0.000-  10 3.00  11 3.00  20 3.02  14 3.02  19 3.04  13 3.04
   9  0.511  0.750  0.438-   6 3.00   7 3.00
  10  0.989  0.250  0.938-   5 3.00   8 3.00
  11  0.011  0.750  0.062-   5 3.00   8 3.00
  12  0.489  0.250  0.562-   6 3.00   7 3.00
  13  0.301  0.466  0.187-   7 3.02   8 3.04
  14  0.199  0.534  0.687-   8 3.02   7 3.04
  15  0.801  0.034  0.313-   5 3.02   6 3.04
  16  0.699  0.966  0.813-   6 3.02   5 3.04
  17  0.301  0.034  0.187-   6 3.02   5 3.04
  18  0.199  0.966  0.687-   5 3.02   6 3.04
  19  0.699  0.534  0.813-   7 3.02   8 3.04
  20  0.801  0.466  0.313-   8 3.02   7 3.04

  LATTYP: Found a simple orthorhombic cell.
 ALAT       =     7.7592956389
 B/A-ratio  =     1.1285584039
 C/A-ratio  =     1.5235204860
  
  Lattice vectors:
  
 A1 = (   0.0000000000,   0.0000000000,   7.7592956389)
 A2 = (  -8.7568183018,   0.0000000000,   0.0000000000)
 A3 = (   0.0000000000, -11.8214458625,   0.0000000000)


Analysis of symmetry for initial positions (statically):
=====================================================================
 Subroutine PRICEL returns:
 Original cell was already a primitive cell.
 

 Routine SETGRP: Setting up the symmetry group for a 
 simple orthorhombic supercell.


 Subroutine GETGRP returns: Found  8 space group operations
 (whereof  2 operations were pure point group operations)
 out of a pool of  8 trial point group operations.


The static configuration has the point symmetry S_2 .
 The point group associated with its full space group is D_2h.


Analysis of symmetry for dynamics (positions and initial velocities):
=====================================================================
 Subroutine PRICEL returns:
 Original cell was already a primitive cell.
 

 Routine SETGRP: Setting up the symmetry group for a 
 simple orthorhombic supercell.


 Subroutine GETGRP returns: Found  8 space group operations
 (whereof  2 operations were pure point group operations)
 out of a pool of  8 trial point group operations.


The dynamic configuration has the point symmetry S_2 .
 The point group associated with its full space group is D_2h.


 Subroutine INISYM returns: Found  8 space group operations
 (whereof  2 operations are pure point group operations),
 and found     1 'primitive' translations



 KPOINTS: 1x1x1                                   

Automatic generation of k-mesh.
Space group operators:
 irot       det(A)        alpha          n_x          n_y          n_z        tau_x        tau_y        tau_z
    1     1.000000     0.000000     1.000000     0.000000     0.000000     0.000000     0.000000     0.000000
    2    -1.000000     0.000000     1.000000     0.000000     0.000000     0.000000     0.000000     0.000000
    3     1.000000   180.000000     0.000000     1.000000     0.000000     0.000000    -0.500000     0.000000
    4    -1.000000   180.000000     0.000000     1.000000     0.000000     0.000000    -0.500000     0.000000
    5     1.000000   180.000000     1.000000     0.000000     0.000000    -0.500000    -0.500000     0.500000
    6    -1.000000   180.000000     1.000000     0.000000     0.000000    -0.500000    -0.500000     0.500000
    7     1.000000   180.000000     0.000000     0.000000     1.000000    -0.500000     0.000000     0.500000
    8    -1.000000   180.000000     0.000000     0.000000     1.000000    -0.500000     0.000000     0.500000
 
 Subroutine IBZKPT returns following result:
 ===========================================
 
 Found      8 irreducible k-points:
 
 Following reciprocal coordinates:
            Coordinates               Weight
  0.000000  0.000000  0.000000      1.000000
  0.333333  0.000000  0.000000      2.000000
  0.000000  0.500000  0.000000      1.000000
  0.333333  0.500000  0.000000      2.000000
  0.000000  0.000000  0.333333      2.000000
  0.333333  0.000000  0.333333      4.000000
  0.000000  0.500000  0.333333      2.000000
  0.333333  0.500000  0.333333      4.000000
 
 Following cartesian coordinates:
            Coordinates               Weight
  0.000000  0.000000  0.000000      1.000000
  0.038066  0.000000  0.000000      2.000000
  0.000000  0.042296  0.000000      1.000000
  0.038066  0.042296  0.000000      2.000000
  0.000000  0.000000  0.042959      2.000000
  0.038066  0.000000  0.042959      4.000000
  0.000000  0.042296  0.042959      2.000000
  0.038066  0.042296  0.042959      4.000000
 


--------------------------------------------------------------------------------------------------------




 Dimension of arrays:
   k-points           NKPTS =      8   k-points in BZ     NKDIM =      8   number of bands    NBANDS=    112
   number of dos      NEDOS =    301   number of ions     NIONS =     20
   non local maximal  LDIM  =      6   non local SUM 2l+1 LMDIM =     18
   total plane-waves  NPLWV = 168000
   max r-space proj   IRMAX =   5579   max aug-charges    IRDMAX=  89026
   dimension x,y,z NGX =    50 NGY =   70 NGZ =   48
   dimension x,y,z NGXF=   100 NGYF=  140 NGZF=   96
   support grid    NGXF=   200 NGYF=  280 NGZF=  192
   ions per type =               4   4  12
   NGX,Y,Z   is equivalent  to a cutoff of   9.49,  9.84, 10.28 a.u.
   NGXF,Y,Z  is equivalent  to a cutoff of  18.98, 19.69, 20.57 a.u.

 SYSTEM =  CsPbBr3 cubic bulk                      
 POSCAR =  Cs4 Pb4 Br12                            

 Startparameter for this run:
   NWRITE =      2    write-flag & timer
   PREC   = accura    normal or accurate (medium, high low for compatibility)
   ISTART =      0    job   : 0-new  1-cont  2-samecut
   ICHARG =      2    charge: 1-file 2-atom 10-const
   ISPIN  =      1    spin polarized calculation?
   LNONCOLLINEAR =      F non collinear calculations
   LSORBIT =      F    spin-orbit coupling
   INIWAV =      1    electr: 0-lowe 1-rand  2-diag
   LASPH  =      T    aspherical Exc in radial PAW
   METAGGA=      F    non-selfconsistent MetaGGA calc.

 Electronic Relaxation 1
   ENCUT  =  300.0 eV  22.05 Ry    4.70 a.u.  12.37 16.70 10.96*2*pi/ulx,y,z
   ENINI  =  300.0     initial cutoff
   ENAUG  =  503.9 eV  augmentation charge cutoff
   NELM   =    200;   NELMIN=  2; NELMDL= -5     # of ELM steps 
   EDIFF  = 0.1E-05   stopping-criterion for ELM
   LREAL  =      T    real-space projection
   NLSPLINE    = F    spline interpolate recip. space projectors
   LCOMPAT=      F    compatible to vasp.4.4
   GGA_COMPAT  = T    GGA compatible to vasp.4.4-vasp.4.6
   LMAXPAW     = -100 max onsite density
   LMAXMIX     =    2 max onsite mixed and CHGCAR
   VOSKOWN=      0    Vosko Wilk Nusair interpolation
   ROPT   =   -0.00025  -0.00025  -0.00025
 Ionic relaxation
   EDIFFG = -.1E-01   stopping-criterion for IOM
   NSW    =      0    number of steps for IOM
   NBLOCK =      1;   KBLOCK =      1    inner block; outer block 
   IBRION =     -1    ionic relax: 0-MD 1-quasi-New 2-CG
   NFREE  =      1    steps in history (QN), initial steepest desc. (CG)
   ISIF   =      3    stress and relaxation
   IWAVPR =     10    prediction:  0-non 1-charg 2-wave 3-comb
   ISYM   =      2    0-nonsym 1-usesym 2-fastsym
   LCORR  =      T    Harris-Foulkes like correction to forces

   POTIM  = 0.5000    time-step for ionic-motion
   TEIN   =    0.0    initial temperature
   TEBEG  =    0.0;   TEEND  =   0.0 temperature during run
   SMASS  =  -3.00    Nose mass-parameter (am)
   estimated Nose-frequenzy (Omega)   =  0.10E-29 period in steps =****** mass=  -0.175E-26a.u.
   SCALEE = 1.0000    scale energy and forces
   NPACO  =    256;   APACO  = 16.0  distance and # of slots for P.C.
   PSTRESS=    0.0 pullay stress

  Mass of Ions in am
   POMASS = 132.90207.20 79.90
  Ionic Valenz
   ZVAL   =   9.00 14.00  7.00
  Atomic Wigner-Seitz radii
   RWIGS  =  -1.00 -1.00 -1.00
  virtual crystal weights 
   VCA    =   1.00  1.00  1.00
   NELECT =     176.0000    total number of electrons
   NUPDOWN=      -1.0000    fix difference up-down

 DOS related values:
   EMIN   =  10.00;   EMAX   =-10.00  energy-range for DOS
   EFERMI =   0.00
   ISMEAR =     0;   SIGMA  =   0.01  broadening in eV -4-tet -1-fermi 0-gaus

 Electronic relaxation 2 (details)
   IALGO  =     38    algorithm
   LDIAG  =      T    sub-space diagonalisation (order eigenvalues)
   LSUBROT=      F    optimize rotation matrix (better conditioning)
   TURBO    =      0    0=normal 1=particle mesh
   IRESTART =      0    0=no restart 2=restart with 2 vectors
   NREBOOT  =      0    no. of reboots
   NMIN     =      0    reboot dimension
   EREF     =   0.00    reference energy to select bands
   IMIX   =      4    mixing-type and parameters
     AMIX     =   0.40;   BMIX     =  1.00
     AMIX_MAG =   1.60;   BMIX_MAG =  1.00
     AMIN     =   0.10
     WC   =   100.;   INIMIX=   1;  MIXPRE=   1;  MAXMIX= -45

 Intra band minimization:
   WEIMIN = 0.0000     energy-eigenvalue tresh-hold
   EBREAK =  0.22E-08  absolut break condition
   DEPER  =   0.30     relativ break condition  

   TIME   =   0.40     timestep for ELM

  volume/ion in A,a.u.               =      40.16       271.02
  Fermi-wavevector in a.u.,A,eV,Ry     =   0.986959  1.865083 13.253285  0.974089
  Thomas-Fermi vector in A             =   2.118378

 Write flags
   LWAVE        =      F    write WAVECAR
   LDOWNSAMPLE  =      F    k-point downsampling of WAVECAR
   LCHARG       =      F    write CHGCAR
   LVTOT        =      F    write LOCPOT, total local potential
   LVHAR        =      T    write LOCPOT, Hartree potential only
   LELF         =      F    write electronic localiz. function (ELF)
   LORBIT       =     10    0 simple, 1 ext, 2 COOP (PROOUT), +10 PAW based schemes


 Dipole corrections
   LMONO  =      F    monopole corrections only (constant potential shift)
   LDIPOL =      F    correct potential (dipole corrections)
   IDIPOL =      0    1-x, 2-y, 3-z, 4-all directions 
   EPSILON=  1.0000000 bulk dielectric constant

 Exchange correlation treatment:
   GGA     =    --    GGA type
   LEXCH   =     8    internal setting for exchange type
   VOSKOWN=      0    Vosko Wilk Nusair interpolation
   LHFCALC =     F    Hartree Fock is set to
   LHFONE  =     F    Hartree Fock one center treatment
   AEXX    =    0.0000 exact exchange contribution

 Linear response parameters
   LEPSILON=     F    determine dielectric tensor
   LRPA    =     F    only Hartree local field effects (RPA)
   LNABLA  =     F    use nabla operator in PAW spheres
   LVEL    =     F    velocity operator in full k-point grid
   LINTERFAST=   F  fast interpolation
   KINTER  =     0    interpolate to denser k-point grid
   CSHIFT  =0.1000    complex shift for real part using Kramers Kronig
   OMEGAMAX=  -1.0    maximum frequency
   DEG_THRESHOLD= 0.2000000E-02 threshold for treating states as degnerate
   RTIME   =   -0.100 relaxation time in fs
  (WPLASMAI=    0.000 imaginary part of plasma frequency in eV, 0.658/RTIME)
   DFIELD  = 0.0000000 0.0000000 0.0000000 field for delta impulse in time

 Orbital magnetization related:
   ORBITALMAG=     F  switch on orbital magnetization
   LCHIMAG   =     F  perturbation theory with respect to B field
   DQ        =  0.001000  dq finite difference perturbation B field
   LLRAUG    =     F  two centre corrections for induced B field



--------------------------------------------------------------------------------------------------------


 Static calculation
 charge density and potential will be updated during run
 non-spin polarized calculation
 Variant of blocked Davidson
 Davidson routine will perform the subspace rotation
 perform sub-space diagonalisation
    after iterative eigenvector-optimisation
 modified Broyden-mixing scheme, WC =      100.0
 initial mixing is a Kerker type mixing with AMIX =  0.4000 and BMIX =      1.0000
 Hartree-type preconditioning will be used
 using additional bands           24
 real space projection scheme for non local part
 use partial core corrections
 calculate Harris-corrections to forces   (improved forces if not selfconsistent)
 use gradient corrections 
 use of overlap-Matrix (Vanderbilt PP)
 Gauss-broadening in eV      SIGMA  =   0.01


--------------------------------------------------------------------------------------------------------


  energy-cutoff  :      300.00
  volume of cell :      803.23
      direct lattice vectors                 reciprocal lattice vectors
     8.756818302  0.000000000  0.000000000     0.114196728  0.000000000  0.000000000
     0.000000000 11.821445862  0.000000000     0.000000000  0.084592021  0.000000000
     0.000000000  0.000000000  7.759295639     0.000000000  0.000000000  0.128877677

  length of vectors
     8.756818302 11.821445862  7.759295639     0.114196728  0.084592021  0.128877677



 k-points in units of 2pi/SCALE and weight: 1x1x1                                   
   0.00000000  0.00000000  0.00000000       0.056
   0.03806558  0.00000000  0.00000000       0.111
   0.00000000  0.04229601  0.00000000       0.056
   0.03806558  0.04229601  0.00000000       0.111
   0.00000000  0.00000000  0.04295923       0.111
   0.03806558  0.00000000  0.04295923       0.222
   0.00000000  0.04229601  0.04295923       0.111
   0.03806558  0.04229601  0.04295923       0.222

 k-points in reciprocal lattice and weights: 1x1x1                                   
   0.00000000  0.00000000  0.00000000       0.056
   0.33333333  0.00000000  0.00000000       0.111
   0.00000000  0.50000000  0.00000000       0.056
   0.33333333  0.50000000  0.00000000       0.111
   0.00000000  0.00000000  0.33333333       0.111
   0.33333333  0.00000000  0.33333333       0.222
   0.00000000  0.50000000  0.33333333       0.111
   0.33333333  0.50000000  0.33333333       0.222

 position of ions in fractional coordinates (direct lattice) 
   0.07489361  0.25000000  0.46873914
   0.42510639  0.75000000  0.96873914
   0.57489361  0.25000000  0.03126086
   0.92510639  0.75000000  0.53126086
   0.00000000  0.00000000  0.00000000
   0.50000000  0.00000000  0.50000000
   0.50000000  0.50000000  0.50000000
   0.00000000  0.50000000  0.00000000
   0.51140379  0.75000000  0.43775081
   0.98859621  0.25000000  0.93775081
   0.01140379  0.75000000  0.06224919
   0.48859621  0.25000000  0.56224919
   0.30087488  0.46608268  0.18720878
   0.19912512  0.53391732  0.68720878
   0.80087488  0.03391732  0.31279122
   0.69912512  0.96608268  0.81279122
   0.30087488  0.03391732  0.18720878
   0.19912512  0.96608268  0.68720878
   0.69912512  0.53391732  0.81279122
   0.80087488  0.46608268  0.31279122

 position of ions in cartesian coordinates  (Angst):
   0.65582975  2.95536147  3.63708560
   3.72257940  8.86608440  7.51673342
   5.03423890  2.95536147  0.24256222
   8.10098855  8.86608440  4.12221004
   0.00000000  0.00000000  0.00000000
   4.37840915  0.00000000  3.87964782
   4.37840915  5.91072293  3.87964782
   0.00000000  5.91072293  0.00000000
   4.47827006  8.86608440  3.39663792
   8.65695739  2.95536147  7.27628574
   0.09986091  8.86608440  0.48300990
   4.27854824  2.95536147  4.36265772
   2.63470669  5.50977112  1.45260824
   1.74370246  6.31167474  5.33225606
   7.01311584  0.40095181  2.42703958
   6.12211161 11.42049405  6.30668740
   2.63470669  0.40095181  1.45260824
   1.74370246 11.42049405  5.33225606
   6.12211161  6.31167474  6.30668740
   7.01311584  5.50977112  2.42703958



--------------------------------------------------------------------------------------------------------


 k-point  1 :   0.0000 0.0000 0.0000  plane waves:    9477
 k-point  2 :   0.3333 0.0000 0.0000  plane waves:    9445
 k-point  3 :   0.0000 0.5000 0.0000  plane waves:    9474
 k-point  4 :   0.3333 0.5000 0.0000  plane waves:    9470
 k-point  5 :   0.0000 0.0000 0.3333  plane waves:    9492
 k-point  6 :   0.3333 0.0000 0.3333  plane waves:    9497
 k-point  7 :   0.0000 0.5000 0.3333  plane waves:    9496
 k-point  8 :   0.3333 0.5000 0.3333  plane waves:    9476

 maximum and minimum number of plane-waves per node :      1204     1164

 maximum number of plane-waves:      9497
 maximum index in each direction: 
   IXMAX=   12   IYMAX=   16   IZMAX=   10
   IXMIN=  -12   IYMIN=  -17   IZMIN=  -11


 real space projection operators:
  total allocation   :       8303.00 KBytes
  max/ min on nodes  :       1162.25        955.84


 parallel 3D FFT for wavefunctions:
    minimum data exchange during FFTs selected (reduces bandwidth)
 parallel 3D FFT for charge:
    minimum data exchange during FFTs selected (reduces bandwidth)


 total amount of memory used by VASP MPI-rank0    43698. kBytes
=======================================================================

   base      :      30000. kBytes
   nonlr-proj:       3318. kBytes
   fftplans  :       4445. kBytes
   grid      :       3667. kBytes
   one-center:         46. kBytes
   wavefun   :       2222. kBytes

     INWAV:  cpu time    0.0000: real time    0.0000
 Broyden mixing: mesh for mixing (old mesh)
   NGX = 25   NGY = 33   NGZ = 21
  (NGX  =100   NGY  =140   NGZ  = 96)
  gives a total of  17325 points

 initial charge density was supplied:
 charge density of overlapping atoms calculated
 number of electron     176.0000000 magnetization 
 keeping initial charge density in first step


--------------------------------------------------------------------------------------------------------


 Maximum index for non-local projection operator          968
 Maximum index for augmentation-charges         4682 (set IRDMAX)


--------------------------------------------------------------------------------------------------------


 First call to EWALD:  gamma=   0.191
 Maximum number of real-space cells 3x 2x 3
 Maximum number of reciprocal cells 3x 3x 2

    FEWALD:  cpu time    0.0021: real time    0.0021


--------------------------------------- Iteration      1(   1)  ---------------------------------------


    POTLOK:  cpu time    0.1306: real time    0.1306
    SETDIJ:  cpu time    1.0948: real time    1.0949
     EDDAV:  cpu time    4.3554: real time    4.3608
       DOS:  cpu time    0.0006: real time    0.0006
    --------------------------------------------
      LOOP:  cpu time    5.5815: real time    5.5870

 eigenvalue-minimisations  :  1848
 total energy-change (2. order) : 0.6588084E+03  (-0.5621130E+04)
 number of electron     176.0000000 magnetization 
 augmentation part      176.0000000 magnetization 

 Free energy of the ion-electron system (eV)
  ---------------------------------------------------
  alpha Z        PSCENC =       449.19824083
  Ewald energy   TEWEN  =     -9229.90620338
  -Hartree energ DENC   =     -3652.28468895
  -exchange      EXHF   =         0.00000000
  -V(xc)+E(xc)   XCENC  =       461.89283339
  PAW double counting   =     10816.98087266   -11353.96092700
  entropy T*S    EENTRO =        -0.00100308
  eigenvalues    EBANDS =      -123.39082592
  atomic energy  EATOM  =     13290.28009929
  Solvation  Ediel_sol  =         0.00000000
  ---------------------------------------------------
  free energy    TOTEN  =       658.80839784 eV

  energy without entropy =      658.80940092  energy(sigma->0) =      658.80889938


--------------------------------------------------------------------------------------------------------




--------------------------------------- Iteration      1(   2)  ---------------------------------------


     EDDAV:  cpu time    4.8842: real time    4.9086
       DOS:  cpu time    0.0003: real time    0.0003
    --------------------------------------------
      LOOP:  cpu time    4.8845: real time    4.9089

 eigenvalue-minimisations  :  2184
 total energy-change (2. order) :-0.1235952E+04  (-0.1187058E+04)
 number of electron     176.0000000 magnetization 
 augmentation part      176.0000000 magnetization 

 Free energy of the ion-electron system (eV)
  ---------------------------------------------------
  alpha Z        PSCENC =       449.19824083
  Ewald energy   TEWEN  =     -9229.90620338
  -Hartree energ DENC   =     -3652.28468895
  -exchange      EXHF   =         0.00000000
  -V(xc)+E(xc)   XCENC  =       461.89283339
  PAW double counting   =     10816.98087266   -11353.96092700
  entropy T*S    EENTRO =        -0.00000000
  eigenvalues    EBANDS =     -1359.34428329
  atomic energy  EATOM  =     13290.28009929
  Solvation  Ediel_sol  =         0.00000000
  ---------------------------------------------------
  free energy    TOTEN  =      -577.14405645 eV

  energy without entropy =     -577.14405645  energy(sigma->0) =     -577.14405645


--------------------------------------------------------------------------------------------------------




--------------------------------------- Iteration      1(   3)  ---------------------------------------


     EDDAV:  cpu time    5.2384: real time    5.2521
       DOS:  cpu time    0.0003: real time    0.0003
    --------------------------------------------
      LOOP:  cpu time    5.2387: real time    5.2524

 eigenvalue-minimisations  :  2424
 total energy-change (2. order) :-0.1718449E+03  (-0.1707945E+03)
 number of electron     176.0000000 magnetization 
 augmentation part      176.0000000 magnetization 

 Free energy of the ion-electron system (eV)
  ---------------------------------------------------
  alpha Z        PSCENC =       449.19824083
  Ewald energy   TEWEN  =     -9229.90620338
  -Hartree energ DENC   =     -3652.28468895
  -exchange      EXHF   =         0.00000000
  -V(xc)+E(xc)   XCENC  =       461.89283339
  PAW double counting   =     10816.98087266   -11353.96092700
  entropy T*S    EENTRO =        -0.00000000
  eigenvalues    EBANDS =     -1531.18919495
  atomic energy  EATOM  =     13290.28009929
  Solvation  Ediel_sol  =         0.00000000
  ---------------------------------------------------
  free energy    TOTEN  =      -748.98896812 eV

  energy without entropy =     -748.98896812  energy(sigma->0) =     -748.98896812


--------------------------------------------------------------------------------------------------------




--------------------------------------- Iteration      1(   4)  ---------------------------------------


     EDDAV:  cpu time    4.8643: real time    4.8799
       DOS:  cpu time    0.0003: real time    0.0003
    --------------------------------------------
      LOOP:  cpu time    4.8646: real time    4.8802

 eigenvalue-minimisations  :  2168
 total energy-change (2. order) :-0.5591549E+01  (-0.5572508E+01)
 number of electron     176.0000000 magnetization 
 augmentation part      176.0000000 magnetization 

 Free energy of the ion-electron system (eV)
  ---------------------------------------------------
  alpha Z        PSCENC =       449.19824083
  Ewald energy   TEWEN  =     -9229.90620338
  -Hartree energ DENC   =     -3652.28468895
  -exchange      EXHF   =         0.00000000
  -V(xc)+E(xc)   XCENC  =       461.89283339
  PAW double counting   =     10816.98087266   -11353.96092700
  entropy T*S    EENTRO =        -0.00000000
  eigenvalues    EBANDS =     -1536.78074407
  atomic energy  EATOM  =     13290.28009929
  Solvation  Ediel_sol  =         0.00000000
  ---------------------------------------------------
  free energy    TOTEN  =      -754.58051723 eV

  energy without entropy =     -754.58051723  energy(sigma->0) =     -754.58051723


--------------------------------------------------------------------------------------------------------




--------------------------------------- Iteration      1(   5)  ---------------------------------------


     EDDAV:  cpu time    5.0929: real time    5.1156
       DOS:  cpu time    0.0004: real time    0.0004
    CHARGE:  cpu time    0.9580: real time    0.9580
    MIXING:  cpu time    0.0009: real time    0.0009
    --------------------------------------------
      LOOP:  cpu time    6.0521: real time    6.0749

 eigenvalue-minimisations  :  2352
 total energy-change (2. order) :-0.2615355E+00  (-0.2613738E+00)
 number of electron     176.0000000 magnetization 
 augmentation part       -3.2396145 magnetization 

 Broyden mixing:
  rms(total) = 0.69827E+00    rms(broyden)= 0.69801E+00
  rms(prec ) = 0.97597E+00
  weight for this iteration     100.00

 Free energy of the ion-electron system (eV)
  ---------------------------------------------------
  alpha Z        PSCENC =       449.19824083
  Ewald energy   TEWEN  =     -9229.90620338
  -Hartree energ DENC   =     -3652.28468895
  -exchange      EXHF   =         0.00000000
  -V(xc)+E(xc)   XCENC  =       461.89283339
  PAW double counting   =     10816.98087266   -11353.96092700
  entropy T*S    EENTRO =        -0.00000000
  eigenvalues    EBANDS =     -1537.04227954
  atomic energy  EATOM  =     13290.28009929
  Solvation  Ediel_sol  =         0.00000000
  ---------------------------------------------------
  free energy    TOTEN  =      -754.84205270 eV

  energy without entropy =     -754.84205270  energy(sigma->0) =     -754.84205270


--------------------------------------------------------------------------------------------------------




--------------------------------------- Iteration      1(   6)  ---------------------------------------


    POTLOK:  cpu time    0.1195: real time    0.1880
    SETDIJ:  cpu time    1.1038: real time    1.1039
     EDDAV:  cpu time    5.1326: real time    5.1329
       DOS:  cpu time    0.0004: real time    0.0004
    CHARGE:  cpu time    0.9258: real time    0.9258
    MIXING:  cpu time    0.0009: real time    0.0009
    --------------------------------------------
      LOOP:  cpu time    7.2831: real time    7.3520

 eigenvalue-minimisations  :  2392
 total energy-change (2. order) : 0.3987644E+02  (-0.1191058E+01)
 number of electron     176.0000000 magnetization 
 augmentation part       -2.5166124 magnetization 

 Broyden mixing:
  rms(total) = 0.49721E+00    rms(broyden)= 0.49713E+00
  rms(prec ) = 0.62116E+00
  weight for this iteration     100.00

 eigenvalues of (default mixing * dielectric matrix)
  average eigenvalue GAMMA=   1.1529
  1.1529

 Free energy of the ion-electron system (eV)
  ---------------------------------------------------
  alpha Z        PSCENC =       449.19824083
  Ewald energy   TEWEN  =     -9229.90620338
  -Hartree energ DENC   =     -3641.70491830
  -exchange      EXHF   =         0.00000000
  -V(xc)+E(xc)   XCENC  =       477.36894980
  PAW double counting   =     10954.72118648   -11490.68273109
  entropy T*S    EENTRO =        -0.00000000
  eigenvalues    EBANDS =     -1524.24023382
  atomic energy  EATOM  =     13290.28009929
  Solvation  Ediel_sol  =         0.00000000
  ---------------------------------------------------
  free energy    TOTEN  =      -714.96561019 eV

  energy without entropy =     -714.96561019  energy(sigma->0) =     -714.96561019


--------------------------------------------------------------------------------------------------------




--------------------------------------- Iteration      1(   7)  ---------------------------------------


    POTLOK:  cpu time    0.1691: real time    0.1721
    SETDIJ:  cpu time    1.0992: real time    1.0993
     EDDAV:  cpu time    4.9762: real time    4.9765
       DOS:  cpu time    0.0003: real time    0.0003
    CHARGE:  cpu time    0.9206: real time    0.9206
    MIXING:  cpu time    0.0010: real time    0.0010
    --------------------------------------------
      LOOP:  cpu time    7.1663: real time    7.1698

 eigenvalue-minimisations  :  2280
 total energy-change (2. order) : 0.2392831E+00  (-0.3936857E+00)
 number of electron     176.0000000 magnetization 
 augmentation part       -2.2488502 magnetization 

 Broyden mixing:
  rms(total) = 0.26013E+00    rms(broyden)= 0.26011E+00
  rms(prec ) = 0.28533E+00
  weight for this iteration     100.00

 eigenvalues of (default mixing * dielectric matrix)
  average eigenvalue GAMMA=   1.3122
  1.3122  1.3122

 Free energy of the ion-electron system (eV)
  ---------------------------------------------------
  alpha Z        PSCENC =       449.19824083
  Ewald energy   TEWEN  =     -9229.90620338
  -Hartree energ DENC   =     -3660.85409291
  -exchange      EXHF   =         0.00000000
  -V(xc)+E(xc)   XCENC  =       479.93218379
  PAW double counting   =     11255.57944043   -11790.54811823
  entropy T*S    EENTRO =        -0.00000000
  eigenvalues    EBANDS =     -1508.40787694
  atomic energy  EATOM  =     13290.28009929
  Solvation  Ediel_sol  =         0.00000000
  ---------------------------------------------------
  free energy    TOTEN  =      -714.72632711 eV

  energy without entropy =     -714.72632711  energy(sigma->0) =     -714.72632711


--------------------------------------------------------------------------------------------------------




--------------------------------------- Iteration      1(   8)  ---------------------------------------


    POTLOK:  cpu time    0.1582: real time    0.1809
    SETDIJ:  cpu time    1.0982: real time    1.0982
     EDDAV:  cpu time    4.7326: real time    4.7327
       DOS:  cpu time    0.0004: real time    0.0004
    CHARGE:  cpu time    0.9230: real time    0.9231
    MIXING:  cpu time    0.0009: real time    0.0009
    --------------------------------------------
      LOOP:  cpu time    6.9134: real time    6.9364

 eigenvalue-minimisations  :  2112
 total energy-change (2. order) :-0.9529851E-01  (-0.1857274E-01)
 number of electron     176.0000000 magnetization 
 augmentation part       -2.2930808 magnetization 

 Broyden mixing:
  rms(total) = 0.14857E+00    rms(broyden)= 0.14856E+00
  rms(prec ) = 0.16496E+00
  weight for this iteration     100.00

 eigenvalues of (default mixing * dielectric matrix)
  average eigenvalue GAMMA=   1.7002
  1.1086  1.3079  2.6840

 Free energy of the ion-electron system (eV)
  ---------------------------------------------------
  alpha Z        PSCENC =       449.19824083
  Ewald energy   TEWEN  =     -9229.90620338
  -Hartree energ DENC   =     -3662.82372157
  -exchange      EXHF   =         0.00000000
  -V(xc)+E(xc)   XCENC  =       480.28906917
  PAW double counting   =     11374.73043281   -11909.84645270
  entropy T*S    EENTRO =        -0.00000000
  eigenvalues    EBANDS =     -1506.74309007
  atomic energy  EATOM  =     13290.28009929
  Solvation  Ediel_sol  =         0.00000000
  ---------------------------------------------------
  free energy    TOTEN  =      -714.82162562 eV

  energy without entropy =     -714.82162562  energy(sigma->0) =     -714.82162562


--------------------------------------------------------------------------------------------------------




--------------------------------------- Iteration      1(   9)  ---------------------------------------


    POTLOK:  cpu time    0.1398: real time    0.1647
    SETDIJ:  cpu time    1.0993: real time    1.0994
     EDDAV:  cpu time    4.5342: real time    4.5343
       DOS:  cpu time    0.0007: real time    0.0007
    CHARGE:  cpu time    0.9220: real time    0.9221
    MIXING:  cpu time    0.0009: real time    0.0009
    --------------------------------------------
      LOOP:  cpu time    6.6969: real time    6.7221

 eigenvalue-minimisations  :  1976
 total energy-change (2. order) :-0.3962390E-01  (-0.8419576E-02)
 number of electron     176.0000000 magnetization 
 augmentation part       -2.3153713 magnetization 

 Broyden mixing:
  rms(total) = 0.31690E-01    rms(broyden)= 0.31686E-01
  rms(prec ) = 0.34122E-01
  weight for this iteration     100.00

 eigenvalues of (default mixing * dielectric matrix)
  average eigenvalue GAMMA=   1.4645
  2.5320  1.2458  1.2458  0.8344

 Free energy of the ion-electron system (eV)
  ---------------------------------------------------
  alpha Z        PSCENC =       449.19824083
  Ewald energy   TEWEN  =     -9229.90620338
  -Hartree energ DENC   =     -3665.16448387
  -exchange      EXHF   =         0.00000000
  -V(xc)+E(xc)   XCENC  =       481.27901483
  PAW double counting   =     11542.02815380   -12077.50042418
  entropy T*S    EENTRO =        -0.00000000
  eigenvalues    EBANDS =     -1505.07564685
  atomic energy  EATOM  =     13290.28009929
  Solvation  Ediel_sol  =         0.00000000
  ---------------------------------------------------
  free energy    TOTEN  =      -714.86124952 eV

  energy without entropy =     -714.86124952  energy(sigma->0) =     -714.86124952


--------------------------------------------------------------------------------------------------------




--------------------------------------- Iteration      1(  10)  ---------------------------------------


    POTLOK:  cpu time    0.1371: real time    0.1710
    SETDIJ:  cpu time    1.1006: real time    1.1007
     EDDAV:  cpu time    5.4125: real time    5.4128
       DOS:  cpu time    0.0004: real time    0.0004
    CHARGE:  cpu time    0.9229: real time    0.9229
    MIXING:  cpu time    0.0010: real time    0.0010
    --------------------------------------------
      LOOP:  cpu time    7.5745: real time    7.6087

 eigenvalue-minimisations  :  2584
 total energy-change (2. order) :-0.1045192E-02  (-0.5540039E-03)
 number of electron     176.0000000 magnetization 
 augmentation part       -2.3085513 magnetization 

 Broyden mixing:
  rms(total) = 0.18569E-01    rms(broyden)= 0.18568E-01
  rms(prec ) = 0.20834E-01
  weight for this iteration     100.00

 eigenvalues of (default mixing * dielectric matrix)
  average eigenvalue GAMMA=   1.6155
  2.4797  2.4797  1.1355  1.1355  0.8472

 Free energy of the ion-electron system (eV)
  ---------------------------------------------------
  alpha Z        PSCENC =       449.19824083
  Ewald energy   TEWEN  =     -9229.90620338
  -Hartree energ DENC   =     -3664.25975024
  -exchange      EXHF   =         0.00000000
  -V(xc)+E(xc)   XCENC  =       481.17908324
  PAW double counting   =     11525.18567677   -12060.70714175
  entropy T*S    EENTRO =        -0.00000000
  eigenvalues    EBANDS =     -1505.83229948
  atomic energy  EATOM  =     13290.28009929
  Solvation  Ediel_sol  =         0.00000000
  ---------------------------------------------------
  free energy    TOTEN  =      -714.86229471 eV

  energy without entropy =     -714.86229471  energy(sigma->0) =     -714.86229471


--------------------------------------------------------------------------------------------------------




--------------------------------------- Iteration      1(  11)  ---------------------------------------


    POTLOK:  cpu time    0.1621: real time    0.1632
    SETDIJ:  cpu time    1.0997: real time    1.0997
     EDDAV:  cpu time    4.5282: real time    4.5283
       DOS:  cpu time    0.0004: real time    0.0004
    CHARGE:  cpu time    0.9187: real time    0.9188
    MIXING:  cpu time    0.0010: real time    0.0010
    --------------------------------------------
      LOOP:  cpu time    6.7101: real time    6.7114

 eigenvalue-minimisations  :  1976
 total energy-change (2. order) :-0.1682054E-02  (-0.1981895E-03)
 number of electron     176.0000000 magnetization 
 augmentation part       -2.3085781 magnetization 

 Broyden mixing:
  rms(total) = 0.70339E-02    rms(broyden)= 0.70335E-02
  rms(prec ) = 0.85847E-02
  weight for this iteration     100.00

 eigenvalues of (default mixing * dielectric matrix)
  average eigenvalue GAMMA=   1.5824
  2.6179  2.6179  1.2162  1.2162  0.9131  0.9131

 Free energy of the ion-electron system (eV)
  ---------------------------------------------------
  alpha Z        PSCENC =       449.19824083
  Ewald energy   TEWEN  =     -9229.90620338
  -Hartree energ DENC   =     -3662.83454426
  -exchange      EXHF   =         0.00000000
  -V(xc)+E(xc)   XCENC  =       481.12869606
  PAW double counting   =     11510.47355684   -12046.18216242
  entropy T*S    EENTRO =        -0.00000000
  eigenvalues    EBANDS =     -1507.02165973
  atomic energy  EATOM  =     13290.28009929
  Solvation  Ediel_sol  =         0.00000000
  ---------------------------------------------------
  free energy    TOTEN  =      -714.86397677 eV

  energy without entropy =     -714.86397677  energy(sigma->0) =     -714.86397677


--------------------------------------------------------------------------------------------------------




--------------------------------------- Iteration      1(  12)  ---------------------------------------


    POTLOK:  cpu time    0.1255: real time    0.1690
    SETDIJ:  cpu time    1.0993: real time    1.0993
     EDDAV:  cpu time    4.9291: real time    4.9293
       DOS:  cpu time    0.0005: real time    0.0005
    CHARGE:  cpu time    0.9212: real time    0.9212
    MIXING:  cpu time    0.0011: real time    0.0011
    --------------------------------------------
      LOOP:  cpu time    7.0766: real time    7.1204

 eigenvalue-minimisations  :  2248
 total energy-change (2. order) : 0.2614044E-04  (-0.4752262E-04)
 number of electron     176.0000000 magnetization 
 augmentation part       -2.3102790 magnetization 

 Broyden mixing:
  rms(total) = 0.22651E-02    rms(broyden)= 0.22646E-02
  rms(prec ) = 0.26361E-02
  weight for this iteration     100.00

 eigenvalues of (default mixing * dielectric matrix)
  average eigenvalue GAMMA=   1.6228
  3.0523  2.2593  1.9101  0.9504  0.9504  1.1452  1.0922

 Free energy of the ion-electron system (eV)
  ---------------------------------------------------
  alpha Z        PSCENC =       449.19824083
  Ewald energy   TEWEN  =     -9229.90620338
  -Hartree energ DENC   =     -3663.03897062
  -exchange      EXHF   =         0.00000000
  -V(xc)+E(xc)   XCENC  =       481.19032865
  PAW double counting   =     11515.93504492   -12051.68373012
  entropy T*S    EENTRO =        -0.00000000
  eigenvalues    EBANDS =     -1506.83876021
  atomic energy  EATOM  =     13290.28009929
  Solvation  Ediel_sol  =         0.00000000
  ---------------------------------------------------
  free energy    TOTEN  =      -714.86395063 eV

  energy without entropy =     -714.86395063  energy(sigma->0) =     -714.86395063


--------------------------------------------------------------------------------------------------------




--------------------------------------- Iteration      1(  13)  ---------------------------------------


    POTLOK:  cpu time    0.1421: real time    0.1665
    SETDIJ:  cpu time    1.0997: real time    1.0997
     EDDAV:  cpu time    4.7899: real time    4.7900
       DOS:  cpu time    0.0004: real time    0.0004
    CHARGE:  cpu time    0.9189: real time    0.9189
    MIXING:  cpu time    0.0013: real time    0.0013
    --------------------------------------------
      LOOP:  cpu time    6.9522: real time    6.9768

 eigenvalue-minimisations  :  2160
 total energy-change (2. order) : 0.1321455E-04  (-0.5334293E-05)
 number of electron     176.0000000 magnetization 
 augmentation part       -2.3102216 magnetization 

 Broyden mixing:
  rms(total) = 0.72414E-03    rms(broyden)= 0.72399E-03
  rms(prec ) = 0.79922E-03
  weight for this iteration     100.00

 eigenvalues of (default mixing * dielectric matrix)
  average eigenvalue GAMMA=   1.6260
  3.0001  2.4590  2.0732  1.2754  1.2754  0.9455  0.9897  0.9897

 Free energy of the ion-electron system (eV)
  ---------------------------------------------------
  alpha Z        PSCENC =       449.19824083
  Ewald energy   TEWEN  =     -9229.90620338
  -Hartree energ DENC   =     -3663.21022195
  -exchange      EXHF   =         0.00000000
  -V(xc)+E(xc)   XCENC  =       481.20480917
  PAW double counting   =     11515.19711378   -12050.94890142
  entropy T*S    EENTRO =        -0.00000000
  eigenvalues    EBANDS =     -1506.67887373
  atomic energy  EATOM  =     13290.28009929
  Solvation  Ediel_sol  =         0.00000000
  ---------------------------------------------------
  free energy    TOTEN  =      -714.86393741 eV

  energy without entropy =     -714.86393741  energy(sigma->0) =     -714.86393741


--------------------------------------------------------------------------------------------------------




--------------------------------------- Iteration      1(  14)  ---------------------------------------


    POTLOK:  cpu time    0.1301: real time    0.1579
    SETDIJ:  cpu time    1.0997: real time    1.0998
     EDDAV:  cpu time    4.3031: real time    4.3032
       DOS:  cpu time    0.0006: real time    0.0006
    CHARGE:  cpu time    0.9205: real time    0.9206
    MIXING:  cpu time    0.0011: real time    0.0011
    --------------------------------------------
      LOOP:  cpu time    6.4552: real time    6.4832

 eigenvalue-minimisations  :  1792
 total energy-change (2. order) :-0.2098585E-04  (-0.3075056E-06)
 number of electron     176.0000000 magnetization 
 augmentation part       -2.3100299 magnetization 

 Broyden mixing:
  rms(total) = 0.22076E-03    rms(broyden)= 0.22064E-03
  rms(prec ) = 0.26670E-03
  weight for this iteration     100.00

 eigenvalues of (default mixing * dielectric matrix)
  average eigenvalue GAMMA=   1.6745
  2.9389  2.5318  2.2481  2.1242  1.1509  1.1509  0.9408  0.9926  0.9926

 Free energy of the ion-electron system (eV)
  ---------------------------------------------------
  alpha Z        PSCENC =       449.19824083
  Ewald energy   TEWEN  =     -9229.90620338
  -Hartree energ DENC   =     -3663.22068950
  -exchange      EXHF   =         0.00000000
  -V(xc)+E(xc)   XCENC  =       481.20437187
  PAW double counting   =     11514.71422470   -12050.46478068
  entropy T*S    EENTRO =        -0.00000000
  eigenvalues    EBANDS =     -1506.66922153
  atomic energy  EATOM  =     13290.28009929
  Solvation  Ediel_sol  =         0.00000000
  ---------------------------------------------------
  free energy    TOTEN  =      -714.86395840 eV

  energy without entropy =     -714.86395840  energy(sigma->0) =     -714.86395840


--------------------------------------------------------------------------------------------------------




--------------------------------------- Iteration      1(  15)  ---------------------------------------


    POTLOK:  cpu time    0.1584: real time    0.1686
    SETDIJ:  cpu time    1.0997: real time    1.0997
     EDDAV:  cpu time    3.4999: real time    3.5001
       DOS:  cpu time    0.0004: real time    0.0004
    CHARGE:  cpu time    0.9188: real time    0.9189
    MIXING:  cpu time    0.0012: real time    0.0012
    --------------------------------------------
      LOOP:  cpu time    5.6783: real time    5.6888

 eigenvalue-minimisations  :  1224
 total energy-change (2. order) :-0.1968985E-05  (-0.5056824E-07)
 number of electron     176.0000000 magnetization 
 augmentation part       -2.3100406 magnetization 

 Broyden mixing:
  rms(total) = 0.66910E-04    rms(broyden)= 0.66657E-04
  rms(prec ) = 0.83668E-04
  weight for this iteration     100.00

 eigenvalues of (default mixing * dielectric matrix)
  average eigenvalue GAMMA=   1.6681
  3.1687  2.6593  2.5483  1.8570  1.2406  1.2406  0.9888  0.9888  0.9947  0.9947

 Free energy of the ion-electron system (eV)
  ---------------------------------------------------
  alpha Z        PSCENC =       449.19824083
  Ewald energy   TEWEN  =     -9229.90620338
  -Hartree energ DENC   =     -3663.20960313
  -exchange      EXHF   =         0.00000000
  -V(xc)+E(xc)   XCENC  =       481.20365337
  PAW double counting   =     11514.77505025   -12050.52525180
  entropy T*S    EENTRO =        -0.00000000
  eigenvalues    EBANDS =     -1506.67994581
  atomic energy  EATOM  =     13290.28009929
  Solvation  Ediel_sol  =         0.00000000
  ---------------------------------------------------
  free energy    TOTEN  =      -714.86396037 eV

  energy without entropy =     -714.86396037  energy(sigma->0) =     -714.86396037


--------------------------------------------------------------------------------------------------------




--------------------------------------- Iteration      1(  16)  ---------------------------------------


    POTLOK:  cpu time    0.1743: real time    0.1757
    SETDIJ:  cpu time    1.0986: real time    1.0986
     EDDAV:  cpu time    3.5983: real time    3.5984
       DOS:  cpu time    0.0004: real time    0.0004
    CHARGE:  cpu time    0.9214: real time    0.9215
    MIXING:  cpu time    0.0012: real time    0.0012
    --------------------------------------------
      LOOP:  cpu time    5.7942: real time    5.7958

 eigenvalue-minimisations  :  1288
 total energy-change (2. order) : 0.2531547E-05  (-0.1850475E-07)
 number of electron     176.0000000 magnetization 
 augmentation part       -2.3100912 magnetization 

 Broyden mixing:
  rms(total) = 0.34988E-04    rms(broyden)= 0.34524E-04
  rms(prec ) = 0.39834E-04
  weight for this iteration     100.00

 eigenvalues of (default mixing * dielectric matrix)
  average eigenvalue GAMMA=   1.7174
  2.9872  2.9872  2.6710  2.0057  2.0057  1.1855  1.1855  0.9922  0.9922  0.9400
  0.9400

 Free energy of the ion-electron system (eV)
  ---------------------------------------------------
  alpha Z        PSCENC =       449.19824083
  Ewald energy   TEWEN  =     -9229.90620338
  -Hartree energ DENC   =     -3663.21579757
  -exchange      EXHF   =         0.00000000
  -V(xc)+E(xc)   XCENC  =       481.20416355
  PAW double counting   =     11514.76252195   -12050.51251485
  entropy T*S    EENTRO =        -0.00000000
  eigenvalues    EBANDS =     -1506.67446766
  atomic energy  EATOM  =     13290.28009929
  Solvation  Ediel_sol  =         0.00000000
  ---------------------------------------------------
  free energy    TOTEN  =      -714.86395784 eV

  energy without entropy =     -714.86395784  energy(sigma->0) =     -714.86395784


--------------------------------------------------------------------------------------------------------




--------------------------------------- Iteration      1(  17)  ---------------------------------------


    POTLOK:  cpu time    0.1485: real time    0.1643
    SETDIJ:  cpu time    1.0984: real time    1.0984
     EDDAV:  cpu time    3.3694: real time    3.3697
       DOS:  cpu time    0.0004: real time    0.0004
    CHARGE:  cpu time    0.9230: real time    0.9230
    MIXING:  cpu time    0.0012: real time    0.0012
    --------------------------------------------
      LOOP:  cpu time    5.5409: real time    5.5571

 eigenvalue-minimisations  :  1128
 total energy-change (2. order) : 0.1129220E-05  (-0.1616537E-07)
 number of electron     176.0000000 magnetization 
 augmentation part       -2.3100649 magnetization 

 Broyden mixing:
  rms(total) = 0.29673E-04    rms(broyden)= 0.29131E-04
  rms(prec ) = 0.31037E-04
  weight for this iteration     100.00

 eigenvalues of (default mixing * dielectric matrix)
  average eigenvalue GAMMA=   1.6036
  3.0934  3.0934  2.5655  1.9833  1.9833  1.1842  1.1842  0.9910  0.9910  0.9377
  0.9377  0.2983

 Free energy of the ion-electron system (eV)
  ---------------------------------------------------
  alpha Z        PSCENC =       449.19824083
  Ewald energy   TEWEN  =     -9229.90620338
  -Hartree energ DENC   =     -3663.21822251
  -exchange      EXHF   =         0.00000000
  -V(xc)+E(xc)   XCENC  =       481.20432924
  PAW double counting   =     11514.75457057   -12050.50545584
  entropy T*S    EENTRO =        -0.00000000
  eigenvalues    EBANDS =     -1506.67131491
  atomic energy  EATOM  =     13290.28009929
  Solvation  Ediel_sol  =         0.00000000
  ---------------------------------------------------
  free energy    TOTEN  =      -714.86395671 eV

  energy without entropy =     -714.86395671  energy(sigma->0) =     -714.86395671


--------------------------------------------------------------------------------------------------------




--------------------------------------- Iteration      1(  18)  ---------------------------------------


    POTLOK:  cpu time    0.1207: real time    0.1610
    SETDIJ:  cpu time    1.0994: real time    1.0995
     EDDAV:  cpu time    3.3474: real time    3.3475
       DOS:  cpu time    0.0003: real time    0.0003
    --------------------------------------------
      LOOP:  cpu time    4.5677: real time    4.6082

 eigenvalue-minimisations  :  1112
 total energy-change (2. order) : 0.1285655E-06  (-0.9125796E-08)
 number of electron     176.0000000 magnetization 
 augmentation part       -2.3100649 magnetization 

 Free energy of the ion-electron system (eV)
  ---------------------------------------------------
  alpha Z        PSCENC =       449.19824083
  Ewald energy   TEWEN  =     -9229.90620338
  -Hartree energ DENC   =     -3663.21832123
  -exchange      EXHF   =         0.00000000
  -V(xc)+E(xc)   XCENC  =       481.20429282
  PAW double counting   =     11514.75036782   -12050.50020778
  entropy T*S    EENTRO =        -0.00000000
  eigenvalues    EBANDS =     -1506.67222495
  atomic energy  EATOM  =     13290.28009929
  Solvation  Ediel_sol  =         0.00000000
  ---------------------------------------------------
  free energy    TOTEN  =      -714.86395658 eV

  energy without entropy =     -714.86395658  energy(sigma->0) =     -714.86395658


--------------------------------------------------------------------------------------------------------




 average (electrostatic) potential at core
  the test charge radii are     1.1312  1.1541  1.0178
  (the norm of the test charge is              1.0000)
       1 -55.2246       2 -55.2246       3 -55.2246       4 -55.2246       5-101.7162
       6-101.7162       7-101.7162       8-101.7162       9 -69.0201      10 -69.0201
      11 -69.0201      12 -69.0201      13 -68.9580      14 -68.9580      15 -68.9580
      16 -68.9580      17 -68.9580      18 -68.9580      19 -68.9580      20 -68.9580



 E-fermi :   0.4592     XC(G=0):  -8.0756     alpha+bet : -7.0472


 k-point     1 :       0.0000    0.0000    0.0000
  band No.  band energies     occupation 
      1     -20.7570      2.00000
      2     -20.7553      2.00000
      3     -20.7527      2.00000
      4     -20.7516      2.00000
      5     -16.5256      2.00000
      6     -16.5040      2.00000
      7     -16.5032      2.00000
      8     -16.5028      2.00000
      9     -16.4686      2.00000
     10     -16.4421      2.00000
     11     -16.4281      2.00000
     12     -16.4280      2.00000
     13     -16.3836      2.00000
     14     -16.3828      2.00000
     15     -16.3824      2.00000
     16     -16.3821      2.00000
     17     -16.3688      2.00000
     18     -16.3687      2.00000
     19     -16.3684      2.00000
     20     -16.3683      2.00000
     21     -16.3603      2.00000
     22     -16.3595      2.00000
     23     -16.3595      2.00000
     24     -16.3587      2.00000
     25     -14.3182      2.00000
     26     -14.1259      2.00000
     27     -14.0546      2.00000
     28     -14.0525      2.00000
     29     -14.0045      2.00000
     30     -13.9955      2.00000
     31     -13.9930      2.00000
     32     -13.9262      2.00000
     33     -13.9200      2.00000
     34     -13.7629      2.00000
     35     -13.7242      2.00000
     36     -13.7204      2.00000
     37      -8.1617      2.00000
     38      -7.6587      2.00000
     39      -7.2342      2.00000
     40      -7.2171      2.00000
     41      -7.1915      2.00000
     42      -7.1851      2.00000
     43      -7.1803      2.00000
     44      -7.1794      2.00000
     45      -7.1687      2.00000
     46      -7.1512      2.00000
     47      -7.1434      2.00000
     48      -7.1433      2.00000
     49      -7.1390      2.00000
     50      -7.1264      2.00000
     51      -7.0989      2.00000
     52      -6.6027      2.00000
     53      -3.3021      2.00000
     54      -3.2870      2.00000
     55      -3.1732      2.00000
     56      -3.1317      2.00000
     57      -3.1227      2.00000
     58      -2.9937      2.00000
     59      -2.1277      2.00000
     60      -1.8895      2.00000
     61      -1.8622      2.00000
     62      -1.8578      2.00000
     63      -1.8140      2.00000
     64      -1.7087      2.00000
     65      -1.6482      2.00000
     66      -1.5589      2.00000
     67      -1.4972      2.00000
     68      -1.4825      2.00000
     69      -1.4558      2.00000
     70      -1.4538      2.00000
     71      -1.4382      2.00000
     72      -1.4292      2.00000
     73      -1.4078      2.00000
     74      -1.3703      2.00000
     75      -1.3523      2.00000
     76      -1.3389      2.00000
     77      -1.3385      2.00000
     78      -1.1692      2.00000
     79      -1.1302      2.00000
     80      -1.0376      2.00000
     81      -1.0182      2.00000
     82      -0.9909      2.00000
     83      -0.9703      2.00000
     84      -0.9274      2.00000
     85      -0.7750      2.00000
     86      -0.6096      2.00000
     87      -0.2434      2.00000
     88       0.3453      2.00000
     89       2.5640      0.00000
     90       2.7281      0.00000
     91       2.9741      0.00000
     92       2.9869      0.00000
     93       3.4066      0.00000
     94       3.4144      0.00000
     95       4.9555      0.00000
     96       5.4706      0.00000
     97       5.6566      0.00000
     98       5.8957      0.00000
     99       5.9198      0.00000
    100       6.0579      0.00000
    101       6.1317      0.00000
    102       6.1406      0.00000
    103       6.2401      0.00000
    104       6.4162      0.00000
    105       6.4445      0.00000
    106       6.4681      0.00000
    107       6.6205      0.00000
    108       6.8047      0.00000
    109       6.9484      0.00000
    110       7.1357      0.00000
    111       7.1420      0.00000
    112       7.1571      0.00000

 k-point     2 :       0.3333    0.0000    0.0000
  band No.  band energies     occupation 
      1     -20.7558      2.00000
      2     -20.7544      2.00000
      3     -20.7538      2.00000
      4     -20.7525      2.00000
      5     -16.5198      2.00000
      6     -16.5088      2.00000
      7     -16.4853      2.00000
      8     -16.4852      2.00000
      9     -16.4617      2.00000
     10     -16.4485      2.00000
     11     -16.4476      2.00000
     12     -16.4476      2.00000
     13     -16.3834      2.00000
     14     -16.3831      2.00000
     15     -16.3823      2.00000
     16     -16.3821      2.00000
     17     -16.3688      2.00000
     18     -16.3687      2.00000
     19     -16.3684      2.00000
     20     -16.3684      2.00000
     21     -16.3602      2.00000
     22     -16.3596      2.00000
     23     -16.3593      2.00000
     24     -16.3589      2.00000
     25     -14.2743      2.00000
     26     -14.1547      2.00000
     27     -14.0952      2.00000
     28     -14.0543      2.00000
     29     -14.0529      2.00000
     30     -14.0301      2.00000
     31     -13.8756      2.00000
     32     -13.8697      2.00000
     33     -13.8647      2.00000
     34     -13.7865      2.00000
     35     -13.7746      2.00000
     36     -13.7700      2.00000
     37      -7.9655      2.00000
     38      -7.5183      2.00000
     39      -7.4640      2.00000
     40      -7.2247      2.00000
     41      -7.1870      2.00000
     42      -7.1841      2.00000
     43      -7.1765      2.00000
     44      -7.1680      2.00000
     45      -7.1596      2.00000
     46      -7.1594      2.00000
     47      -7.1440      2.00000
     48      -7.1332      2.00000
     49      -7.1264      2.00000
     50      -7.1196      2.00000
     51      -7.1071      2.00000
     52      -6.9122      2.00000
     53      -3.2654      2.00000
     54      -3.1819      2.00000
     55      -2.8694      2.00000
     56      -2.7700      2.00000
     57      -2.7377      2.00000
     58      -2.7336      2.00000
     59      -2.2240      2.00000
     60      -2.0970      2.00000
     61      -2.0623      2.00000
     62      -1.9832      2.00000
     63      -1.9635      2.00000
     64      -1.9606      2.00000
     65      -1.7726      2.00000
     66      -1.6795      2.00000
     67      -1.6356      2.00000
     68      -1.6131      2.00000
     69      -1.4837      2.00000
     70      -1.4618      2.00000
     71      -1.3926      2.00000
     72      -1.3773      2.00000
     73      -1.3772      2.00000
     74      -1.3705      2.00000
     75      -1.2996      2.00000
     76      -1.2868      2.00000
     77      -1.2635      2.00000
     78      -1.2146      2.00000
     79      -1.1897      2.00000
     80      -1.0441      2.00000
     81      -1.0423      2.00000
     82      -1.0372      2.00000
     83      -1.0084      2.00000
     84      -0.9798      2.00000
     85      -0.7352      2.00000
     86      -0.6392      2.00000
     87      -0.4873      2.00000
     88      -0.1076      2.00000
     89       2.8841      0.00000
     90       3.1985      0.00000
     91       3.2838      0.00000
     92       3.6798      0.00000
     93       3.8254      0.00000
     94       4.1849      0.00000
     95       4.6955      0.00000
     96       5.0517      0.00000
     97       5.2032      0.00000
     98       5.2410      0.00000
     99       5.7900      0.00000
    100       5.8031      0.00000
    101       6.1429      0.00000
    102       6.2657      0.00000
    103       6.4142      0.00000
    104       6.4634      0.00000
    105       6.4904      0.00000
    106       6.5246      0.00000
    107       6.5638      0.00000
    108       6.7371      0.00000
    109       6.9992      0.00000
    110       7.0010      0.00000
    111       7.1337      0.00000
    112       7.1899      0.00000

 k-point     3 :       0.0000    0.5000    0.0000
  band No.  band energies     occupation 
      1     -20.7561      2.00000
      2     -20.7561      2.00000
      3     -20.7522      2.00000
      4     -20.7522      2.00000
      5     -16.5033      2.00000
      6     -16.5033      2.00000
      7     -16.4974      2.00000
      8     -16.4974      2.00000
      9     -16.4731      2.00000
     10     -16.4731      2.00000
     11     -16.4280      2.00000
     12     -16.4280      2.00000
     13     -16.3830      2.00000
     14     -16.3830      2.00000
     15     -16.3825      2.00000
     16     -16.3825      2.00000
     17     -16.3687      2.00000
     18     -16.3687      2.00000
     19     -16.3685      2.00000
     20     -16.3685      2.00000
     21     -16.3600      2.00000
     22     -16.3600      2.00000
     23     -16.3591      2.00000
     24     -16.3591      2.00000
     25     -14.2633      2.00000
     26     -14.2633      2.00000
     27     -14.0225      2.00000
     28     -14.0225      2.00000
     29     -13.9996      2.00000
     30     -13.9996      2.00000
     31     -13.9238      2.00000
     32     -13.9238      2.00000
     33     -13.8663      2.00000
     34     -13.8663      2.00000
     35     -13.7223      2.00000
     36     -13.7223      2.00000
     37      -7.9294      2.00000
     38      -7.9294      2.00000
     39      -7.2061      2.00000
     40      -7.2061      2.00000
     41      -7.1852      2.00000
     42      -7.1852      2.00000
     43      -7.1637      2.00000
     44      -7.1637      2.00000
     45      -7.1461      2.00000
     46      -7.1461      2.00000
     47      -7.1408      2.00000
     48      -7.1408      2.00000
     49      -7.1314      2.00000
     50      -7.1314      2.00000
     51      -6.9571      2.00000
     52      -6.9571      2.00000
     53      -3.2359      2.00000
     54      -3.2359      2.00000
     55      -3.0665      2.00000
     56      -3.0665      2.00000
     57      -2.4617      2.00000
     58      -2.4617      2.00000
     59      -2.3414      2.00000
     60      -2.3414      2.00000
     61      -1.9967      2.00000
     62      -1.9967      2.00000
     63      -1.8012      2.00000
     64      -1.8012      2.00000
     65      -1.7398      2.00000
     66      -1.7398      2.00000
     67      -1.5231      2.00000
     68      -1.5231      2.00000
     69      -1.4563      2.00000
     70      -1.4563      2.00000
     71      -1.4366      2.00000
     72      -1.4366      2.00000
     73      -1.3629      2.00000
     74      -1.3629      2.00000
     75      -1.3017      2.00000
     76      -1.3017      2.00000
     77      -1.2317      2.00000
     78      -1.2317      2.00000
     79      -1.1483      2.00000
     80      -1.1483      2.00000
     81      -1.1088      2.00000
     82      -1.1088      2.00000
     83      -0.9565      2.00000
     84      -0.9565      2.00000
     85      -0.7711      2.00000
     86      -0.7711      2.00000
     87      -0.1143      2.00000
     88      -0.1143      2.00000
     89       2.7864      0.00000
     90       2.7864      0.00000
     91       3.1867      0.00000
     92       3.1867      0.00000
     93       4.2852      0.00000
     94       4.2852      0.00000
     95       4.8310      0.00000
     96       4.8310      0.00000
     97       5.5883      0.00000
     98       5.5883      0.00000
     99       5.6402      0.00000
    100       5.6402      0.00000
    101       6.0688      0.00000
    102       6.0688      0.00000
    103       6.3396      0.00000
    104       6.3396      0.00000
    105       6.3928      0.00000
    106       6.3928      0.00000
    107       6.7280      0.00000
    108       6.7280      0.00000
[...]
     60      -2.3632      2.00000
     61      -2.1857      2.00000
     62      -2.1857      2.00000
     63      -1.9809      2.00000
     64      -1.9809      2.00000
     65      -1.6716      2.00000
     66      -1.6716      2.00000
     67      -1.6502      2.00000
     68      -1.6502      2.00000
     69      -1.5128      2.00000
     70      -1.5128      2.00000
     71      -1.4677      2.00000
     72      -1.4677      2.00000
     73      -1.3471      2.00000
     74      -1.3471      2.00000
     75      -1.2993      2.00000
     76      -1.2993      2.00000
     77      -1.1933      2.00000
     78      -1.1933      2.00000
     79      -1.1346      2.00000
     80      -1.1346      2.00000
     81      -1.1210      2.00000
     82      -1.1210      2.00000
     83      -1.0590      2.00000
     84      -1.0590      2.00000
     85      -0.8790      2.00000
     86      -0.8790      2.00000
     87      -0.6890      2.00000
     88      -0.6890      2.00000
     89       3.5946      0.00000
     90       3.5946      0.00000
     91       3.8637      0.00000
     92       3.8637      0.00000
     93       4.4010      0.00000
     94       4.4010      0.00000
     95       4.6936      0.00000
     96       4.6936      0.00000
     97       4.9264      0.00000
     98       4.9264      0.00000
     99       5.2526      0.00000
    100       5.2526      0.00000
    101       6.0959      0.00000
    102       6.0959      0.00000
    103       6.2693      0.00000
    104       6.2693      0.00000
    105       6.4692      0.00000
    106       6.4692      0.00000
    107       6.6553      0.00000
    108       6.6553      0.00000
    109       6.9556      0.00000
    110       6.9556      0.00000
    111       7.1479      0.00000
    112       7.1481      0.00000

 k-point     8 :       0.3333    0.5000    0.3333
  band No.  band energies     occupation 
      1     -20.7547      2.00000
      2     -20.7547      2.00000
      3     -20.7534      2.00000
      4     -20.7534      2.00000
      5     -16.4989      2.00000
      6     -16.4989      2.00000
      7     -16.4896      2.00000
      8     -16.4896      2.00000
      9     -16.4654      2.00000
     10     -16.4654      2.00000
     11     -16.4500      2.00000
     12     -16.4500      2.00000
     13     -16.3828      2.00000
     14     -16.3828      2.00000
     15     -16.3827      2.00000
     16     -16.3827      2.00000
     17     -16.3686      2.00000
     18     -16.3686      2.00000
     19     -16.3685      2.00000
     20     -16.3685      2.00000
     21     -16.3596      2.00000
     22     -16.3596      2.00000
     23     -16.3594      2.00000
     24     -16.3594      2.00000
     25     -14.1798      2.00000
     26     -14.1798      2.00000
     27     -14.1100      2.00000
     28     -14.1100      2.00000
     29     -13.9747      2.00000
     30     -13.9747      2.00000
     31     -13.9168      2.00000
     32     -13.9168      2.00000
     33     -13.8337      2.00000
     34     -13.8337      2.00000
     35     -13.7980      2.00000
     36     -13.7980      2.00000
     37      -7.6056      2.00000
     38      -7.6056      2.00000
     39      -7.3747      2.00000
     40      -7.3747      2.00000
     41      -7.1814      2.00000
     42      -7.1814      2.00000
     43      -7.1622      2.00000
     44      -7.1622      2.00000
     45      -7.1491      2.00000
     46      -7.1491      2.00000
     47      -7.1447      2.00000
     48      -7.1447      2.00000
     49      -7.1307      2.00000
     50      -7.1307      2.00000
     51      -7.1130      2.00000
     52      -7.1130      2.00000
     53      -3.0730      2.00000
     54      -3.0730      2.00000
     55      -2.7415      2.00000
     56      -2.7415      2.00000
     57      -2.4941      2.00000
     58      -2.4941      2.00000
     59      -2.3895      2.00000
     60      -2.3895      2.00000
     61      -2.1375      2.00000
     62      -2.1375      2.00000
     63      -1.9844      2.00000
     64      -1.9844      2.00000
     65      -1.7154      2.00000
     66      -1.7154      2.00000
     67      -1.6381      2.00000
     68      -1.6381      2.00000
     69      -1.4957      2.00000
     70      -1.4957      2.00000
     71      -1.4106      2.00000
     72      -1.4106      2.00000
     73      -1.3512      2.00000
     74      -1.3512      2.00000
     75      -1.2681      2.00000
     76      -1.2681      2.00000
     77      -1.1953      2.00000
     78      -1.1953      2.00000
     79      -1.1317      2.00000
     80      -1.1317      2.00000
     81      -1.0847      2.00000
     82      -1.0847      2.00000
     83      -1.0450      2.00000
     84      -1.0450      2.00000
     85      -0.8183      2.00000
     86      -0.8183      2.00000
     87      -0.6053      2.00000
     88      -0.6053      2.00000
     89       3.1842      0.00000
     90       3.1842      0.00000
     91       3.9299      0.00000
     92       3.9299      0.00000
     93       4.4660      0.00000
     94       4.4660      0.00000
     95       4.5667      0.00000
     96       4.5667      0.00000
     97       4.9747      0.00000
     98       4.9747      0.00000
     99       5.6278      0.00000
    100       5.6278      0.00000
    101       6.3346      0.00000
    102       6.3346      0.00000
    103       6.4293      0.00000
    104       6.4293      0.00000
    105       6.6198      0.00000
    106       6.6198      0.00000
    107       6.8032      0.00000
    108       6.8032      0.00000
    109       6.8666      0.00000
    110       6.8666      0.00000
    111       7.0449      0.00000
    112       7.0449      0.00000


--------------------------------------------------------------------------------------------------------


 soft charge-density along one line, spin component           1
         0         1         2         3         4         5         6         7         8         9
 total charge-density along one line

 pseudopotential strength for first ion, spin component:           1
 17.949  -4.698   0.000  -0.001  -0.001  -0.000   0.001   0.002
 -4.698   1.239  -0.000   0.000   0.000   0.000  -0.000  -0.000
  0.000  -0.000   2.255  -0.000  -0.000  -2.695   0.000   0.000
 -0.001   0.000  -0.000   2.257  -0.001   0.000  -2.697   0.001
 -0.001   0.000  -0.000  -0.001   2.256   0.000   0.001  -2.696
 -0.000   0.000  -2.695   0.000   0.000   3.188  -0.000  -0.000
  0.001  -0.000   0.000  -2.697   0.001  -0.000   3.191  -0.001
  0.002  -0.000   0.000   0.001  -2.696  -0.000  -0.001   3.189
 -0.000   0.000  -0.000  -0.000   0.000   0.000   0.000  -0.000
 -0.000   0.000   0.000  -0.000  -0.000  -0.000   0.000   0.000
  0.001  -0.000  -0.000  -0.002   0.001   0.000   0.002  -0.001
 -0.001   0.000  -0.000  -0.001   0.000   0.000   0.001  -0.000
  0.000  -0.000  -0.000   0.000  -0.001   0.000  -0.000   0.002
 total augmentation occupancy for first ion, spin component:           1
  1.911  -0.140  -0.000  -0.000  -0.000   0.000  -0.001  -0.001  -0.000  -0.000   0.001  -0.001   0.000
 -0.140   0.120  -0.000  -0.004  -0.003   0.000   0.001   0.002   0.000   0.000  -0.002   0.003   0.001
 -0.000  -0.000   2.016   0.000   0.000   0.003   0.000   0.000   0.000   0.000  -0.000   0.000   0.000
 -0.000  -0.004   0.000   2.018  -0.002   0.000   0.005  -0.001   0.000  -0.000  -0.004  -0.001   0.000
 -0.000  -0.003   0.000  -0.002   2.017   0.000  -0.001   0.003   0.000   0.000   0.001   0.001  -0.003
  0.000   0.000   0.003   0.000   0.000   0.009   0.000   0.000  -0.001  -0.001   0.000   0.000   0.000
 -0.001   0.001   0.000   0.005  -0.001   0.000   0.008   0.001   0.000  -0.000   0.002  -0.000   0.000
 -0.001   0.002   0.000  -0.001   0.003   0.000   0.001   0.009   0.000  -0.000  -0.001  -0.001   0.002
 -0.000   0.000   0.000   0.000   0.000  -0.001   0.000   0.000   0.006   0.001   0.000   0.000  -0.000
 -0.000   0.000   0.000  -0.000   0.000  -0.001  -0.000  -0.000   0.001   0.005   0.000   0.000   0.000
  0.001  -0.002  -0.000  -0.004   0.001   0.000   0.002  -0.001   0.000   0.000   0.005  -0.002  -0.001
 -0.001   0.003   0.000  -0.001   0.001   0.000  -0.000  -0.001   0.000   0.000  -0.002   0.004   0.001
  0.000   0.001   0.000   0.000  -0.003   0.000   0.000   0.002  -0.000   0.000  -0.001   0.001   0.005


------------------------ aborting loop because EDIFF is reached ----------------------------------------





 total charge     

# of ion       s       p       d       tot
------------------------------------------
    1        1.786   4.719   0.019   6.523
    2        1.786   4.719   0.019   6.523
    3        1.786   4.719   0.019   6.523
    4        1.786   4.719   0.019   6.523
    5        1.552   0.414   9.832  11.798
    6        1.552   0.413   9.832  11.798
    7        1.552   0.413   9.832  11.798
    8        1.552   0.414   9.832  11.798
    9        1.614   3.286   0.006   4.906
   10        1.614   3.286   0.006   4.906
   11        1.614   3.286   0.006   4.906
   12        1.614   3.286   0.006   4.906
   13        1.615   3.270   0.006   4.890
   14        1.613   3.291   0.005   4.910
   15        1.613   3.291   0.005   4.910
   16        1.615   3.270   0.006   4.890
   17        1.615   3.270   0.006   4.890
   18        1.613   3.291   0.005   4.910
   19        1.615   3.270   0.006   4.890
   20        1.613   3.291   0.005   4.910
--------------------------------------------------
tot         32.720  59.916  39.473 132.109

    CHARGE:  cpu time    0.1427: real time    0.1427
    FORLOC:  cpu time    0.0040: real time    0.0040
    FORNL :  cpu time    0.6239: real time    0.6239
    STRESS:  cpu time   13.8272: real time   13.8278
    FORCOR:  cpu time    0.1031: real time    0.1031
    FORHAR:  cpu time    0.0108: real time    0.0108
    MIXING:  cpu time    0.0011: real time    0.0011
    OFIELD:  cpu time    0.0000: real time    0.0000

  FORCE on cell =-STRESS in cart. coord.  units (eV):
  Direction    XX          YY          ZZ          XY          YZ          ZX
  --------------------------------------------------------------------------------------
  Alpha Z   449.19824   449.19824   449.19824
  Ewald   -3015.51702 -2977.55168 -3236.86461    -0.00000    -0.00000    -0.00000
  Hartree  1270.49434  1269.45768  1123.26514     0.00000    -0.00000    -0.00000
  E(xc)    -738.73807  -738.68280  -738.75620    -0.00000    -0.00000    -0.02986
  Local   -1521.25878 -1557.66387 -1155.93287     0.00000     0.00000     0.00000
  n-local   899.03399   899.44724   897.54322     0.00000     0.00000     0.03224
  augment   407.28109   406.30153   405.72888    -0.00000    -0.00004    -0.00002
  Kinetic  2245.78171  2248.33831  2255.20095    -0.00000    -0.00001    -1.47980
  Fock        0.00000     0.00000     0.00000     0.00000     0.00000     0.00000
  -------------------------------------------------------------------------------------
  Total      -3.72449    -1.15535    -0.61725     0.00000     0.00000     0.00000
  in kB      -7.42914    -2.30454    -1.23122     0.00000     0.00000     0.00000
  external pressure =       -3.65 kB  Pullay stress =        0.00 kB


 VOLUME and BASIS-vectors are now :
 -----------------------------------------------------------------------------
  energy-cutoff  :      300.00
  volume of cell :      803.23
      direct lattice vectors                 reciprocal lattice vectors
     8.756818302  0.000000000  0.000000000     0.114196728  0.000000000  0.000000000
     0.000000000 11.821445862  0.000000000     0.000000000  0.084592021  0.000000000
     0.000000000  0.000000000  7.759295639     0.000000000  0.000000000  0.128877677

  length of vectors
     8.756818302 11.821445862  7.759295639     0.114196728  0.084592021  0.128877677


 FORCES acting on ions
    electron-ion (+dipol)            ewald-force                    non-local-force                 convergence-correction
 -----------------------------------------------------------------------------------------------
   0.284E+02 -.748E-13 -.190E+02   -.282E+02 -.286E-11 0.191E+02   -.127E+00 0.265E-22 -.896E-01   0.448E-04 0.357E-13 -.566E-04
   -.284E+02 -.632E-12 -.190E+02   0.282E+02 -.454E-11 0.191E+02   0.127E+00 0.132E-22 -.896E-01   -.448E-04 -.496E-14 -.566E-04
   0.284E+02 -.216E-11 0.190E+02   -.282E+02 -.286E-11 -.191E+02   -.127E+00 -.132E-22 0.896E-01   0.448E-04 0.450E-13 0.566E-04
   -.284E+02 0.793E-13 0.190E+02   0.282E+02 -.453E-11 -.191E+02   0.127E+00 -.265E-22 0.896E-01   -.448E-04 -.225E-14 0.566E-04
   0.110E-11 -.170E-11 0.343E-10   0.263E-11 -.877E-11 -.841E-11   0.000E+00 0.000E+00 -.229E-23   0.207E-12 0.508E-12 0.114E-13
   0.197E-11 0.474E-13 0.392E-10   0.117E-10 -.488E-11 -.702E-11   0.000E+00 0.000E+00 0.206E-23   0.134E-12 0.491E-12 0.218E-13
   -.340E-12 -.366E-11 0.353E-10   0.125E-10 0.152E-10 -.114E-10   0.000E+00 0.000E+00 0.109E-22   0.104E-12 -.582E-12 0.255E-13
   0.144E-11 0.398E-11 0.346E-10   0.341E-11 0.192E-10 -.403E-11   0.000E+00 0.000E+00 -.331E-23   0.234E-12 -.632E-12 -.740E-14
   0.778E+01 0.102E-12 0.387E+02   -.782E+01 -.347E-11 -.390E+02   0.377E-01 0.000E+00 0.236E+00   0.954E-05 -.152E-13 0.405E-04
   -.778E+01 -.244E-11 0.387E+02   0.782E+01 -.924E-12 -.390E+02   -.377E-01 0.000E+00 0.236E+00   -.954E-05 -.205E-13 0.405E-04
   0.778E+01 -.436E-12 -.387E+02   -.782E+01 -.340E-11 0.390E+02   0.377E-01 0.000E+00 -.236E+00   0.954E-05 0.337E-14 -.405E-04
   -.778E+01 0.351E-11 -.387E+02   0.782E+01 -.853E-12 0.390E+02   -.377E-01 0.000E+00 -.236E+00   -.954E-05 -.104E-13 -.405E-04
   -.207E+02 0.162E+02 0.306E+02   0.209E+02 -.164E+02 -.309E+02   -.192E+00 0.135E+00 0.273E+00   0.121E-04 -.277E-04 -.683E-05
   0.207E+02 -.162E+02 0.306E+02   -.209E+02 0.164E+02 -.309E+02   0.192E+00 -.135E+00 0.273E+00   -.121E-04 0.277E-04 -.683E-05
   -.207E+02 -.162E+02 -.306E+02   0.209E+02 0.164E+02 0.309E+02   -.192E+00 -.135E+00 -.273E+00   0.121E-04 0.277E-04 0.683E-05
   0.207E+02 0.162E+02 -.306E+02   -.209E+02 -.164E+02 0.309E+02   0.192E+00 0.135E+00 -.273E+00   -.121E-04 -.277E-04 0.683E-05
   -.207E+02 -.162E+02 0.306E+02   0.209E+02 0.164E+02 -.309E+02   -.192E+00 -.135E+00 0.273E+00   0.121E-04 0.277E-04 -.683E-05
   0.207E+02 0.162E+02 0.306E+02   -.209E+02 -.164E+02 -.309E+02   0.192E+00 0.135E+00 0.273E+00   -.121E-04 -.277E-04 -.683E-05
   0.207E+02 -.162E+02 -.306E+02   -.209E+02 0.164E+02 0.309E+02   0.192E+00 -.135E+00 -.273E+00   -.121E-04 0.277E-04 0.683E-05
   -.207E+02 0.162E+02 -.306E+02   0.209E+02 -.164E+02 0.309E+02   -.192E+00 0.135E+00 -.273E+00   0.121E-04 -.277E-04 0.683E-05
 -----------------------------------------------------------------------------------------------
   -.139E-09 0.126E-09 0.558E-09   -.284E-13 0.711E-14 -.284E-13   0.000E+00 0.000E+00 -.111E-15   0.716E-12 -.265E-12 0.123E-12


 POSITION                                       TOTAL-FORCE (eV/Angst)
 -----------------------------------------------------------------------------------
      0.65583      2.95536      3.63709        -0.001312      0.000000      0.001271
      3.72258      8.86608      7.51673         0.001312      0.000000      0.001271
      5.03424      2.95536      0.24256        -0.001312      0.000000     -0.001271
      8.10099      8.86608      4.12221         0.001312      0.000000     -0.001271
      0.00000      0.00000      0.00000        -0.000000      0.000000     -0.000000
      4.37841      0.00000      3.87965        -0.000000      0.000000     -0.000000
      4.37841      5.91072      3.87965        -0.000000      0.000000     -0.000000
      0.00000      5.91072      0.00000        -0.000000      0.000000     -0.000000
      4.47827      8.86608      3.39664        -0.003009      0.000000     -0.008384
      8.65696      2.95536      7.27629         0.003009      0.000000     -0.008384
      0.09986      8.86608      0.48301        -0.003009      0.000000      0.008384
      4.27855      2.95536      4.36266         0.003009      0.000000      0.008384
      2.63471      5.50977      1.45261        -0.009357     -0.012604     -0.001139
      1.74370      6.31167      5.33226         0.009357      0.012604     -0.001139
      7.01312      0.40095      2.42704        -0.009357      0.012604      0.001139
      6.12211     11.42049      6.30669         0.009357     -0.012604      0.001139
      2.63471      0.40095      1.45261        -0.009357      0.012604     -0.001139
      1.74370     11.42049      5.33226         0.009357     -0.012604     -0.001139
      6.12211      6.31167      6.30669         0.009357      0.012604      0.001139
      7.01312      5.50977      2.42704        -0.009357     -0.012604      0.001139
 -----------------------------------------------------------------------------------
    total drift:                               -0.000000      0.000000      0.000000


--------------------------------------------------------------------------------------------------------



  FREE ENERGIE OF THE ION-ELECTRON SYSTEM (eV)
  ---------------------------------------------------
  free  energy   TOTEN  =      -714.86395658 eV

  energy  without entropy=     -714.86395658  energy(sigma->0) =     -714.86395658



--------------------------------------------------------------------------------------------------------


    POTLOK:  cpu time    1.2044: real time    1.2044


--------------------------------------------------------------------------------------------------------


 stress matrix after NEB project (eV)
     -3.72449      0.00000      0.00000
      0.00000     -1.15535      0.00000
     -0.00000      0.00000     -0.61725
  FORCES: max atom, RMS     0.015739    0.010753
  FORCE total and by dimension    0.048088    0.012604
  Stress total and by dimension    3.948122    3.724492
     LOOP+:  cpu time  128.1019: real time  128.5787
    4ORBIT:  cpu time    0.0000: real time    0.0000



 total charge     

# of ion       s       p       d       tot
------------------------------------------
    1        1.786   4.719   0.019   6.523
    2        1.786   4.719   0.019   6.523
    3        1.786   4.719   0.019   6.523
    4        1.786   4.719   0.019   6.523
    5        1.552   0.414   9.832  11.798
    6        1.552   0.413   9.832  11.798
    7        1.552   0.413   9.832  11.798
    8        1.552   0.414   9.832  11.798
    9        1.614   3.286   0.006   4.906
   10        1.614   3.286   0.006   4.906
   11        1.614   3.286   0.006   4.906
   12        1.614   3.286   0.006   4.906
   13        1.615   3.270   0.006   4.890
   14        1.613   3.291   0.005   4.910
   15        1.613   3.291   0.005   4.910
   16        1.615   3.270   0.006   4.890
   17        1.615   3.270   0.006   4.890
   18        1.613   3.291   0.005   4.910
   19        1.615   3.270   0.006   4.890
   20        1.613   3.291   0.005   4.910
--------------------------------------------------
tot         32.720  59.916  39.473 132.109


 total amount of memory used by VASP MPI-rank0    43698. kBytes
=======================================================================

   base      :      30000. kBytes
   nonlr-proj:       3318. kBytes
   fftplans  :       4445. kBytes
   grid      :       3667. kBytes
   one-center:         46. kBytes
   wavefun   :       2222. kBytes

  
  
 General timing and accounting informations for this job:
 ========================================================
  
                  Total CPU time used (sec):      134.672
                            User time (sec):      133.696
                          System time (sec):        0.976
                         Elapsed time (sec):      135.510
  
                   Maximum memory used (kb):       83344.
                   Average memory used (kb):           0.
  
                          Minor page faults:        20464
                          Major page faults:            0
                 Voluntary context switches:         1485
