 running on   64 total cores
 distrk:  each k-point on   64 cores,    1 groups
 distr:  one band on    8 cores,    8 groups
 using from now: INCAR     
 vasp.5.4.4.18Apr17-6-g9f103f2a35 (build Jun 29 2021 12:58:12) complex           
 POSCAR found type information on POSCAR  Cs Pb Br
 POSCAR found :  3 types and      20 ions
 scaLAPACK will be used
 LDA part: xc-table for Pade appr. of Perdew
 POSCAR found type information on POSCAR  Cs Pb Br
 POSCAR found :  3 types and      20 ions
 POSCAR, INCAR and KPOINTS ok, starting setup
 FFT: planning ...
 WAVECAR not read
 entering main loop
       N       E                     dE             d eps       ncg     rms          rms(c)
DAV:   1     0.658808397837E+03    0.65881E+03   -0.56211E+04  1848   0.924E+02
DAV:   2    -0.577144056451E+03   -0.12360E+04   -0.11871E+04  2184   0.285E+02
DAV:   3    -0.748988968116E+03   -0.17184E+03   -0.17079E+03  2424   0.127E+02
DAV:   4    -0.754580517235E+03   -0.55915E+01   -0.55725E+01  2168   0.299E+01
DAV:   5    -0.754842052701E+03   -0.26154E+00   -0.26137E+00  2352   0.516E+00    0.698E+00
DAV:   6    -0.714965610187E+03    0.39876E+02   -0.11911E+01  2392   0.288E+01    0.497E+00
DAV:   7    -0.714726327112E+03    0.23928E+00   -0.39369E+00  2280   0.492E+00    0.260E+00
DAV:   8    -0.714821625623E+03   -0.95299E-01   -0.18573E-01  2112   0.173E+00    0.149E+00
DAV:   9    -0.714861249521E+03   -0.39624E-01   -0.84196E-02  1976   0.120E+00    0.317E-01
DAV:  10    -0.714862294713E+03   -0.10452E-02   -0.55400E-03  2584   0.331E-01    0.186E-01
DAV:  11    -0.714863976767E+03   -0.16821E-02   -0.19819E-03  1976   0.175E-01    0.703E-02
DAV:  12    -0.714863950627E+03    0.26140E-04   -0.47523E-04  2248   0.958E-02    0.227E-02
DAV:  13    -0.714863937412E+03    0.13215E-04   -0.53343E-05  2160   0.273E-02    0.724E-03
DAV:  14    -0.714863958398E+03   -0.20986E-04   -0.30751E-06  1792   0.619E-03    0.221E-03
DAV:  15    -0.714863960367E+03   -0.19690E-05   -0.50568E-07  1224   0.326E-03    0.669E-04
DAV:  16    -0.714863957835E+03    0.25315E-05   -0.18505E-07  1288   0.216E-03    0.350E-04
DAV:  17    -0.714863956706E+03    0.11292E-05   -0.16165E-07  1128   0.146E-03    0.297E-04
DAV:  18    -0.714863956577E+03    0.12857E-06   -0.91258E-08  1112   0.114E-03
   1 F= -.71486396E+03 E0= -.71486396E+03  d E =-.157274E-59
Application 1866164 resources: utime ~8568s, stime ~84s, Rss ~83344, inblocks ~1328, outblocks ~52816
