CsPbBr3 cubic bulk                      
           1
     8.756818    0.000000    0.000000
     0.000000   11.821446    0.000000
     0.000000    0.000000    7.759296
   Cs   Pb   Br
   4   4  12
Direct configuration=     1
   0.07489361  0.25000000  0.46873914
   0.42510639  0.75000000  0.96873914
   0.57489361  0.25000000  0.03126086
   0.92510639  0.75000000  0.53126086
   0.00000000  0.00000000  0.00000000
   0.50000000  0.00000000  0.50000000
   0.50000000  0.50000000  0.50000000
   0.00000000  0.50000000  0.00000000
   0.51140379  0.75000000  0.43775081
   0.98859621  0.25000000  0.93775081
   0.01140379  0.75000000  0.06224919
   0.48859621  0.25000000  0.56224919
   0.30087488  0.46608268  0.18720878
   0.19912512  0.53391732  0.68720878
   0.80087488  0.03391732  0.31279122
   0.69912512  0.96608268  0.81279122
   0.30087488  0.03391732  0.18720878
   0.19912512  0.96608268  0.68720878
   0.69912512  0.53391732  0.81279122
   0.80087488  0.46608268  0.31279122
