  20  20   1   0
  0.4054681E+02  0.8341988E-09  0.1223436E-08  0.7945769E-09  0.5000000E-15
   1.0000000000000000E-004
  CAR 
 CsPbBr3 cubic bulk                      
      8.53333174    -22.27354491  301      0.44652662      1.00000000
    -22.274  0.0000E+00  0.0000E+00
    -22.171  0.0000E+00  0.0000E+00
    -22.068  0.0000E+00  0.0000E+00
    -21.965  0.0000E+00  0.0000E+00
    -21.863  0.0000E+00  0.0000E+00
    -21.760  0.0000E+00  0.0000E+00
    -21.657  0.0000E+00  0.0000E+00
    -21.555  0.0000E+00  0.0000E+00
    -21.452  0.0000E+00  0.0000E+00
    -21.349  0.0000E+00  0.0000E+00
    -21.247  0.0000E+00  0.0000E+00
    -21.144  0.0000E+00  0.0000E+00
    -21.041  0.0000E+00  0.0000E+00
    -20.939  0.0000E+00  0.0000E+00
    -20.836  0.7790E+02  0.8000E+01
    -20.733  0.0000E+00  0.8000E+01
    -20.631  0.0000E+00  0.8000E+01
    -20.528  0.0000E+00  0.8000E+01
    -20.425  0.0000E+00  0.8000E+01
    -20.322  0.0000E+00  0.8000E+01
    -20.220  0.0000E+00  0.8000E+01
    -20.117  0.0000E+00  0.8000E+01
    -20.014  0.0000E+00  0.8000E+01
    -19.912  0.0000E+00  0.8000E+01
    -19.809  0.0000E+00  0.8000E+01
    -19.706  0.0000E+00  0.8000E+01
    -19.604  0.0000E+00  0.8000E+01
    -19.501  0.0000E+00  0.8000E+01
    -19.398  0.0000E+00  0.8000E+01
    -19.296  0.0000E+00  0.8000E+01
    -19.193  0.0000E+00  0.8000E+01
    -19.090  0.0000E+00  0.8000E+01
    -18.987  0.0000E+00  0.8000E+01
    -18.885  0.0000E+00  0.8000E+01
    -18.782  0.0000E+00  0.8000E+01
    -18.679  0.0000E+00  0.8000E+01
    -18.577  0.0000E+00  0.8000E+01
    -18.474  0.0000E+00  0.8000E+01
    -18.371  0.0000E+00  0.8000E+01
    -18.269  0.0000E+00  0.8000E+01
    -18.166  0.0000E+00  0.8000E+01
    -18.063  0.0000E+00  0.8000E+01
    -17.961  0.0000E+00  0.8000E+01
    -17.858  0.0000E+00  0.8000E+01
    -17.755  0.0000E+00  0.8000E+01
    -17.653  0.0000E+00  0.8000E+01
    -17.550  0.0000E+00  0.8000E+01
    -17.447  0.0000E+00  0.8000E+01
    -17.344  0.0000E+00  0.8000E+01
    -17.242  0.0000E+00  0.8000E+01
    -17.139  0.0000E+00  0.8000E+01
    -17.036  0.0000E+00  0.8000E+01
    -16.934  0.0000E+00  0.8000E+01
    -16.831  0.0000E+00  0.8000E+01
    -16.728  0.0000E+00  0.8000E+01
    -16.626  0.0000E+00  0.8000E+01
    -16.523  0.6278E+01  0.8645E+01
    -16.420  0.1071E+03  0.2400E+02
    -16.318  0.2337E+03  0.4800E+02
    -16.215  0.0000E+00  0.4800E+02
    -16.112  0.0000E+00  0.4800E+02
    -16.009  0.0000E+00  0.4800E+02
    -15.907  0.0000E+00  0.4800E+02
    -15.804  0.0000E+00  0.4800E+02
    -15.701  0.0000E+00  0.4800E+02
    -15.599  0.0000E+00  0.4800E+02
    -15.496  0.0000E+00  0.4800E+02
    -15.393  0.0000E+00  0.4800E+02
    -15.291  0.0000E+00  0.4800E+02
    -15.188  0.0000E+00  0.4800E+02
    -15.085  0.0000E+00  0.4800E+02
    -14.983  0.0000E+00  0.4800E+02
    -14.880  0.0000E+00  0.4800E+02
    -14.777  0.0000E+00  0.4800E+02
    -14.675  0.0000E+00  0.4800E+02
    -14.572  0.0000E+00  0.4800E+02
    -14.469  0.0000E+00  0.4800E+02
    -14.366  0.2216E-03  0.4800E+02
    -14.264  0.7683E+01  0.4879E+02
    -14.161  0.1980E+02  0.5170E+02
    -14.058  0.3823E+02  0.5593E+02
    -13.956  0.3156E+02  0.6057E+02
    -13.853  0.2414E+02  0.6537E+02
    -13.750  0.2639E+02  0.7171E+02
    -13.648  0.0000E+00  0.7200E+02
    -13.545  0.0000E+00  0.7200E+02
    -13.442  0.0000E+00  0.7200E+02
    -13.340  0.0000E+00  0.7200E+02
    -13.237  0.0000E+00  0.7200E+02
    -13.134  0.0000E+00  0.7200E+02
    -13.031  0.0000E+00  0.7200E+02
    -12.929  0.0000E+00  0.7200E+02
    -12.826  0.0000E+00  0.7200E+02
    -12.723  0.0000E+00  0.7200E+02
    -12.621  0.0000E+00  0.7200E+02
    -12.518  0.0000E+00  0.7200E+02
    -12.415  0.0000E+00  0.7200E+02
    -12.313  0.0000E+00  0.7200E+02
    -12.210  0.0000E+00  0.7200E+02
    -12.107  0.0000E+00  0.7200E+02
    -12.005  0.0000E+00  0.7200E+02
    -11.902  0.0000E+00  0.7200E+02
    -11.799  0.0000E+00  0.7200E+02
    -11.697  0.0000E+00  0.7200E+02
    -11.594  0.0000E+00  0.7200E+02
    -11.491  0.0000E+00  0.7200E+02
    -11.388  0.0000E+00  0.7200E+02
    -11.286  0.0000E+00  0.7200E+02
    -11.183  0.0000E+00  0.7200E+02
    -11.080  0.0000E+00  0.7200E+02
    -10.978  0.0000E+00  0.7200E+02
    -10.875  0.0000E+00  0.7200E+02
    -10.772  0.0000E+00  0.7200E+02
    -10.670  0.0000E+00  0.7200E+02
    -10.567  0.0000E+00  0.7200E+02
    -10.464  0.0000E+00  0.7200E+02
    -10.362  0.0000E+00  0.7200E+02
    -10.259  0.0000E+00  0.7200E+02
    -10.156  0.0000E+00  0.7200E+02
    -10.053  0.0000E+00  0.7200E+02
     -9.951  0.0000E+00  0.7200E+02
     -9.848  0.0000E+00  0.7200E+02
     -9.745  0.0000E+00  0.7200E+02
     -9.643  0.0000E+00  0.7200E+02
     -9.540  0.0000E+00  0.7200E+02
     -9.437  0.0000E+00  0.7200E+02
     -9.335  0.0000E+00  0.7200E+02
     -9.232  0.0000E+00  0.7200E+02
     -9.129  0.0000E+00  0.7200E+02
     -9.027  0.0000E+00  0.7200E+02
     -8.924  0.0000E+00  0.7200E+02
     -8.821  0.0000E+00  0.7200E+02
     -8.719  0.0000E+00  0.7200E+02
     -8.616  0.0000E+00  0.7200E+02
     -8.513  0.0000E+00  0.7200E+02
     -8.410  0.0000E+00  0.7200E+02
     -8.308  0.0000E+00  0.7200E+02
     -8.205  0.4321E-06  0.7200E+02
     -8.102  0.1082E+01  0.7211E+02
     -8.000  0.1812E-01  0.7211E+02
     -7.897  0.4328E+01  0.7278E+02
     -7.794  0.4308E+01  0.7322E+02
     -7.692  0.9738E+01  0.7422E+02
     -7.589  0.8656E+01  0.7511E+02
     -7.486  0.8656E+01  0.7600E+02
     -7.384  0.1034E+02  0.7706E+02
     -7.281  0.5194E+02  0.8311E+02
     -7.178  0.1437E+03  0.1023E+03
     -7.075  0.4537E+01  0.1031E+03
     -6.973  0.1189E+01  0.1033E+03
     -6.870  0.2158E+01  0.1039E+03
     -6.767  0.0000E+00  0.1039E+03
     -6.665  0.8907E-13  0.1039E+03
     -6.562  0.1082E+01  0.1040E+03
     -6.459  0.0000E+00  0.1040E+03
     -6.357  0.0000E+00  0.1040E+03
     -6.254  0.0000E+00  0.1040E+03
     -6.151  0.0000E+00  0.1040E+03
     -6.049  0.0000E+00  0.1040E+03
     -5.946  0.0000E+00  0.1040E+03
     -5.843  0.0000E+00  0.1040E+03
     -5.741  0.0000E+00  0.1040E+03
     -5.638  0.0000E+00  0.1040E+03
     -5.535  0.0000E+00  0.1040E+03
     -5.432  0.0000E+00  0.1040E+03
     -5.330  0.0000E+00  0.1040E+03
     -5.227  0.0000E+00  0.1040E+03
     -5.124  0.0000E+00  0.1040E+03
     -5.022  0.0000E+00  0.1040E+03
     -4.919  0.0000E+00  0.1040E+03
     -4.816  0.0000E+00  0.1040E+03
     -4.714  0.0000E+00  0.1040E+03
     -4.611  0.0000E+00  0.1040E+03
     -4.508  0.0000E+00  0.1040E+03
     -4.406  0.0000E+00  0.1040E+03
     -4.303  0.0000E+00  0.1040E+03
     -4.200  0.0000E+00  0.1040E+03
     -4.097  0.0000E+00  0.1040E+03
     -3.995  0.0000E+00  0.1040E+03
     -3.892  0.0000E+00  0.1040E+03
     -3.789  0.0000E+00  0.1040E+03
     -3.687  0.0000E+00  0.1040E+03
     -3.584  0.0000E+00  0.1040E+03
     -3.481  0.0000E+00  0.1040E+03
     -3.379  0.1825E-08  0.1040E+03
     -3.276  0.4781E+01  0.1045E+03
     -3.173  0.1003E+02  0.1056E+03
     -3.071  0.9738E+01  0.1077E+03
     -2.968  0.1755E+02  0.1095E+03
     -2.865  0.3246E+01  0.1104E+03
     -2.763  0.2492E+02  0.1130E+03
     -2.660  0.8644E+01  0.1140E+03
     -2.557  0.0000E+00  0.1140E+03
     -2.454  0.1068E+02  0.1151E+03
     -2.352  0.2279E+02  0.1175E+03
     -2.249  0.8650E+01  0.1187E+03
     -2.146  0.2384E+02  0.1213E+03
     -2.044  0.1889E+02  0.1236E+03
     -1.941  0.2882E+02  0.1266E+03
     -1.838  0.2905E+01  0.1271E+03
     -1.736  0.2987E+02  0.1303E+03
     -1.633  0.3233E+02  0.1343E+03
     -1.530  0.1825E+02  0.1363E+03
     -1.428  0.3702E+02  0.1418E+03
     -1.325  0.5124E+02  0.1485E+03
     -1.222  0.4121E+02  0.1546E+03
     -1.119  0.5687E+02  0.1620E+03
     -1.017  0.3578E+02  0.1671E+03
     -0.914  0.1412E+01  0.1680E+03
     -0.811  0.2244E+02  0.1705E+03
     -0.709  0.5813E-01  0.1710E+03
     -0.606  0.8279E+01  0.1726E+03
     -0.503  0.6681E+01  0.1742E+03
     -0.401  0.0000E+00  0.1747E+03
     -0.298  0.0000E+00  0.1747E+03
     -0.195  0.6464E+01  0.1753E+03
     -0.093  0.1077E+01  0.1757E+03
      0.010  0.2153E+01  0.1759E+03
      0.113  0.0000E+00  0.1759E+03
      0.215  0.0000E+00  0.1759E+03
      0.318  0.4524E-06  0.1759E+03
      0.421  0.1082E+01  0.1760E+03
      0.524  0.0000E+00  0.1760E+03
      0.626  0.0000E+00  0.1760E+03
      0.729  0.0000E+00  0.1760E+03
      0.832  0.0000E+00  0.1760E+03
      0.934  0.0000E+00  0.1760E+03
      1.037  0.0000E+00  0.1760E+03
      1.140  0.0000E+00  0.1760E+03
      1.242  0.0000E+00  0.1760E+03
      1.345  0.0000E+00  0.1760E+03
      1.448  0.0000E+00  0.1760E+03
      1.550  0.0000E+00  0.1760E+03
      1.653  0.0000E+00  0.1760E+03
      1.756  0.0000E+00  0.1760E+03
      1.859  0.0000E+00  0.1760E+03
      1.961  0.0000E+00  0.1760E+03
      2.064  0.0000E+00  0.1760E+03
      2.167  0.0000E+00  0.1760E+03
      2.269  0.0000E+00  0.1760E+03
      2.372  0.0000E+00  0.1760E+03
      2.475  0.5414E-02  0.1760E+03
      2.577  0.0000E+00  0.1761E+03
      2.680  0.3488E+00  0.1761E+03
      2.783  0.2367E+01  0.1768E+03
      2.885  0.6006E-16  0.1771E+03
      2.988  0.7391E+01  0.1779E+03
      3.091  0.4106E+01  0.1783E+03
      3.193  0.7573E+01  0.1791E+03
      3.296  0.9601E+01  0.1801E+03
      3.399  0.1082E+01  0.1802E+03
      3.502  0.4328E+01  0.1807E+03
      3.604  0.2164E+01  0.1809E+03
      3.707  0.8581E+01  0.1818E+03
      3.810  0.2949E+00  0.1818E+03
      3.912  0.6492E+01  0.1831E+03
      4.015  0.1300E+02  0.1844E+03
      4.118  0.1289E+02  0.1860E+03
      4.220  0.1087E+02  0.1876E+03
      4.323  0.1151E+01  0.1881E+03
      4.426  0.4881E+01  0.1894E+03
      4.528  0.9210E-12  0.1898E+03
      4.631  0.2164E+01  0.1900E+03
      4.734  0.4789E-07  0.1900E+03
      4.837  0.1091E+01  0.1901E+03
      4.939  0.0000E+00  0.1906E+03
      5.042  0.2154E+01  0.1908E+03
      5.145  0.8709E+01  0.1919E+03
      5.247  0.1545E+02  0.1937E+03
      5.350  0.1284E+02  0.1954E+03
      5.453  0.5839E+01  0.1962E+03
      5.555  0.2164E+01  0.1967E+03
      5.658  0.2020E+01  0.1969E+03
      5.761  0.9559E+01  0.1979E+03
      5.863  0.2148E+02  0.2001E+03
      5.966  0.1232E+02  0.2015E+03
      6.069  0.6087E+01  0.2027E+03
      6.171  0.1297E+02  0.2041E+03
      6.274  0.1840E+02  0.2060E+03
      6.377  0.1947E+02  0.2082E+03
      6.480  0.9744E+01  0.2092E+03
      6.582  0.1179E+02  0.2107E+03
      6.685  0.1557E+02  0.2146E+03
      6.788  0.1401E+02  0.2174E+03
      6.890  0.2359E+02  0.2203E+03
      6.993  0.7863E+01  0.2211E+03
      7.096  0.1447E+02  0.2234E+03
      7.198  0.4328E+01  0.2240E+03
      7.301  0.0000E+00  0.2240E+03
      7.404  0.0000E+00  0.2240E+03
      7.506  0.0000E+00  0.2240E+03
      7.609  0.0000E+00  0.2240E+03
      7.712  0.0000E+00  0.2240E+03
      7.815  0.0000E+00  0.2240E+03
      7.917  0.0000E+00  0.2240E+03
      8.020  0.0000E+00  0.2240E+03
      8.123  0.0000E+00  0.2240E+03
      8.225  0.0000E+00  0.2240E+03
      8.328  0.0000E+00  0.2240E+03
      8.431  0.0000E+00  0.2240E+03
      8.533  0.0000E+00  0.2240E+03
      8.53333174    -22.27354491  301      0.44652662      1.00000000
    -22.274  0.0000E+00  0.0000E+00  0.0000E+00
    -22.171  0.0000E+00  0.0000E+00  0.0000E+00
    -22.068  0.0000E+00  0.0000E+00  0.0000E+00
    -21.965  0.0000E+00  0.0000E+00  0.0000E+00
    -21.863  0.0000E+00  0.0000E+00  0.0000E+00
    -21.760  0.0000E+00  0.0000E+00  0.0000E+00
    -21.657  0.0000E+00  0.0000E+00  0.0000E+00
    -21.555  0.0000E+00  0.0000E+00  0.0000E+00
    -21.452  0.0000E+00  0.0000E+00  0.0000E+00
    -21.349  0.0000E+00  0.0000E+00  0.0000E+00
    -21.247  0.0000E+00  0.0000E+00  0.0000E+00
    -21.144  0.0000E+00  0.0000E+00  0.0000E+00
    -21.041  0.0000E+00  0.0000E+00  0.0000E+00
    -20.939  0.0000E+00  0.0000E+00  0.0000E+00
    -20.836  0.1729E+02  0.6634E-05  0.7766E-05
    -20.733  0.0000E+00  0.0000E+00  0.0000E+00
    -20.631  0.0000E+00  0.0000E+00  0.0000E+00
    -20.528  0.0000E+00  0.0000E+00  0.0000E+00
    -20.425  0.0000E+00  0.0000E+00  0.0000E+00
    -20.322  0.0000E+00  0.0000E+00  0.0000E+00
    -20.220  0.0000E+00  0.0000E+00  0.0000E+00
    -20.117  0.0000E+00  0.0000E+00  0.0000E+00
    -20.014  0.0000E+00  0.0000E+00  0.0000E+00
    -19.912  0.0000E+00  0.0000E+00  0.0000E+00
    -19.809  0.0000E+00  0.0000E+00  0.0000E+00
    -19.706  0.0000E+00  0.0000E+00  0.0000E+00
    -19.604  0.0000E+00  0.0000E+00  0.0000E+00
    -19.501  0.0000E+00  0.0000E+00  0.0000E+00
    -19.398  0.0000E+00  0.0000E+00  0.0000E+00
    -19.296  0.0000E+00  0.0000E+00  0.0000E+00
    -19.193  0.0000E+00  0.0000E+00  0.0000E+00
    -19.090  0.0000E+00  0.0000E+00  0.0000E+00
    -18.987  0.0000E+00  0.0000E+00  0.0000E+00
    -18.885  0.0000E+00  0.0000E+00  0.0000E+00
    -18.782  0.0000E+00  0.0000E+00  0.0000E+00
    -18.679  0.0000E+00  0.0000E+00  0.0000E+00
    -18.577  0.0000E+00  0.0000E+00  0.0000E+00
    -18.474  0.0000E+00  0.0000E+00  0.0000E+00
    -18.371  0.0000E+00  0.0000E+00  0.0000E+00
    -18.269  0.0000E+00  0.0000E+00  0.0000E+00
    -18.166  0.0000E+00  0.0000E+00  0.0000E+00
    -18.063  0.0000E+00  0.0000E+00  0.0000E+00
    -17.961  0.0000E+00  0.0000E+00  0.0000E+00
    -17.858  0.0000E+00  0.0000E+00  0.0000E+00
    -17.755  0.0000E+00  0.0000E+00  0.0000E+00
    -17.653  0.0000E+00  0.0000E+00  0.0000E+00
    -17.550  0.0000E+00  0.0000E+00  0.0000E+00
    -17.447  0.0000E+00  0.0000E+00  0.0000E+00
    -17.344  0.0000E+00  0.0000E+00  0.0000E+00
    -17.242  0.0000E+00  0.0000E+00  0.0000E+00
    -17.139  0.0000E+00  0.0000E+00  0.0000E+00
    -17.036  0.0000E+00  0.0000E+00  0.0000E+00
    -16.934  0.0000E+00  0.0000E+00  0.0000E+00
    -16.831  0.0000E+00  0.0000E+00  0.0000E+00
    -16.728  0.0000E+00  0.0000E+00  0.0000E+00
    -16.626  0.0000E+00  0.0000E+00  0.0000E+00
    -16.523  0.1915E-04  0.8084E-05  0.1172E-05
    -16.420  0.2566E-04  0.4742E-04  0.6462E-05
    -16.318  0.5129E-04  0.3053E-04  0.3849E-05
    -16.215  0.0000E+00  0.0000E+00  0.0000E+00
    -16.112  0.0000E+00  0.0000E+00  0.0000E+00
    -16.009  0.0000E+00  0.0000E+00  0.0000E+00
    -15.907  0.0000E+00  0.0000E+00  0.0000E+00
    -15.804  0.0000E+00  0.0000E+00  0.0000E+00
    -15.701  0.0000E+00  0.0000E+00  0.0000E+00
    -15.599  0.0000E+00  0.0000E+00  0.0000E+00
    -15.496  0.0000E+00  0.0000E+00  0.0000E+00
    -15.393  0.0000E+00  0.0000E+00  0.0000E+00
    -15.291  0.0000E+00  0.0000E+00  0.0000E+00
    -15.188  0.0000E+00  0.0000E+00  0.0000E+00
    -15.085  0.0000E+00  0.0000E+00  0.0000E+00
    -14.983  0.0000E+00  0.0000E+00  0.0000E+00
    -14.880  0.0000E+00  0.0000E+00  0.0000E+00
    -14.777  0.0000E+00  0.0000E+00  0.0000E+00
    -14.675  0.0000E+00  0.0000E+00  0.0000E+00
    -14.572  0.0000E+00  0.0000E+00  0.0000E+00
    -14.469  0.0000E+00  0.0000E+00  0.0000E+00
    -14.366  0.8179E-07  0.2136E-09  0.4067E-09
    -14.264  0.2038E-02  0.5143E-03  0.1494E-04
    -14.161  0.1379E-02  0.3500E-02  0.7121E-04
    -14.058  0.1241E-02  0.5024E-02  0.3051E-03
    -13.956  0.6778E-03  0.2543E-02  0.2444E-03
    -13.853  0.2372E-03  0.1721E-02  0.2970E-03
    -13.750  0.6798E-03  0.1494E-02  0.2419E-03
    -13.648  0.0000E+00  0.0000E+00  0.0000E+00
    -13.545  0.0000E+00  0.0000E+00  0.0000E+00
    -13.442  0.0000E+00  0.0000E+00  0.0000E+00
    -13.340  0.0000E+00  0.0000E+00  0.0000E+00
    -13.237  0.0000E+00  0.0000E+00  0.0000E+00
    -13.134  0.0000E+00  0.0000E+00  0.0000E+00
    -13.031  0.0000E+00  0.0000E+00  0.0000E+00
    -12.929  0.0000E+00  0.0000E+00  0.0000E+00
    -12.826  0.0000E+00  0.0000E+00  0.0000E+00
    -12.723  0.0000E+00  0.0000E+00  0.0000E+00
    -12.621  0.0000E+00  0.0000E+00  0.0000E+00
    -12.518  0.0000E+00  0.0000E+00  0.0000E+00
    -12.415  0.0000E+00  0.0000E+00  0.0000E+00
    -12.313  0.0000E+00  0.0000E+00  0.0000E+00
    -12.210  0.0000E+00  0.0000E+00  0.0000E+00
    -12.107  0.0000E+00  0.0000E+00  0.0000E+00
    -12.005  0.0000E+00  0.0000E+00  0.0000E+00
    -11.902  0.0000E+00  0.0000E+00  0.0000E+00
    -11.799  0.0000E+00  0.0000E+00  0.0000E+00
    -11.697  0.0000E+00  0.0000E+00  0.0000E+00
    -11.594  0.0000E+00  0.0000E+00  0.0000E+00
    -11.491  0.0000E+00  0.0000E+00  0.0000E+00
    -11.388  0.0000E+00  0.0000E+00  0.0000E+00
    -11.286  0.0000E+00  0.0000E+00  0.0000E+00
    -11.183  0.0000E+00  0.0000E+00  0.0000E+00
    -11.080  0.0000E+00  0.0000E+00  0.0000E+00
    -10.978  0.0000E+00  0.0000E+00  0.0000E+00
    -10.875  0.0000E+00  0.0000E+00  0.0000E+00
    -10.772  0.0000E+00  0.0000E+00  0.0000E+00
    -10.670  0.0000E+00  0.0000E+00  0.0000E+00
    -10.567  0.0000E+00  0.0000E+00  0.0000E+00
    -10.464  0.0000E+00  0.0000E+00  0.0000E+00
    -10.362  0.0000E+00  0.0000E+00  0.0000E+00
    -10.259  0.0000E+00  0.0000E+00  0.0000E+00
    -10.156  0.0000E+00  0.0000E+00  0.0000E+00
    -10.053  0.0000E+00  0.0000E+00  0.0000E+00
     -9.951  0.0000E+00  0.0000E+00  0.0000E+00
     -9.848  0.0000E+00  0.0000E+00  0.0000E+00
     -9.745  0.0000E+00  0.0000E+00  0.0000E+00
     -9.643  0.0000E+00  0.0000E+00  0.0000E+00
     -9.540  0.0000E+00  0.0000E+00  0.0000E+00
     -9.437  0.0000E+00  0.0000E+00  0.0000E+00
     -9.335  0.0000E+00  0.0000E+00  0.0000E+00
     -9.232  0.0000E+00  0.0000E+00  0.0000E+00
     -9.129  0.0000E+00  0.0000E+00  0.0000E+00
     -9.027  0.0000E+00  0.0000E+00  0.0000E+00
     -8.924  0.0000E+00  0.0000E+00  0.0000E+00
     -8.821  0.0000E+00  0.0000E+00  0.0000E+00
     -8.719  0.0000E+00  0.0000E+00  0.0000E+00
     -8.616  0.0000E+00  0.0000E+00  0.0000E+00
     -8.513  0.0000E+00  0.0000E+00  0.0000E+00
     -8.410  0.0000E+00  0.0000E+00  0.0000E+00
     -8.308  0.0000E+00  0.0000E+00  0.0000E+00
     -8.205  0.1156E-24  0.6946E-11  0.1840E-11
     -8.102  0.2895E-18  0.1739E-04  0.4607E-05
     -8.000  0.7489E-09  0.9672E-05  0.5581E-07
     -7.897  0.4610E-17  0.2762E-02  0.2046E-04
     -7.794  0.3142E-10  0.7499E-02  0.3331E-04
     -7.692  0.8853E-05  0.1955E-01  0.3339E-04
     -7.589  0.1049E-04  0.3275E-01  0.4943E-04
     -7.486  0.8517E-05  0.7985E-01  0.1544E-04
     -7.384  0.1688E-04  0.2306E+00  0.3692E-04
     -7.281  0.2895E-04  0.9414E+01  0.3418E-04
     -7.178  0.4265E-04  0.2665E+02  0.5722E-04
     -7.075  0.1757E-04  0.1207E+00  0.1695E-04
     -6.973  0.1026E-04  0.8633E-02  0.3000E-05
     -6.870  0.1413E-04  0.5858E-02  0.1169E-04
     -6.767  0.0000E+00  0.0000E+00  0.0000E+00
     -6.665  0.8976E-18  0.1633E-15  0.2109E-18
     -6.562  0.1090E-04  0.1984E-02  0.2562E-05
     -6.459  0.0000E+00  0.0000E+00  0.0000E+00
     -6.357  0.0000E+00  0.0000E+00  0.0000E+00
     -6.254  0.0000E+00  0.0000E+00  0.0000E+00
     -6.151  0.0000E+00  0.0000E+00  0.0000E+00
     -6.049  0.0000E+00  0.0000E+00  0.0000E+00
     -5.946  0.0000E+00  0.0000E+00  0.0000E+00
     -5.843  0.0000E+00  0.0000E+00  0.0000E+00
     -5.741  0.0000E+00  0.0000E+00  0.0000E+00
     -5.638  0.0000E+00  0.0000E+00  0.0000E+00
     -5.535  0.0000E+00  0.0000E+00  0.0000E+00
     -5.432  0.0000E+00  0.0000E+00  0.0000E+00
     -5.330  0.0000E+00  0.0000E+00  0.0000E+00
     -5.227  0.0000E+00  0.0000E+00  0.0000E+00
     -5.124  0.0000E+00  0.0000E+00  0.0000E+00
     -5.022  0.0000E+00  0.0000E+00  0.0000E+00
     -4.919  0.0000E+00  0.0000E+00  0.0000E+00
     -4.816  0.0000E+00  0.0000E+00  0.0000E+00
     -4.714  0.0000E+00  0.0000E+00  0.0000E+00
     -4.611  0.0000E+00  0.0000E+00  0.0000E+00
     -4.508  0.0000E+00  0.0000E+00  0.0000E+00
     -4.406  0.0000E+00  0.0000E+00  0.0000E+00
     -4.303  0.0000E+00  0.0000E+00  0.0000E+00
     -4.200  0.0000E+00  0.0000E+00  0.0000E+00
     -4.097  0.0000E+00  0.0000E+00  0.0000E+00
     -3.995  0.0000E+00  0.0000E+00  0.0000E+00
     -3.892  0.0000E+00  0.0000E+00  0.0000E+00
     -3.789  0.0000E+00  0.0000E+00  0.0000E+00
     -3.687  0.0000E+00  0.0000E+00  0.0000E+00
     -3.584  0.0000E+00  0.0000E+00  0.0000E+00
     -3.481  0.0000E+00  0.0000E+00  0.0000E+00
     -3.379  0.5396E-13  0.3342E-11  0.2872E-13
     -3.276  0.7728E-04  0.5179E-02  0.2474E-03
     -3.173  0.1898E-03  0.1067E-01  0.1227E-02
     -3.071  0.2221E-07  0.1694E-01  0.1352E-02
     -2.968  0.4142E-03  0.1469E-01  0.1453E-02
     -2.865  0.2181E-11  0.1151E-02  0.3787E-03
     -2.763  0.3818E-03  0.1956E-01  0.1208E-02
     -2.660  0.3071E-03  0.4447E-02  0.4625E-03
     -2.557  0.0000E+00  0.0000E+00  0.0000E+00
     -2.454  0.4558E-03  0.2387E-01  0.1537E-02
     -2.352  0.2753E-02  0.2160E-01  0.2702E-02
     -2.249  0.3188E-02  0.5449E-02  0.1319E-02
     -2.146  0.7856E-02  0.3346E-01  0.2494E-02
     -2.044  0.1600E-01  0.1903E-01  0.3778E-02
     -1.941  0.1523E-01  0.5364E-01  0.5371E-02
     -1.838  0.2635E-04  0.1532E-01  0.2762E-03
     -1.736  0.4670E-02  0.1227E+00  0.7969E-02
     -1.633  0.3159E-02  0.9594E-01  0.1262E-01
     -1.530  0.2227E-02  0.4347E-01  0.8589E-02
     -1.428  0.4191E-02  0.5742E-01  0.1578E-01
     -1.325  0.5701E-02  0.8206E-01  0.1680E-01
     -1.222  0.2896E-02  0.7113E-01  0.1142E-01
     -1.119  0.1515E-02  0.6696E-01  0.1209E-01
     -1.017  0.1147E-02  0.2907E-01  0.8807E-02
     -0.914  0.1014E-03  0.2952E-03  0.3904E-03
     -0.811  0.1194E-02  0.2170E-01  0.5270E-02
     -0.709  0.1539E-05  0.2461E-04  0.6403E-05
     -0.606  0.3726E-03  0.1741E-02  0.1099E-02
     -0.503  0.2393E-03  0.2383E-02  0.6913E-03
     -0.401  0.0000E+00  0.0000E+00  0.0000E+00
     -0.298  0.0000E+00  0.0000E+00  0.0000E+00
     -0.195  0.5156E-15  0.6945E-03  0.1363E-02
     -0.093  0.3223E-05  0.1533E-03  0.1215E-03
      0.010  0.2403E-05  0.1637E-03  0.1841E-03
      0.113  0.0000E+00  0.0000E+00  0.0000E+00
      0.215  0.0000E+00  0.0000E+00  0.0000E+00
      0.318  0.1673E-22  0.1104E-10  0.3230E-10
      0.421  0.4001E-16  0.2640E-04  0.7726E-04
      0.524  0.0000E+00  0.0000E+00  0.0000E+00
      0.626  0.0000E+00  0.0000E+00  0.0000E+00
      0.729  0.0000E+00  0.0000E+00  0.0000E+00
      0.832  0.0000E+00  0.0000E+00  0.0000E+00
      0.934  0.0000E+00  0.0000E+00  0.0000E+00
      1.037  0.0000E+00  0.0000E+00  0.0000E+00
      1.140  0.0000E+00  0.0000E+00  0.0000E+00
      1.242  0.0000E+00  0.0000E+00  0.0000E+00
      1.345  0.0000E+00  0.0000E+00  0.0000E+00
      1.448  0.0000E+00  0.0000E+00  0.0000E+00
      1.550  0.0000E+00  0.0000E+00  0.0000E+00
      1.653  0.0000E+00  0.0000E+00  0.0000E+00
      1.756  0.0000E+00  0.0000E+00  0.0000E+00
      1.859  0.0000E+00  0.0000E+00  0.0000E+00
      1.961  0.0000E+00  0.0000E+00  0.0000E+00
      2.064  0.0000E+00  0.0000E+00  0.0000E+00
      2.167  0.0000E+00  0.0000E+00  0.0000E+00
      2.269  0.0000E+00  0.0000E+00  0.0000E+00
      2.372  0.0000E+00  0.0000E+00  0.0000E+00
      2.475  0.4333E-07  0.5815E-06  0.2222E-05
      2.577  0.0000E+00  0.0000E+00  0.0000E+00
      2.680  0.1015E-04  0.4571E-04  0.1087E-03
      2.783  0.3533E-05  0.4917E-03  0.1091E-02
      2.885  0.1355E-31  0.3551E-21  0.5728E-19
      2.988  0.3392E-03  0.4668E-03  0.2642E-02
      3.091  0.1398E-03  0.7078E-03  0.7346E-03
      3.193  0.1525E-03  0.4665E-02  0.2423E-02
      3.296  0.9524E-03  0.4939E-02  0.3007E-02
      3.399  0.4485E-04  0.1007E-03  0.9024E-04
      3.502  0.1034E-02  0.8102E-03  0.1783E-02
      3.604  0.3414E-15  0.7233E-03  0.1742E-02
      3.707  0.5492E-03  0.1844E-02  0.7446E-02
      3.810  0.2341E-04  0.5710E-04  0.2250E-03
      3.912  0.9086E-03  0.1100E-02  0.3570E-02
      4.015  0.6933E-03  0.1833E-02  0.7421E-02
      4.118  0.4879E-03  0.3042E-02  0.6440E-02
      4.220  0.1905E-03  0.4853E-02  0.6268E-02
      4.323  0.1162E-03  0.1662E-03  0.3794E-03
      4.426  0.9684E-03  0.1532E-02  0.2726E-02
      4.528  0.5421E-15  0.2894E-15  0.6087E-15
      4.631  0.1274E-02  0.6800E-03  0.1430E-02
      4.734  0.5236E-09  0.4929E-12  0.5176E-10
      4.837  0.1183E-01  0.1188E-04  0.1183E-02
      4.939  0.0000E+00  0.0000E+00  0.0000E+00
      5.042  0.7174E-11  0.8287E-03  0.2047E-02
      5.145  0.6331E-03  0.1622E-02  0.9808E-02
      5.247  0.3318E-01  0.1350E-01  0.1693E-01
      5.350  0.1957E-01  0.7715E-02  0.1583E-01
      5.453  0.4800E-03  0.4643E-03  0.1784E-01
      5.555  0.9654E-13  0.4087E-03  0.2485E-02
      5.658  0.8061E-02  0.1197E-02  0.8654E-02
      5.761  0.5556E-02  0.1854E-02  0.5002E-01
      5.863  0.4809E-01  0.1848E-01  0.8086E-01
      5.966  0.6029E-01  0.1391E-01  0.1404E+00
      6.069  0.8967E-02  0.3095E-02  0.1088E+00
      6.171  0.2593E-01  0.8951E-02  0.2876E+00
      6.274  0.8510E-01  0.4551E-01  0.2725E+00
      6.377  0.4678E-01  0.2835E-01  0.4905E+00
      6.480  0.3063E-01  0.1538E-01  0.1831E+00
      6.582  0.1374E-01  0.1548E-01  0.3410E+00
      6.685  0.3285E-01  0.5167E-01  0.3178E+00
      6.788  0.2615E-02  0.1266E-01  0.4273E+00
      6.890  0.7444E-02  0.2935E-01  0.9364E+00
      6.993  0.2736E-02  0.1065E-01  0.3621E+00
      7.096  0.7463E-02  0.3582E-01  0.3552E+00
      7.198  0.8934E-02  0.7459E-02  0.1476E+00
      7.301  0.0000E+00  0.0000E+00  0.0000E+00
      7.404  0.0000E+00  0.0000E+00  0.0000E+00
      7.506  0.0000E+00  0.0000E+00  0.0000E+00
      7.609  0.0000E+00  0.0000E+00  0.0000E+00
      7.712  0.0000E+00  0.0000E+00  0.0000E+00
      7.815  0.0000E+00  0.0000E+00  0.0000E+00
      7.917  0.0000E+00  0.0000E+00  0.0000E+00
      8.020  0.0000E+00  0.0000E+00  0.0000E+00
      8.123  0.0000E+00  0.0000E+00  0.0000E+00
      8.225  0.0000E+00  0.0000E+00  0.0000E+00
      8.328  0.0000E+00  0.0000E+00  0.0000E+00
      8.431  0.0000E+00  0.0000E+00  0.0000E+00
      8.533  0.0000E+00  0.0000E+00  0.0000E+00
      8.53333174    -22.27354491  301      0.44652662      1.00000000
    -22.274  0.0000E+00  0.0000E+00  0.0000E+00
    -22.171  0.0000E+00  0.0000E+00  0.0000E+00
    -22.068  0.0000E+00  0.0000E+00  0.0000E+00
    -21.965  0.0000E+00  0.0000E+00  0.0000E+00
    -21.863  0.0000E+00  0.0000E+00  0.0000E+00
    -21.760  0.0000E+00  0.0000E+00  0.0000E+00
    -21.657  0.0000E+00  0.0000E+00  0.0000E+00
    -21.555  0.0000E+00  0.0000E+00  0.0000E+00
    -21.452  0.0000E+00  0.0000E+00  0.0000E+00
    -21.349  0.0000E+00  0.0000E+00  0.0000E+00
    -21.247  0.0000E+00  0.0000E+00  0.0000E+00
    -21.144  0.0000E+00  0.0000E+00  0.0000E+00
    -21.041  0.0000E+00  0.0000E+00  0.0000E+00
    -20.939  0.0000E+00  0.0000E+00  0.0000E+00
    -20.836  0.1729E+02  0.6633E-05  0.7788E-05
    -20.733  0.0000E+00  0.0000E+00  0.0000E+00
    -20.631  0.0000E+00  0.0000E+00  0.0000E+00
    -20.528  0.0000E+00  0.0000E+00  0.0000E+00
    -20.425  0.0000E+00  0.0000E+00  0.0000E+00
    -20.322  0.0000E+00  0.0000E+00  0.0000E+00
    -20.220  0.0000E+00  0.0000E+00  0.0000E+00
    -20.117  0.0000E+00  0.0000E+00  0.0000E+00
    -20.014  0.0000E+00  0.0000E+00  0.0000E+00
    -19.912  0.0000E+00  0.0000E+00  0.0000E+00
    -19.809  0.0000E+00  0.0000E+00  0.0000E+00
    -19.706  0.0000E+00  0.0000E+00  0.0000E+00
    -19.604  0.0000E+00  0.0000E+00  0.0000E+00
    -19.501  0.0000E+00  0.0000E+00  0.0000E+00
    -19.398  0.0000E+00  0.0000E+00  0.0000E+00
    -19.296  0.0000E+00  0.0000E+00  0.0000E+00
    -19.193  0.0000E+00  0.0000E+00  0.0000E+00
    -19.090  0.0000E+00  0.0000E+00  0.0000E+00
    -18.987  0.0000E+00  0.0000E+00  0.0000E+00
    -18.885  0.0000E+00  0.0000E+00  0.0000E+00
    -18.782  0.0000E+00  0.0000E+00  0.0000E+00
    -18.679  0.0000E+00  0.0000E+00  0.0000E+00
    -18.577  0.0000E+00  0.0000E+00  0.0000E+00
    -18.474  0.0000E+00  0.0000E+00  0.0000E+00
    -18.371  0.0000E+00  0.0000E+00  0.0000E+00
    -18.269  0.0000E+00  0.0000E+00  0.0000E+00
    -18.166  0.0000E+00  0.0000E+00  0.0000E+00
    -18.063  0.0000E+00  0.0000E+00  0.0000E+00
    -17.961  0.0000E+00  0.0000E+00  0.0000E+00
    -17.858  0.0000E+00  0.0000E+00  0.0000E+00
    -17.755  0.0000E+00  0.0000E+00  0.0000E+00
    -17.653  0.0000E+00  0.0000E+00  0.0000E+00
    -17.550  0.0000E+00  0.0000E+00  0.0000E+00
    -17.447  0.0000E+00  0.0000E+00  0.0000E+00
    -17.344  0.0000E+00  0.0000E+00  0.0000E+00
    -17.242  0.0000E+00  0.0000E+00  0.0000E+00
    -17.139  0.0000E+00  0.0000E+00  0.0000E+00
    -17.036  0.0000E+00  0.0000E+00  0.0000E+00
    -16.934  0.0000E+00  0.0000E+00  0.0000E+00
    -16.831  0.0000E+00  0.0000E+00  0.0000E+00
    -16.728  0.0000E+00  0.0000E+00  0.0000E+00
    -16.626  0.0000E+00  0.0000E+00  0.0000E+00
    -16.523  0.1596E-04  0.6662E-05  0.8542E-06
    -16.420  0.3246E-04  0.6424E-04  0.1195E-04
    -16.318  0.5066E-04  0.3030E-04  0.3816E-05
    -16.215  0.0000E+00  0.0000E+00  0.0000E+00
    -16.112  0.0000E+00  0.0000E+00  0.0000E+00
    -16.009  0.0000E+00  0.0000E+00  0.0000E+00
    -15.907  0.0000E+00  0.0000E+00  0.0000E+00
    -15.804  0.0000E+00  0.0000E+00  0.0000E+00
    -15.701  0.0000E+00  0.0000E+00  0.0000E+00
    -15.599  0.0000E+00  0.0000E+00  0.0000E+00
    -15.496  0.0000E+00  0.0000E+00  0.0000E+00
    -15.393  0.0000E+00  0.0000E+00  0.0000E+00
    -15.291  0.0000E+00  0.0000E+00  0.0000E+00
    -15.188  0.0000E+00  0.0000E+00  0.0000E+00
    -15.085  0.0000E+00  0.0000E+00  0.0000E+00
    -14.983  0.0000E+00  0.0000E+00  0.0000E+00
    -14.880  0.0000E+00  0.0000E+00  0.0000E+00
    -14.777  0.0000E+00  0.0000E+00  0.0000E+00
    -14.675  0.0000E+00  0.0000E+00  0.0000E+00
    -14.572  0.0000E+00  0.0000E+00  0.0000E+00
    -14.469  0.0000E+00  0.0000E+00  0.0000E+00
    -14.366  0.8179E-07  0.2136E-09  0.4067E-09
    -14.264  0.2038E-02  0.5143E-03  0.1494E-04
    -14.161  0.2323E-02  0.2955E-02  0.7329E-04
    -14.058  0.4829E-03  0.6507E-02  0.2700E-03
    -13.956  0.5703E-03  0.2536E-02  0.4137E-03
    -13.853  0.1027E-02  0.2015E-02  0.2528E-03
    -13.750  0.6827E-03  0.1440E-02  0.1723E-03
    -13.648  0.0000E+00  0.0000E+00  0.0000E+00
    -13.545  0.0000E+00  0.0000E+00  0.0000E+00
    -13.442  0.0000E+00  0.0000E+00  0.0000E+00
    -13.340  0.0000E+00  0.0000E+00  0.0000E+00
    -13.237  0.0000E+00  0.0000E+00  0.0000E+00
    -13.134  0.0000E+00  0.0000E+00  0.0000E+00