 vasp.5.4.4.18Apr17-6-g9f103f2a35 (build Jun 29 2021 14:23:36) complex           
 executed on tx2_gcc-7.3_libsci-1 date 2021.09.21  08:29:00
 running on   64 total cores
 distrk:  each k-point on   64 cores,    1 groups
 distr:  one band on NCORES_PER_BAND=   8 cores,    8 groups


--------------------------------------------------------------------------------------------------------


 INCAR:
 POTCAR:    PAW_PBE Cs_sv 08Apr2002               
 POTCAR:    PAW_PBE Pb_d 06Sep2000                
 POTCAR:    PAW_PBE Br 06Sep2000                  
 POTCAR:    PAW_PBE Cs_sv 08Apr2002               
   SHA256 =  c1463496f0f6037ed62c6012a8013a89ee9ad6ffb38599dcd6c079e7ed31779b Cs
   COPYR  = (c) Copyright 08Apr2002 Georg Kresse                                
   COPYR  = This file is part of the software VASP. Any use, copying, and all ot
   COPYR  = If you do not have a valid VASP license, you may not use, copy or di
   VRHFIN =Cs: 5s5p6s                                                           
   LEXCH  = PE                                                                  
   EATOM  =   555.6835 eV,   40.8416 Ry                                         
                                                                                
   TITEL  = PAW_PBE Cs_sv 08Apr2002                                             
   LULTRA =        F    use ultrasoft PP ?                                      
   IUNSCR =        1    unscreen: 0-lin 1-nonlin 2-no                           
   RPACOR =    2.200    partial core radius                                     
   POMASS =  132.900; ZVAL   =    9.000    mass and valenz                      
   RCORE  =    2.500    outmost cutoff radius                                   
   RWIGS  =    2.500; RWIGS  =    1.323    wigner-seitz radius (au A)           
   ENMAX  =  220.318; ENMIN  =  165.238 eV                                      
   RCLOC  =    2.207    cutoff for local pot                                    
   LCOR   =        T    correct aug charges                                     
   LPAW   =        T    paw PP                                                  
   EAUG   =  407.933                                                            
   DEXC   =    0.000                                                            
   RMAX   =    2.554    core radius for proj-oper                               
   RAUG   =    1.300    factor for augmentation sphere                          
   RDEP   =    2.590    radius for radial grids                                 
   RDEPT  =    2.117    core radius for aug-charge                              
                                                                                
   Atomic configuration                                                         
   13 entries                                                                   
     n  l   j            E        occ.                                          
     1  0  0.50    -35790.1377   2.0000                                         
     2  0  0.50     -5613.6201   2.0000                                         
     2  1  1.50     -5035.0101   6.0000                                         
     3  0  0.50     -1167.0767   2.0000                                         
     3  1  1.50      -980.9754   6.0000                                         
     3  2  2.50      -708.0703  10.0000                                         
     4  0  0.50      -220.2386   2.0000                                         
     4  1  1.50      -160.7596   6.0000                                         
     4  2  2.50       -74.2354  10.0000                                         
     5  0  0.50       -26.7287   2.0000                                         
     6  0  0.50        -2.0862   1.0000                                         
     5  1  1.50       -13.5159   6.0000                                         
     5  2  2.50        -0.4136   0.0000                                         
   Description                                                                  
     l       E           TYP  RCUT    TYP  RCUT                                 
     0    -26.7287425     23  1.900                                             
     0     -2.0862306     23  1.900                                             
     1    -13.5158719     23  2.500                                             
     1     -2.7211652     23  2.500                                             
     2     -0.4136171     23  2.500                                             
  local pseudopotential read in
  partial core-charges read in
  partial kinetic energy density read in
  atomic valenz-charges read in
  non local Contribution for L=           0  read in
    real space projection operators read in
  non local Contribution for L=           0  read in
    real space projection operators read in
  non local Contribution for L=           1  read in
    real space projection operators read in
  non local Contribution for L=           1  read in
    real space projection operators read in
  non local Contribution for L=           2  read in
    real space projection operators read in
    PAW grid and wavefunctions read in

   number of l-projection  operators is LMAX  =           5
   number of lm-projection operators is LMMAX =          13

 POTCAR:    PAW_PBE Pb_d 06Sep2000                
   SHA256 =  fb885b08f0fba73a15f6a6b0e39bd200c13ec96ef97cf3ecd8e63bade5137abd Pb
   COPYR  = (c) Copyright 06Sep2000 Georg Kresse                                
   COPYR  = This file is part of the software VASP. Any use, copying, and all ot
   COPYR  = If you do not have a valid VASP license, you may not use, copy or di
   VRHFIN =Pb:                                                                  
   LEXCH  = PE                                                                  
   EATOM  =  1661.6185 eV,  122.1255 Ry                                         
                                                                                
   TITEL  = PAW_PBE Pb_d 06Sep2000                                              
   LULTRA =        F    use ultrasoft PP ?                                      
   IUNSCR =        1    unscreen: 0-lin 1-nonlin 2-no                           
   RPACOR =    2.200    partial core radius                                     
   POMASS =  207.200; ZVAL   =   14.000    mass and valenz                      
   RCORE  =    2.500    outmost cutoff radius                                   
   RWIGS  =    3.260; RWIGS  =    1.725    wigner-seitz radius (au A)           
   ENMAX  =  237.835; ENMIN  =  178.376 eV                                      
   ICORE  =        3    local potential                                         
   LCOR   =        T    correct aug charges                                     
   LPAW   =        T    paw PP                                                  
   EAUG   =  391.914                                                            
   DEXC   =    0.000                                                            
   RMAX   =    2.565    core radius for proj-oper                               
   RAUG   =    1.300    factor for augmentation sphere                          
   RDEP   =    2.643    radius for radial grids                                 
   RDEPT  =    2.092    core radius for aug-charge                              
                                                                                
   Atomic configuration                                                         
   16 entries                                                                   
     n  l   j            E        occ.                                          
     1  0  0.50    -88091.8466   2.0000                                         
     2  0  0.50    -15753.4197   2.0000                                         
     2  1  1.50    -13508.1797   6.0000                                         
     3  0  0.50     -3781.7194   2.0000                                         
     3  1  1.50     -3138.2529   6.0000                                         
     3  2  2.50     -2483.2977  10.0000                                         
     4  0  0.50      -856.2895   2.0000                                         
     4  1  1.50      -645.4942   6.0000                                         
     4  2  2.50      -401.8768  10.0000                                         
     4  3  3.50      -132.9059  14.0000                                         
     5  0  0.50      -144.0950   2.0000                                         
     5  1  1.50       -85.7879   6.0000                                         
     5  2  2.50       -21.1769  10.0000                                         
     6  0  0.50       -12.0372   2.0000                                         
     6  1  1.50        -3.4971   2.0000                                         
     5  3  2.50        -2.7212   0.0000                                         
   Description                                                                  
     l       E           TYP  RCUT    TYP  RCUT                                 
     2    -21.1768523     23  2.500                                             
     2      1.3605826     23  2.500                                             
     0    -12.0371562     23  2.500                                             
     0     13.6058260     23  2.500                                             
     1     -3.4971339     23  2.500                                             
     1     13.6058260     23  2.500                                             
     3     -1.3605826      7  2.500                                             
  local pseudopotential read in
  partial core-charges read in
  partial kinetic energy density read in
  atomic valenz-charges read in
  non local Contribution for L=           2  read in
    real space projection operators read in
  non local Contribution for L=           2  read in
    real space projection operators read in
  non local Contribution for L=           0  read in
    real space projection operators read in
  non local Contribution for L=           0  read in
    real space projection operators read in
  non local Contribution for L=           1  read in
    real space projection operators read in
  non local Contribution for L=           1  read in
    real space projection operators read in
    PAW grid and wavefunctions read in

   number of l-projection  operators is LMAX  =           6
   number of lm-projection operators is LMMAX =          18

 POTCAR:    PAW_PBE Br 06Sep2000                  
   SHA256 =  96a73d2954943bbee26f4990d676cc6c3bf44b8dd2c75cd4b3b825d8403f0103 Br
   COPYR  = (c) Copyright 06Sep2000 Georg Kresse                                
   COPYR  = This file is part of the software VASP. Any use, copying, and all ot
   COPYR  = If you do not have a valid VASP license, you may not use, copy or di
   VRHFIN =Br: s2p5                                                             
   LEXCH  = PE                                                                  
   EATOM  =   368.4488 eV,   27.0802 Ry                                         
                                                                                
   TITEL  = PAW_PBE Br 06Sep2000                                                
   LULTRA =        F    use ultrasoft PP ?                                      
   IUNSCR =        1    unscreen: 0-lin 1-nonlin 2-no                           
   RPACOR =    1.900    partial core radius                                     
   POMASS =   79.904; ZVAL   =    7.000    mass and valenz                      
   RCORE  =    2.100    outmost cutoff radius                                   
   RWIGS  =    2.200; RWIGS  =    1.164    wigner-seitz radius (au A)           
   ENMAX  =  216.285; ENMIN  =  162.214 eV                                      
   ICORE  =        3    local potential                                         
   LCOR   =        T    correct aug charges                                     
   LPAW   =        T    paw PP                                                  
   EAUG   =  503.852                                                            
   DEXC   =    0.000                                                            
   RMAX   =    2.139    core radius for proj-oper                               
   RAUG   =    1.300    factor for augmentation sphere                          
   RDEP   =    2.186    radius for radial grids                                 
   RDEPT  =    1.890    core radius for aug-charge                              
                                                                                
   Atomic configuration                                                         
   10 entries                                                                   
     n  l   j            E        occ.                                          
     1  0  0.50    -13316.2796   2.0000                                         
     2  0  0.50     -1732.8239   2.0000                                         
     2  1  1.50     -1528.2193   6.0000                                         
     3  0  0.50      -238.0460   2.0000                                         
     3  1  1.50      -173.4609   6.0000                                         
     3  2  2.50       -66.7132  10.0000                                         
     4  0  0.50       -20.1334   2.0000                                         
     4  1  0.50        -7.8591   5.0000                                         
     4  2  2.50        -8.1635   0.0000                                         
     4  3  2.50        -8.1635   0.0000                                         
   Description                                                                  
     l       E           TYP  RCUT    TYP  RCUT                                 
     0    -20.1333652     23  2.100                                             
     0    -21.4939478     23  2.100                                             
     1     -7.8591052     23  2.100                                             
     1     -3.1608434     23  2.100                                             
     2     -8.1634956     23  2.100                                             
     3     -1.3605826      7  2.100                                             
  local pseudopotential read in
  partial core-charges read in
  partial kinetic energy density read in
  atomic valenz-charges read in
  non local Contribution for L=           0  read in
    real space projection operators read in
  non local Contribution for L=           0  read in
    real space projection operators read in
  non local Contribution for L=           1  read in
    real space projection operators read in
  non local Contribution for L=           1  read in
    real space projection operators read in
  non local Contribution for L=           2  read in
    real space projection operators read in
    PAW grid and wavefunctions read in

   number of l-projection  operators is LMAX  =           5
   number of lm-projection operators is LMMAX =          13

 Optimization of the real space projectors (new method)

 maximal supplied QI-value         = 15.12
 optimisation between [QCUT,QGAM] = [  8.77, 17.69] = [ 21.53, 87.61] Ry 
 Optimized for a Real-space Cutoff    1.85 Angstroem

   l    n(q)    QCUT    max X(q) W(low)/X(q) W(high)/X(q)  e(spline) 
   0     10     8.768    25.322    0.81E-04    0.51E-04    0.48E-06
   0     10     8.768    99.187    0.78E-04    0.50E-04    0.47E-06
   1      9     8.768    11.761    0.21E-03    0.20E-03    0.37E-06
   1      9     8.768     8.275    0.24E-03    0.22E-03    0.41E-06
   2      9     8.768     3.829    0.23E-04    0.15E-03    0.18E-06
 Optimization of the real space projectors (new method)

 maximal supplied QI-value         = 15.12
 optimisation between [QCUT,QGAM] = [  8.77, 17.69] = [ 21.53, 87.61] Ry 
 Optimized for a Real-space Cutoff    1.59 Angstroem

   l    n(q)    QCUT    max X(q) W(low)/X(q) W(high)/X(q)  e(spline) 
   2      7     8.768     3.846    0.48E-04    0.11E-03    0.11E-06
   2      7     8.768     8.593    0.20E-03    0.22E-04    0.24E-06
   0      8     8.768    20.082    0.68E-04    0.88E-04    0.41E-07
   0      8     8.768     8.597    0.89E-04    0.13E-03    0.59E-07
   1      8     8.768    33.223    0.15E-03    0.53E-04    0.87E-07
   1      8     8.768    15.899    0.14E-03    0.44E-04    0.78E-07
 Optimization of the real space projectors (new method)

 maximal supplied QI-value         = 17.95
 optimisation between [QCUT,QGAM] = [  8.80, 17.59] = [ 21.67, 86.68] Ry 
 Optimized for a Real-space Cutoff    1.59 Angstroem

   l    n(q)    QCUT    max X(q) W(low)/X(q) W(high)/X(q)  e(spline) 
   0      8     8.797   175.082    0.82E-04    0.14E-03    0.89E-07
   0      8     8.797   174.004    0.79E-04    0.14E-03    0.86E-07
   1      8     8.797    54.315    0.16E-03    0.14E-04    0.30E-06
   1      8     8.797    42.441    0.16E-03    0.14E-04    0.30E-06
   2      7     8.797     3.596    0.92E-04    0.15E-03    0.85E-07
  PAW_PBE Cs_sv 08Apr2002               :
 energy of atom  1       EATOM= -555.6835
 kinetic energy error for atom=    0.0069 (will be added to EATOM!!)
  PAW_PBE Pb_d 06Sep2000                :
 energy of atom  2       EATOM=-1661.6185
 kinetic energy error for atom=    0.0498 (will be added to EATOM!!)
  PAW_PBE Br 06Sep2000                  :
 energy of atom  3       EATOM= -368.4488
 kinetic energy error for atom=    0.0072 (will be added to EATOM!!)


 POSCAR: Cs4 Pb4 Br12                            
  positions in direct lattice
  velocities in cartesian coordinates

 METAGGA = SCAN     LMAXTAU =  6    LMIXTAU =  F

 exchange correlation table for  LEXCH =        8
   RHO(1)=    0.500       N(1)  =     2000
   RHO(2)=  100.500       N(2)  =     4000

 VTST: version 3.2, (02/03/18)

 CHAIN: initializing optimizer
 
 OPT: Using VASP Conjugate-Gradient optimizer
 CHAIN: Read ICHAIN            0

 POSCAR: Cs4 Pb4 Br12                            
  positions in direct lattice
  velocities in cartesian coordinates



--------------------------------------------------------------------------------------------------------


 ion  position               nearest neighbor table
   1  0.057  0.250  0.483-
   2  0.443  0.750  0.983-
   3  0.557  0.250  0.017-
   4  0.943  0.750  0.517-
   5  0.000  0.000  0.000-  15 2.98  18 2.98  16 2.99  17 2.99  10 3.07  11 3.07
   6  0.500  0.000  0.500-  17 2.98  16 2.98  15 2.99  18 2.99   9 3.07  12 3.07
   7  0.500  0.500  0.500-  13 2.98  19 2.98  14 2.99  20 2.99   9 3.07  12 3.07
   8  0.000  0.500  0.000-  14 2.98  20 2.98  19 2.99  13 2.99  10 3.07  11 3.07
   9  0.501  0.750  0.462-   6 3.07   7 3.07
  10  0.999  0.250  0.962-   5 3.07   8 3.07
  11  0.001  0.750  0.038-   5 3.07   8 3.07
  12  0.499  0.250  0.538-   6 3.07   7 3.07
  13  0.311  0.476  0.183-   7 2.98   8 2.99
  14  0.189  0.524  0.683-   8 2.98   7 2.99
  15  0.811  0.024  0.317-   5 2.98   6 2.99
  16  0.689  0.976  0.817-   6 2.98   5 2.99
  17  0.311  0.024  0.183-   6 2.98   5 2.99
  18  0.189  0.976  0.683-   5 2.98   6 2.99
  19  0.689  0.524  0.817-   7 2.98   8 2.99
  20  0.811  0.476  0.317-   8 2.98   7 2.99

  LATTYP: Found a simple orthorhombic cell.
 ALAT       =     7.9457685781
 B/A-ratio  =     1.0498654435
 C/A-ratio  =     1.5397327490
  
  Lattice vectors:
  
 A1 = (   0.0000000000,   0.0000000000,   7.9457685781)
 A2 = (  -8.3419878525,   0.0000000000,   0.0000000000)
 A3 = (   0.0000000000, -12.2343600960,   0.0000000000)


Analysis of symmetry for initial positions (statically):
=====================================================================
 Subroutine PRICEL returns:
 Original cell was already a primitive cell.
 

 Routine SETGRP: Setting up the symmetry group for a 
 simple orthorhombic supercell.


 Subroutine GETGRP returns: Found  8 space group operations
 (whereof  2 operations were pure point group operations)
 out of a pool of  8 trial point group operations.


The static configuration has the point symmetry S_2 .
 The point group associated with its full space group is D_2h.


Analysis of symmetry for dynamics (positions and initial velocities):
=====================================================================
 Subroutine PRICEL returns:
 Original cell was already a primitive cell.
 

 Routine SETGRP: Setting up the symmetry group for a 
 simple orthorhombic supercell.


 Subroutine GETGRP returns: Found  8 space group operations
 (whereof  2 operations were pure point group operations)
 out of a pool of  8 trial point group operations.


The dynamic configuration has the point symmetry S_2 .
 The point group associated with its full space group is D_2h.


 Subroutine INISYM returns: Found  8 space group operations
 (whereof  2 operations are pure point group operations),
 and found     1 'primitive' translations



 KPOINTS: 1x1x1                                   

Automatic generation of k-mesh.
Space group operators:
 irot       det(A)        alpha          n_x          n_y          n_z        tau_x        tau_y        tau_z
    1     1.000000     0.000000     1.000000     0.000000     0.000000     0.000000     0.000000     0.000000
    2    -1.000000     0.000000     1.000000     0.000000     0.000000     0.000000     0.000000     0.000000
    3     1.000000   180.000000     0.000000     1.000000     0.000000     0.000000    -0.500000     0.000000
    4    -1.000000   180.000000     0.000000     1.000000     0.000000     0.000000    -0.500000     0.000000
    5     1.000000   180.000000     1.000000     0.000000     0.000000    -0.500000    -0.500000     0.500000
    6    -1.000000   180.000000     1.000000     0.000000     0.000000    -0.500000    -0.500000     0.500000
    7     1.000000   180.000000     0.000000     0.000000     1.000000    -0.500000     0.000000     0.500000
    8    -1.000000   180.000000     0.000000     0.000000     1.000000    -0.500000     0.000000     0.500000
 
 Subroutine IBZKPT returns following result:
 ===========================================
 
 Found      8 irreducible k-points:
 
 Following reciprocal coordinates:
            Coordinates               Weight
  0.000000  0.000000  0.000000      1.000000
  0.333333  0.000000  0.000000      2.000000
  0.000000  0.500000  0.000000      1.000000
  0.333333  0.500000  0.000000      2.000000
  0.000000  0.000000  0.333333      2.000000
  0.333333  0.000000  0.333333      4.000000
  0.000000  0.500000  0.333333      2.000000
  0.333333  0.500000  0.333333      4.000000
 
 Following cartesian coordinates:
            Coordinates               Weight
  0.000000  0.000000  0.000000      1.000000
  0.039959  0.000000  0.000000      2.000000
  0.000000  0.040869  0.000000      1.000000
  0.039959  0.040869  0.000000      2.000000
  0.000000  0.000000  0.041951      2.000000
  0.039959  0.000000  0.041951      4.000000
  0.000000  0.040869  0.041951      2.000000
  0.039959  0.040869  0.041951      4.000000
 


--------------------------------------------------------------------------------------------------------




 Dimension of arrays:
   k-points           NKPTS =      8   k-points in BZ     NKDIM =      8   number of bands    NBANDS=    112
   number of dos      NEDOS =    301   number of ions     NIONS =     20
   non local maximal  LDIM  =      6   non local SUM 2l+1 LMDIM =     18
   total plane-waves  NPLWV = 161280
   max r-space proj   IRMAX =   5307   max aug-charges    IRDMAX=  84662
   dimension x,y,z NGX =    48 NGY =   70 NGZ =   48
   dimension x,y,z NGXF=    96 NGYF=  140 NGZF=   96
   support grid    NGXF=   192 NGYF=  280 NGZF=  192
   ions per type =               4   4  12
   NGX,Y,Z   is equivalent  to a cutoff of   9.57,  9.51, 10.04 a.u.
   NGXF,Y,Z  is equivalent  to a cutoff of  19.13, 19.02, 20.09 a.u.

 SYSTEM =  CsPbBr3 cubic bulk                      
 POSCAR =  Cs4 Pb4 Br12                            

 Startparameter for this run:
   NWRITE =      2    write-flag & timer
   PREC   = accura    normal or accurate (medium, high low for compatibility)
   ISTART =      0    job   : 0-new  1-cont  2-samecut
   ICHARG =      2    charge: 1-file 2-atom 10-const
   ISPIN  =      1    spin polarized calculation?
   LNONCOLLINEAR =      F non collinear calculations
   LSORBIT =      F    spin-orbit coupling
   INIWAV =      1    electr: 0-lowe 1-rand  2-diag
   LASPH  =      T    aspherical Exc in radial PAW
   METAGGA=      F    non-selfconsistent MetaGGA calc.

 Electronic Relaxation 1
   ENCUT  =  300.0 eV  22.05 Ry    4.70 a.u.  11.78 17.28 11.22*2*pi/ulx,y,z
   ENINI  =  300.0     initial cutoff
   ENAUG  =  503.9 eV  augmentation charge cutoff
   NELM   =    200;   NELMIN=  2; NELMDL= -5     # of ELM steps 
   EDIFF  = 0.1E-05   stopping-criterion for ELM
   LREAL  =      T    real-space projection
   NLSPLINE    = F    spline interpolate recip. space projectors
   LCOMPAT=      F    compatible to vasp.4.4
   GGA_COMPAT  = T    GGA compatible to vasp.4.4-vasp.4.6
   LMAXPAW     = -100 max onsite density
   LMAXMIX     =    2 max onsite mixed and CHGCAR
   VOSKOWN=      0    Vosko Wilk Nusair interpolation
   ROPT   =   -0.00025  -0.00025  -0.00025
 Ionic relaxation
   EDIFFG = -.1E-01   stopping-criterion for IOM
   NSW    =      0    number of steps for IOM
   NBLOCK =      1;   KBLOCK =      1    inner block; outer block 
   IBRION =     -1    ionic relax: 0-MD 1-quasi-New 2-CG
   NFREE  =      1    steps in history (QN), initial steepest desc. (CG)
   ISIF   =      3    stress and relaxation
   IWAVPR =     10    prediction:  0-non 1-charg 2-wave 3-comb
   ISYM   =      2    0-nonsym 1-usesym 2-fastsym
   LCORR  =      T    Harris-Foulkes like correction to forces

   POTIM  = 0.5000    time-step for ionic-motion
   TEIN   =    0.0    initial temperature
   TEBEG  =    0.0;   TEEND  =   0.0 temperature during run
   SMASS  =  -3.00    Nose mass-parameter (am)
   estimated Nose-frequenzy (Omega)   =  0.10E-29 period in steps =****** mass=  -0.159E-26a.u.
   SCALEE = 1.0000    scale energy and forces
   NPACO  =    256;   APACO  = 16.0  distance and # of slots for P.C.
   PSTRESS=    0.0 pullay stress

  Mass of Ions in am
   POMASS = 132.90207.20 79.90
  Ionic Valenz
   ZVAL   =   9.00 14.00  7.00
  Atomic Wigner-Seitz radii
   RWIGS  =  -1.00 -1.00 -1.00
  virtual crystal weights 
   VCA    =   1.00  1.00  1.00
   NELECT =     176.0000    total number of electrons
   NUPDOWN=      -1.0000    fix difference up-down

 DOS related values:
   EMIN   =  10.00;   EMAX   =-10.00  energy-range for DOS
   EFERMI =   0.00
   ISMEAR =     0;   SIGMA  =   0.01  broadening in eV -4-tet -1-fermi 0-gaus

 Electronic relaxation 2 (details)
   IALGO  =     38    algorithm
   LDIAG  =      T    sub-space diagonalisation (order eigenvalues)
   LSUBROT=      F    optimize rotation matrix (better conditioning)
   TURBO    =      0    0=normal 1=particle mesh
   IRESTART =      0    0=no restart 2=restart with 2 vectors
   NREBOOT  =      0    no. of reboots
   NMIN     =      0    reboot dimension
   EREF     =   0.00    reference energy to select bands
   IMIX   =      4    mixing-type and parameters
     AMIX     =   0.40;   BMIX     =  1.00
     AMIX_MAG =   1.60;   BMIX_MAG =  1.00
     AMIN     =   0.10
     WC   =   100.;   INIMIX=   1;  MIXPRE=   1;  MAXMIX= -45

 Intra band minimization:
   WEIMIN = 0.0000     energy-eigenvalue tresh-hold
   EBREAK =  0.22E-08  absolut break condition
   DEPER  =   0.30     relativ break condition  

   TIME   =   0.40     timestep for ELM

  volume/ion in A,a.u.               =      40.55       273.62
  Fermi-wavevector in a.u.,A,eV,Ry     =   0.983823  1.859155 13.169174  0.967907
  Thomas-Fermi vector in A             =   2.115009

 Write flags
   LWAVE        =      F    write WAVECAR
   LDOWNSAMPLE  =      F    k-point downsampling of WAVECAR
   LCHARG       =      F    write CHGCAR
   LVTOT        =      F    write LOCPOT, total local potential
   LVHAR        =      T    write LOCPOT, Hartree potential only
   LELF         =      F    write electronic localiz. function (ELF)
   LORBIT       =     10    0 simple, 1 ext, 2 COOP (PROOUT), +10 PAW based schemes


 Dipole corrections
   LMONO  =      F    monopole corrections only (constant potential shift)
   LDIPOL =      F    correct potential (dipole corrections)
   IDIPOL =      0    1-x, 2-y, 3-z, 4-all directions 
   EPSILON=  1.0000000 bulk dielectric constant

 Exchange correlation treatment:
   GGA     =    --    GGA type
   LEXCH   =     8    internal setting for exchange type
   VOSKOWN=      0    Vosko Wilk Nusair interpolation
   LHFCALC =     F    Hartree Fock is set to
   LHFONE  =     F    Hartree Fock one center treatment
   AEXX    =    0.0000 exact exchange contribution

 Linear response parameters
   LEPSILON=     F    determine dielectric tensor
   LRPA    =     F    only Hartree local field effects (RPA)
   LNABLA  =     F    use nabla operator in PAW spheres
   LVEL    =     F    velocity operator in full k-point grid
   LINTERFAST=   F  fast interpolation
   KINTER  =     0    interpolate to denser k-point grid
   CSHIFT  =0.1000    complex shift for real part using Kramers Kronig
   OMEGAMAX=  -1.0    maximum frequency
   DEG_THRESHOLD= 0.2000000E-02 threshold for treating states as degnerate
   RTIME   =   -0.100 relaxation time in fs
  (WPLASMAI=    0.000 imaginary part of plasma frequency in eV, 0.658/RTIME)
   DFIELD  = 0.0000000 0.0000000 0.0000000 field for delta impulse in time

 Orbital magnetization related:
   ORBITALMAG=     F  switch on orbital magnetization
   LCHIMAG   =     F  perturbation theory with respect to B field
   DQ        =  0.001000  dq finite difference perturbation B field
   LLRAUG    =     F  two centre corrections for induced B field



--------------------------------------------------------------------------------------------------------


 Static calculation
 charge density and potential will be updated during run
 non-spin polarized calculation
 Variant of blocked Davidson
 Davidson routine will perform the subspace rotation
 perform sub-space diagonalisation
    after iterative eigenvector-optimisation
 modified Broyden-mixing scheme, WC =      100.0
 initial mixing is a Kerker type mixing with AMIX =  0.4000 and BMIX =      1.0000
 Hartree-type preconditioning will be used
 using additional bands           24
 real space projection scheme for non local part
 use partial core corrections
 calculate Harris-corrections to forces   (improved forces if not selfconsistent)
 use gradient corrections 
 use of overlap-Matrix (Vanderbilt PP)
 Gauss-broadening in eV      SIGMA  =   0.01


--------------------------------------------------------------------------------------------------------


  energy-cutoff  :      300.00
  volume of cell :      810.94
      direct lattice vectors                 reciprocal lattice vectors
     8.341987852  0.000000000  0.000000000     0.119875504  0.000000000  0.000000000
     0.000000000 12.234360096  0.000000000     0.000000000  0.081737009  0.000000000
     0.000000000  0.000000000  7.945768578     0.000000000  0.000000000  0.125853149

  length of vectors
     8.341987852 12.234360096  7.945768578     0.119875504  0.081737009  0.125853149



 k-points in units of 2pi/SCALE and weight: 1x1x1                                   
   0.00000000  0.00000000  0.00000000       0.056
   0.03995850  0.00000000  0.00000000       0.111
   0.00000000  0.04086850  0.00000000       0.056
   0.03995850  0.04086850  0.00000000       0.111
   0.00000000  0.00000000  0.04195105       0.111
   0.03995850  0.00000000  0.04195105       0.222
   0.00000000  0.04086850  0.04195105       0.111
   0.03995850  0.04086850  0.04195105       0.222

 k-points in reciprocal lattice and weights: 1x1x1                                   
   0.00000000  0.00000000  0.00000000       0.056
   0.33333333  0.00000000  0.00000000       0.111
   0.00000000  0.50000000  0.00000000       0.056
   0.33333333  0.50000000  0.00000000       0.111
   0.00000000  0.00000000  0.33333333       0.111
   0.33333333  0.00000000  0.33333333       0.222
   0.00000000  0.50000000  0.33333333       0.111
   0.33333333  0.50000000  0.33333333       0.222

 position of ions in fractional coordinates (direct lattice) 
   0.05664951  0.25000000  0.48260195
   0.44335049  0.75000000  0.98260195
   0.55664951  0.25000000  0.01739805
   0.94335049  0.75000000  0.51739805
   0.00000000  0.00000000  0.00000000
   0.50000000  0.00000000  0.50000000
   0.50000000  0.50000000  0.50000000
   0.00000000  0.50000000  0.00000000
   0.50094904  0.75000000  0.46235596
   0.99905096  0.25000000  0.96235596
   0.00094904  0.75000000  0.03764404
   0.49905096  0.25000000  0.53764404
   0.31116108  0.47643547  0.18334590
   0.18883892  0.52356453  0.68334590
   0.81116108  0.02356453  0.31665410
   0.68883892  0.97643547  0.81665410
   0.31116108  0.02356453  0.18334590
   0.18883892  0.97643547  0.68334590
   0.68883892  0.52356453  0.81665410
   0.81116108  0.47643547  0.31665410

 position of ions in cartesian coordinates  (Angst):
   0.47256948  3.05859002  3.83464342
   3.69842444  9.17577007  7.80752771
   4.64356341  3.05859002  0.13824087
   7.86941837  9.17577007  4.11112516
   0.00000000  0.00000000  0.00000000
   4.17099393  0.00000000  3.97288429
   4.17099393  6.11718005  3.97288429
   0.00000000  6.11718005  0.00000000
   4.17891083  9.17577007  3.67377347
   8.33407094  3.05859002  7.64665775
   0.00791691  9.17577007  0.29911082
   4.16307702  3.05859002  4.27199511
   2.59570199  5.82888309  1.45682411
   1.57529194  6.40547700  5.42970840
   6.76669591  0.28829696  2.51606018
   5.74628586 11.94606314  6.48894446
   2.59570199  0.28829696  1.45682411
   1.57529194 11.94606314  5.42970840
   5.74628586  6.40547700  6.48894446
   6.76669591  5.82888309  2.51606018



--------------------------------------------------------------------------------------------------------


 k-point  1 :   0.0000 0.0000 0.0000  plane waves:    9599
 k-point  2 :   0.3333 0.0000 0.0000  plane waves:    9572
 k-point  3 :   0.0000 0.5000 0.0000  plane waves:    9574
 k-point  4 :   0.3333 0.5000 0.0000  plane waves:    9560
 k-point  5 :   0.0000 0.0000 0.3333  plane waves:    9570
 k-point  6 :   0.3333 0.0000 0.3333  plane waves:    9578
 k-point  7 :   0.0000 0.5000 0.3333  plane waves:    9596
 k-point  8 :   0.3333 0.5000 0.3333  plane waves:    9568

 maximum and minimum number of plane-waves per node :      1219     1171

 maximum number of plane-waves:      9599
 maximum index in each direction: 
   IXMAX=   11   IYMAX=   17   IZMAX=   11
   IXMIN=  -12   IYMIN=  -17   IZMIN=  -11


 real space projection operators:
  total allocation   :       7879.12 KBytes
  max/ min on nodes  :       1033.88        936.56


 parallel 3D FFT for wavefunctions:
    minimum data exchange during FFTs selected (reduces bandwidth)
 parallel 3D FFT for charge:
    minimum data exchange during FFTs selected (reduces bandwidth)


 total amount of memory used by VASP MPI-rank0    42328. kBytes
=======================================================================

   base      :      30000. kBytes
   nonlr-proj:       2940. kBytes
   fftplans  :       3668. kBytes
   grid      :       3424. kBytes
   one-center:         46. kBytes
   wavefun   :       2250. kBytes

     INWAV:  cpu time    0.0000: real time    0.0000
 Broyden mixing: mesh for mixing (old mesh)
   NGX = 23   NGY = 35   NGZ = 23
  (NGX  = 96   NGY  =140   NGZ  = 96)
  gives a total of  18515 points

 initial charge density was supplied:
 charge density of overlapping atoms calculated
 number of electron     176.0000000 magnetization 
 keeping initial charge density in first step


--------------------------------------------------------------------------------------------------------


 Maximum index for non-local projection operator          612
 Maximum index for augmentation-charges         2307 (set IRDMAX)


--------------------------------------------------------------------------------------------------------


 First call to EWALD:  gamma=   0.190
 Maximum number of real-space cells 3x 2x 3
 Maximum number of reciprocal cells 3x 3x 2

    FEWALD:  cpu time    0.0021: real time    0.0021


--------------------------------------- Iteration      1(   1)  ---------------------------------------


    POTLOK:  cpu time    0.1326: real time    0.1326
    SETDIJ:  cpu time    1.0958: real time    1.0962
     EDDAV:  cpu time    4.0411: real time    4.0459
       DOS:  cpu time    0.0005: real time    0.0005
    --------------------------------------------
      LOOP:  cpu time    5.2700: real time    5.2752

 eigenvalue-minimisations  :  1888
 total energy-change (2. order) : 0.6585308E+03  (-0.5611529E+04)
 number of electron     176.0000000 magnetization 
 augmentation part      176.0000000 magnetization 

 Free energy of the ion-electron system (eV)
  ---------------------------------------------------
  alpha Z        PSCENC =       444.92884086
  Ewald energy   TEWEN  =     -9204.62224518
  -Hartree energ DENC   =     -3665.25954850
  -exchange      EXHF   =         0.00000000
  -V(xc)+E(xc)   XCENC  =       461.65917910
  PAW double counting   =     10816.98087266   -11353.96092700
  entropy T*S    EENTRO =        -0.00000000
  eigenvalues    EBANDS =      -131.47547751
  atomic energy  EATOM  =     13290.28009929
  Solvation  Ediel_sol  =         0.00000000
  ---------------------------------------------------
  free energy    TOTEN  =       658.53079370 eV

  energy without entropy =      658.53079370  energy(sigma->0) =      658.53079370


--------------------------------------------------------------------------------------------------------




--------------------------------------- Iteration      1(   2)  ---------------------------------------


     EDDAV:  cpu time    4.4422: real time    4.4913
       DOS:  cpu time    0.0003: real time    0.0003
    --------------------------------------------
      LOOP:  cpu time    4.4425: real time    4.4916

 eigenvalue-minimisations  :  2184
 total energy-change (2. order) :-0.1233326E+04  (-0.1182952E+04)
 number of electron     176.0000000 magnetization 
 augmentation part      176.0000000 magnetization 

 Free energy of the ion-electron system (eV)
  ---------------------------------------------------
  alpha Z        PSCENC =       444.92884086
  Ewald energy   TEWEN  =     -9204.62224518
  -Hartree energ DENC   =     -3665.25954850
  -exchange      EXHF   =         0.00000000
  -V(xc)+E(xc)   XCENC  =       461.65917910
  PAW double counting   =     10816.98087266   -11353.96092700
  entropy T*S    EENTRO =        -0.00000000
  eigenvalues    EBANDS =     -1364.80139751
  atomic energy  EATOM  =     13290.28009929
  Solvation  Ediel_sol  =         0.00000000
  ---------------------------------------------------
  free energy    TOTEN  =      -574.79512630 eV

  energy without entropy =     -574.79512630  energy(sigma->0) =     -574.79512630


--------------------------------------------------------------------------------------------------------




--------------------------------------- Iteration      1(   3)  ---------------------------------------


     EDDAV:  cpu time    4.7740: real time    4.8188
       DOS:  cpu time    0.0003: real time    0.0003
    --------------------------------------------
      LOOP:  cpu time    4.7743: real time    4.8191

 eigenvalue-minimisations  :  2432
 total energy-change (2. order) :-0.1741032E+03  (-0.1730049E+03)
 number of electron     176.0000000 magnetization 
 augmentation part      176.0000000 magnetization 

 Free energy of the ion-electron system (eV)
  ---------------------------------------------------
  alpha Z        PSCENC =       444.92884086
  Ewald energy   TEWEN  =     -9204.62224518
  -Hartree energ DENC   =     -3665.25954850
  -exchange      EXHF   =         0.00000000
  -V(xc)+E(xc)   XCENC  =       461.65917910
  PAW double counting   =     10816.98087266   -11353.96092700
  entropy T*S    EENTRO =        -0.00000000
  eigenvalues    EBANDS =     -1538.90461554
  atomic energy  EATOM  =     13290.28009929
  Solvation  Ediel_sol  =         0.00000000
  ---------------------------------------------------
  free energy    TOTEN  =      -748.89834432 eV

  energy without entropy =     -748.89834432  energy(sigma->0) =     -748.89834432


--------------------------------------------------------------------------------------------------------




--------------------------------------- Iteration      1(   4)  ---------------------------------------


     EDDAV:  cpu time    4.4112: real time    4.4141
       DOS:  cpu time    0.0003: real time    0.0003
    --------------------------------------------
      LOOP:  cpu time    4.4115: real time    4.4144

 eigenvalue-minimisations  :  2136
 total energy-change (2. order) :-0.5599031E+01  (-0.5581581E+01)
 number of electron     176.0000000 magnetization 
 augmentation part      176.0000000 magnetization 

 Free energy of the ion-electron system (eV)
  ---------------------------------------------------
  alpha Z        PSCENC =       444.92884086
  Ewald energy   TEWEN  =     -9204.62224518
  -Hartree energ DENC   =     -3665.25954850
  -exchange      EXHF   =         0.00000000
  -V(xc)+E(xc)   XCENC  =       461.65917910
  PAW double counting   =     10816.98087266   -11353.96092700
  entropy T*S    EENTRO =        -0.00000000
  eigenvalues    EBANDS =     -1544.50364616
  atomic energy  EATOM  =     13290.28009929
  Solvation  Ediel_sol  =         0.00000000
  ---------------------------------------------------
  free energy    TOTEN  =      -754.49737495 eV

  energy without entropy =     -754.49737495  energy(sigma->0) =     -754.49737495


--------------------------------------------------------------------------------------------------------




--------------------------------------- Iteration      1(   5)  ---------------------------------------


     EDDAV:  cpu time    4.6887: real time    4.7184
       DOS:  cpu time    0.0003: real time    0.0003
    CHARGE:  cpu time    0.8655: real time    0.8656
    MIXING:  cpu time    0.0008: real time    0.0008
    --------------------------------------------
      LOOP:  cpu time    5.5554: real time    5.5851

 eigenvalue-minimisations  :  2368
 total energy-change (2. order) :-0.2457892E+00  (-0.2456509E+00)
 number of electron     176.0000000 magnetization 
 augmentation part       -3.2429477 magnetization 

 Broyden mixing:
  rms(total) = 0.70021E+00    rms(broyden)= 0.69996E+00
  rms(prec ) = 0.96228E+00
  weight for this iteration     100.00

 Free energy of the ion-electron system (eV)
  ---------------------------------------------------
  alpha Z        PSCENC =       444.92884086
  Ewald energy   TEWEN  =     -9204.62224518
  -Hartree energ DENC   =     -3665.25954850
  -exchange      EXHF   =         0.00000000
  -V(xc)+E(xc)   XCENC  =       461.65917910
  PAW double counting   =     10816.98087266   -11353.96092700
  entropy T*S    EENTRO =        -0.00000000
  eigenvalues    EBANDS =     -1544.74943541
  atomic energy  EATOM  =     13290.28009929
  Solvation  Ediel_sol  =         0.00000000
  ---------------------------------------------------
  free energy    TOTEN  =      -754.74316420 eV

  energy without entropy =     -754.74316420  energy(sigma->0) =     -754.74316420


--------------------------------------------------------------------------------------------------------




--------------------------------------- Iteration      1(   6)  ---------------------------------------


    POTLOK:  cpu time    0.1256: real time    0.1709
    SETDIJ:  cpu time    1.0935: real time    1.0935
     EDDAV:  cpu time    4.6461: real time    4.6463
       DOS:  cpu time    0.0004: real time    0.0004
    CHARGE:  cpu time    0.8310: real time    0.8310
    MIXING:  cpu time    0.0009: real time    0.0009
    --------------------------------------------
      LOOP:  cpu time    6.6974: real time    6.7429

 eigenvalue-minimisations  :  2352
 total energy-change (2. order) : 0.3981698E+02  (-0.1179762E+01)
 number of electron     176.0000000 magnetization 
 augmentation part       -2.5149584 magnetization 

 Broyden mixing:
  rms(total) = 0.49955E+00    rms(broyden)= 0.49947E+00
  rms(prec ) = 0.61587E+00
  weight for this iteration     100.00

 eigenvalues of (default mixing * dielectric matrix)
  average eigenvalue GAMMA=   1.1497
  1.1497

 Free energy of the ion-electron system (eV)
  ---------------------------------------------------
  alpha Z        PSCENC =       444.92884086
  Ewald energy   TEWEN  =     -9204.62224518
  -Hartree energ DENC   =     -3655.57983827
  -exchange      EXHF   =         0.00000000
  -V(xc)+E(xc)   XCENC  =       477.19424826
  PAW double counting   =     10953.81787574   -11489.81716134
  entropy T*S    EENTRO =        -0.00000000
  eigenvalues    EBANDS =     -1531.12800063
  atomic energy  EATOM  =     13290.28009929
  Solvation  Ediel_sol  =         0.00000000
  ---------------------------------------------------
  free energy    TOTEN  =      -714.92618127 eV

  energy without entropy =     -714.92618127  energy(sigma->0) =     -714.92618127


--------------------------------------------------------------------------------------------------------




--------------------------------------- Iteration      1(   7)  ---------------------------------------


    POTLOK:  cpu time    0.1481: real time    0.1530
    SETDIJ:  cpu time    1.0929: real time    1.0929
     EDDAV:  cpu time    4.4563: real time    4.4566
       DOS:  cpu time    0.0004: real time    0.0004
    CHARGE:  cpu time    0.8295: real time    0.8295
    MIXING:  cpu time    0.0009: real time    0.0009
    --------------------------------------------
      LOOP:  cpu time    6.5281: real time    6.5333

 eigenvalue-minimisations  :  2216
 total energy-change (2. order) : 0.2447421E+00  (-0.3899013E+00)
 number of electron     176.0000000 magnetization 
 augmentation part       -2.2493879 magnetization 

 Broyden mixing:
  rms(total) = 0.25965E+00    rms(broyden)= 0.25964E+00
  rms(prec ) = 0.28375E+00
  weight for this iteration     100.00

 eigenvalues of (default mixing * dielectric matrix)
  average eigenvalue GAMMA=   1.3132
  1.3132  1.3132

 Free energy of the ion-electron system (eV)
  ---------------------------------------------------
  alpha Z        PSCENC =       444.92884086
  Ewald energy   TEWEN  =     -9204.62224518
  -Hartree energ DENC   =     -3675.24493825
  -exchange      EXHF   =         0.00000000
  -V(xc)+E(xc)   XCENC  =       479.74193351
  PAW double counting   =     11252.51870629   -11787.53367660
  entropy T*S    EENTRO =        -0.00000000
  eigenvalues    EBANDS =     -1514.75015909
  atomic energy  EATOM  =     13290.28009929
  Solvation  Ediel_sol  =         0.00000000
  ---------------------------------------------------
  free energy    TOTEN  =      -714.68143918 eV

  energy without entropy =     -714.68143918  energy(sigma->0) =     -714.68143918


--------------------------------------------------------------------------------------------------------




--------------------------------------- Iteration      1(   8)  ---------------------------------------


    POTLOK:  cpu time    0.1178: real time    0.1705
    SETDIJ:  cpu time    1.0937: real time    1.0938
     EDDAV:  cpu time    4.3330: real time    4.3331
       DOS:  cpu time    0.0005: real time    0.0004
    CHARGE:  cpu time    0.8286: real time    0.8286
    MIXING:  cpu time    0.0009: real time    0.0009
    --------------------------------------------
      LOOP:  cpu time    6.3745: real time    6.4274

 eigenvalue-minimisations  :  2120
 total energy-change (2. order) :-0.9662629E-01  (-0.1854703E-01)
 number of electron     176.0000000 magnetization 
 augmentation part       -2.2919154 magnetization 

 Broyden mixing:
  rms(total) = 0.14885E+00    rms(broyden)= 0.14885E+00
  rms(prec ) = 0.16425E+00
  weight for this iteration     100.00

 eigenvalues of (default mixing * dielectric matrix)
  average eigenvalue GAMMA=   1.7123
  1.1087  1.3008  2.7275

 Free energy of the ion-electron system (eV)
  ---------------------------------------------------
  alpha Z        PSCENC =       444.92884086
  Ewald energy   TEWEN  =     -9204.62224518
  -Hartree energ DENC   =     -3677.44093099
  -exchange      EXHF   =         0.00000000
  -V(xc)+E(xc)   XCENC  =       480.07935546
  PAW double counting   =     11370.18007327   -11905.32862037
  entropy T*S    EENTRO =        -0.00000000
  eigenvalues    EBANDS =     -1512.85463780
  atomic energy  EATOM  =     13290.28009929
  Solvation  Ediel_sol  =         0.00000000
  ---------------------------------------------------
  free energy    TOTEN  =      -714.77806547 eV

  energy without entropy =     -714.77806547  energy(sigma->0) =     -714.77806547


--------------------------------------------------------------------------------------------------------




--------------------------------------- Iteration      1(   9)  ---------------------------------------


    POTLOK:  cpu time    0.1263: real time    0.1772
    SETDIJ:  cpu time    1.0950: real time    1.0950
     EDDAV:  cpu time    4.0523: real time    4.0524
       DOS:  cpu time    0.0006: real time    0.0006
    CHARGE:  cpu time    0.8318: real time    0.8318
    MIXING:  cpu time    0.0008: real time    0.0009
    --------------------------------------------
      LOOP:  cpu time    6.1068: real time    6.1579

 eigenvalue-minimisations  :  1912
 total energy-change (2. order) :-0.4212472E-01  (-0.8761181E-02)
 number of electron     176.0000000 magnetization 
 augmentation part       -2.3140333 magnetization 

 Broyden mixing:
  rms(total) = 0.32464E-01    rms(broyden)= 0.32461E-01
  rms(prec ) = 0.34672E-01
  weight for this iteration     100.00

 eigenvalues of (default mixing * dielectric matrix)
  average eigenvalue GAMMA=   1.4646
  2.5573  1.2389  1.2389  0.8234

 Free energy of the ion-electron system (eV)
  ---------------------------------------------------
  alpha Z        PSCENC =       444.92884086
  Ewald energy   TEWEN  =     -9204.62224518
  -Hartree energ DENC   =     -3680.04232144
  -exchange      EXHF   =         0.00000000
  -V(xc)+E(xc)   XCENC  =       481.10349697
  PAW double counting   =     11538.60757763   -12074.09191604
  entropy T*S    EENTRO =        -0.00000000
  eigenvalues    EBANDS =     -1510.98372228
  atomic energy  EATOM  =     13290.28009929
  Solvation  Ediel_sol  =         0.00000000
  ---------------------------------------------------
  free energy    TOTEN  =      -714.82019019 eV

  energy without entropy =     -714.82019019  energy(sigma->0) =     -714.82019019


--------------------------------------------------------------------------------------------------------




--------------------------------------- Iteration      1(  10)  ---------------------------------------


    POTLOK:  cpu time    0.1289: real time    0.1725
    SETDIJ:  cpu time    1.0934: real time    1.0934
     EDDAV:  cpu time    4.9849: real time    4.9851
       DOS:  cpu time    0.0004: real time    0.0004
    CHARGE:  cpu time    0.8346: real time    0.8347
    MIXING:  cpu time    0.0009: real time    0.0009
    --------------------------------------------
      LOOP:  cpu time    7.0431: real time    7.0871

 eigenvalue-minimisations  :  2608
 total energy-change (2. order) :-0.9388228E-03  (-0.5360838E-03)
 number of electron     176.0000000 magnetization 
 augmentation part       -2.3071235 magnetization 

 Broyden mixing:
  rms(total) = 0.19034E-01    rms(broyden)= 0.19034E-01
  rms(prec ) = 0.21062E-01
  weight for this iteration     100.00

 eigenvalues of (default mixing * dielectric matrix)
  average eigenvalue GAMMA=   1.5673
  2.3729  2.3729  1.1220  1.1220  0.8469

 Free energy of the ion-electron system (eV)
  ---------------------------------------------------
  alpha Z        PSCENC =       444.92884086
  Ewald energy   TEWEN  =     -9204.62224518
  -Hartree energ DENC   =     -3679.17146963
  -exchange      EXHF   =         0.00000000
  -V(xc)+E(xc)   XCENC  =       480.99489421
  PAW double counting   =     11521.68043784   -12057.20878554
  entropy T*S    EENTRO =        -0.00000000
  eigenvalues    EBANDS =     -1511.70290086
  atomic energy  EATOM  =     13290.28009929
  Solvation  Ediel_sol  =         0.00000000
  ---------------------------------------------------
  free energy    TOTEN  =      -714.82112902 eV

  energy without entropy =     -714.82112902  energy(sigma->0) =     -714.82112902


--------------------------------------------------------------------------------------------------------




--------------------------------------- Iteration      1(  11)  ---------------------------------------


    POTLOK:  cpu time    0.1482: real time    0.1638
    SETDIJ:  cpu time    1.0910: real time    1.0910
     EDDAV:  cpu time    4.1231: real time    4.1233
       DOS:  cpu time    0.0004: real time    0.0004
    CHARGE:  cpu time    0.8257: real time    0.8258
    MIXING:  cpu time    0.0012: real time    0.0012
    --------------------------------------------
      LOOP:  cpu time    6.1896: real time    6.2054

 eigenvalue-minimisations  :  1968
 total energy-change (2. order) :-0.1578459E-02  (-0.1630916E-03)
 number of electron     176.0000000 magnetization 
 augmentation part       -2.3067780 magnetization 

 Broyden mixing:
  rms(total) = 0.65518E-02    rms(broyden)= 0.65514E-02
  rms(prec ) = 0.80050E-02
  weight for this iteration     100.00

 eigenvalues of (default mixing * dielectric matrix)
  average eigenvalue GAMMA=   1.5754
  2.5980  2.5980  1.2213  1.2213  0.9069  0.9069

 Free energy of the ion-electron system (eV)
  ---------------------------------------------------
  alpha Z        PSCENC =       444.92884086
  Ewald energy   TEWEN  =     -9204.62224518
  -Hartree energ DENC   =     -3677.91336260
  -exchange      EXHF   =         0.00000000
  -V(xc)+E(xc)   XCENC  =       480.94883039
  PAW double counting   =     11508.09107568   -12043.77380069
  entropy T*S    EENTRO =        -0.00000000
  eigenvalues    EBANDS =     -1512.76214523
  atomic energy  EATOM  =     13290.28009929
  Solvation  Ediel_sol  =         0.00000000
  ---------------------------------------------------
  free energy    TOTEN  =      -714.82270748 eV

  energy without entropy =     -714.82270748  energy(sigma->0) =     -714.82270748


--------------------------------------------------------------------------------------------------------




--------------------------------------- Iteration      1(  12)  ---------------------------------------


    POTLOK:  cpu time    0.1448: real time    0.1752
    SETDIJ:  cpu time    1.0900: real time    1.0900
     EDDAV:  cpu time    4.1906: real time    4.1908
       DOS:  cpu time    0.0003: real time    0.0003
    CHARGE:  cpu time    0.8429: real time    0.8430
    MIXING:  cpu time    0.0010: real time    0.0010
    --------------------------------------------
      LOOP:  cpu time    6.2697: real time    6.3004

 eigenvalue-minimisations  :  2024
 total energy-change (2. order) :-0.2053372E-03  (-0.4613317E-04)
 number of electron     176.0000000 magnetization 
 augmentation part       -2.3085436 magnetization 

 Broyden mixing:
  rms(total) = 0.23981E-02    rms(broyden)= 0.23974E-02
  rms(prec ) = 0.27068E-02
  weight for this iteration     100.00

 eigenvalues of (default mixing * dielectric matrix)
  average eigenvalue GAMMA=   1.6319
  3.0707  2.2935  1.9218  1.1901  0.9479  0.9479  1.0516

 Free energy of the ion-electron system (eV)
  ---------------------------------------------------
  alpha Z        PSCENC =       444.92884086
  Ewald energy   TEWEN  =     -9204.62224518
  -Hartree energ DENC   =     -3677.99413419
  -exchange      EXHF   =         0.00000000
  -V(xc)+E(xc)   XCENC  =       481.00986369
  PAW double counting   =     11512.21679042   -12047.95557617
  entropy T*S    EENTRO =        -0.00000000
  eigenvalues    EBANDS =     -1512.68655153
  atomic energy  EATOM  =     13290.28009929
  Solvation  Ediel_sol  =         0.00000000
  ---------------------------------------------------
  free energy    TOTEN  =      -714.82291281 eV

  energy without entropy =     -714.82291281  energy(sigma->0) =     -714.82291281


--------------------------------------------------------------------------------------------------------




--------------------------------------- Iteration      1(  13)  ---------------------------------------


    POTLOK:  cpu time    0.1493: real time    0.1693
    SETDIJ:  cpu time    1.0908: real time    1.0908
     EDDAV:  cpu time    4.5941: real time    4.5942
       DOS:  cpu time    0.0005: real time    0.0005
    CHARGE:  cpu time    0.8371: real time    0.8371
    MIXING:  cpu time    0.0013: real time    0.0013
    --------------------------------------------
      LOOP:  cpu time    6.6731: real time    6.6932

 eigenvalue-minimisations  :  2312
 total energy-change (2. order) : 0.2818056E-05  (-0.4650802E-05)
 number of electron     176.0000000 magnetization 
 augmentation part       -2.3085852 magnetization 

 Broyden mixing:
  rms(total) = 0.84380E-03    rms(broyden)= 0.84259E-03
  rms(prec ) = 0.90202E-03
  weight for this iteration     100.00

 eigenvalues of (default mixing * dielectric matrix)
  average eigenvalue GAMMA=   1.6459
  3.0002  2.3110  2.3110  1.3099  1.3099  0.9361  0.9944  0.9944

 Free energy of the ion-electron system (eV)
  ---------------------------------------------------
  alpha Z        PSCENC =       444.92884086
  Ewald energy   TEWEN  =     -9204.62224518
  -Hartree energ DENC   =     -3678.16148072
  -exchange      EXHF   =         0.00000000
  -V(xc)+E(xc)   XCENC  =       481.02444182
  PAW double counting   =     11510.99791636   -12046.74070555
  entropy T*S    EENTRO =        -0.00000000
  eigenvalues    EBANDS =     -1512.52977686
  atomic energy  EATOM  =     13290.28009929
  Solvation  Ediel_sol  =         0.00000000
  ---------------------------------------------------
  free energy    TOTEN  =      -714.82291000 eV

  energy without entropy =     -714.82291000  energy(sigma->0) =     -714.82291000


--------------------------------------------------------------------------------------------------------




--------------------------------------- Iteration      1(  14)  ---------------------------------------


    POTLOK:  cpu time    0.1306: real time    0.1750
    SETDIJ:  cpu time    1.0917: real time    1.0918
     EDDAV:  cpu time    3.8820: real time    3.8821
       DOS:  cpu time    0.0004: real time    0.0004
    CHARGE:  cpu time    0.8336: real time    0.8336
    MIXING:  cpu time    0.0011: real time    0.0011
    --------------------------------------------
      LOOP:  cpu time    5.9393: real time    5.9840

 eigenvalue-minimisations  :  1768
 total energy-change (2. order) :-0.1090538E-04  (-0.4283903E-06)
 number of electron     176.0000000 magnetization 
 augmentation part       -2.3083244 magnetization 

 Broyden mixing:
  rms(total) = 0.21408E-03    rms(broyden)= 0.20947E-03
  rms(prec ) = 0.26123E-03
  weight for this iteration     100.00

 eigenvalues of (default mixing * dielectric matrix)
  average eigenvalue GAMMA=   1.6683
  2.8072  2.8072  2.0948  2.0948  1.1623  1.1623  0.9271  0.9795  0.9795

 Free energy of the ion-electron system (eV)
  ---------------------------------------------------
  alpha Z        PSCENC =       444.92884086
  Ewald energy   TEWEN  =     -9204.62224518
  -Hartree energ DENC   =     -3678.18037846
  -exchange      EXHF   =         0.00000000
  -V(xc)+E(xc)   XCENC  =       481.02465558
  PAW double counting   =     11510.60378523   -12046.34368285
  entropy T*S    EENTRO =        -0.00000000
  eigenvalues    EBANDS =     -1512.51399536
  atomic energy  EATOM  =     13290.28009929
  Solvation  Ediel_sol  =         0.00000000
  ---------------------------------------------------
  free energy    TOTEN  =      -714.82292090 eV

  energy without entropy =     -714.82292090  energy(sigma->0) =     -714.82292090


--------------------------------------------------------------------------------------------------------




--------------------------------------- Iteration      1(  15)  ---------------------------------------


    POTLOK:  cpu time    0.1551: real time    0.1944
    SETDIJ:  cpu time    1.0907: real time    1.0908
     EDDAV:  cpu time    3.3294: real time    3.3295
       DOS:  cpu time    0.0003: real time    0.0003
    CHARGE:  cpu time    0.8367: real time    0.8367
    MIXING:  cpu time    0.0011: real time    0.0011
    --------------------------------------------
      LOOP:  cpu time    5.4133: real time    5.4528

 eigenvalue-minimisations  :  1312
 total energy-change (2. order) :-0.4680343E-05  (-0.7006770E-07)
 number of electron     176.0000000 magnetization 
 augmentation part       -2.3083617 magnetization 

 Broyden mixing:
  rms(total) = 0.94166E-04    rms(broyden)= 0.83276E-04
  rms(prec ) = 0.10099E-03
  weight for this iteration     100.00
  WARNING: grid for Broyden might be to small

 eigenvalues of (default mixing * dielectric matrix)
  average eigenvalue GAMMA=   1.6494
  3.1004  2.5707  2.5707  1.8561  1.2267  1.1540  1.1540  0.9335  0.9335  0.9944

 Free energy of the ion-electron system (eV)
  ---------------------------------------------------
  alpha Z        PSCENC =       444.92884086
  Ewald energy   TEWEN  =     -9204.62224518
  -Hartree energ DENC   =     -3678.16359942
  -exchange      EXHF   =         0.00000000
  -V(xc)+E(xc)   XCENC  =       481.02344866
  PAW double counting   =     11510.58061919   -12046.32088257
  entropy T*S    EENTRO =        -0.00000000
  eigenvalues    EBANDS =     -1512.52920641
  atomic energy  EATOM  =     13290.28009929
  Solvation  Ediel_sol  =         0.00000000
  ---------------------------------------------------
  free energy    TOTEN  =      -714.82292558 eV

  energy without entropy =     -714.82292558  energy(sigma->0) =     -714.82292558


--------------------------------------------------------------------------------------------------------




--------------------------------------- Iteration      1(  16)  ---------------------------------------


    POTLOK:  cpu time    0.1464: real time    0.1652
    SETDIJ:  cpu time    1.0890: real time    1.0890
     EDDAV:  cpu time    3.1462: real time    3.1463
       DOS:  cpu time    0.0008: real time    0.0008
    CHARGE:  cpu time    0.8267: real time    0.8267
    MIXING:  cpu time    0.0012: real time    0.0012
    --------------------------------------------
      LOOP:  cpu time    5.2103: real time    5.2293

 eigenvalue-minimisations  :  1184
 total energy-change (2. order) : 0.3724606E-05  (-0.1729660E-07)
 number of electron     176.0000000 magnetization 
 augmentation part       -2.3084009 magnetization 

 Broyden mixing:
  rms(total) = 0.54855E-04    rms(broyden)= 0.32825E-04
  rms(prec ) = 0.39290E-04
  weight for this iteration     100.00
  WARNING: grid for Broyden might be to small

 eigenvalues of (default mixing * dielectric matrix)
  average eigenvalue GAMMA=   1.6888
  2.9184  2.9184  2.6034  1.9416  1.9416  1.1708  1.1708  0.9521  0.9521  1.0037
  1.0037

 Free energy of the ion-electron system (eV)
  ---------------------------------------------------
  alpha Z        PSCENC =       444.92884086
  Ewald energy   TEWEN  =     -9204.62224518
  -Hartree energ DENC   =     -3678.17228583
  -exchange      EXHF   =         0.00000000
  -V(xc)+E(xc)   XCENC  =       481.02425766
  PAW double counting   =     11510.58321634   -12046.32324833
  entropy T*S    EENTRO =        -0.00000000
  eigenvalues    EBANDS =     -1512.52155667
  atomic energy  EATOM  =     13290.28009929
  Solvation  Ediel_sol  =         0.00000000
  ---------------------------------------------------
  free energy    TOTEN  =      -714.82292186 eV

  energy without entropy =     -714.82292186  energy(sigma->0) =     -714.82292186


--------------------------------------------------------------------------------------------------------




--------------------------------------- Iteration      1(  17)  ---------------------------------------


    POTLOK:  cpu time    0.1348: real time    0.1619
    SETDIJ:  cpu time    1.0896: real time    1.0897
     EDDAV:  cpu time    3.0933: real time    3.0934
       DOS:  cpu time    0.0003: real time    0.0003
    --------------------------------------------
      LOOP:  cpu time    4.3180: real time    4.3452

 eigenvalue-minimisations  :  1136
 total energy-change (2. order) : 0.5050879E-06  (-0.4374405E-08)
 number of electron     176.0000000 magnetization 
 augmentation part       -2.3084009 magnetization 

 Free energy of the ion-electron system (eV)
  ---------------------------------------------------
  alpha Z        PSCENC =       444.92884086
  Ewald energy   TEWEN  =     -9204.62224518
  -Hartree energ DENC   =     -3678.17542146
  -exchange      EXHF   =         0.00000000
  -V(xc)+E(xc)   XCENC  =       481.02444347
  PAW double counting   =     11510.56698989   -12046.30683521
  entropy T*S    EENTRO =        -0.00000000
  eigenvalues    EBANDS =     -1512.51879300
  atomic energy  EATOM  =     13290.28009929
  Solvation  Ediel_sol  =         0.00000000
  ---------------------------------------------------
  free energy    TOTEN  =      -714.82292135 eV

  energy without entropy =     -714.82292135  energy(sigma->0) =     -714.82292135


--------------------------------------------------------------------------------------------------------




 average (electrostatic) potential at core
  the test charge radii are     1.1312  1.1541  1.0178
  (the norm of the test charge is              1.0000)
       1 -55.3493       2 -55.3494       3 -55.3493       4 -55.3494       5-101.7218
       6-101.7218       7-101.7218       8-101.7218       9 -68.9660      10 -68.9660
      11 -68.9660      12 -68.9660      13 -69.0207      14 -69.0207      15 -69.0207
      16 -69.0207      17 -69.0207      18 -69.0207      19 -69.0207      20 -69.0207



 E-fermi :   0.4465     XC(G=0):  -8.0370     alpha+bet : -6.9802


 k-point     1 :       0.0000    0.0000    0.0000
  band No.  band energies     occupation 
      1     -20.8732      2.00000
      2     -20.8717      2.00000
      3     -20.8696      2.00000
      4     -20.8686      2.00000
      5     -16.5312      2.00000
      6     -16.5310      2.00000
      7     -16.5133      2.00000
      8     -16.4828      2.00000
      9     -16.4777      2.00000
     10     -16.4423      2.00000
     11     -16.4378      2.00000
     12     -16.4375      2.00000
     13     -16.3891      2.00000
     14     -16.3886      2.00000
     15     -16.3885      2.00000
     16     -16.3877      2.00000
     17     -16.3818      2.00000
     18     -16.3815      2.00000
     19     -16.3809      2.00000
     20     -16.3804      2.00000
     21     -16.3641      2.00000
     22     -16.3641      2.00000
     23     -16.3624      2.00000
     24     -16.3624      2.00000
     25     -14.3415      2.00000
     26     -14.2184      2.00000
     27     -14.0544      2.00000
     28     -14.0486      2.00000
     29     -14.0245      2.00000
     30     -14.0176      2.00000
     31     -13.9508      2.00000
     32     -13.9505      2.00000
     33     -13.9144      2.00000
     34     -13.7754      2.00000
     35     -13.7706      2.00000
     36     -13.7566      2.00000
     37      -8.1702      2.00000
     38      -7.7685      2.00000
     39      -7.3163      2.00000
     40      -7.3070      2.00000
     41      -7.3009      2.00000
     42      -7.2874      2.00000
     43      -7.2755      2.00000
     44      -7.2585      2.00000
     45      -7.2537      2.00000
     46      -7.2536      2.00000
     47      -7.2518      2.00000
     48      -7.2503      2.00000
     49      -7.2339      2.00000
     50      -7.2218      2.00000
     51      -7.0983      2.00000
     52      -6.6126      2.00000
     53      -3.3369      2.00000
     54      -3.2906      2.00000
     55      -3.2749      2.00000
     56      -3.2139      2.00000
     57      -3.1455      2.00000
     58      -2.9101      2.00000
     59      -2.2065      2.00000
     60      -1.9940      2.00000
     61      -1.9804      2.00000
     62      -1.8382      2.00000
     63      -1.8321      2.00000
     64      -1.6433      2.00000
     65      -1.5885      2.00000
     66      -1.5860      2.00000
     67      -1.5703      2.00000
     68      -1.5335      2.00000
     69      -1.4639      2.00000
     70      -1.4629      2.00000
     71      -1.4376      2.00000
     72      -1.3850      2.00000
     73      -1.3709      2.00000
     74      -1.3536      2.00000
     75      -1.3224      2.00000
     76      -1.2776      2.00000
     77      -1.2768      2.00000
     78      -1.1651      2.00000
     79      -1.1458      2.00000
     80      -1.1441      2.00000
     81      -1.1190      2.00000
     82      -1.0334      2.00000
     83      -1.0270      2.00000
     84      -0.9682      2.00000
     85      -0.8739      2.00000
     86      -0.6932      2.00000
     87      -0.1111      2.00000
     88       0.3530      2.00000
     89       2.4929      0.00000
     90       2.7822      0.00000
     91       2.9442      0.00000
     92       3.1712      0.00000
     93       3.2789      0.00000
     94       3.3386      0.00000
     95       4.7716      0.00000
     96       5.2806      0.00000
     97       5.7481      0.00000
     98       5.8014      0.00000
     99       5.8386      0.00000
    100       5.8839      0.00000
    101       5.9055      0.00000
    102       6.2237      0.00000
    103       6.2909      0.00000
    104       6.2920      0.00000
    105       6.3478      0.00000
    106       6.3575      0.00000
    107       6.4089      0.00000
    108       6.6865      0.00000
    109       6.8048      0.00000
    110       6.8493      0.00000
    111       6.8843      0.00000
    112       7.0630      0.00000

 k-point     2 :       0.3333    0.0000    0.0000
  band No.  band energies     occupation 
      1     -20.8722      2.00000
      2     -20.8709      2.00000
      3     -20.8705      2.00000
      4     -20.8693      2.00000
      5     -16.5089      2.00000
      6     -16.5088      2.00000
      7     -16.5054      2.00000
      8     -16.4902      2.00000
      9     -16.4685      2.00000
     10     -16.4623      2.00000
     11     -16.4622      2.00000
     12     -16.4510      2.00000
     13     -16.3891      2.00000
     14     -16.3888      2.00000
     15     -16.3883      2.00000
     16     -16.3878      2.00000
     17     -16.3817      2.00000
     18     -16.3812      2.00000
     19     -16.3811      2.00000
     20     -16.3805      2.00000
     21     -16.3637      2.00000
     22     -16.3637      2.00000
     23     -16.3628      2.00000
     24     -16.3628      2.00000
     25     -14.2922      2.00000
     26     -14.1795      2.00000
     27     -14.1644      2.00000
     28     -14.0947      2.00000
     29     -13.9704      2.00000
     30     -13.9558      2.00000
     31     -13.9530      2.00000
     32     -13.9421      2.00000
     33     -13.8401      2.00000
     34     -13.8348      2.00000
     35     -13.8311      2.00000
     36     -13.7756      2.00000
     37      -7.9511      2.00000
     38      -7.5460      2.00000
     39      -7.4576      2.00000
     40      -7.3130      2.00000
     41      -7.2907      2.00000
     42      -7.2899      2.00000
     43      -7.2794      2.00000
     44      -7.2657      2.00000
     45      -7.2578      2.00000
     46      -7.2567      2.00000
     47      -7.2436      2.00000
     48      -7.2361      2.00000
     49      -7.2342      2.00000
     50      -7.2331      2.00000
     51      -7.2146      2.00000
     52      -6.9710      2.00000
     53      -3.1227      2.00000
     54      -3.0180      2.00000
     55      -2.9979      2.00000
     56      -2.8966      2.00000
     57      -2.7770      2.00000
     58      -2.7660      2.00000
     59      -2.2670      2.00000
     60      -2.1469      2.00000
     61      -2.0913      2.00000
     62      -2.0117      2.00000
     63      -1.9813      2.00000
     64      -1.9532      2.00000
     65      -1.7875      2.00000
     66      -1.6888      2.00000
     67      -1.6744      2.00000
     68      -1.6376      2.00000
     69      -1.5022      2.00000
     70      -1.4704      2.00000
     71      -1.4471      2.00000
     72      -1.3965      2.00000
     73      -1.3658      2.00000
     74      -1.3256      2.00000
     75      -1.3172      2.00000
     76      -1.3041      2.00000
     77      -1.2593      2.00000
     78      -1.2332      2.00000
     79      -1.2134      2.00000
     80      -1.1495      2.00000
     81      -1.1426      2.00000
     82      -1.1026      2.00000
     83      -1.0211      2.00000
     84      -0.9979      2.00000
     85      -0.8189      2.00000
     86      -0.6291      2.00000
     87      -0.5616      2.00000
     88      -0.1751      2.00000
     89       2.6894      0.00000
     90       3.0794      0.00000
     91       3.5408      0.00000
     92       3.8263      0.00000
     93       3.8545      0.00000
     94       4.1704      0.00000
     95       5.0355      0.00000
     96       5.1804      0.00000
     97       5.2233      0.00000
     98       5.3397      0.00000
     99       5.4569      0.00000
    100       5.7490      0.00000
    101       5.7995      0.00000
    102       6.0612      0.00000
    103       6.1548      0.00000
    104       6.2286      0.00000
    105       6.3422      0.00000
    106       6.3550      0.00000
    107       6.5930      0.00000
    108       6.6893      0.00000
    109       6.8328      0.00000
    110       6.9175      0.00000
    111       7.0417      0.00000
    112       7.0959      0.00000

 k-point     3 :       0.0000    0.5000    0.0000
  band No.  band energies     occupation 
      1     -20.8725      2.00000
      2     -20.8725      2.00000
      3     -20.8690      2.00000
      4     -20.8690      2.00000
      5     -16.5311      2.00000
      6     -16.5311      2.00000
      7     -16.4956      2.00000
      8     -16.4956      2.00000
      9     -16.4627      2.00000
     10     -16.4627      2.00000
     11     -16.4376      2.00000
     12     -16.4376      2.00000
     13     -16.3888      2.00000
     14     -16.3888      2.00000
     15     -16.3881      2.00000
     16     -16.3881      2.00000
     17     -16.3816      2.00000
     18     -16.3816      2.00000
     19     -16.3807      2.00000
     20     -16.3807      2.00000
     21     -16.3641      2.00000
     22     -16.3641      2.00000
     23     -16.3623      2.00000
     24     -16.3623      2.00000
     25     -14.2946      2.00000
     26     -14.2946      2.00000
     27     -14.0515      2.00000
     28     -14.0515      2.00000
     29     -14.0202      2.00000
     30     -14.0202      2.00000
     31     -13.9321      2.00000
     32     -13.9321      2.00000
     33     -13.8398      2.00000
     34     -13.8398      2.00000
     35     -13.7730      2.00000
     36     -13.7730      2.00000
     37      -7.9828      2.00000
     38      -7.9828      2.00000
     39      -7.3072      2.00000
     40      -7.3072      2.00000
     41      -7.2961      2.00000
     42      -7.2961      2.00000
     43      -7.2580      2.00000
     44      -7.2580      2.00000
     45      -7.2504      2.00000
     46      -7.2504      2.00000
     47      -7.2495      2.00000
     48      -7.2494      2.00000
     49      -7.2410      2.00000
     50      -7.2410      2.00000
     51      -6.8897      2.00000
     52      -6.8897      2.00000
     53      -3.3077      2.00000
     54      -3.3077      2.00000
     55      -3.2417      2.00000
     56      -3.2417      2.00000
     57      -2.4690      2.00000
     58      -2.4690      2.00000
     59      -2.2294      2.00000
     60      -2.2294      2.00000
     61      -2.1058      2.00000
     62      -2.1058      2.00000
     63      -1.7896      2.00000
     64      -1.7896      2.00000
     65      -1.7760      2.00000
     66      -1.7760      2.00000
     67      -1.5086      2.00000
     68      -1.5086      2.00000
     69      -1.4539      2.00000
     70      -1.4539      2.00000
     71      -1.3735      2.00000
     72      -1.3735      2.00000
     73      -1.3289      2.00000
     74      -1.3289      2.00000
     75      -1.3213      2.00000
     76      -1.3213      2.00000
     77      -1.2194      2.00000
     78      -1.2194      2.00000
     79      -1.2102      2.00000
     80      -1.2102      2.00000
     81      -1.0971      2.00000
     82      -1.0971      2.00000
     83      -1.0492      2.00000
     84      -1.0492      2.00000
     85      -0.8764      2.00000
     86      -0.8764      2.00000
     87      -0.0081      2.00000
     88      -0.0081      2.00000
     89       2.9778      0.00000
     90       2.9778      0.00000
     91       3.1424      0.00000
     92       3.1424      0.00000
     93       3.9683      0.00000
     94       3.9683      0.00000
     95       4.5790      0.00000
     96       4.5790      0.00000
     97       5.3499      0.00000
     98       5.3499      0.00000
     99       5.9197      0.00000
    100       5.9197      0.00000
    101       5.9989      0.00000
    102       5.9989      0.00000
    103       6.1397      0.00000
    104       6.1397      0.00000
    105       6.5185      0.00000
    106       6.5185      0.00000
    107       6.7210      0.00000
    108       6.7210      0.00000
    109       6.7535      0.00000
    110       6.7542      0.00000
    111       6.7948      0.00000
    112       6.7969      0.00000

 k-point     4 :       0.3333    0.5000    0.0000
  band No.  band energies     occupation 
      1     -20.8716      2.00000
      2     -20.8715      2.00000
      3     -20.8699      2.00000
      4     -20.8699      2.00000
      5     -16.5089      2.00000
      6     -16.5089      2.00000
      7     -16.4871      2.00000
      8     -16.4871      2.00000
      9     -16.4706      2.00000
     10     -16.4706      2.00000
     11     -16.4622      2.00000
     12     -16.4622      2.00000
     13     -16.3886      2.00000
     14     -16.3886      2.00000
     15     -16.3883      2.00000
     16     -16.3883      2.00000
     17     -16.3813      2.00000
     18     -16.3813      2.00000
     19     -16.3809      2.00000
     20     -16.3809      2.00000
     21     -16.3637      2.00000
     22     -16.3637      2.00000
     23     -16.3628      2.00000
     24     -16.3628      2.00000
     25     -14.2496      2.00000
     26     -14.2496      2.00000
     27     -14.1381      2.00000
     28     -14.1381      2.00000
     29     -13.9585      2.00000
     30     -13.9585      2.00000
     31     -13.8877      2.00000
     32     -13.8877      2.00000
     33     -13.8494      2.00000
     34     -13.8494      2.00000
     35     -13.8330      2.00000
     36     -13.8330      2.00000
     37      -7.7627      2.00000
     38      -7.7627      2.00000
     39      -7.3171      2.00000
     40      -7.3171      2.00000
     41      -7.2868      2.00000
     42      -7.2868      2.00000
     43      -7.2752      2.00000
     44      -7.2752      2.00000
     45      -7.2561      2.00000
     46      -7.2561      2.00000
     47      -7.2475      2.00000
[...]
     60      -2.3669      2.00000
     61      -2.2098      2.00000
     62      -2.2098      2.00000
     63      -2.0110      2.00000
     64      -2.0110      2.00000
     65      -1.7445      2.00000
     66      -1.7445      2.00000
     67      -1.6830      2.00000
     68      -1.6830      2.00000
     69      -1.5449      2.00000
     70      -1.5449      2.00000
     71      -1.4738      2.00000
     72      -1.4738      2.00000
     73      -1.3789      2.00000
     74      -1.3789      2.00000
     75      -1.3331      2.00000
     76      -1.3331      2.00000
     77      -1.1952      2.00000
     78      -1.1952      2.00000
     79      -1.1559      2.00000
     80      -1.1559      2.00000
     81      -1.1305      2.00000
     82      -1.1305      2.00000
     83      -1.0935      2.00000
     84      -1.0935      2.00000
     85      -0.8639      2.00000
     86      -0.8639      2.00000
     87      -0.6255      2.00000
     88      -0.6255      2.00000
     89       3.8204      0.00000
     90       3.8204      0.00000
     91       3.8401      0.00000
     92       3.8401      0.00000
     93       4.1045      0.00000
     94       4.1045      0.00000
     95       4.4332      0.00000
     96       4.4332      0.00000
     97       5.1890      0.00000
     98       5.1890      0.00000
     99       5.3075      0.00000
    100       5.3075      0.00000
    101       5.8936      0.00000
    102       5.8936      0.00000
    103       6.1066      0.00000
    104       6.1066      0.00000
    105       6.4723      0.00000
    106       6.4723      0.00000
    107       6.5403      0.00000
    108       6.5403      0.00000
    109       6.6947      0.00000
    110       6.6947      0.00000
    111       7.0283      0.00000
    112       7.0285      0.00000

 k-point     8 :       0.3333    0.5000    0.3333
  band No.  band energies     occupation 
      1     -20.8711      2.00000
      2     -20.8711      2.00000
      3     -20.8702      2.00000
      4     -20.8702      2.00000
      5     -16.5119      2.00000
      6     -16.5119      2.00000
      7     -16.4950      2.00000
      8     -16.4950      2.00000
      9     -16.4685      2.00000
     10     -16.4685      2.00000
     11     -16.4538      2.00000
     12     -16.4538      2.00000
     13     -16.3886      2.00000
     14     -16.3886      2.00000
     15     -16.3884      2.00000
     16     -16.3884      2.00000
     17     -16.3812      2.00000
     18     -16.3812      2.00000
     19     -16.3810      2.00000
     20     -16.3810      2.00000
     21     -16.3634      2.00000
     22     -16.3634      2.00000
     23     -16.3630      2.00000
     24     -16.3630      2.00000
     25     -14.1956      2.00000
     26     -14.1956      2.00000
     27     -14.0839      2.00000
     28     -14.0839      2.00000
     29     -14.0556      2.00000
     30     -14.0556      2.00000
     31     -13.9429      2.00000
     32     -13.9429      2.00000
     33     -13.8370      2.00000
     34     -13.8370      2.00000
     35     -13.8138      2.00000
     36     -13.8138      2.00000
     37      -7.6233      2.00000
     38      -7.6233      2.00000
     39      -7.3775      2.00000
     40      -7.3775      2.00000
     41      -7.2833      2.00000
     42      -7.2833      2.00000
     43      -7.2699      2.00000
     44      -7.2699      2.00000
     45      -7.2452      2.00000
     46      -7.2452      2.00000
     47      -7.2417      2.00000
     48      -7.2417      2.00000
     49      -7.2351      2.00000
     50      -7.2351      2.00000
     51      -7.2103      2.00000
     52      -7.2103      2.00000
     53      -3.1689      2.00000
     54      -3.1689      2.00000
     55      -2.7830      2.00000
     56      -2.7830      2.00000
     57      -2.4707      2.00000
     58      -2.4707      2.00000
     59      -2.3547      2.00000
     60      -2.3547      2.00000
     61      -2.1880      2.00000
     62      -2.1880      2.00000
     63      -1.9948      2.00000
     64      -1.9948      2.00000
     65      -1.7807      2.00000
     66      -1.7807      2.00000
     67      -1.7114      2.00000
     68      -1.7114      2.00000
     69      -1.5193      2.00000
     70      -1.5193      2.00000
     71      -1.4201      2.00000
     72      -1.4201      2.00000
     73      -1.3623      2.00000
     74      -1.3623      2.00000
     75      -1.2572      2.00000
     76      -1.2572      2.00000
     77      -1.2161      2.00000
     78      -1.2161      2.00000
     79      -1.1617      2.00000
     80      -1.1617      2.00000
     81      -1.1084      2.00000
     82      -1.1084      2.00000
     83      -1.0704      2.00000
     84      -1.0704      2.00000
     85      -0.8471      2.00000
     86      -0.8471      2.00000
     87      -0.5924      2.00000
     88      -0.5924      2.00000
     89       3.2808      0.00000
     90       3.2808      0.00000
     91       4.0730      0.00000
     92       4.0730      0.00000
     93       4.1820      0.00000
     94       4.1820      0.00000
     95       4.3309      0.00000
     96       4.3309      0.00000
     97       5.0814      0.00000
     98       5.0814      0.00000
     99       5.8104      0.00000
    100       5.8104      0.00000
    101       6.1942      0.00000
    102       6.1942      0.00000
    103       6.3231      0.00000
    104       6.3231      0.00000
    105       6.5959      0.00000
    106       6.5959      0.00000
    107       6.6925      0.00000
    108       6.6925      0.00000
    109       6.8171      0.00000
    110       6.8171      0.00000
    111       7.0001      0.00000
    112       7.0001      0.00000


--------------------------------------------------------------------------------------------------------


 soft charge-density along one line, spin component           1
         0         1         2         3         4         5         6         7         8         9
 total charge-density along one line

 pseudopotential strength for first ion, spin component:           1
 18.002  -4.713   0.000  -0.001  -0.001  -0.000   0.001   0.001
 -4.713   1.242  -0.000   0.000   0.000   0.000  -0.000  -0.000
  0.000  -0.000   2.277  -0.000   0.000  -2.726   0.000  -0.000
 -0.001   0.000  -0.000   2.278  -0.001   0.000  -2.728   0.002
 -0.001   0.000   0.000  -0.001   2.278  -0.000   0.002  -2.728
 -0.000   0.000  -2.726   0.000  -0.000   3.232  -0.000   0.000
  0.001  -0.000   0.000  -2.728   0.002  -0.000   3.235  -0.002
  0.001  -0.000  -0.000   0.002  -2.728   0.000  -0.002   3.235
  0.000  -0.000   0.001  -0.000  -0.000  -0.001   0.000   0.000
 -0.000   0.000  -0.000   0.000  -0.000   0.000  -0.000   0.000
  0.001  -0.000  -0.000  -0.001   0.001   0.000   0.001  -0.001
 -0.001   0.000  -0.000  -0.000   0.000   0.000   0.000  -0.000
  0.001  -0.000  -0.000   0.000  -0.002   0.000  -0.000   0.002
 total augmentation occupancy for first ion, spin component:           1
  1.910  -0.143   0.000  -0.000  -0.000   0.000  -0.000  -0.000   0.000   0.000   0.001  -0.002   0.001
 -0.143   0.111   0.000  -0.003  -0.002   0.000   0.001   0.002   0.000  -0.000  -0.004   0.006  -0.002
  0.000   0.000   2.012   0.000   0.000   0.001   0.000   0.000   0.002  -0.000   0.000  -0.000  -0.000
 -0.000  -0.003   0.000   2.018  -0.004   0.000   0.004  -0.002  -0.000  -0.000  -0.003   0.000   0.000
 -0.000  -0.002   0.000  -0.004   2.017   0.000  -0.002   0.003  -0.000   0.000   0.001   0.000  -0.004
  0.000   0.000   0.001   0.000   0.000   0.009   0.000   0.000  -0.002  -0.001   0.000   0.000   0.000
 -0.000   0.001   0.000   0.004  -0.002   0.000   0.006   0.002   0.000   0.000   0.001  -0.001   0.000
 -0.000   0.002   0.000  -0.002   0.003   0.000   0.002   0.008   0.000   0.000  -0.001  -0.001   0.003
  0.000   0.000   0.002  -0.000  -0.000  -0.002   0.000   0.000   0.005   0.003  -0.000   0.000   0.000
  0.000  -0.000  -0.000  -0.000   0.000  -0.001   0.000   0.000   0.003   0.004   0.000  -0.000  -0.000
  0.001  -0.004   0.000  -0.003   0.001   0.000   0.001  -0.001  -0.000   0.000   0.005  -0.001  -0.000
 -0.002   0.006  -0.000   0.000   0.000   0.000  -0.001  -0.001   0.000  -0.000  -0.001   0.002  -0.000
  0.001  -0.002  -0.000   0.000  -0.004   0.000   0.000   0.003   0.000  -0.000  -0.000  -0.000   0.005


------------------------ aborting loop because EDIFF is reached ----------------------------------------





 total charge     

# of ion       s       p       d       tot
------------------------------------------
    1        1.785   4.718   0.017   6.520
    2        1.785   4.718   0.017   6.520
    3        1.785   4.718   0.017   6.520
    4        1.785   4.718   0.017   6.520
    5        1.553   0.414   9.832  11.799
    6        1.553   0.414   9.832  11.799
    7        1.553   0.414   9.832  11.799
    8        1.553   0.414   9.832  11.799
    9        1.612   3.278   0.005   4.896
   10        1.612   3.278   0.005   4.896
   11        1.612   3.278   0.005   4.896
   12        1.612   3.278   0.005   4.896
   13        1.616   3.271   0.007   4.894
   14        1.614   3.294   0.006   4.914
   15        1.614   3.294   0.006   4.914
   16        1.616   3.271   0.007   4.894
   17        1.616   3.271   0.007   4.894
   18        1.614   3.294   0.006   4.914
   19        1.616   3.271   0.007   4.894
   20        1.614   3.294   0.006   4.914
--------------------------------------------------
tot         32.718  59.904  39.466 132.087

    CHARGE:  cpu time    0.1284: real time    0.1285
    FORLOC:  cpu time    0.0038: real time    0.0038
    FORNL :  cpu time    0.5424: real time    0.5424
    STRESS:  cpu time   12.3189: real time   12.3195
    FORCOR:  cpu time    0.1023: real time    0.1023
    FORHAR:  cpu time    0.0108: real time    0.0108
    MIXING:  cpu time    0.0011: real time    0.0011
    OFIELD:  cpu time    0.0000: real time    0.0000

  FORCE on cell =-STRESS in cart. coord.  units (eV):
  Direction    XX          YY          ZZ          XY          YZ          ZX
  --------------------------------------------------------------------------------------
  Alpha Z   444.92884   444.92884   444.92884
  Ewald   -2967.00589 -3166.56452 -3071.07726     0.00000     0.00000    -0.00000
  Hartree  1303.40407  1135.38071  1239.39203    -0.00000    -0.00000    -0.00000
  E(xc)    -738.44229  -738.74573  -738.55415    -0.00000     0.00000    -0.02917
  Local   -1599.26930 -1230.07482 -1432.67716     0.00000    -0.00000     0.00000
  n-local   900.27030   896.13348   899.48021     0.00000    -0.00001    -0.02112
  augment   406.72141   406.33404   406.21970    -0.00000    -0.00003    -0.00002
  Kinetic  2248.57735  2246.93848  2251.45693    -0.00000     0.00001    -1.55694
  Fock        0.00000     0.00000     0.00000     0.00000     0.00000     0.00000
  -------------------------------------------------------------------------------------
  Total      -0.81550    -5.66952    -0.83086     0.00000     0.00000     0.00000
  in kB      -1.61119   -11.20134    -1.64154     0.00000     0.00000     0.00000
  external pressure =       -4.82 kB  Pullay stress =        0.00 kB


 VOLUME and BASIS-vectors are now :
 -----------------------------------------------------------------------------
  energy-cutoff  :      300.00
  volume of cell :      810.94
      direct lattice vectors                 reciprocal lattice vectors
     8.341987852  0.000000000  0.000000000     0.119875504  0.000000000  0.000000000
     0.000000000 12.234360096  0.000000000     0.000000000  0.081737009  0.000000000
     0.000000000  0.000000000  7.945768578     0.000000000  0.000000000  0.125853149

  length of vectors
     8.341987852 12.234360096  7.945768578     0.119875504  0.081737009  0.125853149


 FORCES acting on ions
    electron-ion (+dipol)            ewald-force                    non-local-force                 convergence-correction
 -----------------------------------------------------------------------------------------------
   0.215E+02 0.293E-12 -.122E+02   -.214E+02 0.711E-14 0.123E+02   -.825E-01 0.000E+00 -.756E-01   -.787E-05 -.232E-12 0.402E-04
   -.215E+02 -.149E-11 -.122E+02   0.214E+02 0.000E+00 0.123E+02   0.825E-01 0.000E+00 -.756E-01   0.787E-05 0.260E-12 0.402E-04
   0.215E+02 -.109E-12 0.122E+02   -.214E+02 0.142E-13 -.123E+02   -.825E-01 0.000E+00 0.756E-01   -.787E-05 -.222E-12 -.402E-04
   -.215E+02 -.343E-11 0.122E+02   0.214E+02 0.000E+00 -.123E+02   0.825E-01 0.000E+00 0.756E-01   0.787E-05 0.262E-12 -.402E-04
   -.101E-10 -.196E-11 -.210E-10   -.160E-11 0.448E-12 0.114E-12   0.000E+00 0.000E+00 0.104E-22   -.481E-13 0.144E-14 -.117E-12
   0.840E-11 0.456E-11 -.293E-10   0.347E-11 -.123E-11 0.284E-13   0.000E+00 0.000E+00 -.175E-22   -.151E-12 0.241E-13 0.140E-12
   0.876E-11 -.642E-11 -.266E-10   0.350E-11 0.119E-11 0.284E-13   0.000E+00 0.000E+00 -.846E-23   -.136E-12 -.115E-12 0.102E-12
   -.101E-10 0.324E-11 -.210E-10   -.158E-11 -.504E-12 0.853E-13   0.000E+00 0.000E+00 -.602E-23   -.590E-13 -.111E-12 -.772E-13
   0.118E+02 -.570E-12 0.234E+02   -.119E+02 0.426E-13 -.235E+02   0.120E+00 0.000E+00 0.947E-01   -.130E-04 0.191E-12 -.273E-04
   -.118E+02 0.372E-11 0.234E+02   0.119E+02 0.284E-13 -.235E+02   -.120E+00 0.000E+00 0.947E-01   0.130E-04 -.223E-12 -.273E-04
   0.118E+02 0.177E-12 -.234E+02   -.119E+02 0.142E-13 0.235E+02   0.120E+00 0.000E+00 -.947E-01   -.130E-04 0.178E-12 0.273E-04
   -.118E+02 -.201E-12 -.234E+02   0.119E+02 0.284E-13 0.235E+02   -.120E+00 0.000E+00 -.947E-01   0.130E-04 -.246E-12 0.273E-04
   -.238E+02 0.134E+02 0.284E+02   0.240E+02 -.136E+02 -.287E+02   -.239E+00 0.126E+00 0.283E+00   0.117E-04 -.142E-05 -.171E-04
   0.238E+02 -.134E+02 0.284E+02   -.240E+02 0.136E+02 -.287E+02   0.239E+00 -.126E+00 0.283E+00   -.117E-04 0.142E-05 -.171E-04
   -.238E+02 -.134E+02 -.284E+02   0.240E+02 0.136E+02 0.287E+02   -.239E+00 -.126E+00 -.283E+00   0.117E-04 0.142E-05 0.171E-04
   0.238E+02 0.134E+02 -.284E+02   -.240E+02 -.136E+02 0.287E+02   0.239E+00 0.126E+00 -.283E+00   -.117E-04 -.142E-05 0.171E-04
   -.238E+02 -.134E+02 0.284E+02   0.240E+02 0.136E+02 -.287E+02   -.239E+00 -.126E+00 0.283E+00   0.117E-04 0.142E-05 -.171E-04
   0.238E+02 0.134E+02 0.284E+02   -.240E+02 -.136E+02 -.287E+02   0.239E+00 0.126E+00 0.283E+00   -.117E-04 -.142E-05 -.171E-04
   0.238E+02 -.134E+02 -.284E+02   -.240E+02 0.136E+02 0.287E+02   0.239E+00 -.126E+00 -.283E+00   -.117E-04 0.142E-05 0.171E-04
   -.238E+02 0.134E+02 -.284E+02   0.240E+02 -.136E+02 0.287E+02   -.239E+00 0.126E+00 -.283E+00   0.117E-04 -.142E-05 0.171E-04
 -----------------------------------------------------------------------------------------------
   -.264E-10 -.224E-11 -.245E-09   0.142E-13 -.462E-13 -.107E-13   0.000E+00 0.555E-16 0.000E+00   -.411E-12 -.255E-12 0.132E-12


 POSITION                                       TOTAL-FORCE (eV/Angst)
 -----------------------------------------------------------------------------------
      0.47257      3.05859      3.83464         0.000722      0.000000     -0.006181
      3.69842      9.17577      7.80753        -0.000722      0.000000     -0.006181
      4.64356      3.05859      0.13824         0.000722     -0.000000      0.006181
      7.86942      9.17577      4.11113        -0.000722      0.000000      0.006181
      0.00000      0.00000      0.00000         0.000000      0.000000     -0.000000
      4.17099      0.00000      3.97288         0.000000      0.000000     -0.000000
      4.17099      6.11718      3.97288         0.000000      0.000000     -0.000000
      0.00000      6.11718      0.00000         0.000000      0.000000     -0.000000
      4.17891      9.17577      3.67377         0.001550     -0.000000     -0.008925
      8.33407      3.05859      7.64666        -0.001550      0.000000     -0.008925
      0.00792      9.17577      0.29911         0.001550      0.000000      0.008925
      4.16308      3.05859      4.27200        -0.001550      0.000000      0.008925
      2.59570      5.82888      1.45682         0.003803     -0.002479     -0.005115
      1.57529      6.40548      5.42971        -0.003803      0.002479     -0.005115
      6.76670      0.28830      2.51606         0.003803      0.002479      0.005115
      5.74629     11.94606      6.48894        -0.003803     -0.002479      0.005115
      2.59570      0.28830      1.45682         0.003803      0.002479     -0.005115
      1.57529     11.94606      5.42971        -0.003803     -0.002479     -0.005115
      5.74629      6.40548      6.48894        -0.003803      0.002479      0.005115
      6.76670      5.82888      2.51606         0.003803     -0.002479      0.005115
 -----------------------------------------------------------------------------------
    total drift:                               -0.000000     -0.000000     -0.000000


--------------------------------------------------------------------------------------------------------



  FREE ENERGIE OF THE ION-ELECTRON SYSTEM (eV)
  ---------------------------------------------------
  free  energy   TOTEN  =      -714.82292135 eV

  energy  without entropy=     -714.82292135  energy(sigma->0) =     -714.82292135



--------------------------------------------------------------------------------------------------------


    POTLOK:  cpu time    1.1929: real time    1.1929


--------------------------------------------------------------------------------------------------------


 stress matrix after NEB project (eV)
     -0.81550      0.00000      0.00000
      0.00000     -5.66952      0.00000
      0.00000      0.00000     -0.83086
  FORCES: max atom, RMS     0.009058    0.006547
  FORCE total and by dimension    0.029280    0.008925
  Stress total and by dimension    5.787815    5.669518
     LOOP+:  cpu time  112.7060: real time  113.2453
    4ORBIT:  cpu time    0.0000: real time    0.0000



 total charge     

# of ion       s       p       d       tot
------------------------------------------
    1        1.785   4.718   0.017   6.520
    2        1.785   4.718   0.017   6.520
    3        1.785   4.718   0.017   6.520
    4        1.785   4.718   0.017   6.520
    5        1.553   0.414   9.832  11.799
    6        1.553   0.414   9.832  11.799
    7        1.553   0.414   9.832  11.799
    8        1.553   0.414   9.832  11.799
    9        1.612   3.278   0.005   4.896
   10        1.612   3.278   0.005   4.896
   11        1.612   3.278   0.005   4.896
   12        1.612   3.278   0.005   4.896
   13        1.616   3.271   0.007   4.894
   14        1.614   3.294   0.006   4.914
   15        1.614   3.294   0.006   4.914
   16        1.616   3.271   0.007   4.894
   17        1.616   3.271   0.007   4.894
   18        1.614   3.294   0.006   4.914
   19        1.616   3.271   0.007   4.894
   20        1.614   3.294   0.006   4.914
--------------------------------------------------
tot         32.718  59.904  39.466 132.087


 total amount of memory used by VASP MPI-rank0    42328. kBytes
=======================================================================

   base      :      30000. kBytes
   nonlr-proj:       2940. kBytes
   fftplans  :       3668. kBytes
   grid      :       3424. kBytes
   one-center:         46. kBytes
   wavefun   :       2250. kBytes

  
  
 General timing and accounting informations for this job:
 ========================================================
  
                  Total CPU time used (sec):      119.055
                            User time (sec):      118.223
                          System time (sec):        0.832
                         Elapsed time (sec):      119.672
  
                   Maximum memory used (kb):       77752.
                   Average memory used (kb):           0.
  
                          Minor page faults:        18985
                          Major page faults:            0
                 Voluntary context switches:         1605
