<?xml version="1.0" encoding="ISO-8859-1"?>
<modeling>
 <generator>
  <i name="program" type="string">vasp </i>
  <i name="version" type="string">5.4.4.18Apr17-6-g9f103f2a35  </i>
  <i name="subversion" type="string">(build Jun 29 2021 14:23:36) complex            parallel </i>
  <i name="platform" type="string">tx2_gcc-7.3_libsci-18.07_cray-fftw-3.3.8 </i>
  <i name="date" type="string">2021 09 21 </i>
  <i name="time" type="string">08:29:00 </i>
 </generator>
 <incar>
  <i type="string" name="SYSTEM"> CsPbBr3 cubic bulk</i>
  <i type="string" name="PREC">accurate</i>
  <i type="string" name="ALGO"> Normal   ! Electronic minimisation algo</i>
  <i type="logical" name="ADDGRID"> T  </i>
  <i type="int" name="NELM">   200</i>
  <i type="int" name="IBRION">     2</i>
  <i name="EDIFF">      0.00000100</i>
  <i name="EDIFFG">     -0.01000000</i>
  <i type="int" name="NSW">     0</i>
  <i type="int" name="ISIF">     3</i>
  <i type="int" name="ISYM">     2</i>
  <i name="ENCUT">    300.00000000</i>
  <i name="POTIM">      0.50000000</i>
  <i type="string" name="LREAL"> AUTO</i>
  <i type="int" name="ISMEAR">     0</i>
  <i name="SIGMA">      0.01000000</i>
  <i name="PSTRESS">      0.00000000</i>
  <i type="logical" name="LWAVE"> F  </i>
  <i type="logical" name="LCHARG"> F  </i>
  <i type="logical" name="LVHAR"> T  </i>
  <i type="int" name="LORBIT">    10</i>
  <i type="logical" name="LASPH"> T  </i>
  <v type="int" name="KPOINT_BSE">    -1     0     0     0</v>
  <i type="int" name="NELM">   200</i>
  <i type="string" name="METAGGA"> SCAN       ! PBE exchange-correlation</i>
  <i type="logical" name="LASPH"> T  </i>
 </incar>
 <structure name="primitive_cell" >
  <crystal>
   <varray name="basis" >
    <v>       8.34198785       0.00000000       0.00000000 </v>
    <v>       0.00000000      12.23436010       0.00000000 </v>
    <v>       0.00000000       0.00000000       7.94576858 </v>
   </varray>
   <i name="volume">    810.93626807 </i>
   <varray name="rec_basis" >
    <v>       0.11987550       0.00000000       0.00000000 </v>
    <v>       0.00000000       0.08173701       0.00000000 </v>
    <v>       0.00000000       0.00000000       0.12585315 </v>
   </varray>
  </crystal>
  <varray name="positions" >
   <v>       0.05664951       0.25000000       0.48260195 </v>
   <v>      -0.18883892       0.02356453       0.31665410 </v>
   <v>      -0.18883892       0.47643547       0.31665410 </v>
   <v>       0.49905096       0.25000000      -0.46235596 </v>
   <v>      -0.00094904       0.25000000      -0.03764404 </v>
   <v>       0.18883892      -0.47643547      -0.31665410 </v>
   <v>       0.18883892      -0.02356453      -0.31665410 </v>
   <v>       0.31116108       0.47643547       0.18334590 </v>
   <v>       0.31116108       0.02356453       0.18334590 </v>
   <v>      -0.50000000       0.00000000      -0.50000000 </v>
   <v>      -0.50000000      -0.50000000      -0.50000000 </v>
   <v>       0.00000000       0.00000000       0.00000000 </v>
   <v>       0.00000000      -0.50000000       0.00000000 </v>
   <v>      -0.31116108      -0.02356453      -0.18334590 </v>
   <v>      -0.31116108      -0.47643547      -0.18334590 </v>
   <v>      -0.44335049       0.25000000       0.01739805 </v>
   <v>      -0.05664951      -0.25000000      -0.48260195 </v>
   <v>       0.00094904      -0.25000000       0.03764404 </v>
   <v>      -0.49905096      -0.25000000       0.46235596 </v>
   <v>       0.44335049      -0.25000000      -0.01739805 </v>
  </varray>
 </structure>
 <varray name="primitive_index" >
  <v type="int" >        1 </v>
  <v type="int" >       15 </v>
  <v type="int" >       20 </v>
  <v type="int" >       12 </v>
  <v type="int" >       10 </v>
  <v type="int" >       14 </v>
  <v type="int" >       18 </v>
  <v type="int" >       13 </v>
  <v type="int" >       17 </v>
  <v type="int" >        6 </v>
  <v type="int" >        7 </v>
  <v type="int" >        5 </v>
  <v type="int" >        8 </v>
  <v type="int" >       16 </v>
  <v type="int" >       19 </v>
  <v type="int" >        3 </v>
  <v type="int" >        4 </v>
  <v type="int" >       11 </v>
  <v type="int" >        9 </v>
  <v type="int" >        2 </v>
 </varray>
 <kpoints>
  <generation param="Gamma">
   <v type="int" name="divisions">       3        2        3 </v>
   <v name="usershift">      0.00000000       0.00000000       0.00000000 </v>
   <v name="genvec1">      0.33333333       0.00000000       0.00000000 </v>
   <v name="genvec2">      0.00000000       0.50000000       0.00000000 </v>
   <v name="genvec3">      0.00000000       0.00000000       0.33333333 </v>
   <v name="shift">      0.00000000       0.00000000       0.00000000 </v>
  </generation>
  <varray name="kpointlist" >
   <v>       0.00000000       0.00000000       0.00000000 </v>
   <v>       0.33333333       0.00000000       0.00000000 </v>
   <v>       0.00000000       0.50000000       0.00000000 </v>
   <v>       0.33333333       0.50000000       0.00000000 </v>
   <v>       0.00000000       0.00000000       0.33333333 </v>
   <v>       0.33333333       0.00000000       0.33333333 </v>
   <v>       0.00000000       0.50000000       0.33333333 </v>
   <v>       0.33333333       0.50000000       0.33333333 </v>
  </varray>
  <varray name="weights" >
   <v>       0.05555556 </v>
   <v>       0.11111111 </v>
   <v>       0.05555556 </v>
   <v>       0.11111111 </v>
   <v>       0.11111111 </v>
   <v>       0.22222222 </v>
   <v>       0.11111111 </v>
   <v>       0.22222222 </v>
  </varray>
 </kpoints>
 <parameters>
  <separator name="general" >
   <i type="string" name="SYSTEM">CsPbBr3 cubic bulk</i>
   <i type="logical" name="LCOMPAT"> F  </i>
  </separator>
  <separator name="electronic" >
   <i type="string" name="PREC">accura</i>
   <i name="ENMAX">    300.00000000</i>
   <i name="ENAUG">    503.85200000</i>
   <i name="EDIFF">      0.00000100</i>
   <i type="int" name="IALGO">    38</i>
   <i type="int" name="IWAVPR">    10</i>
   <i type="int" name="NBANDS">   112</i>
   <i name="NELECT">    176.00000000</i>
   <i type="int" name="TURBO">     0</i>
   <i type="int" name="IRESTART">     0</i>
   <i type="int" name="NREBOOT">     0</i>
   <i type="int" name="NMIN">     0</i>
   <i name="EREF">      0.00000000</i>
   <separator name="electronic smearing" >
    <i type="int" name="ISMEAR">     0</i>
    <i name="SIGMA">      0.01000000</i>
    <i name="KSPACING">      0.50000000</i>
    <i type="logical" name="KGAMMA"> T  </i>
   </separator>
   <separator name="electronic projectors" >
    <i type="logical" name="LREAL"> T  </i>
    <v name="ROPT">     -0.00025000     -0.00025000     -0.00025000</v>
    <i type="int" name="LMAXPAW">  -100</i>
    <i type="int" name="LMAXMIX">     2</i>
    <i type="logical" name="NLSPLINE"> F  </i>
   </separator>
   <separator name="electronic startup" >
    <i type="int" name="ISTART">     0</i>
    <i type="int" name="ICHARG">     2</i>
    <i type="int" name="INIWAV">     1</i>
   </separator>
   <separator name="electronic spin" >
    <i type="int" name="ISPIN">     1</i>
    <i type="logical" name="LNONCOLLINEAR"> F  </i>
    <v name="MAGMOM">      1.00000000      1.00000000      1.00000000      1.00000000      1.00000000      1.00000000      1.00000000      1.00000000      1.00000000      1.00000000      1.00000000      1.00000000      1.00000000      1.00000000      1.00000000      1.00000000      1.00000000      1.00000000      1.00000000      1.00000000
</v>
    <i name="NUPDOWN">     -1.00000000</i>
    <i type="logical" name="LSORBIT"> F  </i>
    <v name="SAXIS">      0.00000000      0.00000000      1.00000000</v>
    <i type="logical" name="LSPIRAL"> F  </i>
    <v name="QSPIRAL">      0.00000000      0.00000000      0.00000000</v>
    <i type="logical" name="LZEROZ"> F  </i>
   </separator>
   <separator name="electronic exchange-correlation" >
    <i type="logical" name="LASPH"> T  </i>
    <i type="logical" name="LMETAGGA"> F  </i>
   </separator>
   <separator name="electronic convergence" >
    <i type="int" name="NELM">   200</i>
    <i type="int" name="NELMDL">    -5</i>
    <i type="int" name="NELMIN">     2</i>
    <i name="ENINI">    300.00000000</i>
    <separator name="electronic convergence detail" >
     <i type="logical" name="LDIAG"> T  </i>
     <i type="logical" name="LSUBROT"> F  </i>
     <i name="WEIMIN">      0.00000000</i>
     <i name="EBREAK">      0.00000000</i>
     <i name="DEPER">      0.30000000</i>
     <i type="int" name="NRMM">     4</i>
     <i name="TIME">      0.40000000</i>
    </separator>
   </separator>
   <separator name="electronic mixer" >
    <i name="AMIX">      0.40000000</i>
    <i name="BMIX">      1.00000000</i>
    <i name="AMIN">      0.10000000</i>
    <i name="AMIX_MAG">      1.60000000</i>
    <i name="BMIX_MAG">      1.00000000</i>
    <separator name="electronic mixer details" >
     <i type="int" name="IMIX">     4</i>
     <i type="logical" name="MIXFIRST"> F  </i>
     <i type="int" name="MAXMIX">   -45</i>
     <i name="WC">    100.00000000</i>
     <i type="int" name="INIMIX">     1</i>
     <i type="int" name="MIXPRE">     1</i>
     <i type="int" name="MREMOVE">     5</i>
    </separator>
   </separator>
   <separator name="electronic dipolcorrection" >
    <i type="logical" name="LDIPOL"> F  </i>
    <i type="logical" name="LMONO"> F  </i>
    <i type="int" name="IDIPOL">     0</i>
    <i name="EPSILON">      1.00000000</i>
    <v name="DIPOL">   -100.00000000   -100.00000000   -100.00000000</v>
    <i name="EFIELD">      0.00000000</i>
   </separator>
  </separator>
  <separator name="grids" >
   <i type="int" name="NGX">    48</i>
   <i type="int" name="NGY">    70</i>
   <i type="int" name="NGZ">    48</i>
   <i type="int" name="NGXF">    96</i>
   <i type="int" name="NGYF">   140</i>
   <i type="int" name="NGZF">    96</i>
   <i type="logical" name="ADDGRID"> T  </i>
  </separator>
  <separator name="ionic" >
   <i type="int" name="NSW">     0</i>
   <i type="int" name="IBRION">    -1</i>
   <i type="int" name="MDALGO">     0</i>
   <i type="int" name="ISIF">     3</i>
   <i name="PSTRESS">      0.00000000</i>
   <i name="EDIFFG">     -0.01000000</i>
   <i type="int" name="NFREE">     1</i>
   <i name="POTIM">      0.50000000</i>
   <i name="SMASS">     -3.00000000</i>
   <i name="SCALEE">      1.00000000</i>
  </separator>
  <separator name="ionic md" >
   <i name="TEBEG">      0.00010000</i>
   <i name="TEEND">      0.00010000</i>
   <i type="int" name="NBLOCK">     1</i>
   <i type="int" name="KBLOCK">     1</i>
   <i type="int" name="NPACO">   256</i>
   <i name="APACO">     16.00000000</i>
  </separator>
  <separator name="symmetry" >
   <i type="int" name="ISYM">     2</i>
   <i name="SYMPREC">      0.00001000</i>
  </separator>
  <separator name="dos" >
   <i type="int" name="LORBIT">    10</i>
   <v name="RWIGS">     -1.00000000     -1.00000000     -1.00000000</v>
   <i type="int" name="NEDOS">   301</i>
   <i name="EMIN">     10.00000000</i>
   <i name="EMAX">    -10.00000000</i>
   <i name="EFERMI">      0.00000000</i>
  </separator>
  <separator name="writing" >
   <i type="int" name="NWRITE">     2</i>
   <i type="logical" name="LWAVE"> F  </i>
   <i type="logical" name="LDOWNSAMPLE"> F  </i>
   <i type="logical" name="LCHARG"> F  </i>
   <i type="logical" name="LPARD"> F  </i>
   <i type="logical" name="LVTOT"> F  </i>
   <i type="logical" name="LVHAR"> T  </i>
   <i type="logical" name="LELF"> F  </i>
   <i type="logical" name="LOPTICS"> F  </i>
   <v name="STM">      0.00000000      0.00000000      0.00000000      0.00000000      0.00000000      0.00000000      0.00000000</v>
  </separator>
  <separator name="performance" >
   <i type="int" name="NPAR">     8</i>
   <i type="int" name="NSIM">     4</i>
   <i type="int" name="NBLK">    -1</i>
   <i type="logical" name="LPLANE"> T  </i>
   <i type="logical" name="LSCALAPACK"> T  </i>
   <i type="logical" name="LSCAAWARE"> F  </i>
   <i type="logical" name="LSCALU"> F  </i>
   <i type="logical" name="LASYNC"> F  </i>
   <i type="logical" name="LORBITALREAL"> F  </i>
  </separator>
  <separator name="miscellaneous" >
   <i type="int" name="IDIOT">     3</i>
   <i type="int" name="ISPECIAL">     0</i>
   <i type="logical" name="LMUSIC"> F  </i>
   <v name="POMASS">    132.90000000    207.20000000     79.90400000</v>
   <v name="DARWINR">      0.00000000      0.00000000      0.00000000</v>
   <v name="DARWINV">      1.00000000      1.00000000      1.00000000</v>
   <i type="logical" name="LCORR"> T  </i>
  </separator>
  <i type="logical" name="GGA_COMPAT"> T  </i>
  <i type="logical" name="LBERRY"> F  </i>
  <i type="int" name="ICORELEVEL">     0</i>
  <i type="logical" name="LDAU"> F  </i>
  <i type="int" name="I_CONSTRAINED_M">     0</i>
  <separator name="electronic exchange-correlation" >
   <i type="string" name="GGA">--</i>
   <i type="int" name="VOSKOWN">     0</i>
   <i type="logical" name="LHFCALC"> F  </i>
   <i type="string" name="PRECFOCK"></i>
   <i type="logical" name="LSYMGRAD"> F  </i>
   <i type="logical" name="LHFONE"> F  </i>
   <i type="logical" name="LRHFCALC"> F  </i>
   <i type="logical" name="LTHOMAS"> F  </i>
   <i type="logical" name="LMODELHF"> F  </i>
   <i name="ENCUT4O">     -1.00000000</i>
   <i type="int" name="EXXOEP">     0</i>
   <i type="int" name="FOURORBIT">     0</i>
   <i name="AEXX">      0.00000000</i>
   <i name="HFALPHA">      0.00000000</i>
   <i name="MCALPHA">      0.00000000</i>
   <i name="ALDAX">      1.00000000</i>
   <i name="AGGAX">      1.00000000</i>
   <i name="ALDAC">      1.00000000</i>
   <i name="AGGAC">      1.00000000</i>
   <i type="int" name="NKREDX">     1</i>
   <i type="int" name="NKREDY">     1</i>
   <i type="int" name="NKREDZ">     1</i>
   <i type="logical" name="SHIFTRED"> F  </i>
   <i type="logical" name="ODDONLY"> F  </i>
   <i type="logical" name="EVENONLY"> F  </i>
   <i type="int" name="LMAXFOCK">     0</i>
   <i type="int" name="NMAXFOCKAE">     0</i>
   <i type="logical" name="LFOCKAEDFT"> F  </i>
   <i name="HFSCREEN">      0.00000000</i>
   <i name="HFSCREENC">      0.00000000</i>
   <i type="int" name="NBANDSGWLOW">     0</i>
  </separator>
  <separator name="vdW DFT" >
   <i type="logical" name="LUSE_VDW"> F  </i>
   <i name="Zab_VDW">     -0.84910000</i>
   <i name="PARAM1">      0.12340000</i>
   <i name="PARAM2">      1.00000000</i>
   <i name="PARAM3">      0.00000000</i>
  </separator>
  <separator name="model GW" >
   <i type="int" name="MODEL_GW">     0</i>
   <i name="MODEL_EPS0">     24.32808804</i>
   <i name="MODEL_ALPHA">      1.00000000</i>
  </separator>
  <separator name="linear response parameters" >
   <i type="logical" name="LEPSILON"> F  </i>
   <i type="logical" name="LRPA"> F  </i>
   <i type="logical" name="LNABLA"> F  </i>
   <i type="logical" name="LVEL"> F  </i>
   <i type="int" name="KINTER">     0</i>
   <i name="CSHIFT">      0.10000000</i>
   <i name="OMEGAMAX">     -1.00000000</i>
   <i name="DEG_THRESHOLD">      0.00200000</i>
   <i name="RTIME">     -0.10000000</i>
   <i name="WPLASMAI">      0.00000000</i>
   <v name="DFIELD">      0.00000000      0.00000000      0.00000000</v>
   <v name="WPLASMA">      0.00000000      0.00000000      0.00000000      0.00000000      0.00000000      0.00000000      0.00000000      0.00000000      0.00000000</v>
  </separator>
  <separator name="orbital magnetization" >
   <i type="logical" name="NUCIND"> F  </i>
   <v name="MAGPOS">      0.00000000      0.00000000      0.00000000</v>
   <i type="logical" name="LNICSALL"> T  </i>
   <i type="logical" name="ORBITALMAG"> F  </i>
   <i type="logical" name="LMAGBLOCH"> F  </i>
   <i type="logical" name="LCHIMAG"> F  </i>
   <i type="logical" name="LGAUGE"> T  </i>
   <i type="int" name="MAGATOM">     0</i>
   <v name="MAGDIPOL">      0.00000000      0.00000000      0.00000000</v>
   <v name="AVECCONST">      0.00000000      0.00000000      0.00000000</v>
  </separator>
  <separator name="response functions" >
   <i type="logical" name="LADDER"> F  </i>
   <i type="logical" name="LRPAFORCE"> F  </i>
   <i type="logical" name="LFXC"> F  </i>
   <i type="logical" name="LHARTREE"> T  </i>
   <i type="int" name="IBSE">     0</i>
   <v type="int" name="KPOINT">    -1     0     0     0</v>
   <i type="logical" name="LTCTE"> F  </i>
   <i type="logical" name="LTETE"> F  </i>
   <i type="logical" name="LTRIPLET"> F  </i>
   <i type="logical" name="LFXCEPS"> F  </i>
   <i type="logical" name="LFXHEG"> F  </i>
   <i type="int" name="NATURALO">     2</i>
   <i type="logical" name="L2ORDER"> F  </i>
   <i type="logical" name="LMP2LT"> F  </i>
   <i type="logical" name="LUSEW"> F  </i>
   <i name="ENCUTGW">     -2.00000000</i>
   <i name="ENCUTGWSOFT">     -2.00000000</i>
   <i name="ENCUTLF">     -1.00000000</i>
   <i type="int" name="LMAXMP2">    -1</i>
   <i name="SCISSOR">      0.00000000</i>
   <i type="int" name="NOMEGA">     0</i>
   <i type="int" name="NOMEGAR">     0</i>
   <i type="int" name="NBANDSGW">    -1</i>
   <i type="int" name="NBANDSO">    -1</i>
   <i type="int" name="NBANDSV">    -1</i>
   <i type="int" name="NELM">   200</i>
   <i type="int" name="NELMHF">     1</i>
   <i type="int" name="DIM">     3</i>
   <i type="int" name="ANTIRES">     0</i>
   <i name="OMEGAMAX">    -30.00000000</i>
   <i name="OMEGAMIN">    -30.00000000</i>
   <i name="OMEGATL">   -200.00000000</i>
   <i type="int" name="OMEGAGRID">   140</i>
   <i name="CSHIFT">     -0.10000000</i>
   <i type="logical" name="SELFENERGY"> F  </i>
   <i type="logical" name="LSPECTRAL"> F  </i>
   <i type="logical" name="LSPECTRALGW"> F  </i>
   <i type="logical" name="LSINGLES"> F  </i>
   <i type="logical" name="LFERMIGW"> F  </i>
   <i type="logical" name="ODDONLYGW"> F  </i>
   <i type="logical" name="EVENONLYGW"> F  </i>
   <i type="int" name="NKREDLFX">     1</i>
   <i type="int" name="NKREDLFY">     1</i>
   <i type="int" name="NKREDLFZ">     1</i>
   <i type="int" name="MAXMEM">  2800</i>
   <i type="int" name="TELESCOPE">     0</i>
   <i type="int" name="TAUPAR">     1</i>
   <i type="int" name="OMEGAPAR">    -1</i>
   <i name="LAMBDA">      1.00000000</i>
  </separator>
  <separator name="External order field" >
   <i name="OFIELD_KAPPA">      0.00000000</i>
   <v name="OFIELD_K">      0.00000000      0.00000000      0.00000000</v>
   <i name="OFIELD_Q6_NEAR">      0.00000000</i>
   <i name="OFIELD_Q6_FAR">      0.00000000</i>
   <i name="OFIELD_A">      0.00000000</i>
  </separator>
 </parameters>
 <atominfo>
  <atoms>      20 </atoms>
  <types>       3 </types>
  <array name="atoms" >
   <dimension dim="1">ion</dimension>
   <field type="string">element</field>
   <field type="int">atomtype</field>
   <set>
    <rc><c>Cs</c><c>   1</c></rc>
    <rc><c>Cs</c><c>   1</c></rc>
    <rc><c>Cs</c><c>   1</c></rc>
    <rc><c>Cs</c><c>   1</c></rc>
    <rc><c>Pb</c><c>   2</c></rc>
    <rc><c>Pb</c><c>   2</c></rc>
    <rc><c>Pb</c><c>   2</c></rc>
    <rc><c>Pb</c><c>   2</c></rc>
    <rc><c>Br</c><c>   3</c></rc>
    <rc><c>Br</c><c>   3</c></rc>
    <rc><c>Br</c><c>   3</c></rc>
    <rc><c>Br</c><c>   3</c></rc>
    <rc><c>Br</c><c>   3</c></rc>
    <rc><c>Br</c><c>   3</c></rc>
    <rc><c>Br</c><c>   3</c></rc>
    <rc><c>Br</c><c>   3</c></rc>
    <rc><c>Br</c><c>   3</c></rc>
    <rc><c>Br</c><c>   3</c></rc>
    <rc><c>Br</c><c>   3</c></rc>
    <rc><c>Br</c><c>   3</c></rc>
   </set>
  </array>
  <array name="atomtypes" >
   <dimension dim="1">type</dimension>
   <field type="int">atomspertype</field>
   <field type="string">element</field>
   <field>mass</field>
   <field>valence</field>
   <field type="string">pseudopotential</field>
   <set>
    <rc><c>   4</c><c>Cs</c><c>    132.90000000</c><c>      9.00000000</c><c>  PAW_PBE Cs_sv 08Apr2002               </c></rc>
    <rc><c>   4</c><c>Pb</c><c>    207.20000000</c><c>     14.00000000</c><c>  PAW_PBE Pb_d 06Sep2000                </c></rc>
    <rc><c>  12</c><c>Br</c><c>     79.90400000</c><c>      7.00000000</c><c>  PAW_PBE Br 06Sep2000                  </c></rc>
   </set>
  </array>
 </atominfo>
 <structure name="initialpos" >
  <crystal>
   <varray name="basis" >
    <v>       8.34198785       0.00000000       0.00000000 </v>
    <v>       0.00000000      12.23436010       0.00000000 </v>
    <v>       0.00000000       0.00000000       7.94576858 </v>
   </varray>
   <i name="volume">    810.93626807 </i>
   <varray name="rec_basis" >
    <v>       0.11987550       0.00000000       0.00000000 </v>
    <v>       0.00000000       0.08173701       0.00000000 </v>
    <v>       0.00000000       0.00000000       0.12585315 </v>
   </varray>
  </crystal>
  <varray name="positions" >
   <v>       0.05664951       0.25000000       0.48260195 </v>
   <v>       0.44335049       0.75000000       0.98260195 </v>
   <v>       0.55664951       0.25000000       0.01739805 </v>
   <v>       0.94335049       0.75000000       0.51739805 </v>
   <v>       0.00000000       0.00000000       0.00000000 </v>
   <v>       0.50000000       0.00000000       0.50000000 </v>
   <v>       0.50000000       0.50000000       0.50000000 </v>
   <v>       0.00000000       0.50000000       0.00000000 </v>
   <v>       0.50094904       0.75000000       0.46235596 </v>
   <v>       0.99905096       0.25000000       0.96235596 </v>
   <v>       0.00094904       0.75000000       0.03764404 </v>
   <v>       0.49905096       0.25000000       0.53764404 </v>
   <v>       0.31116108       0.47643547       0.18334590 </v>
   <v>       0.18883892       0.52356453       0.68334590 </v>
   <v>       0.81116108       0.02356453       0.31665410 </v>
   <v>       0.68883892       0.97643547       0.81665410 </v>
   <v>       0.31116108       0.02356453       0.18334590 </v>
   <v>       0.18883892       0.97643547       0.68334590 </v>
   <v>       0.68883892       0.52356453       0.81665410 </v>
   <v>       0.81116108       0.47643547       0.31665410 </v>
  </varray>
 </structure>
 <calculation>
  <scstep>
   <time name="dav">    4.04    4.05</time>
   <time name="total">    5.27    5.28</time>
   <energy>
    <i name="alphaZ">    444.92884086 </i>
    <i name="ewald">  -9204.62224518 </i>
    <i name="hartreedc">  -3665.25954850 </i>
    <i name="XCdc">    461.65917910 </i>
    <i name="pawpsdc">  10816.98087266 </i>
    <i name="pawaedc"> -11353.96092700 </i>
    <i name="eentropy">     -0.00000000 </i>
    <i name="bandstr">   -131.47547751 </i>
    <i name="atom">  13290.28009929 </i>
    <i name="e_fr_energy">    658.53079370 </i>
    <i name="e_wo_entrp">    658.53079370 </i>
    <i name="e_0_energy">    658.53079370 </i>
   </energy>
  </scstep>
  <scstep>
   <time name="dav">    4.44    4.49</time>
   <time name="total">    4.44    4.49</time>
   <energy>
    <i name="e_fr_energy">   -574.79512630 </i>
    <i name="e_wo_entrp">   -574.79512630 </i>
    <i name="e_0_energy">   -574.79512630 </i>
   </energy>
  </scstep>
  <scstep>
   <time name="dav">    4.77    4.82</time>
   <time name="total">    4.77    4.82</time>
   <energy>
    <i name="e_fr_energy">   -748.89834432 </i>
    <i name="e_wo_entrp">   -748.89834432 </i>
    <i name="e_0_energy">   -748.89834432 </i>
   </energy>
  </scstep>
  <scstep>
   <time name="dav">    4.41    4.41</time>
   <time name="total">    4.41    4.41</time>
   <energy>
    <i name="e_fr_energy">   -754.49737495 </i>
    <i name="e_wo_entrp">   -754.49737495 </i>
    <i name="e_0_energy">   -754.49737495 </i>
   </energy>
  </scstep>
  <scstep>
   <time name="dav">    4.69    4.72</time>
   <time name="total">    5.56    5.59</time>
   <energy>
    <i name="e_fr_energy">   -754.74316420 </i>
    <i name="e_wo_entrp">   -754.74316420 </i>
    <i name="e_0_energy">   -754.74316420 </i>
   </energy>
  </scstep>
  <scstep>
   <time name="dav">    4.65    4.65</time>
   <time name="total">    6.70    6.74</time>
   <energy>
    <i name="e_fr_energy">   -714.92618127 </i>
    <i name="e_wo_entrp">   -714.92618127 </i>
    <i name="e_0_energy">   -714.92618127 </i>
   </energy>
  </scstep>
  <scstep>
   <time name="dav">    4.46    4.46</time>
   <time name="total">    6.53    6.53</time>
   <energy>
    <i name="e_fr_energy">   -714.68143918 </i>
    <i name="e_wo_entrp">   -714.68143918 </i>
    <i name="e_0_energy">   -714.68143918 </i>
   </energy>
  </scstep>
  <scstep>
   <time name="dav">    4.33    4.33</time>
   <time name="total">    6.37    6.43</time>
   <energy>
    <i name="e_fr_energy">   -714.77806547 </i>
    <i name="e_wo_entrp">   -714.77806547 </i>
    <i name="e_0_energy">   -714.77806547 </i>
   </energy>
  </scstep>
  <scstep>
   <time name="dav">    4.05    4.05</time>
   <time name="total">    6.11    6.16</time>
   <energy>
    <i name="e_fr_energy">   -714.82019019 </i>
    <i name="e_wo_entrp">   -714.82019019 </i>
    <i name="e_0_energy">   -714.82019019 </i>
   </energy>
  </scstep>
  <scstep>
   <time name="dav">    4.98    4.99</time>
   <time name="total">    7.04    7.09</time>
   <energy>
    <i name="e_fr_energy">   -714.82112902 </i>
    <i name="e_wo_entrp">   -714.82112902 </i>
    <i name="e_0_energy">   -714.82112902 </i>
   </energy>
  </scstep>
  <scstep>
   <time name="dav">    4.12    4.12</time>
   <time name="total">    6.19    6.21</time>
   <energy>
    <i name="e_fr_energy">   -714.82270748 </i>
    <i name="e_wo_entrp">   -714.82270748 </i>
    <i name="e_0_energy">   -714.82270748 </i>
   </energy>
  </scstep>
  <scstep>
   <time name="dav">    4.19    4.19</time>
   <time name="total">    6.27    6.30</time>
   <energy>
    <i name="e_fr_energy">   -714.82291281 </i>
    <i name="e_wo_entrp">   -714.82291281 </i>
    <i name="e_0_energy">   -714.82291281 </i>
   </energy>
  </scstep>
  <scstep>
   <time name="dav">    4.59    4.59</time>
   <time name="total">    6.67    6.69</time>
   <energy>
    <i name="e_fr_energy">   -714.82291000 </i>
    <i name="e_wo_entrp">   -714.82291000 </i>
    <i name="e_0_energy">   -714.82291000 </i>
   </energy>
  </scstep>
  <scstep>
   <time name="dav">    3.88    3.88</time>
   <time name="total">    5.94    5.98</time>
   <energy>
    <i name="e_fr_energy">   -714.82292090 </i>
    <i name="e_wo_entrp">   -714.82292090 </i>
    <i name="e_0_energy">   -714.82292090 </i>
   </energy>
  </scstep>
  <scstep>
   <time name="dav">    3.33    3.33</time>
   <time name="total">    5.41    5.45</time>
   <energy>
    <i name="e_fr_energy">   -714.82292558 </i>
    <i name="e_wo_entrp">   -714.82292558 </i>
    <i name="e_0_energy">   -714.82292558 </i>
   </energy>
  </scstep>
  <scstep>
   <time name="dav">    3.15    3.15</time>
   <time name="total">    5.21    5.23</time>
   <energy>
    <i name="e_fr_energy">   -714.82292186 </i>
    <i name="e_wo_entrp">   -714.82292186 </i>
    <i name="e_0_energy">   -714.82292186 </i>
   </energy>
  </scstep>
  <scstep>
   <time name="dav">    3.09    3.09</time>
   <time name="total">    4.32    4.35</time>
   <energy>
    <i name="alphaZ">    444.92884086 </i>
    <i name="ewald">  -9204.62224518 </i>
    <i name="hartreedc">  -3678.17542146 </i>
    <i name="XCdc">    481.02444347 </i>
    <i name="pawpsdc">  11510.56698989 </i>
    <i name="pawaedc"> -12046.30683521 </i>
    <i name="eentropy">     -0.00000000 </i>
    <i name="bandstr">  -1512.51879300 </i>
    <i name="atom">  13290.28009929 </i>
    <i name="e_fr_energy">   -714.82292135 </i>
    <i name="e_wo_entrp">   -714.82292135 </i>
    <i name="e_0_energy">   -714.82292135 </i>
   </energy>
  </scstep>
  <structure>
   <crystal>
    <varray name="basis" >
     <v>       8.34198785       0.00000000       0.00000000 </v>
     <v>       0.00000000      12.23436010       0.00000000 </v>
     <v>       0.00000000       0.00000000       7.94576858 </v>
    </varray>
    <i name="volume">    810.93626807 </i>
    <varray name="rec_basis" >
     <v>       0.11987550       0.00000000       0.00000000 </v>
     <v>       0.00000000       0.08173701       0.00000000 </v>
     <v>       0.00000000       0.00000000       0.12585315 </v>
    </varray>
   </crystal>
   <varray name="positions" >
    <v>       0.05664951       0.25000000       0.48260195 </v>
    <v>       0.44335049       0.75000000       0.98260195 </v>
    <v>       0.55664951       0.25000000       0.01739805 </v>
    <v>       0.94335049       0.75000000       0.51739805 </v>
    <v>       0.00000000       0.00000000       0.00000000 </v>
    <v>       0.50000000       0.00000000       0.50000000 </v>
    <v>       0.50000000       0.50000000       0.50000000 </v>
    <v>       0.00000000       0.50000000       0.00000000 </v>
    <v>       0.50094904       0.75000000       0.46235596 </v>
    <v>       0.99905096       0.25000000       0.96235596 </v>
    <v>       0.00094904       0.75000000       0.03764404 </v>
    <v>       0.49905096       0.25000000       0.53764404 </v>
    <v>       0.31116108       0.47643547       0.18334590 </v>
    <v>       0.18883892       0.52356453       0.68334590 </v>
    <v>       0.81116108       0.02356453       0.31665410 </v>
    <v>       0.68883892       0.97643547       0.81665410 </v>
    <v>       0.31116108       0.02356453       0.18334590 </v>
    <v>       0.18883892       0.97643547       0.68334590 </v>
    <v>       0.68883892       0.52356453       0.81665410 </v>
    <v>       0.81116108       0.47643547       0.31665410 </v>
   </varray>
  </structure>
  <varray name="forces" >
   <v>       0.00072218       0.00000000      -0.00618097 </v>
   <v>      -0.00072218       0.00000000      -0.00618097 </v>
   <v>       0.00072218      -0.00000000       0.00618097 </v>
   <v>      -0.00072218       0.00000000       0.00618097 </v>
   <v>       0.00000000       0.00000000      -0.00000000 </v>
   <v>       0.00000000       0.00000000      -0.00000000 </v>
   <v>       0.00000000       0.00000000      -0.00000000 </v>
   <v>       0.00000000       0.00000000      -0.00000000 </v>
   <v>       0.00155018      -0.00000000      -0.00892455 </v>
   <v>      -0.00155018       0.00000000      -0.00892455 </v>
   <v>       0.00155018       0.00000000       0.00892455 </v>
   <v>      -0.00155018       0.00000000       0.00892455 </v>
   <v>       0.00380301      -0.00247948      -0.00511521 </v>
   <v>      -0.00380301       0.00247948      -0.00511521 </v>
   <v>       0.00380301       0.00247948       0.00511521 </v>
   <v>      -0.00380301      -0.00247948       0.00511521 </v>
   <v>       0.00380301       0.00247948      -0.00511521 </v>
   <v>      -0.00380301      -0.00247948      -0.00511521 </v>
   <v>      -0.00380301       0.00247948       0.00511521 </v>
   <v>       0.00380301      -0.00247948       0.00511521 </v>
  </varray>
  <varray name="stress" >
   <v>      -1.61119086       0.00000000       0.00000000 </v>
   <v>       0.00000000     -11.20134020       0.00000000 </v>
   <v>       0.00000000       0.00000000      -1.64154139 </v>
  </varray>
  <energy>
   <i name="e_fr_energy">   -714.82292135 </i>
   <i name="e_wo_entrp">   -714.82292135 </i>
   <i name="e_0_energy">     -0.00000000 </i>
  </energy>
  <time name="totalsc">  112.71  113.25</time>
  <eigenvalues>
   <array>
    <dimension dim="1">band</dimension>
    <dimension dim="2">kpoint</dimension>
    <dimension dim="3">spin</dimension>
    <field>eigene</field>
    <field>occ</field>
    <set>
     <set comment="spin 1">
      <set comment="kpoint 1">
       <r>  -20.8732    1.0000 </r>
       <r>  -20.8717    1.0000 </r>
       <r>  -20.8696    1.0000 </r>
       <r>  -20.8686    1.0000 </r>
       <r>  -16.5312    1.0000 </r>
       <r>  -16.5310    1.0000 </r>
       <r>  -16.5133    1.0000 </r>
       <r>  -16.4828    1.0000 </r>
       <r>  -16.4777    1.0000 </r>
       <r>  -16.4423    1.0000 </r>
       <r>  -16.4378    1.0000 </r>
       <r>  -16.4375    1.0000 </r>
       <r>  -16.3891    1.0000 </r>
       <r>  -16.3886    1.0000 </r>
       <r>  -16.3885    1.0000 </r>
       <r>  -16.3877    1.0000 </r>
       <r>  -16.3818    1.0000 </r>
       <r>  -16.3815    1.0000 </r>
       <r>  -16.3809    1.0000 </r>
       <r>  -16.3804    1.0000 </r>
       <r>  -16.3641    1.0000 </r>
       <r>  -16.3641    1.0000 </r>
       <r>  -16.3624    1.0000 </r>
       <r>  -16.3624    1.0000 </r>
       <r>  -14.3415    1.0000 </r>
       <r>  -14.2184    1.0000 </r>
       <r>  -14.0544    1.0000 </r>
       <r>  -14.0486    1.0000 </r>
       <r>  -14.0245    1.0000 </r>
       <r>  -14.0176    1.0000 </r>
       <r>  -13.9508    1.0000 </r>
       <r>  -13.9505    1.0000 </r>
       <r>  -13.9144    1.0000 </r>
       <r>  -13.7754    1.0000 </r>
       <r>  -13.7706    1.0000 </r>
       <r>  -13.7566    1.0000 </r>
       <r>   -8.1702    1.0000 </r>
       <r>   -7.7685    1.0000 </r>
       <r>   -7.3163    1.0000 </r>
       <r>   -7.3070    1.0000 </r>
       <r>   -7.3009    1.0000 </r>
       <r>   -7.2874    1.0000 </r>
       <r>   -7.2755    1.0000 </r>
       <r>   -7.2585    1.0000 </r>
       <r>   -7.2537    1.0000 </r>
       <r>   -7.2536    1.0000 </r>
       <r>   -7.2518    1.0000 </r>
       <r>   -7.2503    1.0000 </r>
       <r>   -7.2339    1.0000 </r>
       <r>   -7.2218    1.0000 </r>
       <r>   -7.0983    1.0000 </r>
       <r>   -6.6126    1.0000 </r>
       <r>   -3.3369    1.0000 </r>
       <r>   -3.2906    1.0000 </r>
       <r>   -3.2749    1.0000 </r>
       <r>   -3.2139    1.0000 </r>
       <r>   -3.1455    1.0000 </r>
       <r>   -2.9101    1.0000 </r>
       <r>   -2.2065    1.0000 </r>
       <r>   -1.9940    1.0000 </r>
       <r>   -1.9804    1.0000 </r>
       <r>   -1.8382    1.0000 </r>
       <r>   -1.8321    1.0000 </r>
       <r>   -1.6433    1.0000 </r>
       <r>   -1.5885    1.0000 </r>
       <r>   -1.5860    1.0000 </r>
       <r>   -1.5703    1.0000 </r>
       <r>   -1.5335    1.0000 </r>
       <r>   -1.4639    1.0000 </r>
       <r>   -1.4629    1.0000 </r>
       <r>   -1.4376    1.0000 </r>
       <r>   -1.3850    1.0000 </r>
       <r>   -1.3709    1.0000 </r>
       <r>   -1.3536    1.0000 </r>
       <r>   -1.3224    1.0000 </r>
       <r>   -1.2776    1.0000 </r>
       <r>   -1.2768    1.0000 </r>
       <r>   -1.1651    1.0000 </r>
       <r>   -1.1458    1.0000 </r>
       <r>   -1.1441    1.0000 </r>
       <r>   -1.1190    1.0000 </r>
       <r>   -1.0334    1.0000 </r>
       <r>   -1.0270    1.0000 </r>
       <r>   -0.9682    1.0000 </r>
       <r>   -0.8739    1.0000 </r>
       <r>   -0.6932    1.0000 </r>
       <r>   -0.1111    1.0000 </r>
       <r>    0.3530    1.0000 </r>
       <r>    2.4929    0.0000 </r>
       <r>    2.7822    0.0000 </r>
       <r>    2.9442    0.0000 </r>
       <r>    3.1712    0.0000 </r>
       <r>    3.2789    0.0000 </r>
       <r>    3.3386    0.0000 </r>
       <r>    4.7716    0.0000 </r>
       <r>    5.2806    0.0000 </r>
       <r>    5.7481    0.0000 </r>
       <r>    5.8014    0.0000 </r>
       <r>    5.8386    0.0000 </r>
       <r>    5.8839    0.0000 </r>
       <r>    5.9055    0.0000 </r>
       <r>    6.2237    0.0000 </r>
       <r>    6.2909    0.0000 </r>
       <r>    6.2920    0.0000 </r>
       <r>    6.3478    0.0000 </r>
       <r>    6.3575    0.0000 </r>
       <r>    6.4089    0.0000 </r>
       <r>    6.6865    0.0000 </r>
       <r>    6.8048    0.0000 </r>
       <r>    6.8493    0.0000 </r>
       <r>    6.8843    0.0000 </r>
       <r>    7.0630    0.0000 </r>
      </set>
      <set comment="kpoint 2">
       <r>  -20.8722    1.0000 </r>
       <r>  -20.8709    1.0000 </r>
       <r>  -20.8705    1.0000 </r>
       <r>  -20.8693    1.0000 </r>
       <r>  -16.5089    1.0000 </r>
       <r>  -16.5088    1.0000 </r>
       <r>  -16.5054    1.0000 </r>
       <r>  -16.4902    1.0000 </r>
       <r>  -16.4685    1.0000 </r>
       <r>  -16.4623    1.0000 </r>
       <r>  -16.4622    1.0000 </r>
       <r>  -16.4510    1.0000 </r>
       <r>  -16.3891    1.0000 </r>
       <r>  -16.3888    1.0000 </r>
       <r>  -16.3883    1.0000 </r>
       <r>  -16.3878    1.0000 </r>
       <r>  -16.3817    1.0000 </r>
       <r>  -16.3812    1.0000 </r>
       <r>  -16.3811    1.0000 </r>
       <r>  -16.3805    1.0000 </r>
       <r>  -16.3637    1.0000 </r>
       <r>  -16.3637    1.0000 </r>
       <r>  -16.3628    1.0000 </r>
       <r>  -16.3628    1.0000 </r>
       <r>  -14.2922    1.0000 </r>
       <r>  -14.1795    1.0000 </r>
       <r>  -14.1644    1.0000 </r>
       <r>  -14.0947    1.0000 </r>
       <r>  -13.9704    1.0000 </r>
       <r>  -13.9558    1.0000 </r>
       <r>  -13.9530    1.0000 </r>
       <r>  -13.9421    1.0000 </r>
       <r>  -13.8401    1.0000 </r>
       <r>  -13.8348    1.0000 </r>
       <r>  -13.8311    1.0000 </r>
       <r>  -13.7756    1.0000 </r>
       <r>   -7.9511    1.0000 </r>
       <r>   -7.5460    1.0000 </r>
       <r>   -7.4576    1.0000 </r>
       <r>   -7.3130    1.0000 </r>
       <r>   -7.2907    1.0000 </r>
       <r>   -7.2899    1.0000 </r>
       <r>   -7.2794    1.0000 </r>
       <r>   -7.2657    1.0000 </r>
       <r>   -7.2578    1.0000 </r>
       <r>   -7.2567    1.0000 </r>
       <r>   -7.2436    1.0000 </r>
       <r>   -7.2361    1.0000 </r>
       <r>   -7.2342    1.0000 </r>
       <r>   -7.2331    1.0000 </r>
       <r>   -7.2146    1.0000 </r>
       <r>   -6.9710    1.0000 </r>
       <r>   -3.1227    1.0000 </r>
       <r>   -3.0180    1.0000 </r>
       <r>   -2.9979    1.0000 </r>
       <r>   -2.8966    1.0000 </r>
       <r>   -2.7770    1.0000 </r>
       <r>   -2.7660    1.0000 </r>
       <r>   -2.2670    1.0000 </r>
       <r>   -2.1469    1.0000 </r>
       <r>   -2.0913    1.0000 </r>
       <r>   -2.0117    1.0000 </r>
       <r>   -1.9813    1.0000 </r>
       <r>   -1.9532    1.0000 </r>
       <r>   -1.7875    1.0000 </r>
       <r>   -1.6888    1.0000 </r>
       <r>   -1.6744    1.0000 </r>
       <r>   -1.6376    1.0000 </r>
       <r>   -1.5022    1.0000 </r>
       <r>   -1.4704    1.0000 </r>
       <r>   -1.4471    1.0000 </r>
       <r>   -1.3965    1.0000 </r>
       <r>   -1.3658    1.0000 </r>
       <r>   -1.3256    1.0000 </r>
       <r>   -1.3172    1.0000 </r>
       <r>   -1.3041    1.0000 </r>
       <r>   -1.2593    1.0000 </r>
       <r>   -1.2332    1.0000 </r>
       <r>   -1.2134    1.0000 </r>
       <r>   -1.1495    1.0000 </r>
       <r>   -1.1426    1.0000 </r>
       <r>   -1.1026    1.0000 </r>
       <r>   -1.0211    1.0000 </r>
       <r>   -0.9979    1.0000 </r>
       <r>   -0.8189    1.0000 </r>
       <r>   -0.6291    1.0000 </r>
       <r>   -0.5616    1.0000 </r>
       <r>   -0.1751    1.0000 </r>
       <r>    2.6894    0.0000 </r>
       <r>    3.0794    0.0000 </r>
       <r>    3.5408    0.0000 </r>
       <r>    3.8263    0.0000 </r>
       <r>    3.8545    0.0000 </r>
       <r>    4.1704    0.0000 </r>
       <r>    5.0355    0.0000 </r>
       <r>    5.1804    0.0000 </r>
       <r>    5.2233    0.0000 </r>
       <r>    5.3397    0.0000 </r>
       <r>    5.4569    0.0000 </r>
       <r>    5.7490    0.0000 </r>
       <r>    5.7995    0.0000 </r>
       <r>    6.0612    0.0000 </r>
       <r>    6.1548    0.0000 </r>
       <r>    6.2286    0.0000 </r>
       <r>    6.3422    0.0000 </r>
       <r>    6.3550    0.0000 </r>
       <r>    6.5930    0.0000 </r>
       <r>    6.6893    0.0000 </r>
       <r>    6.8328    0.0000 </r>
       <r>    6.9175    0.0000 </r>
       <r>    7.0417    0.0000 </r>
       <r>    7.0959    0.0000 </r>
      </set>
      <set comment="kpoint 3">
       <r>  -20.8725    1.0000 </r>
       <r>  -20.8725    1.0000 </r>
       <r>  -20.8690    1.0000 </r>
       <r>  -20.8690    1.0000 </r>
       <r>  -16.5311    1.0000 </r>
       <r>  -16.5311    1.0000 </r>
       <r>  -16.4956    1.0000 </r>
       <r>  -16.4956    1.0000 </r>
       <r>  -16.4627    1.0000 </r>
       <r>  -16.4627    1.0000 </r>
       <r>  -16.4376    1.0000 </r>
       <r>  -16.4376    1.0000 </r>
       <r>  -16.3888    1.0000 </r>
       <r>  -16.3888    1.0000 </r>
       <r>  -16.3881    1.0000 </r>
       <r>  -16.3881    1.0000 </r>
       <r>  -16.3816    1.0000 </r>
       <r>  -16.3816    1.0000 </r>
       <r>  -16.3807    1.0000 </r>
       <r>  -16.3807    1.0000 </r>
       <r>  -16.3641    1.0000 </r>
       <r>  -16.3641    1.0000 </r>
       <r>  -16.3623    1.0000 </r>
       <r>  -16.3623    1.0000 </r>
       <r>  -14.2946    1.0000 </r>
       <r>  -14.2946    1.0000 </r>
       <r>  -14.0515    1.0000 </r>
       <r>  -14.0515    1.0000 </r>
       <r>  -14.0202    1.0000 </r>
       <r>  -14.0202    1.0000 </r>
       <r>  -13.9321    1.0000 </r>
       <r>  -13.9321    1.0000 </r>
       <r>  -13.8398    1.0000 </r>
       <r>  -13.8398    1.0000 </r>
       <r>  -13.7730    1.0000 </r>
       <r>  -13.7730    1.0000 </r>
       <r>   -7.9828    1.0000 </r>
       <r>   -7.9828    1.0000 </r>
       <r>   -7.3072    1.0000 </r>
       <r>   -7.3072    1.0000 </r>
       <r>   -7.2961    1.0000 </r>
       <r>   -7.2961    1.0000 </r>
       <r>   -7.2580    1.0000 </r>
       <r>   -7.2580    1.0000 </r>
       <r>   -7.2504    1.0000 </r>
       <r>   -7.2504    1.0000 </r>
       <r>   -7.2495    1.0000 </r>
       <r>   -7.2494    1.0000 </r>
       <r>   -7.2410    1.0000 </r>
       <r>   -7.2410    1.0000 </r>
       <r>   -6.8897    1.0000 </r>
       <r>   -6.8897    1.0000 </r>
       <r>   -3.3077    1.0000 </r>
       <r>   -3.3077    1.0000 </r>
       <r>   -3.2417    1.0000 </r>
       <r>   -3.2417    1.0000 </r>
       <r>   -2.4690    1.0000 </r>
       <r>   -2.4690    1.0000 </r>
       <r>   -2.2294    1.0000 </r>
       <r>   -2.2294    1.0000 </r>
       <r>   -2.1058    1.0000 </r>
       <r>   -2.1058    1.0000 </r>
       <r>   -1.7896    1.0000 </r>
       <r>   -1.7896    1.0000 </r>
       <r>   -1.7760    1.0000 </r>
       <r>   -1.7760    1.0000 </r>
       <r>   -1.5086    1.0000 </r>
       <r>   -1.5086    1.0000 </r>
       <r>   -1.4539    1.0000 </r>
       <r>   -1.4539    1.0000 </r>
       <r>   -1.3735    1.0000 </r>
       <r>   -1.3735    1.0000 </r>
       <r>   -1.3289    1.0000 </r>
       <r>   -1.3289    1.0000 </r>
       <r>   -1.3213    1.0000 </r>
       <r>   -1.3213    1.0000 </r>
       <r>   -1.2194    1.0000 </r>
       <r>   -1.2194    1.0000 </r>
       <r>   -1.2102    1.0000 </r>
       <r>   -1.2102    1.0000 </r>
       <r>   -1.0971    1.0000 </r>
       <r>   -1.0971    1.0000 </r>
       <r>   -1.0492    1.0000 </r>
       <r>   -1.0492    1.0000 </r>
       <r>   -0.8764    1.0000 </r>
       <r>   -0.8764    1.0000 </r>
       <r>   -0.0081    1.0000 </r>
       <r>   -0.0081    1.0000 </r>
       <r>    2.9778    0.0000 </r>
       <r>    2.9778    0.0000 </r>
       <r>    3.1424    0.0000 </r>
       <r>    3.1424    0.0000 </r>
       <r>    3.9683    0.0000 </r>
       <r>    3.9683    0.0000 </r>
       <r>    4.5790    0.0000 </r>
       <r>    4.5790    0.0000 </r>
       <r>    5.3499    0.0000 </r>
       <r>    5.3499    0.0000 </r>
       <r>    5.9197    0.0000 </r>
       <r>    5.9197    0.0000 </r>
       <r>    5.9989    0.0000 </r>
       <r>    5.9989    0.0000 </r>
       <r>    6.1397    0.0000 </r>
       <r>    6.1397    0.0000 </r>
       <r>    6.5185    0.0000 </r>
       <r>    6.5185    0.0000 </r>
       <r>    6.7210    0.0000 </r>
       <r>    6.7210    0.0000 </r>
       <r>    6.7535    0.0000 </r>
       <r>    6.7542    0.0000 </r>
       <r>    6.7948    0.0000 </r>
       <r>    6.7969    0.0000 </r>
      </set>
      <set comment="kpoint 4">
       <r>  -20.8716    1.0000 </r>
       <r>  -20.8715    1.0000 </r>
       <r>  -20.8699    1.0000 </r>
       <r>  -20.8699    1.0000 </r>
       <r>  -16.5089    1.0000 </r>
       <r>  -16.5089    1.0000 </r>
       <r>  -16.4871    1.0000 </r>
       <r>  -16.4871    1.0000 </r>
       <r>  -16.4706    1.0000 </r>
       <r>  -16.4706    1.0000 </r>
       <r>  -16.4622    1.0000 </r>
       <r>  -16.4622    1.0000 </r>
       <r>  -16.3886    1.0000 </r>
       <r>  -16.3886    1.0000 </r>
       <r>  -16.3883    1.0000 </r>
       <r>  -16.3883    1.0000 </r>
       <r>  -16.3813    1.0000 </r>
       <r>  -16.3813    1.0000 </r>
       <r>  -16.3809    1.0000 </r>
       <r>  -16.3809    1.0000 </r>
       <r>  -16.3637    1.0000 </r>
       <r>  -16.3637    1.0000 </r>
       <r>  -16.3628    1.0000 </r>
       <r>  -16.3628    1.0000 </r>
       <r>  -14.2496    1.0000 </r>
       <r>  -14.2496    1.0000 </r>
       <r>  -14.1381    1.0000 </r>
       <r>  -14.1381    1.0000 </r>
       <r>  -13.9585    1.0000 </r>
       <r>  -13.9585    1.0000 </r>
       <r>  -13.8877    1.0000 </r>
       <r>  -13.8877    1.0000 </r>
       <r>  -13.8494    1.0000 </r>
       <r>  -13.8494    1.0000 </r>
       <r>  -13.8330    1.0000 </r>
       <r>  -13.8330    1.0000 </r>
       <r>   -7.7627    1.0000 </r>
       <r>   -7.7627    1.0000 </r>
       <r>   -7.3171    1.0000 </r>
       <r>   -7.3171    1.0000 </r>
       <r>   -7.2868    1.0000 </r>
       <r>   -7.2868    1.0000 </r>
       <r>   -7.2752    1.0000 </r>
       <r>   -7.2752    1.0000 </r>
       <r>   -7.2561    1.0000 </r>
       <r>   -7.2561    1.0000 </r>
       <r>   -7.2475    1.0000 </r>
       <r>   -7.2475    1.0000 </r>
       <r>   -7.2410    1.0000 </r>
       <r>   -7.2410    1.0000 </r>
       <r>   -7.1727    1.0000 </r>
       <r>   -7.1727    1.0000 </r>
       <r>   -2.9562    1.0000 </r>
       <r>   -2.9562    1.0000 </r>
       <r>   -2.8285    1.0000 </r>
       <r>   -2.8285    1.0000 </r>
       <r>   -2.3889    1.0000 </r>
       <r>   -2.3889    1.0000 </r>
       <r>   -2.3642    1.0000 </r>
       <r>   -2.3642    1.0000 </r>
       <r>   -2.2046    1.0000 </r>
       <r>   -2.2046    1.0000 </r>
       <r>   -2.0527    1.0000 </r>
       <r>   -2.0527    1.0000 </r>
       <r>   -1.7516    1.0000 </r>
       <r>   -1.7516    1.0000 </r>
       <r>   -1.6928    1.0000 </r>
       <r>   -1.6928    1.0000 </r>
       <r>   -1.5815    1.0000 </r>
       <r>   -1.5815    1.0000 </r>
       <r>   -1.4822    1.0000 </r>
       <r>   -1.4822    1.0000 </r>
       <r>   -1.3863    1.0000 </r>
       <r>   -1.3863    1.0000 </r>
       <r>   -1.3159    1.0000 </r>
       <r>   -1.3159    1.0000 </r>
       <r>   -1.1824    1.0000 </r>
       <r>   -1.1824    1.0000 </r>
       <r>   -1.1635    1.0000 </r>
       <r>   -1.1635    1.0000 </r>
       <r>   -1.0894    1.0000 </r>
       <r>   -1.0894    1.0000 </r>
       <r>   -1.0739    1.0000 </r>
       <r>   -1.0739    1.0000 </r>
       <r>   -0.7941    1.0000 </r>
       <r>   -0.7941    1.0000 </r>
       <r>   -0.5464    1.0000 </r>
       <r>   -0.5464    1.0000 </r>
       <r>    3.6911    0.0000 </r>
       <r>    3.6911    0.0000 </r>
       <r>    3.9604    0.0000 </r>
       <r>    3.9604    0.0000 </r>
       <r>    4.1347    0.0000 </r>
       <r>    4.1347    0.0000 </r>
       <r>    4.4110    0.0000 </r>
       <r>    4.4110    0.0000 </r>
       <r>    5.1676    0.0000 </r>
       <r>    5.1676    0.0000 </r>
       <r>    5.3142    0.0000 </r>
       <r>    5.3142    0.0000 </r>
       <r>    5.8972    0.0000 </r>
       <r>    5.8972    0.0000 </r>
       <r>    6.1410    0.0000 </r>
       <r>    6.1410    0.0000 </r>
       <r>    6.5862    0.0000 </r>
       <r>    6.5862    0.0000 </r>
       <r>    6.5863    0.0000 </r>
       <r>    6.5863    0.0000 </r>
       <r>    6.6676    0.0000 </r>
       <r>    6.6676    0.0000 </r>
       <r>    6.8425    0.0000 </r>
       <r>    6.8425    0.0000 </r>
      </set>
      <set comment="kpoint 5">
       <r>  -20.8723    1.0000 </r>
       <r>  -20.8711    1.0000 </r>
       <r>  -20.8701    1.0000 </r>
       <r>  -20.8692    1.0000 </r>
       <r>  -16.5091    1.0000 </r>
       <r>  -16.5091    1.0000 </r>
       <r>  -16.5053    1.0000 </r>
       <r>  -16.4900    1.0000 </r>
       <r>  -16.4685    1.0000 </r>
       <r>  -16.4624    1.0000 </r>
       <r>  -16.4624    1.0000 </r>
       <r>  -16.4508    1.0000 </r>
       <r>  -16.3889    1.0000 </r>
       <r>  -16.3887    1.0000 </r>
       <r>  -16.3882    1.0000 </r>
       <r>  -16.3879    1.0000 </r>
       <r>  -16.3815    1.0000 </r>
       <r>  -16.3812    1.0000 </r>
       <r>  -16.3811    1.0000 </r>
       <r>  -16.3806    1.0000 </r>
       <r>  -16.3637    1.0000 </r>
       <r>  -16.3636    1.0000 </r>
       <r>  -16.3629    1.0000 </r>
       <r>  -16.3628    1.0000 </r>
       <r>  -14.2868    1.0000 </r>
       <r>  -14.1727    1.0000 </r>
       <r>  -14.1466    1.0000 </r>
       <r>  -14.0724    1.0000 </r>
       <r>  -13.9839    1.0000 </r>
       <r>  -13.9790    1.0000 </r>
       <r>  -13.9547    1.0000 </r>
       <r>  -13.9530    1.0000 </r>
       <r>  -13.8475    1.0000 </r>
       <r>  -13.8426    1.0000 </r>
       <r>  -13.8283    1.0000 </r>
       <r>  -13.7746    1.0000 </r>
       <r>   -7.9475    1.0000 </r>
       <r>   -7.5449    1.0000 </r>
       <r>   -7.4380    1.0000 </r>
       <r>   -7.3034    1.0000 </r>
       <r>   -7.2917    1.0000 </r>
       <r>   -7.2782    1.0000 </r>
       <r>   -7.2739    1.0000 </r>
       <r>   -7.2707    1.0000 </r>
       <r>   -7.2674    1.0000 </r>
       <r>   -7.2566    1.0000 </r>
       <r>   -7.2456    1.0000 </r>
       <r>   -7.2385    1.0000 </r>
       <r>   -7.2313    1.0000 </r>
       <r>   -7.2278    1.0000 </r>
       <r>   -7.2104    1.0000 </r>
       <r>   -6.9654    1.0000 </r>
       <r>   -3.1260    1.0000 </r>
       <r>   -3.0450    1.0000 </r>
       <r>   -3.0126    1.0000 </r>
       <r>   -2.9512    1.0000 </r>
       <r>   -2.7320    1.0000 </r>
       <r>   -2.6777    1.0000 </r>
       <r>   -2.2922    1.0000 </r>
       <r>   -2.1290    1.0000 </r>
       <r>   -2.0899    1.0000 </r>
       <r>   -1.9978    1.0000 </r>
       <r>   -1.9385    1.0000 </r>
       <r>   -1.8904    1.0000 </r>
       <r>   -1.7828    1.0000 </r>
       <r>   -1.7152    1.0000 </r>
       <r>   -1.6455    1.0000 </r>
       <r>   -1.6383    1.0000 </r>
       <r>   -1.5256    1.0000 </r>
       <r>   -1.4782    1.0000 </r>
       <r>   -1.4242    1.0000 </r>
       <r>   -1.3575    1.0000 </r>
       <r>   -1.3567    1.0000 </r>
       <r>   -1.3170    1.0000 </r>
       <r>   -1.3134    1.0000 </r>
       <r>   -1.3008    1.0000 </r>
       <r>   -1.2986    1.0000 </r>
       <r>   -1.2606    1.0000 </r>
       <r>   -1.2104    1.0000 </r>
       <r>   -1.1783    1.0000 </r>
       <r>   -1.1741    1.0000 </r>
       <r>   -1.1219    1.0000 </r>
       <r>   -1.0400    1.0000 </r>
       <r>   -1.0230    1.0000 </r>
       <r>   -0.9068    1.0000 </r>
       <r>   -0.6938    1.0000 </r>
       <r>   -0.6103    1.0000 </r>
       <r>   -0.2305    1.0000 </r>
       <r>    2.6906    0.0000 </r>
       <r>    3.0791    0.0000 </r>
       <r>    3.6654    0.0000 </r>
       <r>    3.6904    0.0000 </r>
       <r>    4.0094    0.0000 </r>
       <r>    4.0204    0.0000 </r>
       <r>    5.0484    0.0000 </r>
       <r>    5.1586    0.0000 </r>
       <r>    5.1877    0.0000 </r>
       <r>    5.4540    0.0000 </r>
       <r>    5.4774    0.0000 </r>
       <r>    5.6474    0.0000 </r>
       <r>    5.7453    0.0000 </r>
       <r>    5.9724    0.0000 </r>
       <r>    6.0569    0.0000 </r>
       <r>    6.2453    0.0000 </r>
       <r>    6.4827    0.0000 </r>
       <r>    6.5522    0.0000 </r>
       <r>    6.5908    0.0000 </r>
       <r>    6.7386    0.0000 </r>
       <r>    6.7540    0.0000 </r>
       <r>    6.7904    0.0000 </r>
       <r>    6.8435    0.0000 </r>
       <r>    7.0920    0.0000 </r>
      </set>
      <set comment="kpoint 6">
       <r>  -20.8717    1.0000 </r>
       <r>  -20.8710    1.0000 </r>
       <r>  -20.8704    1.0000 </r>
       <r>  -20.8696    1.0000 </r>
       <r>  -16.5193    1.0000 </r>
       <r>  -16.5078    1.0000 </r>
       <r>  -16.5061    1.0000 </r>
       <r>  -16.4881    1.0000 </r>
       <r>  -16.4798    1.0000 </r>
       <r>  -16.4621    1.0000 </r>
       <r>  -16.4536    1.0000 </r>
       <r>  -16.4411    1.0000 </r>
       <r>  -16.3889    1.0000 </r>
       <r>  -16.3887    1.0000 </r>
       <r>  -16.3882    1.0000 </r>
       <r>  -16.3880    1.0000 </r>
       <r>  -16.3815    1.0000 </r>
       <r>  -16.3812    1.0000 </r>
       <r>  -16.3810    1.0000 </r>
       <r>  -16.3807    1.0000 </r>
       <r>  -16.3635    1.0000 </r>
       <r>  -16.3634    1.0000 </r>
       <r>  -16.3631    1.0000 </r>
       <r>  -16.3629    1.0000 </r>
       <r>  -14.2345    1.0000 </r>
       <r>  -14.1330    1.0000 </r>
       <r>  -14.1215    1.0000 </r>
       <r>  -14.0602    1.0000 </r>
       <r>  -14.0561    1.0000 </r>
       <r>  -13.9862    1.0000 </r>
       <r>  -13.9607    1.0000 </r>
       <r>  -13.9530    1.0000 </r>
       <r>  -13.9328    1.0000 </r>
       <r>  -13.8954    1.0000 </r>
       <r>  -13.7769    1.0000 </r>
       <r>  -13.7484    1.0000 </r>
       <r>   -7.8127    1.0000 </r>
       <r>   -7.5609    1.0000 </r>
       <r>   -7.4085    1.0000 </r>
       <r>   -7.2890    1.0000 </r>
       <r>   -7.2803    1.0000 </r>
       <r>   -7.2768    1.0000 </r>
       <r>   -7.2725    1.0000 </r>
       <r>   -7.2562    1.0000 </r>
       <r>   -7.2530    1.0000 </r>
       <r>   -7.2499    1.0000 </r>
       <r>   -7.2490    1.0000 </r>
       <r>   -7.2347    1.0000 </r>
       <r>   -7.2333    1.0000 </r>
       <r>   -7.2220    1.0000 </r>
       <r>   -7.2145    1.0000 </r>
       <r>   -7.0814    1.0000 </r>
       <r>   -3.2104    1.0000 </r>
       <r>   -3.1600    1.0000 </r>
       <r>   -3.1143    1.0000 </r>
       <r>   -3.0076    1.0000 </r>
       <r>   -2.8121    1.0000 </r>
       <r>   -2.6988    1.0000 </r>
       <r>   -2.2781    1.0000 </r>
       <r>   -2.1630    1.0000 </r>
       <r>   -2.0767    1.0000 </r>
       <r>   -2.0566    1.0000 </r>
       <r>   -1.9878    1.0000 </r>
       <r>   -1.7764    1.0000 </r>
       <r>   -1.7205    1.0000 </r>
       <r>   -1.6514    1.0000 </r>
       <r>   -1.5455    1.0000 </r>
       <r>   -1.5205    1.0000 </r>
       <r>   -1.4682    1.0000 </r>
       <r>   -1.4518    1.0000 </r>
       <r>   -1.4353    1.0000 </r>
       <r>   -1.4107    1.0000 </r>
       <r>   -1.3933    1.0000 </r>
       <r>   -1.3847    1.0000 </r>
       <r>   -1.3262    1.0000 </r>
       <r>   -1.2875    1.0000 </r>
       <r>   -1.2845    1.0000 </r>
       <r>   -1.2717    1.0000 </r>
       <r>   -1.2308    1.0000 </r>
       <r>   -1.1843    1.0000 </r>
       <r>   -1.1757    1.0000 </r>
       <r>   -1.1283    1.0000 </r>
       <r>   -1.0682    1.0000 </r>
       <r>   -1.0019    1.0000 </r>
       <r>   -0.8894    1.0000 </r>
       <r>   -0.6875    1.0000 </r>
       <r>   -0.4913    1.0000 </r>
       <r>   -0.2125    1.0000 </r>
       <r>    2.7842    0.0000 </r>
       <r>    2.9704    0.0000 </r>
       <r>    3.1233    0.0000 </r>
       <r>    3.4565    0.0000 </r>
       <r>    3.9460    0.0000 </r>
       <r>    4.2366    0.0000 </r>
       <r>    4.8567    0.0000 </r>
       <r>    5.2577    0.0000 </r>
       <r>    5.4009    0.0000 </r>
       <r>    5.6848    0.0000 </r>
       <r>    5.8265    0.0000 </r>
       <r>    5.8509    0.0000 </r>
       <r>    5.9851    0.0000 </r>
       <r>    6.2420    0.0000 </r>
       <r>    6.3223    0.0000 </r>
       <r>    6.4633    0.0000 </r>
       <r>    6.5986    0.0000 </r>
       <r>    6.6328    0.0000 </r>
       <r>    6.6418    0.0000 </r>
       <r>    6.7100    0.0000 </r>
       <r>    6.8242    0.0000 </r>
       <r>    6.9308    0.0000 </r>
       <r>    7.0601    0.0000 </r>
       <r>    7.1330    0.0000 </r>
      </set>
      <set comment="kpoint 7">
       <r>  -20.8717    1.0000 </r>
       <r>  -20.8717    1.0000 </r>
       <r>  -20.8697    1.0000 </r>
       <r>  -20.8697    1.0000 </r>
       <r>  -16.5090    1.0000 </r>
       <r>  -16.5090    1.0000 </r>
       <r>  -16.4871    1.0000 </r>
       <r>  -16.4871    1.0000 </r>
       <r>  -16.4706    1.0000 </r>
       <r>  -16.4706    1.0000 </r>
       <r>  -16.4624    1.0000 </r>
       <r>  -16.4624    1.0000 </r>
       <r>  -16.3887    1.0000 </r>
       <r>  -16.3887    1.0000 </r>
       <r>  -16.3883    1.0000 </r>
       <r>  -16.3883    1.0000 </r>
       <r>  -16.3815    1.0000 </r>
       <r>  -16.3815    1.0000 </r>
       <r>  -16.3809    1.0000 </r>
       <r>  -16.3809    1.0000 </r>
       <r>  -16.3637    1.0000 </r>
       <r>  -16.3637    1.0000 </r>
       <r>  -16.3628    1.0000 </r>
       <r>  -16.3628    1.0000 </r>
       <r>  -14.2441    1.0000 </r>
       <r>  -14.2441    1.0000 </r>
       <r>  -14.1193    1.0000 </r>
       <r>  -14.1193    1.0000 </r>
       <r>  -13.9819    1.0000 </r>
       <r>  -13.9819    1.0000 </r>
       <r>  -13.8866    1.0000 </r>
       <r>  -13.8866    1.0000 </r>
       <r>  -13.8491    1.0000 </r>
       <r>  -13.8491    1.0000 </r>
       <r>  -13.8396    1.0000 </r>
       <r>  -13.8396    1.0000 </r>
       <r>   -7.7595    1.0000 </r>
       <r>   -7.7595    1.0000 </r>
       <r>   -7.3021    1.0000 </r>
       <r>   -7.3021    1.0000 </r>
       <r>   -7.2920    1.0000 </r>
       <r>   -7.2920    1.0000 </r>
       <r>   -7.2646    1.0000 </r>
       <r>   -7.2646    1.0000 </r>
       <r>   -7.2520    1.0000 </r>
       <r>   -7.2520    1.0000 </r>
       <r>   -7.2414    1.0000 </r>
       <r>   -7.2414    1.0000 </r>
       <r>   -7.2316    1.0000 </r>
       <r>   -7.2316    1.0000 </r>
       <r>   -7.1920    1.0000 </r>
       <r>   -7.1920    1.0000 </r>
       <r>   -3.0014    1.0000 </r>
       <r>   -3.0014    1.0000 </r>
       <r>   -2.7728    1.0000 </r>
       <r>   -2.7728    1.0000 </r>
       <r>   -2.3880    1.0000 </r>
       <r>   -2.3880    1.0000 </r>
       <r>   -2.3669    1.0000 </r>
       <r>   -2.3669    1.0000 </r>
       <r>   -2.2098    1.0000 </r>
       <r>   -2.2098    1.0000 </r>
       <r>   -2.0110    1.0000 </r>
       <r>   -2.0110    1.0000 </r>
       <r>   -1.7445    1.0000 </r>
       <r>   -1.7445    1.0000 </r>
       <r>   -1.6830    1.0000 </r>
       <r>   -1.6830    1.0000 </r>
       <r>   -1.5449    1.0000 </r>
       <r>   -1.5449    1.0000 </r>
       <r>   -1.4738    1.0000 </r>
       <r>   -1.4738    1.0000 </r>
       <r>   -1.3789    1.0000 </r>
       <r>   -1.3789    1.0000 </r>
       <r>   -1.3331    1.0000 </r>
       <r>   -1.3331    1.0000 </r>
       <r>   -1.1952    1.0000 </r>
       <r>   -1.1952    1.0000 </r>
       <r>   -1.1559    1.0000 </r>
       <r>   -1.1559    1.0000 </r>
       <r>   -1.1305    1.0000 </r>
       <r>   -1.1305    1.0000 </r>
       <r>   -1.0935    1.0000 </r>
       <r>   -1.0935    1.0000 </r>
       <r>   -0.8639    1.0000 </r>
       <r>   -0.8639    1.0000 </r>
       <r>   -0.6255    1.0000 </r>
       <r>   -0.6255    1.0000 </r>
       <r>    3.8204    0.0000 </r>
       <r>    3.8204    0.0000 </r>
       <r>    3.8401    0.0000 </r>
       <r>    3.8401    0.0000 </r>
       <r>    4.1045    0.0000 </r>
       <r>    4.1045    0.0000 </r>
       <r>    4.4332    0.0000 </r>
       <r>    4.4332    0.0000 </r>
       <r>    5.1890    0.0000 </r>
       <r>    5.1890    0.0000 </r>
       <r>    5.3075    0.0000 </r>
       <r>    5.3075    0.0000 </r>
       <r>    5.8936    0.0000 </r>
       <r>    5.8936    0.0000 </r>
       <r>    6.1066    0.0000 </r>
       <r>    6.1066    0.0000 </r>
       <r>    6.4723    0.0000 </r>
       <r>    6.4723    0.0000 </r>
       <r>    6.5403    0.0000 </r>
       <r>    6.5403    0.0000 </r>
       <r>    6.6947    0.0000 </r>
       <r>    6.6947    0.0000 </r>
       <r>    7.0283    0.0000 </r>
       <r>    7.0285    0.0000 </r>
      </set>
      <set comment="kpoint 8">
       <r>  -20.8711    1.0000 </r>
       <r>  -20.8711    1.0000 </r>
       <r>  -20.8702    1.0000 </r>
       <r>  -20.8702    1.0000 </r>
       <r>  -16.5119    1.0000 </r>
       <r>  -16.5119    1.0000 </r>
       <r>  -16.4950    1.0000 </r>
       <r>  -16.4950    1.0000 </r>
       <r>  -16.4685    1.0000 </r>
       <r>  -16.4685    1.0000 </r>
       <r>  -16.4538    1.0000 </r>
       <r>  -16.4538    1.0000 </r>
       <r>  -16.3886    1.0000 </r>
       <r>  -16.3886    1.0000 </r>
       <r>  -16.3884    1.0000 </r>
       <r>  -16.3884    1.0000 </r>
       <r>  -16.3812    1.0000 </r>
       <r>  -16.3812    1.0000 </r>
       <r>  -16.3810    1.0000 </r>
       <r>  -16.3810    1.0000 </r>
       <r>  -16.3634    1.0000 </r>
       <r>  -16.3634    1.0000 </r>
       <r>  -16.3630    1.0000 </r>
       <r>  -16.3630    1.0000 </r>
       <r>  -14.1956    1.0000 </r>
       <r>  -14.1956    1.0000 </r>
       <r>  -14.0839    1.0000 </r>
       <r>  -14.0839    1.0000 </r>
       <r>  -14.0556    1.0000 </r>
       <r>  -14.0556    1.0000 </r>
       <r>  -13.9429    1.0000 </r>
       <r>  -13.9429    1.0000 </r>
       <r>  -13.8370    1.0000 </r>
       <r>  -13.8370    1.0000 </r>
       <r>  -13.8138    1.0000 </r>
       <r>  -13.8138    1.0000 </r>
       <r>   -7.6233    1.0000 </r>
       <r>   -7.6233    1.0000 </r>
       <r>   -7.3775    1.0000 </r>
       <r>   -7.3775    1.0000 </r>
       <r>   -7.2833    1.0000 </r>
       <r>   -7.2833    1.0000 </r>
       <r>   -7.2699    1.0000 </r>
       <r>   -7.2699    1.0000 </r>
       <r>   -7.2452    1.0000 </r>
       <r>   -7.2452    1.0000 </r>
       <r>   -7.2417    1.0000 </r>
       <r>   -7.2417    1.0000 </r>
       <r>   -7.2351    1.0000 </r>
       <r>   -7.2351    1.0000 </r>
       <r>   -7.2103    1.0000 </r>
       <r>   -7.2103    1.0000 </r>
       <r>   -3.1689    1.0000 </r>
       <r>   -3.1689    1.0000 </r>
       <r>   -2.7830    1.0000 </r>
       <r>   -2.7830    1.0000 </r>
       <r>   -2.4707    1.0000 </r>
       <r>   -2.4707    1.0000 </r>
       <r>   -2.3547    1.0000 </r>
       <r>   -2.3547    1.0000 </r>
       <r>   -2.1880    1.0000 </r>
       <r>   -2.1880    1.0000 </r>
       <r>   -1.9948    1.0000 </r>
       <r>   -1.9948    1.0000 </r>
       <r>   -1.7807    1.0000 </r>
       <r>   -1.7807    1.0000 </r>
       <r>   -1.7114    1.0000 </r>
       <r>   -1.7114    1.0000 </r>
       <r>   -1.5193    1.0000 </r>
       <r>   -1.5193    1.0000 </r>
       <r>   -1.4201    1.0000 </r>
       <r>   -1.4201    1.0000 </r>
       <r>   -1.3623    1.0000 </r>
       <r>   -1.3623    1.0000 </r>
       <r>   -1.2572    1.0000 </r>
       <r>   -1.2572    1.0000 </r>
       <r>   -1.2161    1.0000 </r>
       <r>   -1.2161    1.0000 </r>
       <r>   -1.1617    1.0000 </r>
       <r>   -1.1617    1.0000 </r>
       <r>   -1.1084    1.0000 </r>
       <r>   -1.1084    1.0000 </r>
       <r>   -1.0704    1.0000 </r>
       <r>   -1.0704    1.0000 </r>
       <r>   -0.8471    1.0000 </r>
       <r>   -0.8471    1.0000 </r>
       <r>   -0.5924    1.0000 </r>
       <r>   -0.5924    1.0000 </r>
       <r>    3.2808    0.0000 </r>
       <r>    3.2808    0.0000 </r>
       <r>    4.0730    0.0000 </r>
       <r>    4.0730    0.0000 </r>
       <r>    4.1820    0.0000 </r>
       <r>    4.1820    0.0000 </r>
       <r>    4.3309    0.0000 </r>
       <r>    4.3309    0.0000 </r>
       <r>    5.0814    0.0000 </r>
       <r>    5.0814    0.0000 </r>
       <r>    5.8104    0.0000 </r>
       <r>    5.8104    0.0000 </r>
       <r>    6.1942    0.0000 </r>
       <r>    6.1942    0.0000 </r>
       <r>    6.3231    0.0000 </r>
       <r>    6.3231    0.0000 </r>
       <r>    6.5959    0.0000 </r>
       <r>    6.5959    0.0000 </r>
       <r>    6.6925    0.0000 </r>
       <r>    6.6925    0.0000 </r>
       <r>    6.8171    0.0000 </r>
       <r>    6.8171    0.0000 </r>
       <r>    7.0001    0.0000 </r>
       <r>    7.0001    0.0000 </r>
      </set>
     </set>
    </set>
   </array>
  </eigenvalues>
  <separator name="orbital magnetization" >
   <v name="MAGDIPOLOUT">      0.00000000      0.00000000      0.00000000</v>
  </separator>
  <dos>
   <i name="efermi">      0.44652662 </i>
   <total>
    <array>
     <dimension dim="1">gridpoints</dimension>
     <dimension dim="2">spin</dimension>
     <field>energy</field>
     <field>total</field>
     <field>integrated</field>
     <set>
      <set comment="spin 1">
       <r>   -22.2735     0.0000     0.0000 </r>
       <r>   -22.1709     0.0000     0.0000 </r>
       <r>   -22.0682     0.0000     0.0000 </r>
       <r>   -21.9655     0.0000     0.0000 </r>
       <r>   -21.8628     0.0000     0.0000 </r>
       <r>   -21.7601     0.0000     0.0000 </r>
       <r>   -21.6574     0.0000     0.0000 </r>
       <r>   -21.5547     0.0000     0.0000 </r>
       <r>   -21.4520     0.0000     0.0000 </r>
       <r>   -21.3493     0.0000     0.0000 </r>
       <r>   -21.2466     0.0000     0.0000 </r>
       <r>   -21.1440     0.0000     0.0000 </r>
       <r>   -21.0413     0.0000     0.0000 </r>
       <r>   -20.9386     0.0000     0.0000 </r>
       <r>   -20.8359    77.9046     8.0000 </r>
       <r>   -20.7332     0.0000     8.0000 </r>
       <r>   -20.6305     0.0000     8.0000 </r>
       <r>   -20.5278     0.0000     8.0000 </r>
       <r>   -20.4251     0.0000     8.0000 </r>
       <r>   -20.3224     0.0000     8.0000 </r>
       <r>   -20.2198     0.0000     8.0000 </r>
       <r>   -20.1171     0.0000     8.0000 </r>
       <r>   -20.0144     0.0000     8.0000 </r>
       <r>   -19.9117     0.0000     8.0000 </r>
       <r>   -19.8090     0.0000     8.0000 </r>
       <r>   -19.7063     0.0000     8.0000 </r>
       <r>   -19.6036     0.0000     8.0000 </r>
       <r>   -19.5009     0.0000     8.0000 </r>
       <r>   -19.3982     0.0000     8.0000 </r>
       <r>   -19.2955     0.0000     8.0000 </r>
       <r>   -19.1929     0.0000     8.0000 </r>
       <r>   -19.0902     0.0000     8.0000 </r>
       <r>   -18.9875     0.0000     8.0000 </r>
       <r>   -18.8848     0.0000     8.0000 </r>
       <r>   -18.7821     0.0000     8.0000 </r>
       <r>   -18.6794     0.0000     8.0000 </r>
       <r>   -18.5767     0.0000     8.0000 </r>
       <r>   -18.4740     0.0000     8.0000 </r>
       <r>   -18.3713     0.0000     8.0000 </r>
       <r>   -18.2687     0.0000     8.0000 </r>
       <r>   -18.1660     0.0000     8.0000 </r>
       <r>   -18.0633     0.0000     8.0000 </r>
       <r>   -17.9606     0.0000     8.0000 </r>
       <r>   -17.8579     0.0000     8.0000 </r>
       <r>   -17.7552     0.0000     8.0000 </r>
       <r>   -17.6525     0.0000     8.0000 </r>
       <r>   -17.5498     0.0000     8.0000 </r>
       <r>   -17.4471     0.0000     8.0000 </r>
       <r>   -17.3444     0.0000     8.0000 </r>
       <r>   -17.2418     0.0000     8.0000 </r>
       <r>   -17.1391     0.0000     8.0000 </r>
       <r>   -17.0364     0.0000     8.0000 </r>
       <r>   -16.9337     0.0000     8.0000 </r>
       <r>   -16.8310     0.0000     8.0000 </r>
       <r>   -16.7283     0.0000     8.0000 </r>
       <r>   -16.6256     0.0000     8.0000 </r>
       <r>   -16.5229     6.2781     8.6447 </r>
       <r>   -16.4202   107.0808    23.9961 </r>
       <r>   -16.3175   233.7138    48.0000 </r>
       <r>   -16.2149     0.0000    48.0000 </r>
       <r>   -16.1122     0.0000    48.0000 </r>
       <r>   -16.0095     0.0000    48.0000 </r>
       <r>   -15.9068     0.0000    48.0000 </r>
       <r>   -15.8041     0.0000    48.0000 </r>
       <r>   -15.7014     0.0000    48.0000 </r>
       <r>   -15.5987     0.0000    48.0000 </r>
       <r>   -15.4960     0.0000    48.0000 </r>
       <r>   -15.3933     0.0000    48.0000 </r>
       <r>   -15.2907     0.0000    48.0000 </r>
       <r>   -15.1880     0.0000    48.0000 </r>
       <r>   -15.0853     0.0000    48.0000 </r>
       <r>   -14.9826     0.0000    48.0000 </r>
       <r>   -14.8799     0.0000    48.0000 </r>
       <r>   -14.7772     0.0000    48.0000 </r>
       <r>   -14.6745     0.0000    48.0000 </r>
       <r>   -14.5718     0.0000    48.0000 </r>
       <r>   -14.4691     0.0000    48.0000 </r>
       <r>   -14.3664     0.0002    48.0000 </r>
       <r>   -14.2638     7.6835    48.7890 </r>
       <r>   -14.1611    19.7977    51.6997 </r>
       <r>   -14.0584    38.2280    55.9259 </r>
       <r>   -13.9557    31.5608    60.5743 </r>
       <r>   -13.8530    24.1386    65.3680 </r>
       <r>   -13.7503    26.3896    71.7100 </r>
       <r>   -13.6476     0.0000    72.0000 </r>
       <r>   -13.5449     0.0000    72.0000 </r>
       <r>   -13.4422     0.0000    72.0000 </r>
       <r>   -13.3396     0.0000    72.0000 </r>
       <r>   -13.2369     0.0000    72.0000 </r>
       <r>   -13.1342     0.0000    72.0000 </r>
       <r>   -13.0315     0.0000    72.0000 </r>
       <r>   -12.9288     0.0000    72.0000 </r>
       <r>   -12.8261     0.0000    72.0000 </r>
       <r>   -12.7234     0.0000    72.0000 </r>
       <r>   -12.6207     0.0000    72.0000 </r>
       <r>   -12.5180     0.0000    72.0000 </r>
       <r>   -12.4153     0.0000    72.0000 </r>
       <r>   -12.3127     0.0000    72.0000 </r>
       <r>   -12.2100     0.0000    72.0000 </r>
       <r>   -12.1073     0.0000    72.0000 </r>
       <r>   -12.0046     0.0000    72.0000 </r>
       <r>   -11.9019     0.0000    72.0000 </r>
       <r>   -11.7992     0.0000    72.0000 </r>
       <r>   -11.6965     0.0000    72.0000 </r>
       <r>   -11.5938     0.0000    72.0000 </r>
       <r>   -11.4911     0.0000    72.0000 </r>
       <r>   -11.3884     0.0000    72.0000 </r>
       <r>   -11.2858     0.0000    72.0000 </r>
       <r>   -11.1831     0.0000    72.0000 </r>
       <r>   -11.0804     0.0000    72.0000 </r>
       <r>   -10.9777     0.0000    72.0000 </r>
       <r>   -10.8750     0.0000    72.0000 </r>
       <r>   -10.7723     0.0000    72.0000 </r>
       <r>   -10.6696     0.0000    72.0000 </r>
       <r>   -10.5669     0.0000    72.0000 </r>
       <r>   -10.4642     0.0000    72.0000 </r>
       <r>   -10.3616     0.0000    72.0000 </r>
       <r>   -10.2589     0.0000    72.0000 </r>
       <r>   -10.1562     0.0000    72.0000 </r>
       <r>   -10.0535     0.0000    72.0000 </r>
       <r>    -9.9508     0.0000    72.0000 </r>
       <r>    -9.8481     0.0000    72.0000 </r>
       <r>    -9.7454     0.0000    72.0000 </r>
       <r>    -9.6427     0.0000    72.0000 </r>
       <r>    -9.5400     0.0000    72.0000 </r>
       <r>    -9.4373     0.0000    72.0000 </r>
       <r>    -9.3347     0.0000    72.0000 </r>
       <r>    -9.2320     0.0000    72.0000 </r>
       <r>    -9.1293     0.0000    72.0000 </r>
       <r>    -9.0266     0.0000    72.0000 </r>
       <r>    -8.9239     0.0000    72.0000 </r>
       <r>    -8.8212     0.0000    72.0000 </r>
       <r>    -8.7185     0.0000    72.0000 </r>
       <r>    -8.6158     0.0000    72.0000 </r>
       <r>    -8.5131     0.0000    72.0000 </r>
       <r>    -8.4105     0.0000    72.0000 </r>
       <r>    -8.3078     0.0000    72.0000 </r>
       <r>    -8.2051     0.0000    72.0000 </r>
       <r>    -8.1024     1.0820    72.1111 </r>
       <r>    -7.9997     0.0181    72.1130 </r>
       <r>    -7.8970     4.3280    72.7778 </r>
       <r>    -7.7943     4.3081    73.2202 </r>
       <r>    -7.6916     9.7379    74.2222 </r>
       <r>    -7.5889     8.6562    75.1111 </r>
       <r>    -7.4862     8.6560    76.0000 </r>
       <r>    -7.3836    10.3377    77.0616 </r>
       <r>    -7.2809    51.9441    83.1119 </r>
       <r>    -7.1782   143.6530   102.3079 </r>
       <r>    -7.0755     4.5370   103.1326 </r>
       <r>    -6.9728     1.1887   103.3443 </r>
       <r>    -6.8701     2.1580   103.8883 </r>
       <r>    -6.7674     0.0000   103.8889 </r>
       <r>    -6.6647     0.0000   103.8889 </r>
       <r>    -6.5620     1.0820   104.0000 </r>
       <r>    -6.4593     0.0000   104.0000 </r>
       <r>    -6.3567     0.0000   104.0000 </r>
       <r>    -6.2540     0.0000   104.0000 </r>
       <r>    -6.1513     0.0000   104.0000 </r>
       <r>    -6.0486     0.0000   104.0000 </r>
       <r>    -5.9459     0.0000   104.0000 </r>
       <r>    -5.8432     0.0000   104.0000 </r>
       <r>    -5.7405     0.0000   104.0000 </r>
       <r>    -5.6378     0.0000   104.0000 </r>
       <r>    -5.5351     0.0000   104.0000 </r>
       <r>    -5.4325     0.0000   104.0000 </r>
       <r>    -5.3298     0.0000   104.0000 </r>
       <r>    -5.2271     0.0000   104.0000 </r>
       <r>    -5.1244     0.0000   104.0000 </r>
       <r>    -5.0217     0.0000   104.0000 </r>
       <r>    -4.9190     0.0000   104.0000 </r>
       <r>    -4.8163     0.0000   104.0000 </r>
       <r>    -4.7136     0.0000   104.0000 </r>
       <r>    -4.6109     0.0000   104.0000 </r>
       <r>    -4.5082     0.0000   104.0000 </r>
       <r>    -4.4056     0.0000   104.0000 </r>
       <r>    -4.3029     0.0000   104.0000 </r>
       <r>    -4.2002     0.0000   104.0000 </r>
       <r>    -4.0975     0.0000   104.0000 </r>
       <r>    -3.9948     0.0000   104.0000 </r>
       <r>    -3.8921     0.0000   104.0000 </r>
       <r>    -3.7894     0.0000   104.0000 </r>
       <r>    -3.6867     0.0000   104.0000 </r>
       <r>    -3.5840     0.0000   104.0000 </r>
       <r>    -3.4814     0.0000   104.0000 </r>
       <r>    -3.3787     0.0000   104.0000 </r>
       <r>    -3.2760     4.7811   104.4910 </r>
       <r>    -3.1733    10.0335   105.5859 </r>
       <r>    -3.0706     9.7384   107.6667 </r>
       <r>    -2.9679    17.5452   109.4684 </r>
       <r>    -2.8652     3.2460   110.4444 </r>
       <r>    -2.7625    24.9177   113.0032 </r>
       <r>    -2.6598     8.6437   113.9987 </r>
       <r>    -2.5571     0.0000   114.0000 </r>
       <r>    -2.4545    10.6842   115.0972 </r>
       <r>    -2.3518    22.7930   117.4517 </r>
       <r>    -2.2491     8.6497   118.6660 </r>
       <r>    -2.1464    23.8427   121.3373 </r>
       <r>    -2.0437    18.8859   123.6060 </r>
       <r>    -1.9410    28.8199   126.6262 </r>
       <r>    -1.8383     2.9055   127.0761 </r>
       <r>    -1.7356    29.8727   130.2898 </r>
       <r>    -1.6329    32.3257   134.3198 </r>
       <r>    -1.5302    18.2541   136.3189 </r>
       <r>    -1.4276    37.0187   141.8014 </r>
       <r>    -1.3249    51.2407   148.4841 </r>
       <r>    -1.2222    41.2103   154.5653 </r>
       <r>    -1.1195    56.8650   161.9506 </r>
       <r>    -1.0168    35.7788   167.1186 </r>
       <r>    -0.9141     1.4116   168.0338 </r>
       <r>    -0.8114    22.4407   170.5268 </r>
       <r>    -0.7087     0.0581   171.0060 </r>
       <r>    -0.6060     8.2785   172.6279 </r>
       <r>    -0.5034     6.6806   174.2416 </r>
       <r>    -0.4007     0.0000   174.6667 </r>
       <r>    -0.2980     0.0000   174.6667 </r>
       <r>    -0.1953     6.4642   175.3305 </r>
       <r>    -0.0926     1.0773   175.6662 </r>
       <r>     0.0101     2.1533   175.8878 </r>
       <r>     0.1128     0.0000   175.8889 </r>
       <r>     0.2155     0.0000   175.8889 </r>
       <r>     0.3182     0.0000   175.8889 </r>
       <r>     0.4209     1.0820   176.0000 </r>
       <r>     0.5235     0.0000   176.0000 </r>
       <r>     0.6262     0.0000   176.0000 </r>
       <r>     0.7289     0.0000   176.0000 </r>
       <r>     0.8316     0.0000   176.0000 </r>
       <r>     0.9343     0.0000   176.0000 </r>
       <r>     1.0370     0.0000   176.0000 </r>
       <r>     1.1397     0.0000   176.0000 </r>
       <r>     1.2424     0.0000   176.0000 </r>
       <r>     1.3451     0.0000   176.0000 </r>
       <r>     1.4478     0.0000   176.0000 </r>
       <r>     1.5504     0.0000   176.0000 </r>
       <r>     1.6531     0.0000   176.0000 </r>
       <r>     1.7558     0.0000   176.0000 </r>
       <r>     1.8585     0.0000   176.0000 </r>
       <r>     1.9612     0.0000   176.0000 </r>
       <r>     2.0639     0.0000   176.0000 </r>
       <r>     2.1666     0.0000   176.0000 </r>
       <r>     2.2693     0.0000   176.0000 </r>
       <r>     2.3720     0.0000   176.0000 </r>
       <r>     2.4746     0.0054   176.0006 </r>
       <r>     2.5773     0.0000   176.1111 </r>
       <r>     2.6800     0.3488   176.1469 </r>
       <r>     2.7827     2.3665   176.7986 </r>
       <r>     2.8854     0.0000   177.1111 </r>
       <r>     2.9881     7.3908   177.8701 </r>
       <r>     3.0908     4.1064   178.3106 </r>
       <r>     3.1935     7.5732   179.1110 </r>
       <r>     3.2962     9.6015   180.0971 </r>
       <r>     3.3989     1.0820   180.2222 </r>
       <r>     3.5015     4.3280   180.6667 </r>
       <r>     3.6042     2.1640   180.8889 </r>
       <r>     3.7069     8.5807   181.7700 </r>
       <r>     3.8096     0.2949   181.8081 </r>
       <r>     3.9123     6.4920   183.1111 </r>
       <r>     4.0150    12.9961   184.4457 </r>
       <r>     4.1177    12.8855   185.9899 </r>
       <r>     4.2204    10.8663   187.5603 </r>
       <r>     4.3231     1.1514   188.1182 </r>
       <r>     4.4257     4.8813   189.3901 </r>
       <r>     4.5284     0.0000   189.7778 </r>
       <r>     4.6311     2.1640   190.0000 </r>
       <r>     4.7338     0.0000   190.0000 </r>
       <r>     4.8365     1.0913   190.1121 </r>
       <r>     4.9392     0.0000   190.5556 </r>
       <r>     5.0419     2.1539   190.7767 </r>
       <r>     5.1446     8.7094   191.8944 </r>
       <r>     5.2473    15.4504   193.6980 </r>
       <r>     5.3500    12.8356   195.4292 </r>
       <r>     5.4526     5.8390   196.1552 </r>
       <r>     5.5553     2.1635   196.6667 </r>
       <r>     5.6580     2.0200   196.8741 </r>
       <r>     5.7607     9.5594   197.8706 </r>
       <r>     5.8634    21.4770   200.0944 </r>
       <r>     5.9661    12.3222   201.4876 </r>
       <r>     6.0688     6.0867   202.7362 </r>
       <r>     6.1715    12.9697   204.1096 </r>
       <r>     6.2742    18.4043   206.0016 </r>
       <r>     6.3769    19.4706   208.2217 </r>
       <r>     6.4795     9.7439   209.2228 </r>
       <r>     6.5822    11.7934   210.6555 </r>
       <r>     6.6849    15.5729   214.5992 </r>
       <r>     6.7876    14.0115   217.4389 </r>
       <r>     6.8903    23.5885   220.3112 </r>
       <r>     6.9930     7.8631   221.1408 </r>
       <r>     7.0957    14.4743   223.3753 </r>
       <r>     7.1984     4.3280   224.0000 </r>
       <r>     7.3011     0.0000   224.0000 </r>
       <r>     7.4037     0.0000   224.0000 </r>
       <r>     7.5064     0.0000   224.0000 </r>
       <r>     7.6091     0.0000   224.0000 </r>
       <r>     7.7118     0.0000   224.0000 </r>
       <r>     7.8145     0.0000   224.0000 </r>
       <r>     7.9172     0.0000   224.0000 </r>
       <r>     8.0199     0.0000   224.0000 </r>
       <r>     8.1226     0.0000   224.0000 </r>
       <r>     8.2253     0.0000   224.0000 </r>
       <r>     8.3280     0.0000   224.0000 </r>
       <r>     8.4306     0.0000   224.0000 </r>
       <r>     8.5333     0.0000   224.0000 </r>
      </set>
     </set>
    </array>
   </total>
   <partial>
    <array>
     <dimension dim="1">gridpoints</dimension>
     <dimension dim="2">spin</dimension>
     <dimension dim="3">ion</dimension>
     <field>energy</field>
     <field>  s  </field>
     <field>  p  </field>
     <field>  d  </field>
     <set>
      <set comment="ion 1">
       <set comment="spin 1">
        <r>   -22.2735     0.0000     0.0000     0.0000 </r>
        <r>   -22.1709     0.0000     0.0000     0.0000 </r>
        <r>   -22.0682     0.0000     0.0000     0.0000 </r>
        <r>   -21.9655     0.0000     0.0000     0.0000 </r>
        <r>   -21.8628     0.0000     0.0000     0.0000 </r>
[...]
        <r>  0.0000  0.0000  0.0004 </r>
        <r>  0.0010  0.0519  0.0007 </r>
        <r>  0.0009  0.0560  0.0008 </r>
        <r>  0.0019  0.1270  0.0013 </r>
        <r>  0.0019  0.1131  0.0014 </r>
        <r>  0.0001  0.0069  0.0019 </r>
        <r>  0.0004  0.0049  0.0003 </r>
        <r>  0.0000  0.0024  0.0016 </r>
        <r>  0.0013  0.0064  0.0005 </r>
        <r>  0.0097  0.0250  0.0051 </r>
        <r>  0.0009  0.0107  0.0006 </r>
        <r>  0.0005  0.0049  0.0003 </r>
        <r>  0.0046  0.0098  0.0029 </r>
        <r>  0.0042  0.0120  0.0021 </r>
        <r>  0.0004  0.0048  0.0002 </r>
        <r>  0.0100  0.0228  0.0059 </r>
        <r>  0.0010  0.0109  0.0007 </r>
       </set>
       <set comment="band 93">
        <r>  0.0000  0.0007  0.0009 </r>
        <r>  0.0001  0.0001  0.0006 </r>
        <r>  0.0003  0.0001  0.0005 </r>
        <r>  0.0000  0.0003  0.0004 </r>
        <r>  0.0013  0.1212  0.0007 </r>
        <r>  0.0031  0.0813  0.0008 </r>
        <r>  0.0021  0.0659  0.0012 </r>
        <r>  0.0043  0.0548  0.0014 </r>
        <r>  0.0022  0.0443  0.0009 </r>
        <r>  0.0079  0.0166  0.0032 </r>
        <r>  0.0025  0.0503  0.0011 </r>
        <r>  0.0071  0.0141  0.0028 </r>
        <r>  0.0004  0.0030  0.0010 </r>
        <r>  0.0000  0.0009  0.0013 </r>
        <r>  0.0000  0.0018  0.0023 </r>
        <r>  0.0008  0.0078  0.0009 </r>
        <r>  0.0007  0.0068  0.0013 </r>
        <r>  0.0000  0.0015  0.0022 </r>
        <r>  0.0004  0.0041  0.0007 </r>
        <r>  0.0000  0.0012  0.0014 </r>
       </set>
       <set comment="band 94">
        <r>  0.0000  0.0003  0.0004 </r>
        <r>  0.0003  0.0001  0.0005 </r>
        <r>  0.0001  0.0001  0.0006 </r>
        <r>  0.0000  0.0007  0.0009 </r>
        <r>  0.0043  0.0548  0.0014 </r>
        <r>  0.0021  0.0659  0.0012 </r>
        <r>  0.0031  0.0813  0.0008 </r>
        <r>  0.0013  0.1212  0.0007 </r>
        <r>  0.0071  0.0141  0.0028 </r>
        <r>  0.0025  0.0503  0.0011 </r>
        <r>  0.0079  0.0166  0.0032 </r>
        <r>  0.0022  0.0443  0.0009 </r>
        <r>  0.0008  0.0078  0.0009 </r>
        <r>  0.0000  0.0018  0.0023 </r>
        <r>  0.0000  0.0009  0.0013 </r>
        <r>  0.0004  0.0030  0.0010 </r>
        <r>  0.0004  0.0041  0.0007 </r>
        <r>  0.0000  0.0012  0.0014 </r>
        <r>  0.0007  0.0068  0.0013 </r>
        <r>  0.0000  0.0015  0.0022 </r>
       </set>
       <set comment="band 95">
        <r>  0.0001  0.0001  0.0003 </r>
        <r>  0.0000  0.0007  0.0005 </r>
        <r>  0.0000  0.0006  0.0005 </r>
        <r>  0.0001  0.0001  0.0003 </r>
        <r>  0.0046  0.0315  0.0014 </r>
        <r>  0.0049  0.0113  0.0020 </r>
        <r>  0.0003  0.1670  0.0002 </r>
        <r>  0.0004  0.1222  0.0007 </r>
        <r>  0.0057  0.0280  0.0026 </r>
        <r>  0.0043  0.0318  0.0020 </r>
        <r>  0.0054  0.0257  0.0024 </r>
        <r>  0.0046  0.0346  0.0021 </r>
        <r>  0.0002  0.0050  0.0031 </r>
        <r>  0.0002  0.0103  0.0007 </r>
        <r>  0.0001  0.0017  0.0003 </r>
        <r>  0.0001  0.0014  0.0005 </r>
        <r>  0.0001  0.0012  0.0005 </r>
        <r>  0.0001  0.0015  0.0003 </r>
        <r>  0.0002  0.0052  0.0031 </r>
        <r>  0.0002  0.0105  0.0007 </r>
       </set>
       <set comment="band 96">
        <r>  0.0001  0.0001  0.0003 </r>
        <r>  0.0000  0.0006  0.0005 </r>
        <r>  0.0000  0.0007  0.0005 </r>
        <r>  0.0001  0.0001  0.0003 </r>
        <r>  0.0004  0.1222  0.0007 </r>
        <r>  0.0003  0.1670  0.0002 </r>
        <r>  0.0049  0.0113  0.0020 </r>
        <r>  0.0046  0.0315  0.0014 </r>
        <r>  0.0046  0.0346  0.0021 </r>
        <r>  0.0054  0.0257  0.0024 </r>
        <r>  0.0043  0.0318  0.0020 </r>
        <r>  0.0057  0.0280  0.0026 </r>
        <r>  0.0001  0.0014  0.0005 </r>
        <r>  0.0001  0.0017  0.0003 </r>
        <r>  0.0002  0.0103  0.0007 </r>
        <r>  0.0002  0.0050  0.0031 </r>
        <r>  0.0002  0.0052  0.0031 </r>
        <r>  0.0002  0.0105  0.0007 </r>
        <r>  0.0001  0.0012  0.0005 </r>
        <r>  0.0001  0.0015  0.0003 </r>
       </set>
       <set comment="band 97">
        <r>  0.0000  0.0001  0.0017 </r>
        <r>  0.0001  0.0005  0.0008 </r>
        <r>  0.0000  0.0001  0.0026 </r>
        <r>  0.0001  0.0003  0.0006 </r>
        <r>  0.0033  0.1277  0.0011 </r>
        <r>  0.0028  0.1128  0.0013 </r>
        <r>  0.0011  0.0274  0.0005 </r>
        <r>  0.0006  0.0363  0.0007 </r>
        <r>  0.0003  0.0036  0.0006 </r>
        <r>  0.0001  0.0030  0.0023 </r>
        <r>  0.0009  0.0030  0.0009 </r>
        <r>  0.0000  0.0014  0.0024 </r>
        <r>  0.0011  0.0187  0.0009 </r>
        <r>  0.0000  0.0003  0.0010 </r>
        <r>  0.0001  0.0015  0.0037 </r>
        <r>  0.0059  0.0647  0.0028 </r>
        <r>  0.0051  0.0668  0.0029 </r>
        <r>  0.0001  0.0013  0.0038 </r>
        <r>  0.0018  0.0166  0.0009 </r>
        <r>  0.0000  0.0005  0.0010 </r>
       </set>
       <set comment="band 98">
        <r>  0.0001  0.0003  0.0006 </r>
        <r>  0.0000  0.0001  0.0026 </r>
        <r>  0.0001  0.0005  0.0008 </r>
        <r>  0.0000  0.0001  0.0017 </r>
        <r>  0.0006  0.0363  0.0007 </r>
        <r>  0.0011  0.0274  0.0005 </r>
        <r>  0.0028  0.1128  0.0013 </r>
        <r>  0.0033  0.1277  0.0011 </r>
        <r>  0.0000  0.0014  0.0024 </r>
        <r>  0.0009  0.0030  0.0009 </r>
        <r>  0.0001  0.0030  0.0023 </r>
        <r>  0.0003  0.0036  0.0006 </r>
        <r>  0.0059  0.0647  0.0028 </r>
        <r>  0.0001  0.0015  0.0037 </r>
        <r>  0.0000  0.0003  0.0010 </r>
        <r>  0.0011  0.0187  0.0009 </r>
        <r>  0.0018  0.0166  0.0009 </r>
        <r>  0.0000  0.0005  0.0010 </r>
        <r>  0.0051  0.0668  0.0029 </r>
        <r>  0.0001  0.0013  0.0038 </r>
       </set>
       <set comment="band 99">
        <r>  0.0000  0.0001  0.0026 </r>
        <r>  0.0000  0.0001  0.0015 </r>
        <r>  0.0000  0.0001  0.0014 </r>
        <r>  0.0000  0.0002  0.0019 </r>
        <r>  0.0000  0.0026  0.0005 </r>
        <r>  0.0001  0.0028  0.0007 </r>
        <r>  0.0000  0.1609  0.0003 </r>
        <r>  0.0000  0.1437  0.0004 </r>
        <r>  0.0001  0.0011  0.0017 </r>
        <r>  0.0000  0.0015  0.0024 </r>
        <r>  0.0000  0.0023  0.0015 </r>
        <r>  0.0001  0.0010  0.0025 </r>
        <r>  0.0001  0.0021  0.0050 </r>
        <r>  0.0000  0.0988  0.0030 </r>
        <r>  0.0000  0.0019  0.0004 </r>
        <r>  0.0000  0.0002  0.0002 </r>
        <r>  0.0000  0.0002  0.0001 </r>
        <r>  0.0000  0.0016  0.0005 </r>
        <r>  0.0001  0.0020  0.0051 </r>
        <r>  0.0000  0.0991  0.0029 </r>
       </set>
       <set comment="band 100">
        <r>  0.0000  0.0002  0.0019 </r>
        <r>  0.0000  0.0001  0.0014 </r>
        <r>  0.0000  0.0001  0.0015 </r>
        <r>  0.0000  0.0001  0.0026 </r>
        <r>  0.0000  0.1437  0.0004 </r>
        <r>  0.0000  0.1609  0.0003 </r>
        <r>  0.0001  0.0028  0.0007 </r>
        <r>  0.0000  0.0026  0.0005 </r>
        <r>  0.0001  0.0010  0.0025 </r>
        <r>  0.0000  0.0023  0.0015 </r>
        <r>  0.0000  0.0015  0.0024 </r>
        <r>  0.0001  0.0011  0.0017 </r>
        <r>  0.0000  0.0002  0.0002 </r>
        <r>  0.0000  0.0019  0.0004 </r>
        <r>  0.0000  0.0988  0.0030 </r>
        <r>  0.0001  0.0021  0.0050 </r>
        <r>  0.0001  0.0020  0.0051 </r>
        <r>  0.0000  0.0991  0.0029 </r>
        <r>  0.0000  0.0002  0.0001 </r>
        <r>  0.0000  0.0016  0.0005 </r>
       </set>
       <set comment="band 101">
        <r>  0.0000  0.0007  0.0099 </r>
        <r>  0.0133  0.0063  0.0083 </r>
        <r>  0.0000  0.0008  0.0105 </r>
        <r>  0.0134  0.0064  0.0060 </r>
        <r>  0.0001  0.0054  0.0001 </r>
        <r>  0.0003  0.0067  0.0003 </r>
        <r>  0.0003  0.0068  0.0003 </r>
        <r>  0.0001  0.0054  0.0001 </r>
        <r>  0.0048  0.0099  0.0034 </r>
        <r>  0.0000  0.0065  0.0001 </r>
        <r>  0.0059  0.0109  0.0037 </r>
        <r>  0.0000  0.0061  0.0002 </r>
        <r>  0.0005  0.0041  0.0006 </r>
        <r>  0.0035  0.0024  0.0020 </r>
        <r>  0.0027  0.0010  0.0011 </r>
        <r>  0.0016  0.0048  0.0017 </r>
        <r>  0.0005  0.0041  0.0006 </r>
        <r>  0.0034  0.0024  0.0020 </r>
        <r>  0.0016  0.0048  0.0017 </r>
        <r>  0.0027  0.0010  0.0011 </r>
       </set>
       <set comment="band 102">
        <r>  0.0134  0.0064  0.0060 </r>
        <r>  0.0000  0.0008  0.0105 </r>
        <r>  0.0133  0.0063  0.0083 </r>
        <r>  0.0000  0.0007  0.0099 </r>
        <r>  0.0001  0.0054  0.0001 </r>
        <r>  0.0003  0.0068  0.0003 </r>
        <r>  0.0003  0.0067  0.0003 </r>
        <r>  0.0001  0.0054  0.0001 </r>
        <r>  0.0000  0.0061  0.0002 </r>
        <r>  0.0059  0.0109  0.0037 </r>
        <r>  0.0000  0.0065  0.0001 </r>
        <r>  0.0048  0.0099  0.0034 </r>
        <r>  0.0016  0.0048  0.0017 </r>
        <r>  0.0027  0.0010  0.0011 </r>
        <r>  0.0035  0.0024  0.0020 </r>
        <r>  0.0005  0.0041  0.0006 </r>
        <r>  0.0016  0.0048  0.0017 </r>
        <r>  0.0027  0.0010  0.0011 </r>
        <r>  0.0005  0.0041  0.0006 </r>
        <r>  0.0034  0.0024  0.0020 </r>
       </set>
       <set comment="band 103">
        <r>  0.0047  0.0028  0.0461 </r>
        <r>  0.0000  0.0011  0.0003 </r>
        <r>  0.0006  0.0018  0.0574 </r>
        <r>  0.0000  0.0003  0.0075 </r>
        <r>  0.0001  0.0043  0.0002 </r>
        <r>  0.0000  0.0014  0.0002 </r>
        <r>  0.0000  0.0014  0.0002 </r>
        <r>  0.0001  0.0043  0.0002 </r>
        <r>  0.0000  0.0002  0.0002 </r>
        <r>  0.0001  0.0108  0.0053 </r>
        <r>  0.0000  0.0006  0.0003 </r>
        <r>  0.0004  0.0137  0.0062 </r>
        <r>  0.0003  0.0021  0.0017 </r>
        <r>  0.0003  0.0012  0.0011 </r>
        <r>  0.0015  0.0047  0.0017 </r>
        <r>  0.0006  0.0032  0.0010 </r>
        <r>  0.0003  0.0021  0.0017 </r>
        <r>  0.0003  0.0012  0.0011 </r>
        <r>  0.0006  0.0032  0.0010 </r>
        <r>  0.0015  0.0047  0.0017 </r>
       </set>
       <set comment="band 104">
        <r>  0.0000  0.0003  0.0075 </r>
        <r>  0.0006  0.0018  0.0574 </r>
        <r>  0.0000  0.0011  0.0003 </r>
        <r>  0.0047  0.0028  0.0461 </r>
        <r>  0.0001  0.0043  0.0002 </r>
        <r>  0.0000  0.0014  0.0002 </r>
        <r>  0.0000  0.0014  0.0002 </r>
        <r>  0.0001  0.0043  0.0002 </r>
        <r>  0.0004  0.0137  0.0062 </r>
        <r>  0.0000  0.0006  0.0003 </r>
        <r>  0.0001  0.0108  0.0053 </r>
        <r>  0.0000  0.0002  0.0002 </r>
        <r>  0.0006  0.0032  0.0010 </r>
        <r>  0.0015  0.0047  0.0017 </r>
        <r>  0.0003  0.0012  0.0011 </r>
        <r>  0.0003  0.0021  0.0017 </r>
        <r>  0.0006  0.0032  0.0010 </r>
        <r>  0.0015  0.0047  0.0017 </r>
        <r>  0.0003  0.0021  0.0017 </r>
        <r>  0.0003  0.0012  0.0011 </r>
       </set>
       <set comment="band 105">
        <r>  0.0001  0.0006  0.0290 </r>
        <r>  0.0044  0.0049  0.0234 </r>
        <r>  0.0001  0.0004  0.0300 </r>
        <r>  0.0024  0.0020  0.0258 </r>
        <r>  0.0000  0.0056  0.0006 </r>
        <r>  0.0003  0.0026  0.0007 </r>
        <r>  0.0002  0.0043  0.0010 </r>
        <r>  0.0001  0.0090  0.0006 </r>
        <r>  0.0003  0.0077  0.0020 </r>
        <r>  0.0000  0.0024  0.0010 </r>
        <r>  0.0010  0.0097  0.0022 </r>
        <r>  0.0000  0.0007  0.0008 </r>
        <r>  0.0018  0.0007  0.0028 </r>
        <r>  0.0024  0.0019  0.0029 </r>
        <r>  0.0004  0.0016  0.0022 </r>
        <r>  0.0006  0.0036  0.0025 </r>
        <r>  0.0011  0.0002  0.0020 </r>
        <r>  0.0017  0.0018  0.0021 </r>
        <r>  0.0012  0.0041  0.0033 </r>
        <r>  0.0010  0.0016  0.0030 </r>
       </set>
       <set comment="band 106">
        <r>  0.0024  0.0020  0.0258 </r>
        <r>  0.0001  0.0004  0.0300 </r>
        <r>  0.0044  0.0049  0.0234 </r>
        <r>  0.0001  0.0006  0.0290 </r>
        <r>  0.0001  0.0090  0.0006 </r>
        <r>  0.0002  0.0043  0.0010 </r>
        <r>  0.0003  0.0026  0.0007 </r>
        <r>  0.0000  0.0056  0.0006 </r>
        <r>  0.0000  0.0007  0.0008 </r>
        <r>  0.0010  0.0097  0.0022 </r>
        <r>  0.0000  0.0024  0.0010 </r>
        <r>  0.0003  0.0077  0.0020 </r>
        <r>  0.0006  0.0036  0.0025 </r>
        <r>  0.0004  0.0016  0.0022 </r>
        <r>  0.0024  0.0019  0.0029 </r>
        <r>  0.0018  0.0007  0.0028 </r>
        <r>  0.0012  0.0041  0.0033 </r>
        <r>  0.0010  0.0016  0.0030 </r>
        <r>  0.0011  0.0002  0.0020 </r>
        <r>  0.0017  0.0018  0.0021 </r>
       </set>
       <set comment="band 107">
        <r>  0.0000  0.0002  0.0354 </r>
        <r>  0.0040  0.0039  0.0089 </r>
        <r>  0.0000  0.0004  0.0479 </r>
        <r>  0.0011  0.0058  0.0157 </r>
        <r>  0.0000  0.0047  0.0013 </r>
        <r>  0.0000  0.0078  0.0007 </r>
        <r>  0.0000  0.0081  0.0007 </r>
        <r>  0.0000  0.0049  0.0014 </r>
        <r>  0.0018  0.0045  0.0009 </r>
        <r>  0.0000  0.0031  0.0013 </r>
        <r>  0.0018  0.0026  0.0025 </r>
        <r>  0.0000  0.0043  0.0015 </r>
        <r>  0.0012  0.0027  0.0030 </r>
        <r>  0.0002  0.0012  0.0027 </r>
        <r>  0.0012  0.0025  0.0023 </r>
        <r>  0.0014  0.0049  0.0038 </r>
        <r>  0.0011  0.0027  0.0029 </r>
        <r>  0.0002  0.0012  0.0026 </r>
        <r>  0.0015  0.0050  0.0039 </r>
        <r>  0.0013  0.0025  0.0024 </r>
       </set>
       <set comment="band 108">
        <r>  0.0011  0.0058  0.0157 </r>
        <r>  0.0000  0.0004  0.0479 </r>
        <r>  0.0040  0.0039  0.0089 </r>
        <r>  0.0000  0.0002  0.0354 </r>
        <r>  0.0000  0.0049  0.0014 </r>
        <r>  0.0000  0.0081  0.0007 </r>
        <r>  0.0000  0.0078  0.0007 </r>
        <r>  0.0000  0.0047  0.0013 </r>
        <r>  0.0000  0.0043  0.0015 </r>
        <r>  0.0018  0.0026  0.0025 </r>
        <r>  0.0000  0.0031  0.0013 </r>
        <r>  0.0018  0.0045  0.0009 </r>
        <r>  0.0014  0.0049  0.0038 </r>
        <r>  0.0012  0.0025  0.0023 </r>
        <r>  0.0002  0.0012  0.0027 </r>
        <r>  0.0012  0.0027  0.0030 </r>
        <r>  0.0015  0.0050  0.0039 </r>
        <r>  0.0013  0.0025  0.0024 </r>
        <r>  0.0011  0.0027  0.0029 </r>
        <r>  0.0002  0.0012  0.0026 </r>
       </set>
       <set comment="band 109">
        <r>  0.0004  0.0029  0.0733 </r>
        <r>  0.0000  0.0004  0.0281 </r>
        <r>  0.0000  0.0064  0.0261 </r>
        <r>  0.0000  0.0010  0.0056 </r>
        <r>  0.0001  0.0039  0.0005 </r>
        <r>  0.0000  0.0047  0.0006 </r>
        <r>  0.0000  0.0044  0.0006 </r>
        <r>  0.0001  0.0040  0.0005 </r>
        <r>  0.0000  0.0007  0.0004 </r>
        <r>  0.0003  0.0106  0.0024 </r>
        <r>  0.0000  0.0004  0.0004 </r>
        <r>  0.0033  0.0100  0.0035 </r>
        <r>  0.0006  0.0021  0.0023 </r>
        <r>  0.0003  0.0027  0.0032 </r>
        <r>  0.0001  0.0052  0.0043 </r>
        <r>  0.0006  0.0031  0.0010 </r>
        <r>  0.0005  0.0021  0.0022 </r>
        <r>  0.0003  0.0027  0.0031 </r>
        <r>  0.0007  0.0030  0.0010 </r>
        <r>  0.0001  0.0052  0.0044 </r>
       </set>
       <set comment="band 110">
        <r>  0.0000  0.0010  0.0056 </r>
        <r>  0.0000  0.0064  0.0261 </r>
        <r>  0.0000  0.0004  0.0281 </r>
        <r>  0.0004  0.0029  0.0733 </r>
        <r>  0.0001  0.0040  0.0005 </r>
        <r>  0.0000  0.0044  0.0006 </r>
        <r>  0.0000  0.0047  0.0006 </r>
        <r>  0.0001  0.0039  0.0005 </r>
        <r>  0.0033  0.0100  0.0035 </r>
        <r>  0.0000  0.0004  0.0004 </r>
        <r>  0.0003  0.0106  0.0024 </r>
        <r>  0.0000  0.0007  0.0004 </r>
        <r>  0.0006  0.0031  0.0010 </r>
        <r>  0.0001  0.0052  0.0043 </r>
        <r>  0.0003  0.0027  0.0032 </r>
        <r>  0.0006  0.0021  0.0023 </r>
        <r>  0.0007  0.0030  0.0010 </r>
        <r>  0.0001  0.0052  0.0044 </r>
        <r>  0.0005  0.0021  0.0022 </r>
        <r>  0.0003  0.0027  0.0031 </r>
       </set>
       <set comment="band 111">
        <r>  0.0025  0.0048  0.0331 </r>
        <r>  0.0004  0.0012  0.0205 </r>
        <r>  0.0007  0.0017  0.0214 </r>
        <r>  0.0014  0.0029  0.0435 </r>
        <r>  0.0000  0.0089  0.0015 </r>
        <r>  0.0000  0.0170  0.0010 </r>
        <r>  0.0000  0.0007  0.0020 </r>
        <r>  0.0001  0.0029  0.0011 </r>
        <r>  0.0008  0.0033  0.0021 </r>
        <r>  0.0012  0.0060  0.0033 </r>
        <r>  0.0007  0.0035  0.0026 </r>
        <r>  0.0013  0.0053  0.0029 </r>
        <r>  0.0005  0.0024  0.0020 </r>
        <r>  0.0003  0.0008  0.0032 </r>
        <r>  0.0000  0.0056  0.0022 </r>
        <r>  0.0002  0.0013  0.0035 </r>
        <r>  0.0004  0.0014  0.0034 </r>
        <r>  0.0000  0.0057  0.0018 </r>
        <r>  0.0003  0.0024  0.0020 </r>
        <r>  0.0003  0.0006  0.0036 </r>
       </set>
       <set comment="band 112">
        <r>  0.0014  0.0029  0.0435 </r>
        <r>  0.0007  0.0017  0.0214 </r>
        <r>  0.0004  0.0012  0.0205 </r>
        <r>  0.0025  0.0048  0.0331 </r>
        <r>  0.0001  0.0029  0.0011 </r>
        <r>  0.0000  0.0007  0.0020 </r>
        <r>  0.0000  0.0170  0.0010 </r>
        <r>  0.0000  0.0090  0.0015 </r>
        <r>  0.0013  0.0053  0.0029 </r>
        <r>  0.0007  0.0035  0.0026 </r>
        <r>  0.0012  0.0060  0.0033 </r>
        <r>  0.0008  0.0033  0.0021 </r>
        <r>  0.0002  0.0013  0.0035 </r>
        <r>  0.0000  0.0056  0.0022 </r>
        <r>  0.0003  0.0008  0.0032 </r>
        <r>  0.0005  0.0024  0.0019 </r>
        <r>  0.0003  0.0024  0.0020 </r>
        <r>  0.0003  0.0006  0.0036 </r>
        <r>  0.0004  0.0014  0.0034 </r>
        <r>  0.0000  0.0057  0.0018 </r>
       </set>
      </set>
     </set>
    </set>
   </array>
  </projected>
 </calculation>
 <structure name="finalpos" >
  <crystal>
   <varray name="basis" >
    <v>       8.34198785       0.00000000       0.00000000 </v>
    <v>       0.00000000      12.23436010       0.00000000 </v>
    <v>       0.00000000       0.00000000       7.94576858 </v>
   </varray>
   <i name="volume">    810.93626807 </i>
   <varray name="rec_basis" >
    <v>       0.11987550       0.00000000       0.00000000 </v>
    <v>       0.00000000       0.08173701       0.00000000 </v>
    <v>       0.00000000       0.00000000       0.12585315 </v>
   </varray>
  </crystal>
  <varray name="positions" >
   <v>       0.05664951       0.25000000       0.48260195 </v>
   <v>       0.44335049       0.75000000       0.98260195 </v>
   <v>       0.55664951       0.25000000       0.01739805 </v>
   <v>       0.94335049       0.75000000       0.51739805 </v>
   <v>       0.00000000       0.00000000       0.00000000 </v>
   <v>       0.50000000       0.00000000       0.50000000 </v>
   <v>       0.50000000       0.50000000       0.50000000 </v>
   <v>       0.00000000       0.50000000       0.00000000 </v>
   <v>       0.50094904       0.75000000       0.46235596 </v>
   <v>       0.99905096       0.25000000       0.96235596 </v>
   <v>       0.00094904       0.75000000       0.03764404 </v>
   <v>       0.49905096       0.25000000       0.53764404 </v>
   <v>       0.31116108       0.47643547       0.18334590 </v>
   <v>       0.18883892       0.52356453       0.68334590 </v>
   <v>       0.81116108       0.02356453       0.31665410 </v>
   <v>       0.68883892       0.97643547       0.81665410 </v>
   <v>       0.31116108       0.02356453       0.18334590 </v>
   <v>       0.18883892       0.97643547       0.68334590 </v>
   <v>       0.68883892       0.52356453       0.81665410 </v>
   <v>       0.81116108       0.47643547       0.31665410 </v>
  </varray>
 </structure>
</modeling>
