CsPbBr3 cubic bulk                      
           1
     8.341988    0.000000    0.000000
     0.000000   12.234360    0.000000
     0.000000    0.000000    7.945769
   Cs   Pb   Br
   4   4  12
Direct configuration=     1
   0.05664951  0.25000000  0.48260195
   0.44335049  0.75000000  0.98260195
   0.55664951  0.25000000  0.01739805
   0.94335049  0.75000000  0.51739805
   0.00000000  0.00000000  0.00000000
   0.50000000  0.00000000  0.50000000
   0.50000000  0.50000000  0.50000000
   0.00000000  0.50000000  0.00000000
   0.50094904  0.75000000  0.46235596
   0.99905096  0.25000000  0.96235596
   0.00094904  0.75000000  0.03764404
   0.49905096  0.25000000  0.53764404
   0.31116108  0.47643547  0.18334590
   0.18883892  0.52356453  0.68334590
   0.81116108  0.02356453  0.31665410
   0.68883892  0.97643547  0.81665410
   0.31116108  0.02356453  0.18334590
   0.18883892  0.97643547  0.68334590
   0.68883892  0.52356453  0.81665410
   0.81116108  0.47643547  0.31665410
