  39  39   1   0
  0.4089970E+02  0.1166870E-08  0.1172985E-08  0.1166870E-08  0.5000000E-15
   1.0000000000000000E-004
  CAR 
 CsPbBr3 cubic bulk                      
      8.06395576    -22.31154964  301      0.49539233      1.00000000
    -22.312  0.0000E+00  0.0000E+00
    -22.210  0.0000E+00  0.0000E+00
    -22.109  0.0000E+00  0.0000E+00
    -22.008  0.0000E+00  0.0000E+00
    -21.907  0.0000E+00  0.0000E+00
    -21.805  0.0000E+00  0.0000E+00
    -21.704  0.0000E+00  0.0000E+00
    -21.603  0.0000E+00  0.0000E+00
    -21.502  0.0000E+00  0.0000E+00
    -21.400  0.0000E+00  0.0000E+00
    -21.299  0.0000E+00  0.0000E+00
    -21.198  0.0000E+00  0.0000E+00
    -21.097  0.0000E+00  0.0000E+00
    -20.995  0.0000E+00  0.0000E+00
    -20.894  0.1975E+02  0.2000E+01
    -20.793  0.1961E+02  0.3986E+01
    -20.692  0.1002E+03  0.1415E+02
    -20.590  0.0000E+00  0.1600E+02
    -20.489  0.0000E+00  0.1600E+02
    -20.388  0.0000E+00  0.1600E+02
    -20.287  0.0000E+00  0.1600E+02
    -20.185  0.0000E+00  0.1600E+02
    -20.084  0.0000E+00  0.1600E+02
    -19.983  0.0000E+00  0.1600E+02
    -19.882  0.0000E+00  0.1600E+02
    -19.780  0.0000E+00  0.1600E+02
    -19.679  0.0000E+00  0.1600E+02
    -19.578  0.0000E+00  0.1600E+02
    -19.477  0.0000E+00  0.1600E+02
    -19.375  0.0000E+00  0.1600E+02
    -19.274  0.0000E+00  0.1600E+02
    -19.173  0.0000E+00  0.1600E+02
    -19.071  0.0000E+00  0.1600E+02
    -18.970  0.0000E+00  0.1600E+02
    -18.869  0.0000E+00  0.1600E+02
    -18.768  0.0000E+00  0.1600E+02
    -18.666  0.0000E+00  0.1600E+02
    -18.565  0.0000E+00  0.1600E+02
    -18.464  0.0000E+00  0.1600E+02
    -18.363  0.0000E+00  0.1600E+02
    -18.261  0.0000E+00  0.1600E+02
    -18.160  0.0000E+00  0.1600E+02
    -18.059  0.0000E+00  0.1600E+02
    -17.958  0.0000E+00  0.1600E+02
    -17.856  0.0000E+00  0.1600E+02
    -17.755  0.0000E+00  0.1600E+02
    -17.654  0.0000E+00  0.1600E+02
    -17.553  0.0000E+00  0.1600E+02
    -17.451  0.0000E+00  0.1600E+02
    -17.350  0.0000E+00  0.1600E+02
    -17.249  0.0000E+00  0.1600E+02
    -17.148  0.0000E+00  0.1600E+02
    -17.046  0.0000E+00  0.1600E+02
    -16.945  0.0000E+00  0.1600E+02
    -16.844  0.0000E+00  0.1600E+02
    -16.743  0.3860E+01  0.1639E+02
    -16.641  0.7825E+02  0.2592E+02
    -16.540  0.9833E+02  0.3596E+02
    -16.439  0.4871E+02  0.4293E+02
    -16.338  0.1655E+03  0.6476E+02
    -16.236  0.2507E+03  0.9538E+02
    -16.135  0.0000E+00  0.9600E+02
    -16.034  0.0000E+00  0.9600E+02
    -15.933  0.0000E+00  0.9600E+02
    -15.831  0.0000E+00  0.9600E+02
    -15.730  0.0000E+00  0.9600E+02
    -15.629  0.0000E+00  0.9600E+02
    -15.528  0.0000E+00  0.9600E+02
    -15.426  0.0000E+00  0.9600E+02
    -15.325  0.0000E+00  0.9600E+02
    -15.224  0.0000E+00  0.9600E+02
    -15.123  0.0000E+00  0.9600E+02
    -15.021  0.0000E+00  0.9600E+02
    -14.920  0.0000E+00  0.9600E+02
    -14.819  0.0000E+00  0.9600E+02
    -14.718  0.0000E+00  0.9600E+02
    -14.616  0.6363E-11  0.9600E+02
    -14.515  0.1975E+02  0.9800E+02
    -14.414  0.1466E+00  0.9801E+02
    -14.313  0.3098E+02  0.1016E+03
    -14.211  0.3000E+02  0.1053E+03
    -14.110  0.3775E+02  0.1101E+03
    -14.009  0.8268E+02  0.1206E+03
    -13.908  0.5385E+02  0.1275E+03
    -13.806  0.6121E+02  0.1367E+03
    -13.705  0.2690E+02  0.1415E+03
    -13.604  0.0000E+00  0.1420E+03
    -13.503  0.0000E+00  0.1420E+03
    -13.401  0.0000E+00  0.1420E+03
    -13.300  0.0000E+00  0.1420E+03
    -13.199  0.0000E+00  0.1420E+03
    -13.098  0.0000E+00  0.1420E+03
    -12.996  0.0000E+00  0.1420E+03
    -12.895  0.0000E+00  0.1420E+03
    -12.794  0.0000E+00  0.1420E+03
    -12.693  0.0000E+00  0.1420E+03
    -12.591  0.0000E+00  0.1420E+03
    -12.490  0.0000E+00  0.1420E+03
    -12.389  0.0000E+00  0.1420E+03
    -12.288  0.0000E+00  0.1420E+03
    -12.186  0.0000E+00  0.1420E+03
    -12.085  0.0000E+00  0.1420E+03
    -11.984  0.0000E+00  0.1420E+03
    -11.883  0.0000E+00  0.1420E+03
    -11.781  0.0000E+00  0.1420E+03
    -11.680  0.0000E+00  0.1420E+03
    -11.579  0.0000E+00  0.1420E+03
    -11.478  0.0000E+00  0.1420E+03
    -11.376  0.0000E+00  0.1420E+03
    -11.275  0.0000E+00  0.1420E+03
    -11.174  0.0000E+00  0.1420E+03
    -11.073  0.0000E+00  0.1420E+03
    -10.971  0.0000E+00  0.1420E+03
    -10.870  0.0000E+00  0.1420E+03
    -10.769  0.0000E+00  0.1420E+03
    -10.668  0.0000E+00  0.1420E+03
    -10.566  0.0000E+00  0.1420E+03
    -10.465  0.0000E+00  0.1420E+03
    -10.364  0.0000E+00  0.1420E+03
    -10.263  0.0000E+00  0.1420E+03
    -10.161  0.0000E+00  0.1420E+03
    -10.060  0.0000E+00  0.1420E+03
     -9.959  0.0000E+00  0.1420E+03
     -9.858  0.0000E+00  0.1420E+03
     -9.756  0.0000E+00  0.1420E+03
     -9.655  0.0000E+00  0.1420E+03
     -9.554  0.0000E+00  0.1420E+03
     -9.453  0.0000E+00  0.1420E+03
     -9.351  0.0000E+00  0.1420E+03
     -9.250  0.0000E+00  0.1420E+03
     -9.149  0.0000E+00  0.1420E+03
     -9.048  0.0000E+00  0.1420E+03
     -8.946  0.0000E+00  0.1420E+03
     -8.845  0.0000E+00  0.1420E+03
     -8.744  0.0000E+00  0.1420E+03
     -8.643  0.0000E+00  0.1420E+03
     -8.541  0.0000E+00  0.1420E+03
     -8.440  0.0000E+00  0.1420E+03
     -8.339  0.0000E+00  0.1420E+03
     -8.238  0.2789E-05  0.1420E+03
     -8.136  0.2469E+01  0.1422E+03
     -8.035  0.2943E+01  0.1425E+03
     -7.934  0.1227E+02  0.1440E+03
     -7.833  0.7403E+01  0.1447E+03
     -7.731  0.1947E+02  0.1467E+03
     -7.630  0.1261E+02  0.1485E+03
     -7.529  0.3105E+01  0.1491E+03
     -7.428  0.2581E+02  0.1529E+03
     -7.326  0.2766E+02  0.1558E+03
     -7.225  0.5226E+02  0.1630E+03
     -7.124  0.1702E+03  0.1835E+03
     -7.023  0.1294E+03  0.2041E+03
     -6.921  0.4702E+01  0.2050E+03
     -6.820  0.5591E+01  0.2056E+03
     -6.719  0.0000E+00  0.2058E+03
     -6.618  0.2419E-03  0.2058E+03
     -6.516  0.2469E+01  0.2060E+03
     -6.415  0.0000E+00  0.2060E+03
     -6.314  0.0000E+00  0.2060E+03
     -6.213  0.0000E+00  0.2060E+03
     -6.111  0.0000E+00  0.2060E+03
     -6.010  0.0000E+00  0.2060E+03
     -5.909  0.0000E+00  0.2060E+03
     -5.808  0.0000E+00  0.2060E+03
     -5.706  0.0000E+00  0.2060E+03
     -5.605  0.0000E+00  0.2060E+03
     -5.504  0.0000E+00  0.2060E+03
     -5.403  0.0000E+00  0.2060E+03
     -5.301  0.0000E+00  0.2060E+03
     -5.200  0.0000E+00  0.2060E+03
     -5.099  0.0000E+00  0.2060E+03
     -4.998  0.0000E+00  0.2060E+03
     -4.896  0.0000E+00  0.2060E+03
     -4.795  0.0000E+00  0.2060E+03
     -4.694  0.0000E+00  0.2060E+03
     -4.593  0.0000E+00  0.2060E+03
     -4.491  0.0000E+00  0.2060E+03
     -4.390  0.0000E+00  0.2060E+03
     -4.289  0.0000E+00  0.2060E+03
     -4.187  0.0000E+00  0.2060E+03
     -4.086  0.0000E+00  0.2060E+03
     -3.985  0.0000E+00  0.2060E+03
     -3.884  0.0000E+00  0.2060E+03
     -3.782  0.0000E+00  0.2060E+03
     -3.681  0.0000E+00  0.2060E+03
     -3.580  0.0000E+00  0.2060E+03
     -3.479  0.0000E+00  0.2060E+03
     -3.377  0.2139E+01  0.2062E+03
     -3.276  0.2860E+02  0.2094E+03
     -3.175  0.3676E+02  0.2145E+03
     -3.074  0.2365E+02  0.2176E+03
     -2.972  0.5783E+01  0.2186E+03
     -2.871  0.7407E+01  0.2198E+03
     -2.770  0.2469E+01  0.2200E+03
     -2.669  0.1780E+02  0.2218E+03
     -2.567  0.3446E+02  0.2260E+03
     -2.466  0.2576E+02  0.2296E+03
     -2.365  0.3984E+02  0.2340E+03
     -2.264  0.4342E+02  0.2386E+03
     -2.162  0.2422E+02  0.2417E+03
     -2.061  0.2801E+02  0.2446E+03
     -1.960  0.4100E+02  0.2502E+03
     -1.859  0.2388E+02  0.2532E+03
     -1.757  0.3871E+02  0.2584E+03
     -1.656  0.4220E+02  0.2638E+03
     -1.555  0.6339E+02  0.2719E+03
     -1.454  0.7292E+02  0.2811E+03
     -1.352  0.9338E+02  0.2930E+03
     -1.251  0.9661E+02  0.3050E+03
     -1.150  0.7971E+02  0.3151E+03
     -1.049  0.8268E+02  0.3254E+03
     -0.947  0.2430E+02  0.3287E+03
     -0.846  0.3861E+02  0.3329E+03
     -0.745  0.1567E+02  0.3351E+03
     -0.644  0.3269E+01  0.3358E+03
     -0.542  0.1462E+02  0.3375E+03
     -0.441  0.1109E+02  0.3391E+03
     -0.340  0.1116E+02  0.3406E+03
     -0.239  0.6529E+01  0.3417E+03
     -0.137  0.1362E-01  0.3420E+03
     -0.036  0.4946E+01  0.3428E+03
      0.065  0.4154E+01  0.3434E+03
      0.166  0.0000E+00  0.3438E+03
      0.268  0.0000E+00  0.3438E+03
      0.369  0.2640E-03  0.3438E+03
      0.470  0.2469E+01  0.3440E+03
      0.571  0.0000E+00  0.3440E+03
      0.673  0.0000E+00  0.3440E+03
      0.774  0.0000E+00  0.3440E+03
      0.875  0.0000E+00  0.3440E+03
      0.976  0.0000E+00  0.3440E+03
      1.078  0.0000E+00  0.3440E+03
      1.179  0.0000E+00  0.3440E+03
      1.280  0.0000E+00  0.3440E+03
      1.381  0.0000E+00  0.3440E+03
      1.483  0.0000E+00  0.3440E+03
      1.584  0.0000E+00  0.3440E+03
      1.685  0.0000E+00  0.3440E+03
      1.786  0.0000E+00  0.3440E+03
      1.888  0.0000E+00  0.3440E+03
      1.989  0.0000E+00  0.3440E+03
      2.090  0.0000E+00  0.3440E+03
      2.191  0.0000E+00  0.3440E+03
      2.293  0.0000E+00  0.3440E+03
      2.394  0.0000E+00  0.3440E+03
      2.495  0.6675E-12  0.3440E+03
      2.596  0.4010E+01  0.3444E+03
      2.698  0.9876E+01  0.3455E+03
      2.799  0.7407E+01  0.3463E+03
      2.900  0.7386E+01  0.3470E+03
      3.001  0.1952E+02  0.3490E+03
      3.103  0.5182E+01  0.3500E+03
      3.204  0.1548E+02  0.3523E+03
      3.305  0.1040E+02  0.3541E+03
      3.406  0.1991E+02  0.3565E+03
      3.508  0.8645E+01  0.3576E+03
      3.609  0.2469E+01  0.3580E+03
      3.710  0.0000E+00  0.3580E+03
      3.811  0.0000E+00  0.3580E+03
      3.913  0.0000E+00  0.3580E+03
      4.014  0.1130E-03  0.3580E+03
      4.115  0.1472E+02  0.3595E+03
      4.216  0.7239E+01  0.3602E+03
      4.318  0.1945E+02  0.3622E+03
      4.419  0.2094E+02  0.3649E+03
      4.520  0.2967E+02  0.3685E+03
      4.621  0.2326E+02  0.3716E+03
      4.723  0.2124E+02  0.3747E+03
      4.824  0.2303E+02  0.3778E+03
      4.925  0.2200E+02  0.3802E+03
      5.026  0.0000E+00  0.3802E+03
      5.128  0.1240E-04  0.3803E+03
      5.229  0.7407E+01  0.3810E+03
      5.330  0.7407E+01  0.3818E+03
      5.431  0.9080E+01  0.3827E+03
      5.533  0.4938E+01  0.3832E+03
      5.634  0.8428E+01  0.3841E+03
      5.735  0.1480E+02  0.3860E+03
      5.836  0.1558E+02  0.3878E+03
      5.938  0.2051E+02  0.3903E+03
      6.039  0.2081E+02  0.3934E+03
      6.140  0.2938E+02  0.3970E+03
      6.241  0.2440E+02  0.4007E+03
      6.343  0.4145E+02  0.4049E+03
      6.444  0.2589E+02  0.4079E+03
      6.545  0.3728E+02  0.4118E+03
      6.646  0.2142E+02  0.4152E+03
      6.748  0.2469E+01  0.4160E+03
      6.849  0.0000E+00  0.4160E+03
      6.950  0.0000E+00  0.4160E+03
      7.051  0.0000E+00  0.4160E+03
      7.153  0.0000E+00  0.4160E+03
      7.254  0.0000E+00  0.4160E+03
      7.355  0.0000E+00  0.4160E+03
      7.456  0.0000E+00  0.4160E+03
      7.558  0.0000E+00  0.4160E+03
      7.659  0.0000E+00  0.4160E+03
      7.760  0.0000E+00  0.4160E+03
      7.861  0.0000E+00  0.4160E+03
      7.963  0.0000E+00  0.4160E+03
      8.064  0.0000E+00  0.4160E+03
      8.06395576    -22.31154964  301      0.49539233      1.00000000
    -22.312  0.0000E+00  0.0000E+00  0.0000E+00
    -22.210  0.0000E+00  0.0000E+00  0.0000E+00
    -22.109  0.0000E+00  0.0000E+00  0.0000E+00
    -22.008  0.0000E+00  0.0000E+00  0.0000E+00
    -21.907  0.0000E+00  0.0000E+00  0.0000E+00
    -21.805  0.0000E+00  0.0000E+00  0.0000E+00
    -21.704  0.0000E+00  0.0000E+00  0.0000E+00
    -21.603  0.0000E+00  0.0000E+00  0.0000E+00
    -21.502  0.0000E+00  0.0000E+00  0.0000E+00
    -21.400  0.0000E+00  0.0000E+00  0.0000E+00
    -21.299  0.0000E+00  0.0000E+00  0.0000E+00
    -21.198  0.0000E+00  0.0000E+00  0.0000E+00
    -21.097  0.0000E+00  0.0000E+00  0.0000E+00
    -20.995  0.0000E+00  0.0000E+00  0.0000E+00
    -20.894  0.3542E-06  0.1409E-08  0.6262E-10
    -20.793  0.1740E+02  0.7835E-04  0.9981E-05
    -20.692  0.5132E-02  0.4994E-06  0.5778E-07
    -20.590  0.0000E+00  0.0000E+00  0.0000E+00
    -20.489  0.0000E+00  0.0000E+00  0.0000E+00
    -20.388  0.0000E+00  0.0000E+00  0.0000E+00
    -20.287  0.0000E+00  0.0000E+00  0.0000E+00
    -20.185  0.0000E+00  0.0000E+00  0.0000E+00
    -20.084  0.0000E+00  0.0000E+00  0.0000E+00
    -19.983  0.0000E+00  0.0000E+00  0.0000E+00
    -19.882  0.0000E+00  0.0000E+00  0.0000E+00
    -19.780  0.0000E+00  0.0000E+00  0.0000E+00
    -19.679  0.0000E+00  0.0000E+00  0.0000E+00
    -19.578  0.0000E+00  0.0000E+00  0.0000E+00
    -19.477  0.0000E+00  0.0000E+00  0.0000E+00
    -19.375  0.0000E+00  0.0000E+00  0.0000E+00
    -19.274  0.0000E+00  0.0000E+00  0.0000E+00
    -19.173  0.0000E+00  0.0000E+00  0.0000E+00
    -19.071  0.0000E+00  0.0000E+00  0.0000E+00
    -18.970  0.0000E+00  0.0000E+00  0.0000E+00
    -18.869  0.0000E+00  0.0000E+00  0.0000E+00
    -18.768  0.0000E+00  0.0000E+00  0.0000E+00
    -18.666  0.0000E+00  0.0000E+00  0.0000E+00
    -18.565  0.0000E+00  0.0000E+00  0.0000E+00
    -18.464  0.0000E+00  0.0000E+00  0.0000E+00
    -18.363  0.0000E+00  0.0000E+00  0.0000E+00
    -18.261  0.0000E+00  0.0000E+00  0.0000E+00
    -18.160  0.0000E+00  0.0000E+00  0.0000E+00
    -18.059  0.0000E+00  0.0000E+00  0.0000E+00
    -17.958  0.0000E+00  0.0000E+00  0.0000E+00
    -17.856  0.0000E+00  0.0000E+00  0.0000E+00
    -17.755  0.0000E+00  0.0000E+00  0.0000E+00
    -17.654  0.0000E+00  0.0000E+00  0.0000E+00
    -17.553  0.0000E+00  0.0000E+00  0.0000E+00
    -17.451  0.0000E+00  0.0000E+00  0.0000E+00
    -17.350  0.0000E+00  0.0000E+00  0.0000E+00
    -17.249  0.0000E+00  0.0000E+00  0.0000E+00
    -17.148  0.0000E+00  0.0000E+00  0.0000E+00
    -17.046  0.0000E+00  0.0000E+00  0.0000E+00
    -16.945  0.0000E+00  0.0000E+00  0.0000E+00
    -16.844  0.0000E+00  0.0000E+00  0.0000E+00
    -16.743  0.3371E-07  0.2054E-07  0.3309E-08
    -16.641  0.5723E-04  0.3526E-04  0.6322E-05
    -16.540  0.1427E-04  0.7036E-05  0.8881E-06
    -16.439  0.2402E-04  0.2077E-04  0.6081E-05
    -16.338  0.5950E-04  0.6841E-04  0.1010E-04
    -16.236  0.5130E-04  0.2958E-04  0.3556E-05
    -16.135  0.0000E+00  0.0000E+00  0.0000E+00
    -16.034  0.0000E+00  0.0000E+00  0.0000E+00
    -15.933  0.0000E+00  0.0000E+00  0.0000E+00
    -15.831  0.0000E+00  0.0000E+00  0.0000E+00
    -15.730  0.0000E+00  0.0000E+00  0.0000E+00
    -15.629  0.0000E+00  0.0000E+00  0.0000E+00
    -15.528  0.0000E+00  0.0000E+00  0.0000E+00
    -15.426  0.0000E+00  0.0000E+00  0.0000E+00
    -15.325  0.0000E+00  0.0000E+00  0.0000E+00
    -15.224  0.0000E+00  0.0000E+00  0.0000E+00
    -15.123  0.0000E+00  0.0000E+00  0.0000E+00
    -15.021  0.0000E+00  0.0000E+00  0.0000E+00
    -14.920  0.0000E+00  0.0000E+00  0.0000E+00
    -14.819  0.0000E+00  0.0000E+00  0.0000E+00
    -14.718  0.0000E+00  0.0000E+00  0.0000E+00
    -14.616  0.1309E-15  0.6324E-16  0.3792E-17
    -14.515  0.2177E-03  0.1931E-03  0.1329E-04
    -14.414  0.2313E-04  0.1761E-05  0.1142E-06
    -14.313  0.3135E-02  0.2255E-02  0.1223E-03
    -14.211  0.2404E-02  0.2917E-02  0.8651E-04
    -14.110  0.6596E-03  0.3569E-02  0.1263E-03
    -14.009  0.2209E-02  0.6471E-02  0.4634E-03
    -13.908  0.1036E-02  0.3353E-02  0.4119E-03
    -13.806  0.1209E-02  0.2692E-02  0.4041E-03
    -13.705  0.3955E-03  0.1038E-02  0.1052E-03
    -13.604  0.0000E+00  0.0000E+00  0.0000E+00
    -13.503  0.0000E+00  0.0000E+00  0.0000E+00
    -13.401  0.0000E+00  0.0000E+00  0.0000E+00
    -13.300  0.0000E+00  0.0000E+00  0.0000E+00
    -13.199  0.0000E+00  0.0000E+00  0.0000E+00
    -13.098  0.0000E+00  0.0000E+00  0.0000E+00
    -12.996  0.0000E+00  0.0000E+00  0.0000E+00
    -12.895  0.0000E+00  0.0000E+00  0.0000E+00
    -12.794  0.0000E+00  0.0000E+00  0.0000E+00
    -12.693  0.0000E+00  0.0000E+00  0.0000E+00
    -12.591  0.0000E+00  0.0000E+00  0.0000E+00
    -12.490  0.0000E+00  0.0000E+00  0.0000E+00
    -12.389  0.0000E+00  0.0000E+00  0.0000E+00
    -12.288  0.0000E+00  0.0000E+00  0.0000E+00
    -12.186  0.0000E+00  0.0000E+00  0.0000E+00
    -12.085  0.0000E+00  0.0000E+00  0.0000E+00
    -11.984  0.0000E+00  0.0000E+00  0.0000E+00
    -11.883  0.0000E+00  0.0000E+00  0.0000E+00
    -11.781  0.0000E+00  0.0000E+00  0.0000E+00
    -11.680  0.0000E+00  0.0000E+00  0.0000E+00
    -11.579  0.0000E+00  0.0000E+00  0.0000E+00
    -11.478  0.0000E+00  0.0000E+00  0.0000E+00
    -11.376  0.0000E+00  0.0000E+00  0.0000E+00
    -11.275  0.0000E+00  0.0000E+00  0.0000E+00
    -11.174  0.0000E+00  0.0000E+00  0.0000E+00
    -11.073  0.0000E+00  0.0000E+00  0.0000E+00
    -10.971  0.0000E+00  0.0000E+00  0.0000E+00
    -10.870  0.0000E+00  0.0000E+00  0.0000E+00
    -10.769  0.0000E+00  0.0000E+00  0.0000E+00
    -10.668  0.0000E+00  0.0000E+00  0.0000E+00
    -10.566  0.0000E+00  0.0000E+00  0.0000E+00
    -10.465  0.0000E+00  0.0000E+00  0.0000E+00
    -10.364  0.0000E+00  0.0000E+00  0.0000E+00
    -10.263  0.0000E+00  0.0000E+00  0.0000E+00
    -10.161  0.0000E+00  0.0000E+00  0.0000E+00
    -10.060  0.0000E+00  0.0000E+00  0.0000E+00
     -9.959  0.0000E+00  0.0000E+00  0.0000E+00
     -9.858  0.0000E+00  0.0000E+00  0.0000E+00
     -9.756  0.0000E+00  0.0000E+00  0.0000E+00
     -9.655  0.0000E+00  0.0000E+00  0.0000E+00
     -9.554  0.0000E+00  0.0000E+00  0.0000E+00
     -9.453  0.0000E+00  0.0000E+00  0.0000E+00
     -9.351  0.0000E+00  0.0000E+00  0.0000E+00
     -9.250  0.0000E+00  0.0000E+00  0.0000E+00
     -9.149  0.0000E+00  0.0000E+00  0.0000E+00
     -9.048  0.0000E+00  0.0000E+00  0.0000E+00
     -8.946  0.0000E+00  0.0000E+00  0.0000E+00
     -8.845  0.0000E+00  0.0000E+00  0.0000E+00
     -8.744  0.0000E+00  0.0000E+00  0.0000E+00
     -8.643  0.0000E+00  0.0000E+00  0.0000E+00
     -8.541  0.0000E+00  0.0000E+00  0.0000E+00
     -8.440  0.0000E+00  0.0000E+00  0.0000E+00
     -8.339  0.0000E+00  0.0000E+00  0.0000E+00
     -8.238  0.8353E-13  0.5739E-09  0.1247E-10
     -8.136  0.7394E-07  0.5080E-03  0.1103E-04
     -8.035  0.4430E-07  0.1454E-02  0.6996E-05
     -7.934  0.1672E-05  0.1237E-01  0.3644E-04
     -7.833  0.1152E-05  0.2254E-02  0.1720E-04
     -7.731  0.7113E-05  0.3663E-01  0.6277E-04
     -7.630  0.5436E-05  0.2991E-01  0.4265E-04
     -7.529  0.4290E-05  0.1326E-01  0.5468E-05
     -7.428  0.4630E-04  0.2498E+00  0.7841E-04
     -7.326  0.1183E-04  0.1114E+00  0.1787E-04
     -7.225  0.9152E-04  0.1388E+02  0.8946E-04
     -7.124  0.6910E-04  0.1373E+02  0.8859E-04
     -7.023  0.5096E-04  0.8860E+00  0.6175E-04
     -6.921  0.2030E-04  0.1117E-01  0.7506E-05
     -6.820  0.2220E-04  0.2280E-01  0.1429E-04
     -6.719  0.0000E+00  0.0000E+00  0.0000E+00
     -6.618  0.9241E-09  0.3541E-06  0.2494E-09
     -6.516  0.9433E-05  0.3615E-02  0.2546E-05
     -6.415  0.0000E+00  0.0000E+00  0.0000E+00
     -6.314  0.0000E+00  0.0000E+00  0.0000E+00
     -6.213  0.0000E+00  0.0000E+00  0.0000E+00
     -6.111  0.0000E+00  0.0000E+00  0.0000E+00
     -6.010  0.0000E+00  0.0000E+00  0.0000E+00
     -5.909  0.0000E+00  0.0000E+00  0.0000E+00
     -5.808  0.0000E+00  0.0000E+00  0.0000E+00
     -5.706  0.0000E+00  0.0000E+00  0.0000E+00
     -5.605  0.0000E+00  0.0000E+00  0.0000E+00
     -5.504  0.0000E+00  0.0000E+00  0.0000E+00
     -5.403  0.0000E+00  0.0000E+00  0.0000E+00
     -5.301  0.0000E+00  0.0000E+00  0.0000E+00
     -5.200  0.0000E+00  0.0000E+00  0.0000E+00
     -5.099  0.0000E+00  0.0000E+00  0.0000E+00
     -4.998  0.0000E+00  0.0000E+00  0.0000E+00
     -4.896  0.0000E+00  0.0000E+00  0.0000E+00
     -4.795  0.0000E+00  0.0000E+00  0.0000E+00
     -4.694  0.0000E+00  0.0000E+00  0.0000E+00
     -4.593  0.0000E+00  0.0000E+00  0.0000E+00
     -4.491  0.0000E+00  0.0000E+00  0.0000E+00
     -4.390  0.0000E+00  0.0000E+00  0.0000E+00
     -4.289  0.0000E+00  0.0000E+00  0.0000E+00
     -4.187  0.0000E+00  0.0000E+00  0.0000E+00
     -4.086  0.0000E+00  0.0000E+00  0.0000E+00
     -3.985  0.0000E+00  0.0000E+00  0.0000E+00
     -3.884  0.0000E+00  0.0000E+00  0.0000E+00
     -3.782  0.0000E+00  0.0000E+00  0.0000E+00
     -3.681  0.0000E+00  0.0000E+00  0.0000E+00
     -3.580  0.0000E+00  0.0000E+00  0.0000E+00
     -3.479  0.0000E+00  0.0000E+00  0.0000E+00
     -3.377  0.1829E-05  0.1661E-02  0.5734E-04
     -3.276  0.5002E-03  0.1849E-01  0.1327E-02
     -3.175  0.5016E-03  0.1657E-01  0.1477E-02
     -3.074  0.2869E-03  0.1085E-01  0.1268E-02
     -2.972  0.4987E-05  0.4012E-02  0.2890E-03
     -2.871  0.3085E-04  0.3090E-02  0.3379E-03
     -2.770  0.6226E-05  0.7060E-03  0.6954E-04
     -2.669  0.3521E-03  0.1037E-01  0.6404E-03
     -2.567  0.1308E-02  0.3220E-01  0.1844E-02
     -2.466  0.1508E-02  0.2322E-01  0.1284E-02
     -2.365  0.2758E-02  0.2275E-01  0.2956E-02
     -2.264  0.4710E-02  0.2356E-01  0.4136E-02
     -2.162  0.4840E-02  0.9604E-02  0.2739E-02
     -2.061  0.7852E-02  0.1850E-01  0.2396E-02
     -1.960  0.1152E-01  0.4127E-01  0.4557E-02
     -1.859  0.5796E-02  0.4868E-01  0.2353E-02
     -1.757  0.3944E-02  0.7924E-01  0.4184E-02
     -1.656  0.3759E-02  0.1001E+00  0.9387E-02
     -1.555  0.3409E-02  0.1093E+00  0.1431E-01
     -1.454  0.2444E-02  0.6703E-01  0.1791E-01
     -1.352  0.3761E-02  0.6364E-01  0.1738E-01
     -1.251  0.6926E-02  0.7311E-01  0.1612E-01
     -1.150  0.1179E-02  0.6824E-01  0.1371E-01
     -1.049  0.1263E-02  0.6694E-01  0.9927E-02
     -0.947  0.5515E-03  0.5558E-02  0.1679E-02
     -0.846  0.1150E-02  0.2945E-01  0.6232E-02
     -0.745  0.1858E-03  0.8313E-02  0.1240E-02
     -0.644  0.8941E-04  0.2265E-03  0.1157E-03
     -0.542  0.2424E-03  0.3414E-02  0.8918E-03
     -0.441  0.1969E-03  0.3225E-02  0.4543E-03
     -0.340  0.5956E-04  0.1873E-02  0.9654E-03
     -0.239  0.3101E-04  0.1496E-02  0.5055E-03
     -0.137  0.6241E-11  0.9646E-06  0.1535E-05
     -0.036  0.1949E-04  0.1404E-02  0.2799E-03
      0.065  0.1052E-04  0.2853E-03  0.2943E-03
      0.166  0.0000E+00  0.0000E+00  0.0000E+00
      0.268  0.0000E+00  0.0000E+00  0.0000E+00
      0.369  0.3622E-09  0.1632E-07  0.1895E-07
      0.470  0.3388E-05  0.1526E-03  0.1772E-03
      0.571  0.0000E+00  0.0000E+00  0.0000E+00
      0.673  0.0000E+00  0.0000E+00  0.0000E+00
      0.774  0.0000E+00  0.0000E+00  0.0000E+00
      0.875  0.0000E+00  0.0000E+00  0.0000E+00
      0.976  0.0000E+00  0.0000E+00  0.0000E+00
      1.078  0.0000E+00  0.0000E+00  0.0000E+00
      1.179  0.0000E+00  0.0000E+00  0.0000E+00
      1.280  0.0000E+00  0.0000E+00  0.0000E+00
      1.381  0.0000E+00  0.0000E+00  0.0000E+00
      1.483  0.0000E+00  0.0000E+00  0.0000E+00
      1.584  0.0000E+00  0.0000E+00  0.0000E+00
      1.685  0.0000E+00  0.0000E+00  0.0000E+00
      1.786  0.0000E+00  0.0000E+00  0.0000E+00
      1.888  0.0000E+00  0.0000E+00  0.0000E+00
      1.989  0.0000E+00  0.0000E+00  0.0000E+00
      2.090  0.0000E+00  0.0000E+00  0.0000E+00
      2.191  0.0000E+00  0.0000E+00  0.0000E+00
      2.293  0.0000E+00  0.0000E+00  0.0000E+00
      2.394  0.0000E+00  0.0000E+00  0.0000E+00
      2.495  0.1916E-16  0.2429E-15  0.3809E-15
      2.596  0.1524E-03  0.1805E-02  0.2100E-02
      2.698  0.3383E-03  0.6508E-03  0.2337E-02
      2.799  0.2405E-03  0.1707E-02  0.1766E-02
      2.900  0.4323E-03  0.1396E-02  0.2022E-02
      3.001  0.3552E-03  0.2555E-02  0.6138E-02
      3.103  0.7489E-04  0.1969E-03  0.8623E-03
      3.204  0.8874E-03  0.2423E-02  0.4163E-02
      3.305  0.7663E-03  0.2623E-02  0.3086E-02
      3.406  0.9386E-03  0.4788E-02  0.6001E-02
      3.508  0.4423E-03  0.1723E-02  0.3584E-02
      3.609  0.9439E-04  0.3816E-03  0.1241E-03
      3.710  0.0000E+00  0.0000E+00  0.0000E+00
      3.811  0.0000E+00  0.0000E+00  0.0000E+00
      3.913  0.0000E+00  0.0000E+00  0.0000E+00
      4.014  0.1533E-07  0.1394E-07  0.4466E-07
      4.115  0.1751E-02  0.2011E-02  0.6676E-02
      4.216  0.3331E-04  0.3324E-03  0.1613E-02
      4.318  0.1116E-02  0.2000E-02  0.1456E-01
      4.419  0.1640E-02  0.3892E-02  0.9068E-02
      4.520  0.1727E-02  0.5330E-02  0.1455E-01
      4.621  0.1455E-02  0.7921E-02  0.7995E-02
      4.723  0.1532E-02  0.3218E-02  0.7320E-02
      4.824  0.1402E-01  0.3681E-02  0.8384E-02
      4.925  0.4515E-02  0.4021E-02  0.8369E-02
      5.026  0.0000E+00  0.0000E+00  0.0000E+00
      5.128  0.2521E-08  0.1676E-07  0.5565E-07
      5.229  0.3918E-02  0.7842E-02  0.3017E-01
      5.330  0.1477E-01  0.7505E-02  0.1810E-01
      5.431  0.1162E-01  0.7987E-02  0.1591E-01
      5.533  0.3753E-02  0.3621E-03  0.8793E-02
      5.634  0.1576E-01  0.4601E-02  0.8121E-02
      5.735  0.1175E-01  0.1874E-02  0.3378E-01
      5.836  0.1049E-01  0.5161E-02  0.3337E-01
      5.938  0.1450E-01  0.6538E-02  0.6306E-01
      6.039  0.3540E-01  0.1393E-01  0.8275E-01
      6.140  0.5244E-01  0.2344E-01  0.1336E+00
      6.241  0.2601E-01  0.1956E-01  0.2307E+00
      6.343  0.4352E-01  0.2631E-01  0.5542E+00
      6.444  0.1872E-01  0.1801E-01  0.3822E+00
      6.545  0.3164E-01  0.3629E-01  0.5172E+00
      6.646  0.1405E-01  0.1598E-01  0.1794E+00
      6.748  0.3486E-02  0.1047E-02  0.2701E-01
      6.849  0.0000E+00  0.0000E+00  0.0000E+00
      6.950  0.0000E+00  0.0000E+00  0.0000E+00
      7.051  0.0000E+00  0.0000E+00  0.0000E+00
      7.153  0.0000E+00  0.0000E+00  0.0000E+00
      7.254  0.0000E+00  0.0000E+00  0.0000E+00
      7.355  0.0000E+00  0.0000E+00  0.0000E+00
      7.456  0.0000E+00  0.0000E+00  0.0000E+00
      7.558  0.0000E+00  0.0000E+00  0.0000E+00
      7.659  0.0000E+00  0.0000E+00  0.0000E+00
      7.760  0.0000E+00  0.0000E+00  0.0000E+00
      7.861  0.0000E+00  0.0000E+00  0.0000E+00
      7.963  0.0000E+00  0.0000E+00  0.0000E+00
      8.064  0.0000E+00  0.0000E+00  0.0000E+00
      8.06395576    -22.31154964  301      0.49539233      1.00000000
    -22.312  0.0000E+00  0.0000E+00  0.0000E+00
    -22.210  0.0000E+00  0.0000E+00  0.0000E+00
    -22.109  0.0000E+00  0.0000E+00  0.0000E+00
    -22.008  0.0000E+00  0.0000E+00  0.0000E+00
    -21.907  0.0000E+00  0.0000E+00  0.0000E+00
    -21.805  0.0000E+00  0.0000E+00  0.0000E+00
    -21.704  0.0000E+00  0.0000E+00  0.0000E+00
    -21.603  0.0000E+00  0.0000E+00  0.0000E+00
    -21.502  0.0000E+00  0.0000E+00  0.0000E+00
    -21.400  0.0000E+00  0.0000E+00  0.0000E+00
    -21.299  0.0000E+00  0.0000E+00  0.0000E+00
    -21.198  0.0000E+00  0.0000E+00  0.0000E+00
    -21.097  0.0000E+00  0.0000E+00  0.0000E+00
    -20.995  0.0000E+00  0.0000E+00  0.0000E+00
    -20.894  0.9762E-04  0.4714E-07  0.4817E-08
    -20.793  0.4607E-05  0.3204E-08  0.5336E-09
    -20.692  0.1736E+02  0.4210E-04  0.4123E-05
    -20.590  0.0000E+00  0.0000E+00  0.0000E+00
    -20.489  0.0000E+00  0.0000E+00  0.0000E+00
    -20.388  0.0000E+00  0.0000E+00  0.0000E+00
    -20.287  0.0000E+00  0.0000E+00  0.0000E+00
    -20.185  0.0000E+00  0.0000E+00  0.0000E+00
    -20.084  0.0000E+00  0.0000E+00  0.0000E+00
    -19.983  0.0000E+00  0.0000E+00  0.0000E+00
    -19.882  0.0000E+00  0.0000E+00  0.0000E+00
    -19.780  0.0000E+00  0.0000E+00  0.0000E+00
    -19.679  0.0000E+00  0.0000E+00  0.0000E+00
    -19.578  0.0000E+00  0.0000E+00  0.0000E+00
    -19.477  0.0000E+00  0.0000E+00  0.0000E+00
    -19.375  0.0000E+00  0.0000E+00  0.0000E+00
    -19.274  0.0000E+00  0.0000E+00  0.0000E+00
    -19.173  0.0000E+00  0.0000E+00  0.0000E+00
    -19.071  0.0000E+00  0.0000E+00  0.0000E+00
    -18.970  0.0000E+00  0.0000E+00  0.0000E+00
    -18.869  0.0000E+00  0.0000E+00  0.0000E+00
    -18.768  0.0000E+00  0.0000E+00  0.0000E+00
    -18.666  0.0000E+00  0.0000E+00  0.0000E+00
    -18.565  0.0000E+00  0.0000E+00  0.0000E+00
    -18.464  0.0000E+00  0.0000E+00  0.0000E+00
    -18.363  0.0000E+00  0.0000E+00  0.0000E+00
    -18.261  0.0000E+00  0.0000E+00  0.0000E+00
    -18.160  0.0000E+00  0.0000E+00  0.0000E+00
    -18.059  0.0000E+00  0.0000E+00  0.0000E+00
    -17.958  0.0000E+00  0.0000E+00  0.0000E+00
    -17.856  0.0000E+00  0.0000E+00  0.0000E+00
    -17.755  0.0000E+00  0.0000E+00  0.0000E+00
    -17.654  0.0000E+00  0.0000E+00  0.0000E+00
    -17.553  0.0000E+00  0.0000E+00  0.0000E+00
    -17.451  0.0000E+00  0.0000E+00  0.0000E+00
    -17.350  0.0000E+00  0.0000E+00  0.0000E+00
    -17.249  0.0000E+00  0.0000E+00  0.0000E+00
    -17.148  0.0000E+00  0.0000E+00  0.0000E+00
    -17.046  0.0000E+00  0.0000E+00  0.0000E+00
    -16.945  0.0000E+00  0.0000E+00  0.0000E+00
    -16.844  0.0000E+00  0.0000E+00  0.0000E+00
    -16.743  0.6225E-06  0.4361E-06  0.8459E-07
    -16.641  0.5040E-04  0.2497E-04  0.4176E-05
    -16.540  0.4028E-05  0.2238E-05  0.3502E-06
    -16.439  0.2889E-04  0.1927E-04  0.4567E-05
    -16.338  0.5582E-04  0.6473E-04  0.1029E-04
    -16.236  0.6940E-04  0.3827E-04  0.4621E-05
    -16.135  0.0000E+00  0.0000E+00  0.0000E+00
    -16.034  0.0000E+00  0.0000E+00  0.0000E+00
    -15.933  0.0000E+00  0.0000E+00  0.0000E+00
    -15.831  0.0000E+00  0.0000E+00  0.0000E+00
    -15.730  0.0000E+00  0.0000E+00  0.0000E+00
    -15.629  0.0000E+00  0.0000E+00  0.0000E+00
    -15.528  0.0000E+00  0.0000E+00  0.0000E+00
    -15.426  0.0000E+00  0.0000E+00  0.0000E+00
    -15.325  0.0000E+00  0.0000E+00  0.0000E+00
    -15.224  0.0000E+00  0.0000E+00  0.0000E+00
    -15.123  0.0000E+00  0.0000E+00  0.0000E+00
    -15.021  0.0000E+00  0.0000E+00  0.0000E+00
    -14.920  0.0000E+00  0.0000E+00  0.0000E+00
    -14.819  0.0000E+00  0.0000E+00  0.0000E+00
    -14.718  0.0000E+00  0.0000E+00  0.0000E+00
    -14.616  0.1862E-15  0.7293E-16  0.2319E-17
    -14.515  0.4762E-03  0.2374E-03  0.7383E-05
    -14.414  0.2455E-04  0.3382E-05  0.4259E-06
    -14.313  0.1962E-02  0.2114E-02  0.1045E-03
    -14.211  0.2418E-02  0.3084E-02  0.9422E-04
    -14.110  0.1194E-02  0.3399E-02  0.1916E-03
    -14.009  0.2183E-02  0.4629E-02  0.3543E-03
    -13.908  0.1102E-02  0.2578E-02  0.2349E-03
    -13.806  0.7835E-03  0.2661E-02  0.3654E-03
    -13.705  0.2175E-03  0.6471E-03  0.1642E-03
    -13.604  0.0000E+00  0.0000E+00  0.0000E+00
    -13.503  0.0000E+00  0.0000E+00  0.0000E+00
    -13.401  0.0000E+00  0.0000E+00  0.0000E+00
    -13.300  0.0000E+00  0.0000E+00  0.0000E+00