 vasp.5.4.4.18Apr17-6-g9f103f2a35 (build Jun 22 2020 09:27:21) complex           
 executed on tx2_gcc-7.3_libsci-1 date 2021.10.11  21:27:05
 running on   64 total cores
 distrk:  each k-point on   64 cores,    1 groups
 distr:  one band on NCORES_PER_BAND=   8 cores,    8 groups


--------------------------------------------------------------------------------------------------------


 INCAR:
 POTCAR:    PAW_PBE Cs_sv 08Apr2002               
 POTCAR:    PAW_PBE Pb_d 06Sep2000                
 POTCAR:    PAW_PBE Br 06Sep2000                  
 POTCAR:    PAW_PBE Cs_sv 08Apr2002               
   SHA256 =  c1463496f0f6037ed62c6012a8013a89ee9ad6ffb38599dcd6c079e7ed31779b Cs
   COPYR  = (c) Copyright 08Apr2002 Georg Kresse                                
   COPYR  = This file is part of the software VASP. Any use, copying, and all ot
   COPYR  = If you do not have a valid VASP license, you may not use, copy or di
   VRHFIN =Cs: 5s5p6s                                                           
   LEXCH  = PE                                                                  
   EATOM  =   555.6835 eV,   40.8416 Ry                                         
                                                                                
   TITEL  = PAW_PBE Cs_sv 08Apr2002                                             
   LULTRA =        F    use ultrasoft PP ?                                      
   IUNSCR =        1    unscreen: 0-lin 1-nonlin 2-no                           
   RPACOR =    2.200    partial core radius                                     
   POMASS =  132.900; ZVAL   =    9.000    mass and valenz                      
   RCORE  =    2.500    outmost cutoff radius                                   
   RWIGS  =    2.500; RWIGS  =    1.323    wigner-seitz radius (au A)           
   ENMAX  =  220.318; ENMIN  =  165.238 eV                                      
   RCLOC  =    2.207    cutoff for local pot                                    
   LCOR   =        T    correct aug charges                                     
   LPAW   =        T    paw PP                                                  
   EAUG   =  407.933                                                            
   DEXC   =    0.000                                                            
   RMAX   =    2.554    core radius for proj-oper                               
   RAUG   =    1.300    factor for augmentation sphere                          
   RDEP   =    2.590    radius for radial grids                                 
   RDEPT  =    2.117    core radius for aug-charge                              
                                                                                
   Atomic configuration                                                         
   13 entries                                                                   
     n  l   j            E        occ.                                          
     1  0  0.50    -35790.1377   2.0000                                         
     2  0  0.50     -5613.6201   2.0000                                         
     2  1  1.50     -5035.0101   6.0000                                         
     3  0  0.50     -1167.0767   2.0000                                         
     3  1  1.50      -980.9754   6.0000                                         
     3  2  2.50      -708.0703  10.0000                                         
     4  0  0.50      -220.2386   2.0000                                         
     4  1  1.50      -160.7596   6.0000                                         
     4  2  2.50       -74.2354  10.0000                                         
     5  0  0.50       -26.7287   2.0000                                         
     6  0  0.50        -2.0862   1.0000                                         
     5  1  1.50       -13.5159   6.0000                                         
     5  2  2.50        -0.4136   0.0000                                         
   Description                                                                  
     l       E           TYP  RCUT    TYP  RCUT                                 
     0    -26.7287425     23  1.900                                             
     0     -2.0862306     23  1.900                                             
     1    -13.5158719     23  2.500                                             
     1     -2.7211652     23  2.500                                             
     2     -0.4136171     23  2.500                                             
  local pseudopotential read in
  partial core-charges read in
  partial kinetic energy density read in
  atomic valenz-charges read in
  non local Contribution for L=           0  read in
    real space projection operators read in
  non local Contribution for L=           0  read in
    real space projection operators read in
  non local Contribution for L=           1  read in
    real space projection operators read in
  non local Contribution for L=           1  read in
    real space projection operators read in
  non local Contribution for L=           2  read in
    real space projection operators read in
    PAW grid and wavefunctions read in

   number of l-projection  operators is LMAX  =           5
   number of lm-projection operators is LMMAX =          13

 POTCAR:    PAW_PBE Pb_d 06Sep2000                
   SHA256 =  fb885b08f0fba73a15f6a6b0e39bd200c13ec96ef97cf3ecd8e63bade5137abd Pb
   COPYR  = (c) Copyright 06Sep2000 Georg Kresse                                
   COPYR  = This file is part of the software VASP. Any use, copying, and all ot
   COPYR  = If you do not have a valid VASP license, you may not use, copy or di
   VRHFIN =Pb:                                                                  
   LEXCH  = PE                                                                  
   EATOM  =  1661.6185 eV,  122.1255 Ry                                         
                                                                                
   TITEL  = PAW_PBE Pb_d 06Sep2000                                              
   LULTRA =        F    use ultrasoft PP ?                                      
   IUNSCR =        1    unscreen: 0-lin 1-nonlin 2-no                           
   RPACOR =    2.200    partial core radius                                     
   POMASS =  207.200; ZVAL   =   14.000    mass and valenz                      
   RCORE  =    2.500    outmost cutoff radius                                   
   RWIGS  =    3.260; RWIGS  =    1.725    wigner-seitz radius (au A)           
   ENMAX  =  237.835; ENMIN  =  178.376 eV                                      
   ICORE  =        3    local potential                                         
   LCOR   =        T    correct aug charges                                     
   LPAW   =        T    paw PP                                                  
   EAUG   =  391.914                                                            
   DEXC   =    0.000                                                            
   RMAX   =    2.565    core radius for proj-oper                               
   RAUG   =    1.300    factor for augmentation sphere                          
   RDEP   =    2.643    radius for radial grids                                 
   RDEPT  =    2.092    core radius for aug-charge                              
                                                                                
   Atomic configuration                                                         
   16 entries                                                                   
     n  l   j            E        occ.                                          
     1  0  0.50    -88091.8466   2.0000                                         
     2  0  0.50    -15753.4197   2.0000                                         
     2  1  1.50    -13508.1797   6.0000                                         
     3  0  0.50     -3781.7194   2.0000                                         
     3  1  1.50     -3138.2529   6.0000                                         
     3  2  2.50     -2483.2977  10.0000                                         
     4  0  0.50      -856.2895   2.0000                                         
     4  1  1.50      -645.4942   6.0000                                         
     4  2  2.50      -401.8768  10.0000                                         
     4  3  3.50      -132.9059  14.0000                                         
     5  0  0.50      -144.0950   2.0000                                         
     5  1  1.50       -85.7879   6.0000                                         
     5  2  2.50       -21.1769  10.0000                                         
     6  0  0.50       -12.0372   2.0000                                         
     6  1  1.50        -3.4971   2.0000                                         
     5  3  2.50        -2.7212   0.0000                                         
   Description                                                                  
     l       E           TYP  RCUT    TYP  RCUT                                 
     2    -21.1768523     23  2.500                                             
     2      1.3605826     23  2.500                                             
     0    -12.0371562     23  2.500                                             
     0     13.6058260     23  2.500                                             
     1     -3.4971339     23  2.500                                             
     1     13.6058260     23  2.500                                             
     3     -1.3605826      7  2.500                                             
  local pseudopotential read in
  partial core-charges read in
  partial kinetic energy density read in
  atomic valenz-charges read in
  non local Contribution for L=           2  read in
    real space projection operators read in
  non local Contribution for L=           2  read in
    real space projection operators read in
  non local Contribution for L=           0  read in
    real space projection operators read in
  non local Contribution for L=           0  read in
    real space projection operators read in
  non local Contribution for L=           1  read in
    real space projection operators read in
  non local Contribution for L=           1  read in
    real space projection operators read in
    PAW grid and wavefunctions read in

   number of l-projection  operators is LMAX  =           6
   number of lm-projection operators is LMMAX =          18

 POTCAR:    PAW_PBE Br 06Sep2000                  
   SHA256 =  96a73d2954943bbee26f4990d676cc6c3bf44b8dd2c75cd4b3b825d8403f0103 Br
   COPYR  = (c) Copyright 06Sep2000 Georg Kresse                                
   COPYR  = This file is part of the software VASP. Any use, copying, and all ot
   COPYR  = If you do not have a valid VASP license, you may not use, copy or di
   VRHFIN =Br: s2p5                                                             
   LEXCH  = PE                                                                  
   EATOM  =   368.4488 eV,   27.0802 Ry                                         
                                                                                
   TITEL  = PAW_PBE Br 06Sep2000                                                
   LULTRA =        F    use ultrasoft PP ?                                      
   IUNSCR =        1    unscreen: 0-lin 1-nonlin 2-no                           
   RPACOR =    1.900    partial core radius                                     
   POMASS =   79.904; ZVAL   =    7.000    mass and valenz                      
   RCORE  =    2.100    outmost cutoff radius                                   
   RWIGS  =    2.200; RWIGS  =    1.164    wigner-seitz radius (au A)           
   ENMAX  =  216.285; ENMIN  =  162.214 eV                                      
   ICORE  =        3    local potential                                         
   LCOR   =        T    correct aug charges                                     
   LPAW   =        T    paw PP                                                  
   EAUG   =  503.852                                                            
   DEXC   =    0.000                                                            
   RMAX   =    2.139    core radius for proj-oper                               
   RAUG   =    1.300    factor for augmentation sphere                          
   RDEP   =    2.186    radius for radial grids                                 
   RDEPT  =    1.890    core radius for aug-charge                              
                                                                                
   Atomic configuration                                                         
   10 entries                                                                   
     n  l   j            E        occ.                                          
     1  0  0.50    -13316.2796   2.0000                                         
     2  0  0.50     -1732.8239   2.0000                                         
     2  1  1.50     -1528.2193   6.0000                                         
     3  0  0.50      -238.0460   2.0000                                         
     3  1  1.50      -173.4609   6.0000                                         
     3  2  2.50       -66.7132  10.0000                                         
     4  0  0.50       -20.1334   2.0000                                         
     4  1  0.50        -7.8591   5.0000                                         
     4  2  2.50        -8.1635   0.0000                                         
     4  3  2.50        -8.1635   0.0000                                         
   Description                                                                  
     l       E           TYP  RCUT    TYP  RCUT                                 
     0    -20.1333652     23  2.100                                             
     0    -21.4939478     23  2.100                                             
     1     -7.8591052     23  2.100                                             
     1     -3.1608434     23  2.100                                             
     2     -8.1634956     23  2.100                                             
     3     -1.3605826      7  2.100                                             
  local pseudopotential read in
  partial core-charges read in
  partial kinetic energy density read in
  atomic valenz-charges read in
  non local Contribution for L=           0  read in
    real space projection operators read in
  non local Contribution for L=           0  read in
    real space projection operators read in
  non local Contribution for L=           1  read in
    real space projection operators read in
  non local Contribution for L=           1  read in
    real space projection operators read in
  non local Contribution for L=           2  read in
    real space projection operators read in
    PAW grid and wavefunctions read in

   number of l-projection  operators is LMAX  =           5
   number of lm-projection operators is LMMAX =          13

 Optimization of the real space projectors (new method)

 maximal supplied QI-value         = 15.12
 optimisation between [QCUT,QGAM] = [  8.77, 17.69] = [ 21.53, 87.61] Ry 
 Optimized for a Real-space Cutoff    1.85 Angstroem

   l    n(q)    QCUT    max X(q) W(low)/X(q) W(high)/X(q)  e(spline) 
   0     10     8.768    25.322    0.81E-04    0.51E-04    0.48E-06
   0     10     8.768    99.187    0.78E-04    0.50E-04    0.47E-06
   1      9     8.768    11.761    0.21E-03    0.20E-03    0.37E-06
   1      9     8.768     8.275    0.24E-03    0.22E-03    0.41E-06
   2      9     8.768     3.829    0.23E-04    0.15E-03    0.18E-06
 Optimization of the real space projectors (new method)

 maximal supplied QI-value         = 15.12
 optimisation between [QCUT,QGAM] = [  8.77, 17.69] = [ 21.53, 87.61] Ry 
 Optimized for a Real-space Cutoff    1.59 Angstroem

   l    n(q)    QCUT    max X(q) W(low)/X(q) W(high)/X(q)  e(spline) 
   2      7     8.768     3.846    0.48E-04    0.11E-03    0.11E-06
   2      7     8.768     8.593    0.20E-03    0.22E-04    0.24E-06
   0      8     8.768    20.082    0.68E-04    0.88E-04    0.41E-07
   0      8     8.768     8.597    0.89E-04    0.13E-03    0.59E-07
   1      8     8.768    33.223    0.15E-03    0.53E-04    0.87E-07
   1      8     8.768    15.899    0.14E-03    0.44E-04    0.78E-07
 Optimization of the real space projectors (new method)

 maximal supplied QI-value         = 17.95
 optimisation between [QCUT,QGAM] = [  8.80, 17.59] = [ 21.67, 86.68] Ry 
 Optimized for a Real-space Cutoff    1.59 Angstroem

   l    n(q)    QCUT    max X(q) W(low)/X(q) W(high)/X(q)  e(spline) 
   0      8     8.797   175.082    0.82E-04    0.14E-03    0.89E-07
   0      8     8.797   174.004    0.79E-04    0.14E-03    0.86E-07
   1      8     8.797    54.315    0.16E-03    0.14E-04    0.30E-06
   1      8     8.797    42.441    0.16E-03    0.14E-04    0.30E-06
   2      7     8.797     3.596    0.92E-04    0.15E-03    0.85E-07
  PAW_PBE Cs_sv 08Apr2002               :
 energy of atom  1       EATOM= -555.6835
 kinetic energy error for atom=    0.0069 (will be added to EATOM!!)
  PAW_PBE Pb_d 06Sep2000                :
 energy of atom  2       EATOM=-1661.6185
 kinetic energy error for atom=    0.0498 (will be added to EATOM!!)
  PAW_PBE Br 06Sep2000                  :
 energy of atom  3       EATOM= -368.4488
 kinetic energy error for atom=    0.0072 (will be added to EATOM!!)


 POSCAR: Cs8 Pb8 Br23                            
  positions in direct lattice
  No initial velocities read in

 METAGGA = SCAN     LMAXTAU =  6    LMIXTAU =  F

 exchange correlation table for  LEXCH =        8
   RHO(1)=    0.500       N(1)  =     2000
   RHO(2)=  100.500       N(2)  =     4000

 VTST: version 3.2, (02/03/18)

 CHAIN: initializing optimizer
 
 OPT: Using VASP Conjugate-Gradient optimizer
 CHAIN: Read ICHAIN            0

 POSCAR: Cs8 Pb8 Br23                            
  positions in direct lattice
  No initial velocities read in



--------------------------------------------------------------------------------------------------------


 ion  position               nearest neighbor table
   1  0.255  0.239  0.197-
   2  0.779  0.246  0.715-
   3  0.747  0.760  0.262-
   4  0.197  0.750  0.774-
   5  0.291  0.249  0.731-
   6  0.792  0.248  0.228-
   7  0.736  0.753  0.803-
   8  0.217  0.753  0.288-
   9  0.999  0.000  0.999-  19 2.96  34 2.97  21 2.98  29 3.00  31 3.00  28 3.01
  10  0.499  0.005  0.493-  20 2.92  32 2.98  33 2.98  27 3.00  30 3.00
  11  0.497  0.001  0.997-  31 2.99  29 2.99  17 2.99  33 3.01  22 3.02  27 3.05
  12  0.003  0.000  0.503-  23 2.97  28 2.98  18 2.98  34 3.00  30 3.00  32 3.04
  13  0.501  0.502  0.997-  37 2.92  35 2.96  22 2.97  17 2.97  24 2.99
  14  0.003  0.497  0.503-  23 2.96  18 2.98  38 2.99  26 3.02  25 3.03  36 3.04
  15  1.000  0.499  0.000-  19 2.96  21 2.97  26 2.98  24 3.00  38 3.02  35 3.04
  16  0.503  0.491  0.506-  39 2.49  20 2.96  37 2.98  36 2.98  25 2.98
  17  0.469  0.750  0.957-  13 2.97  11 2.99
  18  0.975  0.749  0.480-  14 2.98  12 2.98
  19  0.970  0.250  0.975-  15 2.96   9 2.96
  20  0.453  0.247  0.459-  10 2.92  16 2.96
  21  0.021  0.750  0.031-  15 2.97   9 2.98
  22  0.522  0.254  0.041-  13 2.97  11 3.02
  23  0.035  0.249  0.539-  14 2.96  12 2.97
  24  0.248  0.469  0.954-  13 2.99  15 3.00
  25  0.748  0.461  0.453-  16 2.98  14 3.03
  26  0.947  0.530  0.750-  15 2.98  14 3.02
  27  0.549  0.035  0.746-  10 3.00  11 3.05
  28  0.042  0.025  0.254-  12 2.98   9 3.01
  29  0.750  0.975  0.044-  11 2.99   9 3.00
  30  0.255  0.959  0.549-  10 3.00  12 3.00
  31  0.246  0.030  0.944-  11 2.99   9 3.00
  32  0.747  0.032  0.450-  10 2.98  12 3.04
  33  0.444  0.965  0.244-  10 2.98  11 3.01
  34  0.947  0.968  0.749-   9 2.97  12 3.00
  35  0.750  0.530  0.054-  13 2.96  15 3.04
  36  0.258  0.537  0.552-  16 2.98  14 3.04
  37  0.554  0.469  0.757-  13 2.92  16 2.98
  38  0.052  0.470  0.255-  14 2.99  15 3.02
  39  0.500  0.655  0.371-  16 2.49


IMPORTANT INFORMATION: All symmetrisations will be switched off!
NOSYMM: (Re-)initialisation of all symmetry stuff for point group C_1.



 KPOINTS: 1x1x1                                   

Automatic generation of k-mesh.
Space group operators:
 irot       det(A)        alpha          n_x          n_y          n_z        tau_x        tau_y        tau_z
    1     1.000000     0.000001     1.000000     0.000000     0.000000     0.000000     0.000000     0.000000
 
 Subroutine IBZKPT returns following result:
 ===========================================
 
 Found      8 irreducible k-points:
 
 Following reciprocal coordinates:
            Coordinates               Weight
  0.000000  0.000000  0.000000      1.000000
  0.500000  0.000000  0.000000      1.000000
  0.000000  0.500000  0.000000      1.000000
  0.500000  0.500000  0.000000      1.000000
  0.000000  0.000000  0.500000      1.000000
  0.500000  0.000000  0.500000      1.000000
  0.000000  0.500000  0.500000      1.000000
  0.500000  0.500000  0.500000      1.000000
 
 Following cartesian coordinates:
            Coordinates               Weight
 -0.000000  0.000000  0.000000      1.000000
  0.029563  0.000000  0.031093      1.000000
 -0.000000  0.042626  0.000000      1.000000
  0.029563  0.042626  0.031093      1.000000
 -0.029563  0.000000  0.031093      1.000000
  0.000000  0.000000  0.062187      1.000000
 -0.029563  0.042626  0.031093      1.000000
  0.000000  0.042626  0.062187      1.000000
 


--------------------------------------------------------------------------------------------------------




 Dimension of arrays:
   k-points           NKPTS =      8   k-points in BZ     NKDIM =      8   number of bands    NBANDS=    208
   number of dos      NEDOS =    301   number of ions     NIONS =     39
   non local maximal  LDIM  =      6   non local SUM 2l+1 LMDIM =     18
   total plane-waves  NPLWV = 343000
   max r-space proj   IRMAX =   5734   max aug-charges    IRDMAX=  91523
   dimension x,y,z NGX =    70 NGY =   70 NGZ =   70
   dimension x,y,z NGXF=   140 NGYF=  140 NGZF=  140
   support grid    NGXF=   280 NGYF=  280 NGZF=  280
   ions per type =               8   8  23
   NGX,Y,Z   is equivalent  to a cutoff of   9.97,  9.92,  9.97 a.u.
   NGXF,Y,Z  is equivalent  to a cutoff of  19.95, 19.84, 19.95 a.u.

 SYSTEM =  CsPbBr3 cubic bulk                      
 POSCAR =  Cs8 Pb8 Br23                            

 Startparameter for this run:
   NWRITE =      2    write-flag & timer
   PREC   = accura    normal or accurate (medium, high low for compatibility)
   ISTART =      0    job   : 0-new  1-cont  2-samecut
   ICHARG =      2    charge: 1-file 2-atom 10-const
   ISPIN  =      1    spin polarized calculation?
   LNONCOLLINEAR =      F non collinear calculations
   LSORBIT =      F    spin-orbit coupling
   INIWAV =      1    electr: 0-lowe 1-rand  2-diag
   LASPH  =      T    aspherical Exc in radial PAW
   METAGGA=      F    non-selfconsistent MetaGGA calc.

 Electronic Relaxation 1
   ENCUT  =  300.0 eV  22.05 Ry    4.70 a.u.  16.48 16.57 16.48*2*pi/ulx,y,z
   ENINI  =  300.0     initial cutoff
   ENAUG  =  503.9 eV  augmentation charge cutoff
   NELM   =    200;   NELMIN=  2; NELMDL= -5     # of ELM steps 
   EDIFF  = 0.1E-05   stopping-criterion for ELM
   LREAL  =      T    real-space projection
   NLSPLINE    = F    spline interpolate recip. space projectors
   LCOMPAT=      F    compatible to vasp.4.4
   GGA_COMPAT  = T    GGA compatible to vasp.4.4-vasp.4.6
   LMAXPAW     = -100 max onsite density
   LMAXMIX     =    2 max onsite mixed and CHGCAR
   VOSKOWN=      0    Vosko Wilk Nusair interpolation
   ROPT   =   -0.00025  -0.00025  -0.00025
 Ionic relaxation
   EDIFFG = -.1E-01   stopping-criterion for IOM
   NSW    =      0    number of steps for IOM
   NBLOCK =      1;   KBLOCK =      1    inner block; outer block 
   IBRION =     -1    ionic relax: 0-MD 1-quasi-New 2-CG
   NFREE  =      1    steps in history (QN), initial steepest desc. (CG)
   ISIF   =      2    stress and relaxation
   IWAVPR =     10    prediction:  0-non 1-charg 2-wave 3-comb
   ISYM   =      0    0-nonsym 1-usesym 2-fastsym
   LCORR  =      T    Harris-Foulkes like correction to forces

   POTIM  = 0.5000    time-step for ionic-motion
   TEIN   =    0.0    initial temperature
   TEBEG  =    0.0;   TEEND  =   0.0 temperature during run
   SMASS  =  -3.00    Nose mass-parameter (am)
   estimated Nose-frequenzy (Omega)   =  0.10E-29 period in steps =****** mass=  -0.311E-26a.u.
   SCALEE = 1.0000    scale energy and forces
   NPACO  =    256;   APACO  = 16.0  distance and # of slots for P.C.
   PSTRESS=    0.0 pullay stress

  Mass of Ions in am
   POMASS = 132.90207.20 79.90
  Ionic Valenz
   ZVAL   =   9.00 14.00  7.00
  Atomic Wigner-Seitz radii
   RWIGS  =  -1.00 -1.00 -1.00
  virtual crystal weights 
   VCA    =   1.00  1.00  1.00
   NELECT =     344.0000    total number of electrons
   NUPDOWN=       0.0000    fix difference up-down

 DOS related values:
   EMIN   =  10.00;   EMAX   =-10.00  energy-range for DOS
   EFERMI =   0.00
   ISMEAR =     0;   SIGMA  =   0.01  broadening in eV -4-tet -1-fermi 0-gaus

 Electronic relaxation 2 (details)
   IALGO  =     38    algorithm
   LDIAG  =      T    sub-space diagonalisation (order eigenvalues)
   LSUBROT=      F    optimize rotation matrix (better conditioning)
   TURBO    =      0    0=normal 1=particle mesh
   IRESTART =      0    0=no restart 2=restart with 2 vectors
   NREBOOT  =      0    no. of reboots
   NMIN     =      0    reboot dimension
   EREF     =   0.00    reference energy to select bands
   IMIX   =      4    mixing-type and parameters
     AMIX     =   0.40;   BMIX     =  1.00
     AMIX_MAG =   1.60;   BMIX_MAG =  1.00
     AMIN     =   0.10
     WC   =   100.;   INIMIX=   1;  MIXPRE=   1;  MAXMIX= -45

 Intra band minimization:
   WEIMIN = 0.0000     energy-eigenvalue tresh-hold
   EBREAK =  0.12E-08  absolut break condition
   DEPER  =   0.30     relativ break condition  

   TIME   =   0.40     timestep for ELM

  volume/ion in A,a.u.               =      40.90       276.00
  Fermi-wavevector in a.u.,A,eV,Ry     =   0.981747  1.855232 13.113654  0.963826
  Thomas-Fermi vector in A             =   2.112777

 Write flags
   LWAVE        =      F    write WAVECAR
   LDOWNSAMPLE  =      F    k-point downsampling of WAVECAR
   LCHARG       =      F    write CHGCAR
   LVTOT        =      F    write LOCPOT, total local potential
   LVHAR        =      T    write LOCPOT, Hartree potential only
   LELF         =      F    write electronic localiz. function (ELF)
   LORBIT       =     10    0 simple, 1 ext, 2 COOP (PROOUT), +10 PAW based schemes


 Dipole corrections
   LMONO  =      F    monopole corrections only (constant potential shift)
   LDIPOL =      F    correct potential (dipole corrections)
   IDIPOL =      0    1-x, 2-y, 3-z, 4-all directions 
   EPSILON=  1.0000000 bulk dielectric constant

 Exchange correlation treatment:
   GGA     =    --    GGA type
   LEXCH   =     8    internal setting for exchange type
   VOSKOWN=      0    Vosko Wilk Nusair interpolation
   LHFCALC =     F    Hartree Fock is set to
   LHFONE  =     F    Hartree Fock one center treatment
   AEXX    =    0.0000 exact exchange contribution

 Linear response parameters
   LEPSILON=     F    determine dielectric tensor
   LRPA    =     F    only Hartree local field effects (RPA)
   LNABLA  =     F    use nabla operator in PAW spheres
   LVEL    =     F    velocity operator in full k-point grid
   LINTERFAST=   F  fast interpolation
   KINTER  =     0    interpolate to denser k-point grid
   CSHIFT  =0.1000    complex shift for real part using Kramers Kronig
   OMEGAMAX=  -1.0    maximum frequency
   DEG_THRESHOLD= 0.2000000E-02 threshold for treating states as degnerate
   RTIME   =   -0.100 relaxation time in fs
  (WPLASMAI=    0.000 imaginary part of plasma frequency in eV, 0.658/RTIME)
   DFIELD  = 0.0000000 0.0000000 0.0000000 field for delta impulse in time

 Orbital magnetization related:
   ORBITALMAG=     F  switch on orbital magnetization
   LCHIMAG   =     F  perturbation theory with respect to B field
   DQ        =  0.001000  dq finite difference perturbation B field
   LLRAUG    =     F  two centre corrections for induced B field



--------------------------------------------------------------------------------------------------------


 Static calculation
 charge density and potential will be updated during run
 non-spin polarized calculation
 Variant of blocked Davidson
 Davidson routine will perform the subspace rotation
 perform sub-space diagonalisation
    after iterative eigenvector-optimisation
 modified Broyden-mixing scheme, WC =      100.0
 initial mixing is a Kerker type mixing with AMIX =  0.4000 and BMIX =      1.0000
 Hartree-type preconditioning will be used
 using additional bands           36
 real space projection scheme for non local part
 use partial core corrections
 calculate Harris-corrections to forces   (improved forces if not selfconsistent)
 use gradient corrections 
 use of overlap-Matrix (Vanderbilt PP)
 Gauss-broadening in eV      SIGMA  =   0.01


--------------------------------------------------------------------------------------------------------


  energy-cutoff  :      300.00
  volume of cell :     1595.09
      direct lattice vectors                 reciprocal lattice vectors
     8.456489000  0.000000000  8.040301000     0.059126193 -0.000000000  0.062186727
     0.000000000 11.729847000  0.000000000     0.000000000  0.085252604 -0.000000000
    -8.456489000  0.000000000  8.040301000    -0.059126193  0.000000000  0.062186727

  length of vectors
    11.668703715 11.729847000 11.668703715     0.085808482  0.085252604  0.085808482



 k-points in units of 2pi/SCALE and weight: 1x1x1                                   
  -0.00000000  0.00000000  0.00000000       0.125
   0.02956310  0.00000000  0.03109336       0.125
  -0.00000000  0.04262630  0.00000000       0.125
   0.02956310  0.04262630  0.03109336       0.125
  -0.02956310  0.00000000  0.03109336       0.125
   0.00000000  0.00000000  0.06218673       0.125
  -0.02956310  0.04262630  0.03109336       0.125
   0.00000000  0.04262630  0.06218673       0.125

 k-points in reciprocal lattice and weights: 1x1x1                                   
   0.00000000  0.00000000  0.00000000       0.125
   0.50000000  0.00000000  0.00000000       0.125
   0.00000000  0.50000000  0.00000000       0.125
   0.50000000  0.50000000  0.00000000       0.125
   0.00000000  0.00000000  0.50000000       0.125
   0.50000000  0.00000000  0.50000000       0.125
   0.00000000  0.50000000  0.50000000       0.125
   0.50000000  0.50000000  0.50000000       0.125

 position of ions in fractional coordinates (direct lattice) 
   0.25497600  0.23915200  0.19689900
   0.77891000  0.24572600  0.71453200
   0.74729800  0.76049700  0.26194100
   0.19738000  0.74979100  0.77399500
   0.29060800  0.24874800  0.73142200
   0.79213900  0.24774200  0.22801600
   0.73602100  0.75274400  0.80315700
   0.21685300  0.75324300  0.28809300
   0.99910900  0.00039500  0.99860400
   0.49941700  0.00476800  0.49317400
   0.49707100  0.00092400  0.99720000
   0.00303300  0.00023900  0.50319100
   0.50137500  0.50190800  0.99685500
   0.00293300  0.49718200  0.50277400
   0.99975400  0.49888700  0.00040900
   0.50279500  0.49067500  0.50579000
   0.46901000  0.75010600  0.95729500
   0.97488300  0.74861600  0.47972200
   0.96953400  0.24981000  0.97465200
   0.45336100  0.24715000  0.45878900
   0.02112600  0.74963100  0.03120600
   0.52247700  0.25352600  0.04137700
   0.03517800  0.24889400  0.53853600
   0.24835300  0.46911600  0.95371300
   0.74845700  0.46146900  0.45273100
   0.94659500  0.53020000  0.74999300
   0.54855900  0.03519900  0.74618100
   0.04156400  0.02516900  0.25391100
   0.74997200  0.97514400  0.04392300
   0.25535400  0.95948300  0.54887800
   0.24572400  0.02958600  0.94418400
   0.74716300  0.03211500  0.44993000
   0.44414900  0.96528100  0.24421000
   0.94702200  0.96832400  0.74907100
   0.74993800  0.52981300  0.05442000
   0.25807000  0.53692900  0.55202400
   0.55397000  0.46883500  0.75743400
   0.05242500  0.46953700  0.25494700
   0.50013200  0.65545100  0.37146900

 position of ions in cartesian coordinates  (Angst):
   0.49112751  2.80521637  3.63321101
   0.54441185  2.88232838 12.00772321
   4.10441613  8.92051345  8.11458534
  -4.87613840  8.79493371  7.81014738
  -3.72773874  2.91777598  8.21742883
   4.77049994  2.90597576  8.20235327
  -0.56773485  8.82957195 12.37545441
  -0.60244028  8.83542514  4.05991783
   0.00427053  0.00463329 16.06221383
   0.05279386  0.05592791  7.98073041
  -4.22933539  0.01083838 12.01438862
  -4.22958063  0.00280343  4.07019333
  -4.19002117  5.88730405 12.04622017
  -4.22689992  5.83186879  4.06603650
   8.45095000  5.85186818  8.04161157
  -0.02532718  5.75554268  8.10932698
  -4.12917673  8.79862861 11.46792152
   4.18732355  8.78115114 11.69546204
  -0.04328031  2.93023308 15.63184064
  -0.04590182  2.89903169  7.33396056
  -0.08524141  8.79305694  0.42076503
   4.06841686  2.97382119  4.53355588
  -4.25664139  2.91948854  4.61283325
  -5.96486908  5.50265891  9.66497246
   2.50080367  5.41296077  9.65791308
   1.66256265  6.21916488 13.64107819
  -1.67118827  0.41287888 10.41009932
  -1.79571007  0.29522852  2.37570794
   5.97069560 11.43828992  6.38315476
  -2.48218248 11.25458879  6.46626735
  -5.90651931  0.34703925  9.56721848
   2.51354759  0.37670404  9.62498804
   1.69078195 11.32259844  5.53461356
   1.67397045 11.35829237 13.63709824
   5.88164032  6.21462543  6.46728043
  -2.48581877  6.29809502  6.51339960
  -1.72059108  5.49936282 10.54408289
  -1.71262507  5.50759717  2.47136340
   1.08803724  7.68833995  7.00793439



--------------------------------------------------------------------------------------------------------


 k-point  1 :   0.0000 0.0000 0.0000  plane waves:   18809
 k-point  2 :   0.5000 0.0000 0.0000  plane waves:   18808
 k-point  3 :   0.0000 0.5000 0.0000  plane waves:   18794
 k-point  4 :   0.5000 0.5000 0.0000  plane waves:   18804
 k-point  5 :   0.0000 0.0000 0.5000  plane waves:   18808
 k-point  6 :   0.5000 0.0000 0.5000  plane waves:   18790
 k-point  7 :   0.0000 0.5000 0.5000  plane waves:   18804
 k-point  8 :   0.5000 0.5000 0.5000  plane waves:   18800

 maximum and minimum number of plane-waves per node :      2389     2304

 maximum number of plane-waves:     18809
 maximum index in each direction: 
   IXMAX=   16   IYMAX=   16   IZMAX=   16
   IXMIN=  -16   IYMIN=  -17   IZMIN=  -16


 real space projection operators:
  total allocation   :      16740.30 KBytes
  max/ min on nodes  :       2186.91       1826.59


 parallel 3D FFT for wavefunctions:
    minimum data exchange during FFTs selected (reduces bandwidth)
 parallel 3D FFT for charge:
    minimum data exchange during FFTs selected (reduces bandwidth)


 total amount of memory used by VASP MPI-rank0    60646. kBytes
=======================================================================

   base      :      30000. kBytes
   nonlr-proj:       6481. kBytes
   fftplans  :       8423. kBytes
   grid      :       7465. kBytes
   one-center:         77. kBytes
   wavefun   :       8200. kBytes

     INWAV:  cpu time    0.0000: real time    0.0000
 Broyden mixing: mesh for mixing (old mesh)
   NGX = 33   NGY = 33   NGZ = 33
  (NGX  =140   NGY  =140   NGZ  =140)
  gives a total of  35937 points

 initial charge density was supplied:
 charge density of overlapping atoms calculated
 number of electron     345.0000000 magnetization 
 keeping initial charge density in first step


--------------------------------------------------------------------------------------------------------


 Maximum index for non-local projection operator          730
 Maximum index for augmentation-charges         3040 (set IRDMAX)


--------------------------------------------------------------------------------------------------------


 First call to EWALD:  gamma=   0.152
 Maximum number of real-space cells 3x 3x 3
 Maximum number of reciprocal cells 3x 3x 3

    FEWALD:  cpu time    0.0037: real time    0.0037


--------------------------------------- Iteration      1(   1)  ---------------------------------------


    POTLOK:  cpu time    0.2626: real time    0.2703
    SETDIJ:  cpu time    1.1996: real time    1.1996
     EDDAV:  cpu time   16.5923: real time   16.5980
       DOS:  cpu time    0.0012: real time    0.0012
    --------------------------------------------
      LOOP:  cpu time   18.0557: real time   18.0693

 eigenvalue-minimisations  :  3472
 total energy-change (2. order) : 0.1337810E+04  (-0.1105612E+05)
 number of electron     345.0000000 magnetization 
 augmentation part      345.0000000 magnetization 

 Free energy of the ion-electron system (eV)
  ---------------------------------------------------
  alpha Z        PSCENC =       872.70583573
  Ewald energy   TEWEN  =    -17890.86421600
  -Hartree energ DENC   =     -7462.76612108
  -exchange      EXHF   =         0.00000000
  -V(xc)+E(xc)   XCENC  =       908.40037613
  PAW double counting   =     21345.28103884   -22405.85761495
  entropy T*S    EENTRO =        -0.00098859
  eigenvalues    EBANDS =      -241.20716803
  atomic energy  EATOM  =     26212.11861568
  Solvation  Ediel_sol  =         0.00000000
  ---------------------------------------------------
  free energy    TOTEN  =      1337.80975773 eV

  energy without entropy =     1337.81074633  energy(sigma->0) =     1337.81025203


--------------------------------------------------------------------------------------------------------




--------------------------------------- Iteration      1(   2)  ---------------------------------------


     EDDAV:  cpu time   18.3702: real time   18.4137
       DOS:  cpu time    0.0004: real time    0.0004
    --------------------------------------------
      LOOP:  cpu time   18.3706: real time   18.4141

 eigenvalue-minimisations  :  4072
 total energy-change (2. order) :-0.2446077E+04  (-0.2359135E+04)
 number of electron     345.0000000 magnetization 
 augmentation part      345.0000000 magnetization 

 Free energy of the ion-electron system (eV)
  ---------------------------------------------------
  alpha Z        PSCENC =       872.70583573
  Ewald energy   TEWEN  =    -17890.86421600
  -Hartree energ DENC   =     -7462.76612108
  -exchange      EXHF   =         0.00000000
  -V(xc)+E(xc)   XCENC  =       908.40037613
  PAW double counting   =     21345.28103884   -22405.85761495
  entropy T*S    EENTRO =        -0.00000000
  eigenvalues    EBANDS =     -2687.28558819
  atomic energy  EATOM  =     26212.11861568
  Solvation  Ediel_sol  =         0.00000000
  ---------------------------------------------------
  free energy    TOTEN  =     -1108.26767384 eV

  energy without entropy =    -1108.26767384  energy(sigma->0) =    -1108.26767384


--------------------------------------------------------------------------------------------------------




--------------------------------------- Iteration      1(   3)  ---------------------------------------


     EDDAV:  cpu time   19.2999: real time   19.3506
       DOS:  cpu time    0.0004: real time    0.0004
    --------------------------------------------
      LOOP:  cpu time   19.3003: real time   19.3510

 eigenvalue-minimisations  :  4400
 total energy-change (2. order) :-0.3655116E+03  (-0.3634412E+03)
 number of electron     345.0000000 magnetization 
 augmentation part      345.0000000 magnetization 

 Free energy of the ion-electron system (eV)
  ---------------------------------------------------
  alpha Z        PSCENC =       872.70583573
  Ewald energy   TEWEN  =    -17890.86421600
  -Hartree energ DENC   =     -7462.76612108
  -exchange      EXHF   =         0.00000000
  -V(xc)+E(xc)   XCENC  =       908.40037613
  PAW double counting   =     21345.28103884   -22405.85761495
  entropy T*S    EENTRO =        -0.00000000
  eigenvalues    EBANDS =     -3052.79715895
  atomic energy  EATOM  =     26212.11861568
  Solvation  Ediel_sol  =         0.00000000
  ---------------------------------------------------
  free energy    TOTEN  =     -1473.77924460 eV

  energy without entropy =    -1473.77924460  energy(sigma->0) =    -1473.77924460


--------------------------------------------------------------------------------------------------------




--------------------------------------- Iteration      1(   4)  ---------------------------------------


     EDDAV:  cpu time   17.9811: real time   18.0392
       DOS:  cpu time    0.0004: real time    0.0004
    --------------------------------------------
      LOOP:  cpu time   17.9815: real time   18.0396

 eigenvalue-minimisations  :  3944
 total energy-change (2. order) :-0.1264145E+02  (-0.1260605E+02)
 number of electron     345.0000000 magnetization 
 augmentation part      345.0000000 magnetization 

 Free energy of the ion-electron system (eV)
  ---------------------------------------------------
  alpha Z        PSCENC =       872.70583573
  Ewald energy   TEWEN  =    -17890.86421600
  -Hartree energ DENC   =     -7462.76612108
  -exchange      EXHF   =         0.00000000
  -V(xc)+E(xc)   XCENC  =       908.40037613
  PAW double counting   =     21345.28103884   -22405.85761495
  entropy T*S    EENTRO =        -0.00000000
  eigenvalues    EBANDS =     -3065.43861076
  atomic energy  EATOM  =     26212.11861568
  Solvation  Ediel_sol  =         0.00000000
  ---------------------------------------------------
  free energy    TOTEN  =     -1486.42069640 eV

  energy without entropy =    -1486.42069640  energy(sigma->0) =    -1486.42069640


--------------------------------------------------------------------------------------------------------




--------------------------------------- Iteration      1(   5)  ---------------------------------------


     EDDAV:  cpu time   19.3169: real time   19.3569
       DOS:  cpu time    0.0004: real time    0.0004
    CHARGE:  cpu time    2.7051: real time    2.7052
    MIXING:  cpu time    0.0014: real time    0.0014
    --------------------------------------------
      LOOP:  cpu time   22.0239: real time   22.0640

 eigenvalue-minimisations  :  4400
 total energy-change (2. order) :-0.5781991E+00  (-0.5779364E+00)
 number of electron     343.9999998 magnetization 
 augmentation part       -5.0614149 magnetization 

 Broyden mixing:
  rms(total) = 0.10472E+01    rms(broyden)= 0.10466E+01
  rms(prec ) = 0.14225E+01
  weight for this iteration     100.00

 Free energy of the ion-electron system (eV)
  ---------------------------------------------------
  alpha Z        PSCENC =       872.70583573
  Ewald energy   TEWEN  =    -17890.86421600
  -Hartree energ DENC   =     -7462.76612108
  -exchange      EXHF   =         0.00000000
  -V(xc)+E(xc)   XCENC  =       908.40037613
  PAW double counting   =     21345.28103884   -22405.85761495
  entropy T*S    EENTRO =        -0.00000000
  eigenvalues    EBANDS =     -3066.01680982
  atomic energy  EATOM  =     26212.11861568
  Solvation  Ediel_sol  =         0.00000000
  ---------------------------------------------------
  free energy    TOTEN  =     -1486.99889547 eV

  energy without entropy =    -1486.99889547  energy(sigma->0) =    -1486.99889547


--------------------------------------------------------------------------------------------------------




--------------------------------------- Iteration      1(   6)  ---------------------------------------


    POTLOK:  cpu time    0.2661: real time    0.3045
    SETDIJ:  cpu time    1.1957: real time    1.1958
     EDDAV:  cpu time   19.0559: real time   19.0568
       DOS:  cpu time    0.0004: real time    0.0004
    CHARGE:  cpu time    2.6969: real time    2.6970
    MIXING:  cpu time    0.0016: real time    0.0016
    --------------------------------------------
      LOOP:  cpu time   23.2167: real time   23.2561

 eigenvalue-minimisations  :  4320
 total energy-change (2. order) : 0.7769058E+02  (-0.2361155E+01)
 number of electron     343.9999998 magnetization 
 augmentation part       -3.6676946 magnetization 

 Broyden mixing:
  rms(total) = 0.74310E+00    rms(broyden)= 0.74302E+00
  rms(prec ) = 0.91862E+00
  weight for this iteration     100.00

 eigenvalues of (default mixing * dielectric matrix)
  average eigenvalue GAMMA=   1.2422
  1.2422

 Free energy of the ion-electron system (eV)
  ---------------------------------------------------
  alpha Z        PSCENC =       872.70583573
  Ewald energy   TEWEN  =    -17890.86421600
  -Hartree energ DENC   =     -7444.02610772
  -exchange      EXHF   =         0.00000000
  -V(xc)+E(xc)   XCENC  =       936.40819836
  PAW double counting   =     21654.23748641   -22713.26108859
  entropy T*S    EENTRO =        -0.00000000
  eigenvalues    EBANDS =     -3036.62704322
  atomic energy  EATOM  =     26212.11861568
  Solvation  Ediel_sol  =         0.00000000
  ---------------------------------------------------
  free energy    TOTEN  =     -1409.30831935 eV

  energy without entropy =    -1409.30831935  energy(sigma->0) =    -1409.30831935


--------------------------------------------------------------------------------------------------------




--------------------------------------- Iteration      1(   7)  ---------------------------------------


    POTLOK:  cpu time    0.2683: real time    0.3149
    SETDIJ:  cpu time    1.1918: real time    1.1919
     EDDAV:  cpu time   18.4893: real time   18.4902
       DOS:  cpu time    0.0004: real time    0.0004
    CHARGE:  cpu time    2.6977: real time    2.6978
    MIXING:  cpu time    0.0015: real time    0.0015
    --------------------------------------------
      LOOP:  cpu time   22.6491: real time   22.6968

 eigenvalue-minimisations  :  4136
 total energy-change (2. order) : 0.5160345E+00  (-0.8554424E+00)
 number of electron     343.9999998 magnetization 
 augmentation part       -3.1150761 magnetization 

 Broyden mixing:
  rms(total) = 0.37234E+00    rms(broyden)= 0.37232E+00
  rms(prec ) = 0.41425E+00
  weight for this iteration     100.00

 eigenvalues of (default mixing * dielectric matrix)
  average eigenvalue GAMMA=   1.3153
  1.3153  1.3153

 Free energy of the ion-electron system (eV)
  ---------------------------------------------------
  alpha Z        PSCENC =       872.70583573
  Ewald energy   TEWEN  =    -17890.86421600
  -Hartree energ DENC   =     -7487.36557100
  -exchange      EXHF   =         0.00000000
  -V(xc)+E(xc)   XCENC  =       941.56101498
  PAW double counting   =     22298.43174857   -23355.74739369
  entropy T*S    EENTRO =        -0.00000000
  eigenvalues    EBANDS =     -2999.63231911
  atomic energy  EATOM  =     26212.11861568
  Solvation  Ediel_sol  =         0.00000000
  ---------------------------------------------------
  free energy    TOTEN  =     -1408.79228484 eV

  energy without entropy =    -1408.79228484  energy(sigma->0) =    -1408.79228484


--------------------------------------------------------------------------------------------------------




--------------------------------------- Iteration      1(   8)  ---------------------------------------


    POTLOK:  cpu time    0.2785: real time    0.3181
    SETDIJ:  cpu time    1.1963: real time    1.1964
     EDDAV:  cpu time   18.3937: real time   18.3946
       DOS:  cpu time    0.0004: real time    0.0004
    CHARGE:  cpu time    2.6915: real time    2.6917
    MIXING:  cpu time    0.0018: real time    0.0018
    --------------------------------------------
      LOOP:  cpu time   22.5623: real time   22.6030

 eigenvalue-minimisations  :  4104
 total energy-change (2. order) :-0.1723403E+00  (-0.4460245E-01)
 number of electron     343.9999998 magnetization 
 augmentation part       -3.2017626 magnetization 

 Broyden mixing:
  rms(total) = 0.21624E+00    rms(broyden)= 0.21624E+00
  rms(prec ) = 0.24530E+00
  weight for this iteration     100.00

 eigenvalues of (default mixing * dielectric matrix)
  average eigenvalue GAMMA=   1.7013
  1.1177  1.3131  2.6729

 Free energy of the ion-electron system (eV)
  ---------------------------------------------------
  alpha Z        PSCENC =       872.70583573
  Ewald energy   TEWEN  =    -17890.86421600
  -Hartree energ DENC   =     -7493.56298587
  -exchange      EXHF   =         0.00000000
  -V(xc)+E(xc)   XCENC  =       942.28535822
  PAW double counting   =     22541.12921098   -23598.90349475
  entropy T*S    EENTRO =        -0.00000000
  eigenvalues    EBANDS =     -2993.87294915
  atomic energy  EATOM  =     26212.11861568
  Solvation  Ediel_sol  =         0.00000000
  ---------------------------------------------------
  free energy    TOTEN  =     -1408.96462516 eV

  energy without entropy =    -1408.96462516  energy(sigma->0) =    -1408.96462516


--------------------------------------------------------------------------------------------------------




--------------------------------------- Iteration      1(   9)  ---------------------------------------


    POTLOK:  cpu time    0.3101: real time    0.3191
    SETDIJ:  cpu time    1.1951: real time    1.1951
     EDDAV:  cpu time   17.5376: real time   17.5384
       DOS:  cpu time    0.0004: real time    0.0004
    CHARGE:  cpu time    2.7023: real time    2.7024
    MIXING:  cpu time    0.0016: real time    0.0016
    --------------------------------------------
      LOOP:  cpu time   21.7471: real time   21.7570

 eigenvalue-minimisations  :  3800
 total energy-change (2. order) :-0.6411815E-01  (-0.1697218E-01)
 number of electron     343.9999998 magnetization 
 augmentation part       -3.2420448 magnetization 

 Broyden mixing:
  rms(total) = 0.46660E-01    rms(broyden)= 0.46657E-01
  rms(prec ) = 0.56918E-01
  weight for this iteration     100.00

 eigenvalues of (default mixing * dielectric matrix)
  average eigenvalue GAMMA=   1.4741
  2.5322  1.2554  1.2554  0.8533

 Free energy of the ion-electron system (eV)
  ---------------------------------------------------
  alpha Z        PSCENC =       872.70583573
  Ewald energy   TEWEN  =    -17890.86421600
  -Hartree energ DENC   =     -7501.00041761
  -exchange      EXHF   =         0.00000000
  -V(xc)+E(xc)   XCENC  =       944.15079469
  PAW double counting   =     22882.96142537   -23941.68427645
  entropy T*S    EENTRO =        -0.00000000
  eigenvalues    EBANDS =     -2987.41650472
  atomic energy  EATOM  =     26212.11861568
  Solvation  Ediel_sol  =         0.00000000
  ---------------------------------------------------
  free energy    TOTEN  =     -1409.02874331 eV

  energy without entropy =    -1409.02874331  energy(sigma->0) =    -1409.02874331


--------------------------------------------------------------------------------------------------------




--------------------------------------- Iteration      1(  10)  ---------------------------------------


    POTLOK:  cpu time    0.2712: real time    0.3023
    SETDIJ:  cpu time    1.1944: real time    1.1944
     EDDAV:  cpu time   19.7346: real time   19.7357
       DOS:  cpu time    0.0004: real time    0.0004
    CHARGE:  cpu time    2.6941: real time    2.6942
    MIXING:  cpu time    0.0016: real time    0.0016
    --------------------------------------------
      LOOP:  cpu time   23.8962: real time   23.9286

 eigenvalue-minimisations  :  4552
 total energy-change (2. order) :-0.3328317E-02  (-0.2245761E-02)
 number of electron     343.9999998 magnetization 
 augmentation part       -3.2282353 magnetization 

 Broyden mixing:
  rms(total) = 0.32167E-01    rms(broyden)= 0.32166E-01
  rms(prec ) = 0.41527E-01
  weight for this iteration     100.00

 eigenvalues of (default mixing * dielectric matrix)
  average eigenvalue GAMMA=   1.3229
  2.4134  1.3413  1.3413  0.8481  0.6703

 Free energy of the ion-electron system (eV)
  ---------------------------------------------------
  alpha Z        PSCENC =       872.70583573
  Ewald energy   TEWEN  =    -17890.86421600
  -Hartree energ DENC   =     -7499.33842783
  -exchange      EXHF   =         0.00000000
  -V(xc)+E(xc)   XCENC  =       944.00426468
  PAW double counting   =     22850.13142693   -23908.89119901
  entropy T*S    EENTRO =        -0.00000000
  eigenvalues    EBANDS =     -2988.89837181
  atomic energy  EATOM  =     26212.11861568
  Solvation  Ediel_sol  =         0.00000000
  ---------------------------------------------------
  free energy    TOTEN  =     -1409.03207163 eV

  energy without entropy =    -1409.03207163  energy(sigma->0) =    -1409.03207163


--------------------------------------------------------------------------------------------------------




--------------------------------------- Iteration      1(  11)  ---------------------------------------


    POTLOK:  cpu time    0.3129: real time    0.3149
    SETDIJ:  cpu time    1.1948: real time    1.1949
     EDDAV:  cpu time   17.6532: real time   17.6542
       DOS:  cpu time    0.0004: real time    0.0004
    CHARGE:  cpu time    2.7047: real time    2.7048
    MIXING:  cpu time    0.0017: real time    0.0017
    --------------------------------------------
      LOOP:  cpu time   21.8677: real time   21.8707

 eigenvalue-minimisations  :  3824
 total energy-change (2. order) :-0.2400966E-02  (-0.3199408E-03)
 number of electron     343.9999998 magnetization 
 augmentation part       -3.2265905 magnetization 

 Broyden mixing:
  rms(total) = 0.14110E-01    rms(broyden)= 0.14109E-01
  rms(prec ) = 0.22862E-01
  weight for this iteration     100.00

 eigenvalues of (default mixing * dielectric matrix)
  average eigenvalue GAMMA=   1.6098
  2.7765  2.7765  1.2078  1.2078  0.8452  0.8452

 Free energy of the ion-electron system (eV)
  ---------------------------------------------------
  alpha Z        PSCENC =       872.70583573
  Ewald energy   TEWEN  =    -17890.86421600
  -Hartree energ DENC   =     -7498.02011919
  -exchange      EXHF   =         0.00000000
  -V(xc)+E(xc)   XCENC  =       943.94307321
  PAW double counting   =     22831.36466325   -23890.29277455
  entropy T*S    EENTRO =        -0.00000000
  eigenvalues    EBANDS =     -2989.98955073
  atomic energy  EATOM  =     26212.11861568
  Solvation  Ediel_sol  =         0.00000000
  ---------------------------------------------------
  free energy    TOTEN  =     -1409.03447259 eV

  energy without entropy =    -1409.03447259  energy(sigma->0) =    -1409.03447259


--------------------------------------------------------------------------------------------------------




--------------------------------------- Iteration      1(  12)  ---------------------------------------


    POTLOK:  cpu time    0.2522: real time    0.3123
    SETDIJ:  cpu time    1.1956: real time    1.1956
     EDDAV:  cpu time   17.0482: real time   17.0488
       DOS:  cpu time    0.0004: real time    0.0004
    CHARGE:  cpu time    2.6999: real time    2.7000
    MIXING:  cpu time    0.0020: real time    0.0020
    --------------------------------------------
      LOOP:  cpu time   21.1983: real time   21.2591

 eigenvalue-minimisations  :  3624
 total energy-change (2. order) :-0.2917707E-02  (-0.5351133E-03)
 number of electron     343.9999998 magnetization 
 augmentation part       -3.2302240 magnetization 

 Broyden mixing:
  rms(total) = 0.10709E-01    rms(broyden)= 0.10708E-01
  rms(prec ) = 0.13637E-01
  weight for this iteration     100.00

 eigenvalues of (default mixing * dielectric matrix)
  average eigenvalue GAMMA=   1.6132
  2.8678  2.8678  1.3410  1.3410  0.8979  0.9885  0.9885

 Free energy of the ion-electron system (eV)
  ---------------------------------------------------
  alpha Z        PSCENC =       872.70583573
  Ewald energy   TEWEN  =    -17890.86421600
  -Hartree energ DENC   =     -7497.52110443
  -exchange      EXHF   =         0.00000000
  -V(xc)+E(xc)   XCENC  =       943.98936647
  PAW double counting   =     22825.48023520   -23884.66118950
  entropy T*S    EENTRO =        -0.00000000
  eigenvalues    EBANDS =     -2990.28493345
  atomic energy  EATOM  =     26212.11861568
  Solvation  Ediel_sol  =         0.00000000
  ---------------------------------------------------
  free energy    TOTEN  =     -1409.03739030 eV

  energy without entropy =    -1409.03739030  energy(sigma->0) =    -1409.03739030


--------------------------------------------------------------------------------------------------------




--------------------------------------- Iteration      1(  13)  ---------------------------------------


    POTLOK:  cpu time    0.3180: real time    0.3215
    SETDIJ:  cpu time    1.1944: real time    1.1945
     EDDAV:  cpu time   19.2972: real time   19.2981
       DOS:  cpu time    0.0005: real time    0.0005
    CHARGE:  cpu time    2.7040: real time    2.7042
    MIXING:  cpu time    0.0022: real time    0.0022
    --------------------------------------------
      LOOP:  cpu time   23.5164: real time   23.5209

 eigenvalue-minimisations  :  4392
 total energy-change (2. order) : 0.4157791E-03  (-0.1783252E-03)
 number of electron     343.9999998 magnetization 
 augmentation part       -3.2307875 magnetization 

 Broyden mixing:
  rms(total) = 0.46798E-02    rms(broyden)= 0.46791E-02
  rms(prec ) = 0.54454E-02
  weight for this iteration     100.00

 eigenvalues of (default mixing * dielectric matrix)
  average eigenvalue GAMMA=   1.5681
  3.2889  2.3957  1.7416  1.0760  1.0760  1.1809  1.0023  0.7835

 Free energy of the ion-electron system (eV)
  ---------------------------------------------------
  alpha Z        PSCENC =       872.70583573
  Ewald energy   TEWEN  =    -17890.86421600
  -Hartree energ DENC   =     -7498.73320731
  -exchange      EXHF   =         0.00000000
  -V(xc)+E(xc)   XCENC  =       944.06311954
  PAW double counting   =     22826.54358725   -23885.67536569
  entropy T*S    EENTRO =        -0.00000000
  eigenvalues    EBANDS =     -2989.19534372
  atomic energy  EATOM  =     26212.11861568
  Solvation  Ediel_sol  =         0.00000000
  ---------------------------------------------------
  free energy    TOTEN  =     -1409.03697452 eV

  energy without entropy =    -1409.03697452  energy(sigma->0) =    -1409.03697452


--------------------------------------------------------------------------------------------------------




--------------------------------------- Iteration      1(  14)  ---------------------------------------


    POTLOK:  cpu time    0.2917: real time    0.3189
    SETDIJ:  cpu time    1.1949: real time    1.1950
     EDDAV:  cpu time   17.6606: real time   17.6615
       DOS:  cpu time    0.0004: real time    0.0004
    CHARGE:  cpu time    2.7099: real time    2.7101
    MIXING:  cpu time    0.0021: real time    0.0022
    --------------------------------------------
      LOOP:  cpu time   21.8597: real time   21.8880

 eigenvalue-minimisations  :  3832
 total energy-change (2. order) : 0.3122282E-04  (-0.4578656E-04)
 number of electron     343.9999998 magnetization 
 augmentation part       -3.2303875 magnetization 

 Broyden mixing:
  rms(total) = 0.28810E-02    rms(broyden)= 0.28800E-02
  rms(prec ) = 0.36358E-02
  weight for this iteration     100.00

 eigenvalues of (default mixing * dielectric matrix)
  average eigenvalue GAMMA=   1.5839
  3.3305  2.3492  2.3492  1.1636  1.1636  0.8770  0.8770  1.0725  1.0725

 Free energy of the ion-electron system (eV)
  ---------------------------------------------------
  alpha Z        PSCENC =       872.70583573
  Ewald energy   TEWEN  =    -17890.86421600
  -Hartree energ DENC   =     -7498.96114054
  -exchange      EXHF   =         0.00000000
  -V(xc)+E(xc)   XCENC  =       944.07298368
  PAW double counting   =     22828.18564774   -23887.29792429
  entropy T*S    EENTRO =        -0.00000000
  eigenvalues    EBANDS =     -2988.99674529
  atomic energy  EATOM  =     26212.11861568
  Solvation  Ediel_sol  =         0.00000000
  ---------------------------------------------------
  free energy    TOTEN  =     -1409.03694330 eV

  energy without entropy =    -1409.03694330  energy(sigma->0) =    -1409.03694330


--------------------------------------------------------------------------------------------------------




--------------------------------------- Iteration      1(  15)  ---------------------------------------


    POTLOK:  cpu time    0.2913: real time    0.3145
    SETDIJ:  cpu time    1.1938: real time    1.1939
     EDDAV:  cpu time   17.5752: real time   17.5761
       DOS:  cpu time    0.0004: real time    0.0004
    CHARGE:  cpu time    2.7015: real time    2.7017
    MIXING:  cpu time    0.0018: real time    0.0018
    --------------------------------------------
      LOOP:  cpu time   21.7641: real time   21.7884

 eigenvalue-minimisations  :  3800
 total energy-change (2. order) : 0.1272138E-04  (-0.4313346E-05)
 number of electron     343.9999998 magnetization 
 augmentation part       -3.2302254 magnetization 

 Broyden mixing:
  rms(total) = 0.17096E-02    rms(broyden)= 0.17086E-02
  rms(prec ) = 0.22604E-02
  weight for this iteration     100.00

 eigenvalues of (default mixing * dielectric matrix)
  average eigenvalue GAMMA=   1.6540
  3.8718  2.4449  2.4449  1.4151  1.4151  1.1141  1.1141  0.8202  0.9499  0.9499

 Free energy of the ion-electron system (eV)
  ---------------------------------------------------
  alpha Z        PSCENC =       872.70583573
  Ewald energy   TEWEN  =    -17890.86421600
  -Hartree energ DENC   =     -7499.13091059
  -exchange      EXHF   =         0.00000000
  -V(xc)+E(xc)   XCENC  =       944.07916707
  PAW double counting   =     22828.59761036   -23887.70262791
  entropy T*S    EENTRO =        -0.00000000
  eigenvalues    EBANDS =     -2988.84040492
  atomic energy  EATOM  =     26212.11861568
  Solvation  Ediel_sol  =         0.00000000
  ---------------------------------------------------
  free energy    TOTEN  =     -1409.03693058 eV

  energy without entropy =    -1409.03693058  energy(sigma->0) =    -1409.03693058


--------------------------------------------------------------------------------------------------------




--------------------------------------- Iteration      1(  16)  ---------------------------------------


    POTLOK:  cpu time    0.2551: real time    0.3173
    SETDIJ:  cpu time    1.1955: real time    1.1956
     EDDAV:  cpu time   17.5903: real time   17.5911
       DOS:  cpu time    0.0005: real time    0.0005
    CHARGE:  cpu time    2.6970: real time    2.6971
    MIXING:  cpu time    0.0019: real time    0.0019
    --------------------------------------------
      LOOP:  cpu time   21.7404: real time   21.8035

 eigenvalue-minimisations  :  3808
 total energy-change (2. order) :-0.8598489E-04  (-0.4162106E-05)
 number of electron     343.9999998 magnetization 
 augmentation part       -3.2297986 magnetization 

 Broyden mixing:
  rms(total) = 0.78102E-03    rms(broyden)= 0.77880E-03
  rms(prec ) = 0.89977E-03
  weight for this iteration     100.00

 eigenvalues of (default mixing * dielectric matrix)
  average eigenvalue GAMMA=   1.7045
  4.3441  2.8165  2.4207  1.9625  1.0784  1.0784  1.1359  1.1359  0.9822  0.9822
  0.8123

 Free energy of the ion-electron system (eV)
  ---------------------------------------------------
  alpha Z        PSCENC =       872.70583573
  Ewald energy   TEWEN  =    -17890.86421600
  -Hartree energ DENC   =     -7499.07531852
  -exchange      EXHF   =         0.00000000
  -V(xc)+E(xc)   XCENC  =       944.06510879
  PAW double counting   =     22827.47753274   -23886.58113584
  entropy T*S    EENTRO =        -0.00000000
  eigenvalues    EBANDS =     -2988.88343916
  atomic energy  EATOM  =     26212.11861568
  Solvation  Ediel_sol  =         0.00000000
  ---------------------------------------------------
  free energy    TOTEN  =     -1409.03701656 eV

  energy without entropy =    -1409.03701656  energy(sigma->0) =    -1409.03701656


--------------------------------------------------------------------------------------------------------




--------------------------------------- Iteration      1(  17)  ---------------------------------------


    POTLOK:  cpu time    0.2527: real time    0.3125
    SETDIJ:  cpu time    1.1952: real time    1.1953
     EDDAV:  cpu time   17.3917: real time   17.3926
       DOS:  cpu time    0.0006: real time    0.0006
    CHARGE:  cpu time    2.6958: real time    2.6961
    MIXING:  cpu time    0.0024: real time    0.0024
    --------------------------------------------
      LOOP:  cpu time   21.5384: real time   21.5995

 eigenvalue-minimisations  :  3736
 total energy-change (2. order) : 0.1082794E-04  (-0.6525018E-06)
 number of electron     343.9999998 magnetization 
 augmentation part       -3.2297740 magnetization 

 Broyden mixing:
  rms(total) = 0.54877E-03    rms(broyden)= 0.54567E-03
  rms(prec ) = 0.60688E-03
  weight for this iteration     100.00

 eigenvalues of (default mixing * dielectric matrix)
  average eigenvalue GAMMA=   1.6605
  4.3783  2.8988  2.2066  2.2066  1.1894  1.1894  1.1577  1.1577  0.9488  0.9488
  0.8219  0.8219

 Free energy of the ion-electron system (eV)
  ---------------------------------------------------
  alpha Z        PSCENC =       872.70583573
  Ewald energy   TEWEN  =    -17890.86421600
  -Hartree energ DENC   =     -7499.08589092
  -exchange      EXHF   =         0.00000000
  -V(xc)+E(xc)   XCENC  =       944.06383413
  PAW double counting   =     22827.77328609   -23886.87346853
  entropy T*S    EENTRO =        -0.00000000
  eigenvalues    EBANDS =     -2988.87500192
  atomic energy  EATOM  =     26212.11861568
  Solvation  Ediel_sol  =         0.00000000
  ---------------------------------------------------
  free energy    TOTEN  =     -1409.03700573 eV

  energy without entropy =    -1409.03700573  energy(sigma->0) =    -1409.03700573


--------------------------------------------------------------------------------------------------------




--------------------------------------- Iteration      1(  18)  ---------------------------------------


    POTLOK:  cpu time    0.2892: real time    0.3107
    SETDIJ:  cpu time    1.1958: real time    1.1960
     EDDAV:  cpu time   14.5143: real time   14.5149
       DOS:  cpu time    0.0004: real time    0.0004
    --------------------------------------------
      LOOP:  cpu time   15.9998: real time   16.0220

 eigenvalue-minimisations  :  2720
 total energy-change (2. order) : 0.8361121E-06  (-0.2082611E-06)
 number of electron     343.9999998 magnetization 
 augmentation part       -3.2297740 magnetization 

 Free energy of the ion-electron system (eV)
  ---------------------------------------------------
  alpha Z        PSCENC =       872.70583573
  Ewald energy   TEWEN  =    -17890.86421600
  -Hartree energ DENC   =     -7499.08273615
  -exchange      EXHF   =         0.00000000
  -V(xc)+E(xc)   XCENC  =       944.06331990
  PAW double counting   =     22827.74226579   -23886.84209860
  entropy T*S    EENTRO =        -0.00000000
  eigenvalues    EBANDS =     -2988.87799127
  atomic energy  EATOM  =     26212.11861568
  Solvation  Ediel_sol  =         0.00000000
  ---------------------------------------------------
  free energy    TOTEN  =     -1409.03700490 eV

  energy without entropy =    -1409.03700490  energy(sigma->0) =    -1409.03700490


--------------------------------------------------------------------------------------------------------




 average (electrostatic) potential at core
  the test charge radii are     1.1312  1.1541  1.0178
  (the norm of the test charge is              1.0000)
       1 -55.2781       2 -55.1790       3 -55.2033       4 -55.1595       5 -55.2207
       6 -55.1640       7 -55.4037       8 -55.1882       9-101.6080      10-101.9232
      11-101.6753      12-101.6263      13-101.9189      14-101.5888      15-101.6335
      16-101.6171      17 -69.0700      18 -68.9765      19 -69.0450      20 -69.3188
      21 -69.0570      22 -69.0498      23 -68.9744      24 -69.0585      25 -68.8846
      26 -68.9472      27 -68.9905      28 -69.0030      29 -69.0002      30 -69.0032
      31 -68.9980      32 -69.0220      33 -68.9721      34 -69.0052      35 -69.0597
      36 -68.8846      37 -69.3294      38 -68.9525      39 -69.4909



 E-fermi :   0.4954     XC(G=0):  -7.9490     alpha+bet : -6.9586


 k-point     1 :       0.0000    0.0000    0.0000
  band No.  band energies     occupation 
      1     -20.9308      2.00000
      2     -20.8101      2.00000
      3     -20.7479      2.00000
      4     -20.7477      2.00000
      5     -20.7250      2.00000
      6     -20.7082      2.00000
      7     -20.6940      2.00000
      8     -20.6905      2.00000
      9     -16.7370      2.00000
     10     -16.6850      2.00000
     11     -16.6825      2.00000
     12     -16.6707      2.00000
     13     -16.6562      2.00000
     14     -16.5881      2.00000
     15     -16.5858      2.00000
     16     -16.5817      2.00000
     17     -16.5803      2.00000
     18     -16.5417      2.00000
     19     -16.5383      2.00000
     20     -16.4603      2.00000
     21     -16.4522      2.00000
     22     -16.4441      2.00000
     23     -16.4378      2.00000
     24     -16.4266      2.00000
     25     -16.4157      2.00000
     26     -16.4086      2.00000
     27     -16.4078      2.00000
     28     -16.3734      2.00000
     29     -16.3637      2.00000
     30     -16.3549      2.00000
     31     -16.3403      2.00000
     32     -16.3394      2.00000
     33     -16.3359      2.00000
     34     -16.3311      2.00000
     35     -16.3243      2.00000
     36     -16.3012      2.00000
     37     -16.2964      2.00000
     38     -16.2930      2.00000
     39     -16.2879      2.00000
     40     -16.2840      2.00000
     41     -16.2796      2.00000
     42     -16.2773      2.00000
     43     -16.2740      2.00000
     44     -16.2640      2.00000
     45     -16.2551      2.00000
     46     -16.2523      2.00000
     47     -16.2487      2.00000
     48     -16.2412      2.00000
     49     -14.5670      2.00000
     50     -14.4027      2.00000
     51     -14.3084      2.00000
     52     -14.2882      2.00000
     53     -14.1529      2.00000
     54     -14.1141      2.00000
     55     -14.1109      2.00000
     56     -14.0890      2.00000
     57     -14.0818      2.00000
     58     -14.0555      2.00000
     59     -14.0441      2.00000
     60     -14.0341      2.00000
     61     -14.0307      2.00000
     62     -14.0227      2.00000
     63     -13.9906      2.00000
     64     -13.9753      2.00000
     65     -13.9368      2.00000
     66     -13.9035      2.00000
     67     -13.8906      2.00000
     68     -13.7869      2.00000
     69     -13.7544      2.00000
     70     -13.7288      2.00000
     71     -13.6977      2.00000
     72      -8.2041      2.00000
     73      -7.7956      2.00000
     74      -7.7598      2.00000
     75      -7.7110      2.00000
     76      -7.3873      2.00000
     77      -7.3528      2.00000
     78      -7.3147      2.00000
     79      -7.2962      2.00000
     80      -7.2505      2.00000
     81      -7.2339      2.00000
     82      -7.2105      2.00000
     83      -7.2072      2.00000
     84      -7.1961      2.00000
     85      -7.1718      2.00000
     86      -7.1646      2.00000
     87      -7.1568      2.00000
     88      -7.1471      2.00000
     89      -7.1388      2.00000
     90      -7.1355      2.00000
     91      -7.1324      2.00000
     92      -7.1212      2.00000
     93      -7.1152      2.00000
     94      -7.1129      2.00000
     95      -7.1071      2.00000
     96      -7.1033      2.00000
     97      -7.0930      2.00000
     98      -7.0888      2.00000
     99      -7.0845      2.00000
    100      -7.0768      2.00000
    101      -7.0647      2.00000
    102      -7.0347      2.00000
    103      -6.5912      2.00000
    104      -3.3820      2.00000
    105      -3.3250      2.00000
    106      -3.2919      2.00000
    107      -3.2865      2.00000
    108      -3.2615      2.00000
    109      -3.2096      2.00000
    110      -3.2066      2.00000
    111      -3.1810      2.00000
    112      -3.1404      2.00000
    113      -3.0732      2.00000
    114      -3.0658      2.00000
    115      -2.8441      2.00000
    116      -2.2694      2.00000
    117      -2.1989      2.00000
    118      -2.1706      2.00000
    119      -2.1289      2.00000
    120      -2.0455      2.00000
    121      -2.0088      2.00000
    122      -1.9357      2.00000
    123      -1.9163      2.00000
    124      -1.8968      2.00000
    125      -1.8607      2.00000
    126      -1.8099      2.00000
    127      -1.7774      2.00000
    128      -1.7067      2.00000
    129      -1.6648      2.00000
    130      -1.6561      2.00000
    131      -1.6239      2.00000
    132      -1.5973      2.00000
    133      -1.5589      2.00000
    134      -1.5417      2.00000
    135      -1.5285      2.00000
    136      -1.5181      2.00000
    137      -1.4944      2.00000
    138      -1.4866      2.00000
    139      -1.4697      2.00000
    140      -1.4497      2.00000
    141      -1.4438      2.00000
    142      -1.4095      2.00000
    143      -1.3980      2.00000
    144      -1.3911      2.00000
    145      -1.3793      2.00000
    146      -1.3747      2.00000
    147      -1.3501      2.00000
    148      -1.3469      2.00000
    149      -1.3304      2.00000
    150      -1.3265      2.00000
    151      -1.3145      2.00000
    152      -1.3031      2.00000
    153      -1.2764      2.00000
    154      -1.2714      2.00000
    155      -1.2315      2.00000
    156      -1.2090      2.00000
    157      -1.1873      2.00000
    158      -1.1611      2.00000
    159      -1.1204      2.00000
    160      -1.0925      2.00000
    161      -1.0862      2.00000
    162      -1.0253      2.00000
    163      -0.9980      2.00000
    164      -0.9824      2.00000
    165      -0.8580      2.00000
    166      -0.8015      2.00000
    167      -0.7533      2.00000
    168      -0.6036      2.00000
    169      -0.2756      2.00000
    170      -0.2347      2.00000
    171      -0.0879      2.00000
    172       0.3950      2.00000
    173       2.6263      0.00000
    174       2.7466      0.00000
    175       2.8364      0.00000
    176       2.9607      0.00000
    177       3.0056      0.00000
    178       3.1124      0.00000
    179       3.1737      0.00000
    180       3.2116      0.00000
    181       3.3144      0.00000
    182       3.4953      0.00000
    183       3.5069      0.00000
    184       3.5408      0.00000
    185       4.2059      0.00000
    186       4.8217      0.00000
    187       5.4097      0.00000
    188       5.5079      0.00000
    189       5.6609      0.00000
    190       5.7919      0.00000
    191       5.8422      0.00000
    192       5.8646      0.00000
    193       5.8802      0.00000
    194       5.9326      0.00000
    195       5.9915      0.00000
    196       6.0345      0.00000
    197       6.1426      0.00000
    198       6.1610      0.00000
    199       6.2012      0.00000
    200       6.2184      0.00000
    201       6.2636      0.00000
    202       6.3517      0.00000
    203       6.4173      0.00000
    204       6.5006      0.00000
    205       6.5447      0.00000
    206       6.5521      0.00000
    207       6.5832      0.00000
    208       6.6833      0.00000

 k-point     2 :       0.5000    0.0000    0.0000
  band No.  band energies     occupation 
      1     -20.9308      2.00000
      2     -20.8101      2.00000
      3     -20.7478      2.00000
      4     -20.7477      2.00000
      5     -20.7251      2.00000
      6     -20.7083      2.00000
      7     -20.6940      2.00000
      8     -20.6905      2.00000
      9     -16.7368      2.00000
     10     -16.6846      2.00000
     11     -16.6819      2.00000
     12     -16.6682      2.00000
     13     -16.6544      2.00000
     14     -16.5881      2.00000
     15     -16.5858      2.00000
     16     -16.5817      2.00000
     17     -16.5803      2.00000
     18     -16.5417      2.00000
     19     -16.5383      2.00000
     20     -16.4558      2.00000
     21     -16.4441      2.00000
     22     -16.4376      2.00000
     23     -16.4329      2.00000
     24     -16.4328      2.00000
     25     -16.4195      2.00000
     26     -16.4118      2.00000
     27     -16.4081      2.00000
     28     -16.3821      2.00000
     29     -16.3677      2.00000
     30     -16.3549      2.00000
     31     -16.3433      2.00000
     32     -16.3395      2.00000
     33     -16.3386      2.00000
     34     -16.3311      2.00000
     35     -16.3244      2.00000
     36     -16.3012      2.00000
     37     -16.2964      2.00000
     38     -16.2930      2.00000
     39     -16.2879      2.00000
     40     -16.2841      2.00000
     41     -16.2796      2.00000
     42     -16.2773      2.00000
     43     -16.2741      2.00000
     44     -16.2640      2.00000
     45     -16.2550      2.00000
     46     -16.2524      2.00000
     47     -16.2488      2.00000
     48     -16.2412      2.00000
     49     -14.5664      2.00000
     50     -14.3879      2.00000
     51     -14.3184      2.00000
     52     -14.3027      2.00000
     53     -14.1838      2.00000
     54     -14.1568      2.00000
     55     -14.1145      2.00000
     56     -14.1076      2.00000
     57     -14.0886      2.00000
     58     -14.0510      2.00000
     59     -14.0365      2.00000
     60     -14.0275      2.00000
     61     -13.9973      2.00000
     62     -13.9913      2.00000
     63     -13.9757      2.00000
     64     -13.9722      2.00000
     65     -13.8774      2.00000
     66     -13.8683      2.00000
     67     -13.8420      2.00000
     68     -13.8047      2.00000
     69     -13.7853      2.00000
     70     -13.7741      2.00000
     71     -13.7326      2.00000
     72      -7.9974      2.00000
     73      -7.9731      2.00000
     74      -7.6472      2.00000
     75      -7.5970      2.00000
     76      -7.4744      2.00000
     77      -7.4274      2.00000
     78      -7.3659      2.00000
     79      -7.3095      2.00000
     80      -7.2926      2.00000
     81      -7.2411      2.00000
     82      -7.2179      2.00000
     83      -7.2052      2.00000
     84      -7.1981      2.00000
     85      -7.1705      2.00000
     86      -7.1667      2.00000
     87      -7.1578      2.00000
     88      -7.1480      2.00000
     89      -7.1445      2.00000
     90      -7.1329      2.00000
     91      -7.1315      2.00000
     92      -7.1268      2.00000
     93      -7.1167      2.00000
     94      -7.1109      2.00000
     95      -7.1051      2.00000
     96      -7.1010      2.00000
     97      -7.0865      2.00000
     98      -7.0836      2.00000
     99      -7.0832      2.00000
    100      -7.0699      2.00000
    101      -7.0630      2.00000
    102      -7.0229      2.00000
    103      -6.8156      2.00000
    104      -3.3468      2.00000
    105      -3.3144      2.00000
    106      -3.2684      2.00000
    107      -3.2466      2.00000
    108      -3.2245      2.00000
    109      -3.1578      2.00000
    110      -3.0883      2.00000
    111      -2.9172      2.00000
    112      -2.6682      2.00000
    113      -2.5614      2.00000
    114      -2.5108      2.00000
    115      -2.5037      2.00000
    116      -2.4414      2.00000
    117      -2.3951      2.00000
[...]


--------------------------------------------------------------------------------------------------------


 soft charge-density along one line, spin component           1
         0         1         2         3         4         5         6         7         8         9
 total charge-density along one line

 pseudopotential strength for first ion, spin component:           1
 17.971  -4.704   0.003   0.001  -0.000  -0.004  -0.001   0.000
 -4.704   1.240  -0.001  -0.000   0.000   0.001   0.000  -0.000
  0.003  -0.001   2.265   0.001   0.000  -2.709  -0.001  -0.001
  0.001  -0.000   0.001   2.265  -0.001  -0.001  -2.709   0.001
 -0.000   0.000   0.000  -0.001   2.263  -0.001   0.001  -2.707
 -0.004   0.001  -2.709  -0.001  -0.001   3.208   0.002   0.001
 -0.001   0.000  -0.001  -2.709   0.001   0.002   3.207  -0.001
  0.000  -0.000  -0.001   0.001  -2.707   0.001  -0.001   3.205
  0.000  -0.000   0.001   0.000   0.002  -0.002  -0.000  -0.002
  0.001  -0.000   0.002   0.002   0.000  -0.003  -0.003  -0.000
  0.000  -0.000  -0.001  -0.001  -0.000   0.001   0.001   0.000
 -0.001   0.000   0.000  -0.000   0.001  -0.000   0.000  -0.001
 -0.001   0.000  -0.002  -0.001  -0.001   0.003   0.001   0.002
 total augmentation occupancy for first ion, spin component:           1
  1.912  -0.137   0.001   0.000  -0.000   0.002   0.001  -0.000   0.001   0.001   0.001  -0.001  -0.001
 -0.137   0.120   0.010   0.003   0.000  -0.003  -0.002   0.001  -0.000  -0.001  -0.002   0.005   0.001
  0.001   0.010   2.019   0.003   0.001   0.006   0.002   0.001   0.003   0.005  -0.002   0.001  -0.004
  0.000   0.003   0.003   2.020  -0.002   0.002   0.006  -0.001   0.001   0.004  -0.002  -0.000  -0.001
 -0.000   0.000   0.001  -0.002   2.016   0.001  -0.001   0.003   0.003   0.001  -0.000   0.002  -0.003
  0.002  -0.003   0.006   0.002   0.001   0.008  -0.000  -0.000  -0.002  -0.003   0.000  -0.000   0.001
  0.001  -0.002   0.002   0.006  -0.001  -0.000   0.008   0.001  -0.000  -0.001   0.002  -0.000   0.001
 -0.000   0.001   0.001  -0.001   0.003  -0.000   0.001   0.009  -0.000  -0.000  -0.000  -0.001   0.003
  0.001  -0.000   0.003   0.001   0.003  -0.002  -0.000  -0.000   0.007   0.001  -0.000   0.000   0.001
  0.001  -0.001   0.005   0.004   0.001  -0.003  -0.001  -0.000   0.001   0.004   0.000  -0.000   0.001
  0.001  -0.002  -0.002  -0.002  -0.000   0.000   0.002  -0.000  -0.000   0.000   0.006  -0.002  -0.001
 -0.001   0.005   0.001  -0.000   0.002  -0.000  -0.000  -0.001   0.000  -0.000  -0.002   0.004   0.001
 -0.001   0.001  -0.004  -0.001  -0.003   0.001   0.001   0.003   0.001   0.001  -0.001   0.001   0.004


------------------------ aborting loop because EDIFF is reached ----------------------------------------





 total charge     

# of ion       s       p       d       tot
------------------------------------------
    1        1.786   4.717   0.019   6.521
    2        1.786   4.717   0.018   6.520
    3        1.787   4.718   0.021   6.526
    4        1.786   4.717   0.018   6.521
    5        1.785   4.716   0.017   6.519
    6        1.786   4.717   0.018   6.520
    7        1.785   4.716   0.018   6.519
    8        1.786   4.717   0.020   6.523
    9        1.554   0.424   9.835  11.813
   10        1.534   0.427   9.829  11.790
   11        1.554   0.410   9.833  11.796
   12        1.554   0.417   9.834  11.805
   13        1.533   0.436   9.830  11.799
   14        1.553   0.413   9.833  11.799
   15        1.554   0.418   9.834  11.806
   16        1.535   0.533   9.846  11.915
   17        1.614   3.281   0.006   4.902
   18        1.614   3.287   0.007   4.909
   19        1.615   3.286   0.007   4.908
   20        1.617   3.268   0.007   4.893
   21        1.614   3.286   0.007   4.908
   22        1.614   3.280   0.006   4.900
   23        1.615   3.284   0.007   4.905
   24        1.614   3.279   0.006   4.899
   25        1.614   3.279   0.006   4.899
   26        1.614   3.281   0.006   4.901
   27        1.614   3.277   0.006   4.897
   28        1.614   3.285   0.006   4.905
   29        1.614   3.285   0.006   4.906
   30        1.614   3.277   0.006   4.897
   31        1.614   3.283   0.006   4.904
   32        1.614   3.279   0.006   4.899
   33        1.615   3.276   0.006   4.896
   34        1.614   3.285   0.007   4.905
   35        1.614   3.281   0.006   4.901
   36        1.614   3.279   0.006   4.899
   37        1.617   3.266   0.008   4.891
   38        1.614   3.281   0.006   4.900
   39        1.621   3.320   0.016   4.957
--------------------------------------------------
tot         63.798 116.698  78.978 259.474

    CHARGE:  cpu time    0.3972: real time    0.3973
    FORLOC:  cpu time    0.0113: real time    0.0113
    FORNL :  cpu time    1.9119: real time    1.9121
    STRESS:  cpu time   49.8736: real time   49.8757
    FORCOR:  cpu time    0.2414: real time    0.2414
    FORHAR:  cpu time    0.0277: real time    0.0277
    MIXING:  cpu time    0.0021: real time    0.0021
    OFIELD:  cpu time    0.0000: real time    0.0000

  FORCE on cell =-STRESS in cart. coord.  units (eV):
  Direction    XX          YY          ZZ          XY          YZ          ZX
  --------------------------------------------------------------------------------------
  Alpha Z   872.70584   872.70584   872.70584
  Ewald   -5911.41403 -5842.70614 -6136.82275   137.42563  -142.07223   198.40398
  Hartree  2549.87427  2552.78732  2396.44176    76.18792   -84.39812   136.19318
  E(xc)   -1449.72285 -1449.59628 -1449.74975     0.17400    -0.12198     0.10251
  Local   -3031.14299 -3099.64931 -2653.72577  -213.01200   226.36571  -336.19090
  n-local  1750.06687  1752.53078  1748.44112     2.92036    -2.97630    -0.06742
  augment   818.18711   816.99214   817.05322     0.15647    -0.19604     0.57810
  Kinetic  4396.35795  4396.54411  4402.39384    -1.02416     1.55459     0.38124
  Fock        0.00000     0.00000     0.00000     0.00000     0.00000     0.00000
  -------------------------------------------------------------------------------------
  Total      -5.08783    -0.39154    -3.26250     2.82823    -1.84436    -0.59932
  in kB      -5.11044    -0.39328    -3.27700     2.84080    -1.85256    -0.60199
  external pressure =       -2.93 kB  Pullay stress =        0.00 kB


 VOLUME and BASIS-vectors are now :
 -----------------------------------------------------------------------------
  energy-cutoff  :      300.00
  volume of cell :     1595.09
      direct lattice vectors                 reciprocal lattice vectors
     8.456489000  0.000000000  8.040301000     0.059126193 -0.000000000  0.062186727
     0.000000000 11.729847000  0.000000000     0.000000000  0.085252604 -0.000000000
    -8.456489000  0.000000000  8.040301000    -0.059126193  0.000000000  0.062186727

  length of vectors
    11.668703715 11.729847000 11.668703715     0.085808482  0.085252604  0.085808482


 FORCES acting on ions
    electron-ion (+dipol)            ewald-force                    non-local-force                 convergence-correction
 -----------------------------------------------------------------------------------------------
   0.117E+02 -.404E+02 -.500E+02   -.117E+02 0.401E+02 0.499E+02   -.200E-01 0.288E+00 0.141E+00   0.398E-03 0.539E-03 0.994E-03
   0.355E+02 -.637E+01 0.137E+02   -.353E+02 0.633E+01 -.135E+02   -.198E+00 0.738E-01 -.201E+00   -.107E-03 0.694E-03 -.123E-02
   0.282E+02 0.167E+02 0.533E+01   -.280E+02 -.166E+02 -.525E+01   0.270E-01 0.486E-01 0.408E-02   -.125E-02 -.664E-03 -.106E-04
   -.552E+02 0.867E+01 -.306E+02   0.551E+02 -.866E+01 0.306E+02   0.734E-01 -.264E-01 0.121E-01   0.129E-02 -.696E-03 0.727E-04
   0.959E+01 -.875E+01 0.379E+01   -.963E+01 0.868E+01 -.396E+01   0.548E-01 0.959E-01 0.162E+00   0.128E-02 0.699E-03 0.270E-03
   0.481E+02 -.155E+02 0.201E+02   -.480E+02 0.155E+02 -.202E+02   -.960E-01 0.404E-01 0.583E-01   -.987E-03 0.658E-03 -.109E-03
   -.267E+02 0.648E+01 0.803E+02   0.266E+02 -.641E+01 -.797E+02   0.133E+00 -.824E-01 -.550E+00   -.236E-03 -.619E-03 -.155E-02
   -.549E+02 0.297E+02 -.157E+02   0.546E+02 -.294E+02 0.157E+02   0.289E+00 -.219E+00 -.663E-01   -.425E-04 -.683E-03 0.135E-02
   -.622E+01 0.138E+00 -.790E+01   0.611E+01 -.225E+00 0.860E+01   0.105E+00 0.833E-01 -.668E+00   -.450E-04 -.401E-03 -.354E-04
   -.447E+01 0.105E+03 -.327E+02   0.448E+01 -.110E+03 0.336E+02   0.134E-01 0.521E+01 -.107E+01   -.998E-04 -.440E-02 0.120E-02
   -.400E+01 0.111E+02 -.168E+00   0.441E+01 -.109E+02 0.143E+00   -.420E+00 -.256E+00 0.636E-01   0.316E-03 -.566E-03 -.184E-03
   0.534E+01 -.206E+01 0.195E+01   -.570E+01 0.213E+01 -.218E+01   0.340E+00 -.625E-01 0.218E+00   -.180E-03 -.531E-03 -.151E-03
   0.985E+02 -.218E+02 -.521E+02   -.103E+03 0.225E+02 0.548E+02   0.472E+01 -.781E+00 -.278E+01   -.255E-02 0.938E-03 0.161E-02
   -.705E+01 -.179E+01 0.565E+01   0.701E+01 0.193E+01 -.552E+01   0.354E-01 -.138E+00 -.146E+00   -.892E-04 0.547E-03 -.150E-04
   -.217E+01 -.139E+00 -.157E+02   0.176E+01 0.245E+00 0.160E+02   0.419E+00 -.106E+00 -.247E+00   0.280E-04 0.389E-03 0.105E-03
   -.359E+01 -.115E+02 0.576E+00   -.467E+00 0.449E+01 0.372E+01   0.298E+01 0.518E+01 -.324E+01   -.169E-03 0.785E-03 0.396E-03
   0.109E+02 0.123E+02 0.345E+02   -.110E+02 -.123E+02 -.349E+02   0.841E-01 -.151E-01 0.320E+00   0.288E-03 -.313E-03 -.178E-03
   0.272E+02 0.709E+01 0.317E+02   -.274E+02 -.708E+01 -.318E+02   0.153E+00 0.222E-01 0.138E+00   -.299E-03 -.491E-03 0.127E-03
   -.708E+01 -.784E+01 0.326E+02   0.716E+01 0.785E+01 -.329E+02   -.779E-01 -.346E-02 0.263E+00   -.188E-03 0.361E-03 0.486E-05
   -.189E+02 -.222E+02 0.527E+02   0.188E+02 0.224E+02 -.529E+02   0.127E+00 -.874E+00 0.183E+00   0.140E-03 0.666E-03 0.212E-03
   0.630E+01 0.841E+01 -.397E+02   -.646E+01 -.840E+01 0.399E+02   0.139E+00 -.666E-02 -.228E+00   0.113E-03 -.367E-03 -.925E-04
   0.119E+02 -.150E+02 -.434E+02   -.119E+02 0.150E+02 0.437E+02   -.701E-02 0.375E-01 -.303E+00   -.100E-03 0.360E-03 0.852E-04
   -.167E+02 -.493E+01 -.328E+02   0.168E+02 0.495E+01 0.331E+02   -.805E-01 -.320E-01 -.275E+00   0.147E-03 0.489E-03 -.156E-03
   -.216E+02 0.482E+01 -.665E+01   0.219E+02 -.500E+01 0.644E+01   -.201E+00 0.172E+00 0.215E+00   0.450E-03 0.446E-03 0.326E-03
   -.113E+02 0.507E+01 0.415E+02   0.115E+02 -.516E+01 -.417E+02   -.101E+00 0.402E-01 0.323E+00   -.501E-03 0.477E-03 -.244E-03
   0.189E+02 -.176E+02 0.391E+02   -.191E+02 0.178E+02 -.394E+02   0.147E+00 -.154E+00 0.324E+00   0.265E-03 0.209E-03 -.490E-03
   -.268E+02 0.501E+01 -.134E+02   0.270E+02 -.487E+01 0.137E+02   -.161E+00 -.145E+00 -.253E+00   0.487E-04 -.575E-03 -.499E-03
   -.165E+02 -.157E+02 -.267E+02   0.167E+02 0.158E+02 0.268E+02   -.162E+00 -.106E+00 -.129E+00   -.292E-03 -.189E-03 0.189E-03
   0.329E+02 0.918E+01 -.815E+01   -.331E+02 -.925E+01 0.836E+01   0.187E+00 0.879E-01 -.215E+00   -.369E-03 -.110E-03 -.470E-03
   0.218E+00 0.368E+02 -.464E+02   -.405E+00 -.371E+02 0.467E+02   0.187E+00 0.207E+00 -.269E+00   0.499E-03 -.600E-03 0.522E-03
   -.321E+02 -.869E+01 0.183E+02   0.324E+02 0.883E+01 -.186E+02   -.219E+00 -.134E+00 0.302E+00   0.506E-03 -.319E-03 0.391E-03
   -.618E-01 -.119E+01 0.305E+02   0.322E+00 0.134E+01 -.306E+02   -.253E+00 -.152E+00 0.144E+00   -.584E-03 -.316E-03 -.214E-03
   0.209E+02 0.337E+02 0.107E+02   -.211E+02 -.340E+02 -.109E+02   0.237E+00 0.297E+00 0.255E+00   0.321E-04 -.374E-03 0.569E-03
   0.181E+02 0.202E+02 0.418E+02   -.182E+02 -.204E+02 -.421E+02   0.168E+00 0.163E+00 0.292E+00   0.190E-03 -.346E-03 -.378E-03
   0.474E+02 -.992E+01 -.195E+02   -.476E+02 0.100E+02 0.198E+02   0.165E+00 -.121E+00 -.315E+00   -.493E-03 0.252E-05 -.299E-03
   0.549E+00 -.301E+02 -.305E+02   -.760E+00 0.304E+02 0.306E+02   0.668E-01 -.227E+00 -.197E+00   0.415E-03 0.344E-03 0.437E-03
   -.339E+02 -.108E+01 -.106E+02   0.344E+02 0.829E+00 0.107E+02   -.883E+00 0.339E+00 0.425E+00   0.347E-03 0.581E-03 -.664E-03
   -.309E+02 0.133E+02 -.385E+02   0.311E+02 -.135E+02 0.387E+02   -.162E+00 0.137E+00 -.201E+00   -.304E-03 0.328E-03 0.350E-03
   -.597E+02 -.998E+02 0.643E+02   0.607E+02 0.102E+03 -.654E+02   0.124E+00 0.383E+00 -.298E+00   -.458E-03 -.165E-03 0.552E-03
 -----------------------------------------------------------------------------------------------
   -.795E+01 -.933E+01 0.778E+01   0.355E-13 -.156E-12 -.284E-13   0.793E+01 0.927E+01 -.781E+01   -.259E-02 -.322E-02 0.278E-02


 POSITION                                       TOTAL-FORCE (eV/Angst)
 -----------------------------------------------------------------------------------
      0.49113      2.80522      3.63321        -0.017274     -0.047696      0.001499
      0.54441      2.88233     12.00772         0.006424      0.023198     -0.027135
      4.10442      8.92051      8.11459         0.196585      0.077436      0.096473
     -4.87614      8.79493      7.81015         0.003861     -0.013997     -0.021139
     -3.72774      2.91778      8.21743         0.036956      0.036438     -0.006816
      4.77050      2.90598      8.20235        -0.002670      0.014381      0.020840
     -0.56773      8.82957     12.37545         0.007616     -0.021310      0.026904
     -0.60244      8.83543      4.05992        -0.043532      0.014865     -0.058620
      0.00427      0.00463     16.06221        -0.001868     -0.000724      0.005645
      0.05279      0.05593      7.98073         0.016975      0.229490     -0.137974
     -4.22934      0.01084     12.01439        -0.014923     -0.002432      0.028471
     -4.22958      0.00280      4.07019        -0.004749      0.011363     -0.000126
     -4.19002      5.88730     12.04622         0.236875     -0.053012     -0.110876
     -4.22690      5.83187      4.06604        -0.003792     -0.002121     -0.006919
      8.45095      5.85187      8.04161         0.001864     -0.001052     -0.012584
     -0.02533      5.75554      8.10933        -1.094769     -1.846184      1.094810
     -4.12918      8.79863     11.46792         0.004737      0.002173     -0.005602
      4.18732      8.78115     11.69546        -0.009250      0.018719      0.010781
     -0.04328      2.93023     15.63184        -0.001243      0.002919      0.008383
     -0.04590      2.89903      7.33396         0.053101     -0.647108     -0.071471
     -0.08524      8.79306      0.42077        -0.012514     -0.001536     -0.005060
      4.06842      2.97382      4.53356        -0.004717     -0.003079     -0.005325
     -4.25664      2.91949      4.61283        -0.000756     -0.027967      0.006043
     -5.96487      5.50266      9.66497        -0.000843      0.001302      0.017616
      2.50080      5.41296      9.65791         0.115848     -0.049743      0.114739
      1.66256      6.21916     13.64108        -0.022721      0.009573      0.014133
     -1.67119      0.41288     10.41010         0.007999     -0.008309     -0.001432
     -1.79571      0.29523      2.37571        -0.000537      0.006884     -0.008039
      5.97070     11.43829      6.38315         0.008414      0.014357     -0.017460
     -2.48218     11.25459      6.46627         0.010677     -0.009526      0.004391
     -5.90652      0.34704      9.56722         0.007094     -0.002891      0.020382
      2.51355      0.37670      9.62499        -0.014581     -0.005567     -0.007608
      1.69078     11.32260      5.53461         0.024347      0.023793     -0.001071
      1.67397     11.35829     13.63710        -0.005961     -0.006505     -0.006504
      5.88164      6.21463      6.46728        -0.008100      0.003965     -0.006668
     -2.48582      6.29810      6.51340        -0.118724      0.000518     -0.065240
     -1.72059      5.49936     10.54408        -0.489288      0.107031      0.452060
     -1.71263      5.50760      2.47136         0.042456     -0.002239     -0.021536
      1.08804      7.68834      7.00793         1.090979      2.154592     -1.317965
 -----------------------------------------------------------------------------------
    total drift:                               -0.017158     -0.063186     -0.018881


--------------------------------------------------------------------------------------------------------



  FREE ENERGIE OF THE ION-ELECTRON SYSTEM (eV)
  ---------------------------------------------------
  free  energy   TOTEN  =     -1409.03700490 eV

  energy  without entropy=    -1409.03700490  energy(sigma->0) =    -1409.03700490



--------------------------------------------------------------------------------------------------------


    POTLOK:  cpu time    1.4291: real time    1.4291


--------------------------------------------------------------------------------------------------------


 stress matrix after NEB project (eV)
     -5.08783      2.82825     -0.59932
      2.82823     -0.39154     -1.84443
     -0.59940     -1.84436     -3.26250
  FORCES: max atom, RMS     2.751278    0.610298
  FORCE total and by dimension    3.811309    2.154592
  Stress total and by dimension    7.759074    5.087831
     LOOP+:  cpu time  434.5228: real time  435.1830
    4ORBIT:  cpu time    0.0000: real time    0.0000



 total charge     

# of ion       s       p       d       tot
------------------------------------------
    1        1.786   4.717   0.019   6.521
    2        1.786   4.717   0.018   6.520
    3        1.787   4.718   0.021   6.526
    4        1.786   4.717   0.018   6.521
    5        1.785   4.716   0.017   6.519
    6        1.786   4.717   0.018   6.520
    7        1.785   4.716   0.018   6.519
    8        1.786   4.717   0.020   6.523
    9        1.554   0.424   9.835  11.813
   10        1.534   0.427   9.829  11.790
   11        1.554   0.410   9.833  11.796
   12        1.554   0.417   9.834  11.805
   13        1.533   0.436   9.830  11.799
   14        1.553   0.413   9.833  11.799
   15        1.554   0.418   9.834  11.806
   16        1.535   0.533   9.846  11.915
   17        1.614   3.281   0.006   4.902
   18        1.614   3.287   0.007   4.909
   19        1.615   3.286   0.007   4.908
   20        1.617   3.268   0.007   4.893
   21        1.614   3.286   0.007   4.908
   22        1.614   3.280   0.006   4.900
   23        1.615   3.284   0.007   4.905
   24        1.614   3.279   0.006   4.899
   25        1.614   3.279   0.006   4.899
   26        1.614   3.281   0.006   4.901
   27        1.614   3.277   0.006   4.897
   28        1.614   3.285   0.006   4.905
   29        1.614   3.285   0.006   4.906
   30        1.614   3.277   0.006   4.897
   31        1.614   3.283   0.006   4.904
   32        1.614   3.279   0.006   4.899
   33        1.615   3.276   0.006   4.896
   34        1.614   3.285   0.007   4.905
   35        1.614   3.281   0.006   4.901
   36        1.614   3.279   0.006   4.899
   37        1.617   3.266   0.008   4.891
   38        1.614   3.281   0.006   4.900
   39        1.621   3.320   0.016   4.957
--------------------------------------------------
tot         63.798 116.698  78.978 259.474


 total amount of memory used by VASP MPI-rank0    60646. kBytes
=======================================================================

   base      :      30000. kBytes
   nonlr-proj:       6481. kBytes
   fftplans  :       8423. kBytes
   grid      :       7465. kBytes
   one-center:         77. kBytes
   wavefun   :       8200. kBytes

  
  
 General timing and accounting informations for this job:
 ========================================================
  
                  Total CPU time used (sec):      446.877
                            User time (sec):      445.517
                          System time (sec):        1.360
                         Elapsed time (sec):      448.422
  
                   Maximum memory used (kb):       77444.
                   Average memory used (kb):           0.
  
                          Minor page faults:        20866
                          Major page faults:            0
                 Voluntary context switches:         1726
