 running on   64 total cores
 distrk:  each k-point on   64 cores,    1 groups
 distr:  one band on    8 cores,    8 groups
 using from now: INCAR     
 vasp.5.4.4.18Apr17-6-g9f103f2a35 (build Jun 22 2020 09:27:21) complex           
 POSCAR found type information on POSCAR  Cs Pb Br
 POSCAR found :  3 types and      39 ions
 scaLAPACK will be used
 LDA part: xc-table for Pade appr. of Perdew
 POSCAR found type information on POSCAR  Cs Pb Br
 POSCAR found :  3 types and      39 ions
 POSCAR, INCAR and KPOINTS ok, starting setup
 FFT: planning ...
 WAVECAR not read
 entering main loop
       N       E                     dE             d eps       ncg     rms          rms(c)
DAV:   1     0.133780975773E+04    0.13378E+04   -0.11056E+05  3472   0.973E+02
DAV:   2    -0.110826767384E+04   -0.24461E+04   -0.23591E+04  4072   0.300E+02
DAV:   3    -0.147377924460E+04   -0.36551E+03   -0.36344E+03  4400   0.138E+02
DAV:   4    -0.148642069640E+04   -0.12641E+02   -0.12606E+02  3944   0.336E+01
DAV:   5    -0.148699889547E+04   -0.57820E+00   -0.57794E+00  4400   0.560E+00BRMIX: very serious problems
 the old and the new charge density differ
 old charge density:   345.00000 new  344.00000
    0.105E+01
DAV:   6    -0.140930831935E+04    0.77691E+02   -0.23612E+01  4320   0.310E+01    0.743E+00
DAV:   7    -0.140879228484E+04    0.51603E+00   -0.85544E+00  4136   0.562E+00    0.372E+00
DAV:   8    -0.140896462516E+04   -0.17234E+00   -0.44602E-01  4104   0.204E+00    0.216E+00
DAV:   9    -0.140902874331E+04   -0.64118E-01   -0.16972E-01  3800   0.133E+00    0.467E-01
DAV:  10    -0.140903207163E+04   -0.33283E-02   -0.22458E-02  4552   0.451E-01    0.322E-01
DAV:  11    -0.140903447259E+04   -0.24010E-02   -0.31994E-03  3824   0.168E-01    0.141E-01
DAV:  12    -0.140903739030E+04   -0.29177E-02   -0.53511E-03  3624   0.191E-01    0.107E-01
DAV:  13    -0.140903697452E+04    0.41578E-03   -0.17833E-03  4392   0.122E-01    0.468E-02
DAV:  14    -0.140903694330E+04    0.31223E-04   -0.45787E-04  3832   0.415E-02    0.288E-02
DAV:  15    -0.140903693058E+04    0.12721E-04   -0.43133E-05  3800   0.165E-02    0.171E-02
DAV:  16    -0.140903701656E+04   -0.85985E-04   -0.41621E-05  3808   0.206E-02    0.781E-03
DAV:  17    -0.140903700573E+04    0.10828E-04   -0.65250E-06  3736   0.688E-03    0.549E-03
DAV:  18    -0.140903700490E+04    0.83611E-06   -0.20826E-06  2720   0.318E-03
   1 F= -.14090370E+04 E0= -.14090370E+04  d E =-.120805E-46
Application 1919802 resources: utime ~28552s, stime ~119s, Rss ~77444, inblocks ~1334, outblocks ~111408
