   5   5   1   0
  0.4125864E+02  0.5908741E-09  0.5908741E-09  0.5908741E-09  0.5000000E-15
   1.0000000000000000E-004
  CAR 
 CsPbBr3 cubic bulk                      
     10.81089558    -22.76903735  301      0.87683209      1.00000000
    -22.769  0.0000E+00  0.0000E+00
    -22.657  0.0000E+00  0.0000E+00
    -22.545  0.0000E+00  0.0000E+00
    -22.433  0.0000E+00  0.0000E+00
    -22.321  0.0000E+00  0.0000E+00
    -22.209  0.0000E+00  0.0000E+00
    -22.097  0.0000E+00  0.0000E+00
    -21.986  0.0000E+00  0.0000E+00
    -21.874  0.0000E+00  0.0000E+00
    -21.762  0.0000E+00  0.0000E+00
    -21.650  0.0000E+00  0.0000E+00
    -21.538  0.0000E+00  0.0000E+00
    -21.426  0.0000E+00  0.0000E+00
    -21.314  0.0000E+00  0.0000E+00
    -21.202  0.1787E+02  0.2000E+01
    -21.090  0.0000E+00  0.2000E+01
    -20.978  0.0000E+00  0.2000E+01
    -20.866  0.0000E+00  0.2000E+01
    -20.754  0.0000E+00  0.2000E+01
    -20.642  0.0000E+00  0.2000E+01
    -20.530  0.0000E+00  0.2000E+01
    -20.418  0.0000E+00  0.2000E+01
    -20.307  0.0000E+00  0.2000E+01
    -20.195  0.0000E+00  0.2000E+01
    -20.083  0.0000E+00  0.2000E+01
    -19.971  0.0000E+00  0.2000E+01
    -19.859  0.0000E+00  0.2000E+01
    -19.747  0.0000E+00  0.2000E+01
    -19.635  0.0000E+00  0.2000E+01
    -19.523  0.0000E+00  0.2000E+01
    -19.411  0.0000E+00  0.2000E+01
    -19.299  0.0000E+00  0.2000E+01
    -19.187  0.0000E+00  0.2000E+01
    -19.075  0.0000E+00  0.2000E+01
    -18.963  0.0000E+00  0.2000E+01
    -18.851  0.0000E+00  0.2000E+01
    -18.739  0.0000E+00  0.2000E+01
    -18.628  0.0000E+00  0.2000E+01
    -18.516  0.0000E+00  0.2000E+01
    -18.404  0.0000E+00  0.2000E+01
    -18.292  0.0000E+00  0.2000E+01
    -18.180  0.0000E+00  0.2000E+01
    -18.068  0.0000E+00  0.2000E+01
    -17.956  0.0000E+00  0.2000E+01
    -17.844  0.0000E+00  0.2000E+01
    -17.732  0.0000E+00  0.2000E+01
    -17.620  0.0000E+00  0.2000E+01
    -17.508  0.0000E+00  0.2000E+01
    -17.396  0.0000E+00  0.2000E+01
    -17.284  0.0000E+00  0.2000E+01
    -17.172  0.0000E+00  0.2000E+01
    -17.060  0.0000E+00  0.2000E+01
    -16.949  0.0000E+00  0.2000E+01
    -16.837  0.0000E+00  0.2000E+01
    -16.725  0.0000E+00  0.2000E+01
    -16.613  0.0000E+00  0.2000E+01
    -16.501  0.0000E+00  0.2000E+01
    -16.389  0.1196E+02  0.3338E+01
    -16.277  0.1145E+02  0.6000E+01
    -16.165  0.5360E+02  0.1200E+02
    -16.053  0.0000E+00  0.1200E+02
    -15.941  0.0000E+00  0.1200E+02
    -15.829  0.0000E+00  0.1200E+02
    -15.717  0.0000E+00  0.1200E+02
    -15.605  0.0000E+00  0.1200E+02
    -15.493  0.0000E+00  0.1200E+02
    -15.381  0.0000E+00  0.1200E+02
    -15.270  0.0000E+00  0.1200E+02
    -15.158  0.0000E+00  0.1200E+02
    -15.046  0.0000E+00  0.1200E+02
    -14.934  0.0000E+00  0.1200E+02
    -14.822  0.0000E+00  0.1200E+02
    -14.710  0.0000E+00  0.1200E+02
    -14.598  0.0000E+00  0.1200E+02
    -14.486  0.5023E-06  0.1200E+02
    -14.374  0.1840E+01  0.1221E+02
    -14.262  0.5522E+01  0.1284E+02
    -14.150  0.6082E+01  0.1362E+02
    -14.038  0.1360E+02  0.1521E+02
    -13.926  0.8419E+00  0.1547E+02
    -13.814  0.5217E+01  0.1730E+02
    -13.702  0.3071E+01  0.1800E+02
    -13.591  0.0000E+00  0.1800E+02
    -13.479  0.0000E+00  0.1800E+02
    -13.367  0.0000E+00  0.1800E+02
    -13.255  0.0000E+00  0.1800E+02
    -13.143  0.0000E+00  0.1800E+02
    -13.031  0.0000E+00  0.1800E+02
    -12.919  0.0000E+00  0.1800E+02
    -12.807  0.0000E+00  0.1800E+02
    -12.695  0.0000E+00  0.1800E+02
    -12.583  0.0000E+00  0.1800E+02
    -12.471  0.0000E+00  0.1800E+02
    -12.359  0.0000E+00  0.1800E+02
    -12.247  0.0000E+00  0.1800E+02
    -12.135  0.0000E+00  0.1800E+02
    -12.023  0.0000E+00  0.1800E+02
    -11.912  0.0000E+00  0.1800E+02
    -11.800  0.0000E+00  0.1800E+02
    -11.688  0.0000E+00  0.1800E+02
    -11.576  0.0000E+00  0.1800E+02
    -11.464  0.0000E+00  0.1800E+02
    -11.352  0.0000E+00  0.1800E+02
    -11.240  0.0000E+00  0.1800E+02
    -11.128  0.0000E+00  0.1800E+02
    -11.016  0.0000E+00  0.1800E+02
    -10.904  0.0000E+00  0.1800E+02
    -10.792  0.0000E+00  0.1800E+02
    -10.680  0.0000E+00  0.1800E+02
    -10.568  0.0000E+00  0.1800E+02
    -10.456  0.0000E+00  0.1800E+02
    -10.344  0.0000E+00  0.1800E+02
    -10.233  0.0000E+00  0.1800E+02
    -10.121  0.0000E+00  0.1800E+02
    -10.009  0.0000E+00  0.1800E+02
     -9.897  0.0000E+00  0.1800E+02
     -9.785  0.0000E+00  0.1800E+02
     -9.673  0.0000E+00  0.1800E+02
     -9.561  0.0000E+00  0.1800E+02
     -9.449  0.0000E+00  0.1800E+02
     -9.337  0.0000E+00  0.1800E+02
     -9.225  0.0000E+00  0.1800E+02
     -9.113  0.0000E+00  0.1800E+02
     -9.001  0.0000E+00  0.1800E+02
     -8.889  0.0000E+00  0.1800E+02
     -8.777  0.0000E+00  0.1800E+02
     -8.665  0.0000E+00  0.1800E+02
     -8.554  0.0000E+00  0.1800E+02
     -8.442  0.0000E+00  0.1800E+02
     -8.330  0.2054E+00  0.1802E+02
     -8.218  0.0000E+00  0.1803E+02
     -8.106  0.5963E-07  0.1803E+02
     -7.994  0.1675E+01  0.1822E+02
     -7.882  0.0000E+00  0.1822E+02
     -7.770  0.3350E+01  0.1859E+02
     -7.658  0.5564E-08  0.1869E+02
     -7.546  0.5361E+02  0.2469E+02
     -7.434  0.3350E+01  0.2531E+02
     -7.322  0.0000E+00  0.2531E+02
     -7.210  0.1219E-04  0.2531E+02
     -7.098  0.6061E+00  0.2576E+02
     -6.986  0.0000E+00  0.2578E+02
     -6.875  0.0000E+00  0.2578E+02
     -6.763  0.1675E+01  0.2597E+02
     -6.651  0.0000E+00  0.2597E+02
     -6.539  0.0000E+00  0.2597E+02
     -6.427  0.0000E+00  0.2597E+02
     -6.315  0.2792E+00  0.2600E+02
     -6.203  0.0000E+00  0.2600E+02
     -6.091  0.0000E+00  0.2600E+02
     -5.979  0.0000E+00  0.2600E+02
     -5.867  0.0000E+00  0.2600E+02
     -5.755  0.0000E+00  0.2600E+02
     -5.643  0.0000E+00  0.2600E+02
     -5.531  0.0000E+00  0.2600E+02
     -5.419  0.0000E+00  0.2600E+02
     -5.307  0.0000E+00  0.2600E+02
     -5.196  0.0000E+00  0.2600E+02
     -5.084  0.0000E+00  0.2600E+02
     -4.972  0.0000E+00  0.2600E+02
     -4.860  0.0000E+00  0.2600E+02
     -4.748  0.0000E+00  0.2600E+02
     -4.636  0.0000E+00  0.2600E+02
     -4.524  0.0000E+00  0.2600E+02
     -4.412  0.0000E+00  0.2600E+02
     -4.300  0.0000E+00  0.2600E+02
     -4.188  0.0000E+00  0.2600E+02
     -4.076  0.0000E+00  0.2600E+02
     -3.964  0.0000E+00  0.2600E+02
     -3.852  0.0000E+00  0.2600E+02
     -3.740  0.0000E+00  0.2600E+02
     -3.628  0.0000E+00  0.2600E+02
     -3.517  0.4931E-07  0.2600E+02
     -3.405  0.4189E+01  0.2647E+02
     -3.293  0.3346E+01  0.2741E+02
     -3.181  0.8376E+00  0.2750E+02
     -3.069  0.0000E+00  0.2750E+02
     -2.957  0.0000E+00  0.2750E+02
     -2.845  0.0000E+00  0.2750E+02
     -2.733  0.1619E-01  0.2750E+02
     -2.621  0.4467E+01  0.2837E+02
     -2.509  0.5101E+01  0.2895E+02
     -2.397  0.1185E-06  0.2931E+02
     -2.285  0.8375E+01  0.3025E+02
     -2.173  0.3071E+01  0.3059E+02
     -2.061  0.8325E+01  0.3153E+02
     -1.949  0.3859E+00  0.3167E+02
     -1.838  0.3350E+01  0.3247E+02
     -1.726  0.5862E+00  0.3253E+02
     -1.614  0.1097E+02  0.3420E+02
     -1.502  0.4445E+01  0.3478E+02
     -1.390  0.1486E+02  0.3669E+02
     -1.278  0.1099E+02  0.3839E+02
     -1.166  0.5688E+01  0.3920E+02
     -1.054  0.2567E+02  0.4209E+02
     -0.942  0.0000E+00  0.4247E+02
     -0.830  0.3350E+01  0.4284E+02
     -0.718  0.0000E+00  0.4284E+02
     -0.606  0.7807E+00  0.4293E+02
     -0.494  0.9345E-10  0.4294E+02
     -0.382  0.3350E+01  0.4331E+02
     -0.270  0.3350E+01  0.4369E+02
     -0.159  0.0000E+00  0.4369E+02
     -0.047  0.0000E+00  0.4369E+02
      0.065  0.8635E-06  0.4369E+02
      0.177  0.8376E+00  0.4378E+02
      0.289  0.1675E+01  0.4397E+02
      0.401  0.0000E+00  0.4397E+02
      0.513  0.0000E+00  0.4397E+02
      0.625  0.0000E+00  0.4397E+02
      0.737  0.9365E-12  0.4397E+02
      0.849  0.2792E+00  0.4400E+02
      0.961  0.0000E+00  0.4400E+02
      1.073  0.0000E+00  0.4400E+02
      1.185  0.0000E+00  0.4400E+02
      1.297  0.0000E+00  0.4400E+02
      1.409  0.0000E+00  0.4400E+02
      1.520  0.0000E+00  0.4400E+02
      1.632  0.0000E+00  0.4400E+02
      1.744  0.0000E+00  0.4400E+02
      1.856  0.0000E+00  0.4400E+02
      1.968  0.0000E+00  0.4400E+02
      2.080  0.0000E+00  0.4400E+02
      2.192  0.0000E+00  0.4400E+02
      2.304  0.0000E+00  0.4400E+02
      2.416  0.0000E+00  0.4400E+02
      2.528  0.0000E+00  0.4400E+02
      2.640  0.1153E-05  0.4400E+02
      2.752  0.8376E+00  0.4409E+02
      2.864  0.0000E+00  0.4409E+02
      2.976  0.3350E+01  0.4447E+02
      3.088  0.0000E+00  0.4447E+02
      3.199  0.4995E+01  0.4503E+02
      3.311  0.0000E+00  0.4503E+02
      3.423  0.3186E+01  0.4539E+02
      3.535  0.0000E+00  0.4541E+02
      3.647  0.7207E+00  0.4549E+02
      3.759  0.0000E+00  0.4550E+02
      3.871  0.0000E+00  0.4550E+02
      3.983  0.0000E+00  0.4550E+02
      4.095  0.0000E+00  0.4550E+02
      4.207  0.0000E+00  0.4550E+02
      4.319  0.0000E+00  0.4550E+02
      4.431  0.1211E+01  0.4564E+02
      4.543  0.9495E-11  0.4572E+02
      4.655  0.3350E+01  0.4609E+02
      4.767  0.6737E-02  0.4647E+02
      4.878  0.2301E+01  0.4723E+02
      4.990  0.1675E+01  0.4778E+02
      5.102  0.3350E+01  0.4853E+02
      5.214  0.0000E+00  0.4853E+02
      5.326  0.0000E+00  0.4853E+02
      5.438  0.2141E+01  0.4877E+02
      5.550  0.8833E-04  0.4878E+02
      5.662  0.0000E+00  0.4916E+02
      5.774  0.1964E-07  0.4916E+02
      5.886  0.6303E+01  0.4986E+02
      5.998  0.7058E+00  0.4995E+02
      6.110  0.1564E-11  0.5000E+02
      6.222  0.6712E+01  0.5075E+02
      6.334  0.7538E+01  0.5234E+02
      6.446  0.1051E+02  0.5352E+02
      6.557  0.1868E+01  0.5399E+02
      6.669  0.1675E+01  0.5453E+02
      6.781  0.6988E+01  0.5531E+02
      6.893  0.7205E+01  0.5628E+02
      7.005  0.7093E-02  0.5631E+02
      7.117  0.1594E+01  0.5696E+02
      7.229  0.1321E+02  0.5845E+02
      7.341  0.2516E+01  0.5913E+02
      7.453  0.1675E+01  0.5991E+02
      7.565  0.1642E+01  0.6009E+02
      7.677  0.8358E+01  0.6140E+02
      7.789  0.4188E+01  0.6212E+02
      7.901  0.5577E+00  0.6219E+02
      8.013  0.3909E+01  0.6262E+02
      8.125  0.1675E+01  0.6281E+02
      8.236  0.3300E+01  0.6318E+02
      8.348  0.0000E+00  0.6319E+02
      8.460  0.2357E-01  0.6319E+02
      8.572  0.6494E-01  0.6338E+02
      8.684  0.1675E+01  0.6394E+02
      8.796  0.0000E+00  0.6394E+02
      8.908  0.0000E+00  0.6394E+02
      9.020  0.0000E+00  0.6394E+02
      9.132  0.0000E+00  0.6394E+02
      9.244  0.2792E+00  0.6397E+02
      9.356  0.2792E+00  0.6400E+02
      9.468  0.0000E+00  0.6400E+02
      9.580  0.0000E+00  0.6400E+02
      9.692  0.0000E+00  0.6400E+02
      9.803  0.0000E+00  0.6400E+02
      9.915  0.0000E+00  0.6400E+02
     10.027  0.0000E+00  0.6400E+02
     10.139  0.0000E+00  0.6400E+02
     10.251  0.0000E+00  0.6400E+02
     10.363  0.0000E+00  0.6400E+02
     10.475  0.0000E+00  0.6400E+02
     10.587  0.0000E+00  0.6400E+02
     10.699  0.0000E+00  0.6400E+02
     10.811  0.0000E+00  0.6400E+02
     10.81089558    -22.76903735  301      0.87683209      1.00000000
    -22.769  0.0000E+00  0.0000E+00  0.0000E+00
    -22.657  0.0000E+00  0.0000E+00  0.0000E+00
    -22.545  0.0000E+00  0.0000E+00  0.0000E+00
    -22.433  0.0000E+00  0.0000E+00  0.0000E+00
    -22.321  0.0000E+00  0.0000E+00  0.0000E+00
    -22.209  0.0000E+00  0.0000E+00  0.0000E+00
    -22.097  0.0000E+00  0.0000E+00  0.0000E+00
    -21.986  0.0000E+00  0.0000E+00  0.0000E+00
    -21.874  0.0000E+00  0.0000E+00  0.0000E+00
    -21.762  0.0000E+00  0.0000E+00  0.0000E+00
    -21.650  0.0000E+00  0.0000E+00  0.0000E+00
    -21.538  0.0000E+00  0.0000E+00  0.0000E+00
    -21.426  0.0000E+00  0.0000E+00  0.0000E+00
    -21.314  0.0000E+00  0.0000E+00  0.0000E+00
    -21.202  0.1586E+02  0.4492E-07  0.3799E-08
    -21.090  0.0000E+00  0.0000E+00  0.0000E+00
    -20.978  0.0000E+00  0.0000E+00  0.0000E+00
    -20.866  0.0000E+00  0.0000E+00  0.0000E+00
    -20.754  0.0000E+00  0.0000E+00  0.0000E+00
    -20.642  0.0000E+00  0.0000E+00  0.0000E+00
    -20.530  0.0000E+00  0.0000E+00  0.0000E+00
    -20.418  0.0000E+00  0.0000E+00  0.0000E+00
    -20.307  0.0000E+00  0.0000E+00  0.0000E+00
    -20.195  0.0000E+00  0.0000E+00  0.0000E+00
    -20.083  0.0000E+00  0.0000E+00  0.0000E+00
    -19.971  0.0000E+00  0.0000E+00  0.0000E+00
    -19.859  0.0000E+00  0.0000E+00  0.0000E+00
    -19.747  0.0000E+00  0.0000E+00  0.0000E+00
    -19.635  0.0000E+00  0.0000E+00  0.0000E+00
    -19.523  0.0000E+00  0.0000E+00  0.0000E+00
    -19.411  0.0000E+00  0.0000E+00  0.0000E+00
    -19.299  0.0000E+00  0.0000E+00  0.0000E+00
    -19.187  0.0000E+00  0.0000E+00  0.0000E+00
    -19.075  0.0000E+00  0.0000E+00  0.0000E+00
    -18.963  0.0000E+00  0.0000E+00  0.0000E+00
    -18.851  0.0000E+00  0.0000E+00  0.0000E+00
    -18.739  0.0000E+00  0.0000E+00  0.0000E+00
    -18.628  0.0000E+00  0.0000E+00  0.0000E+00
    -18.516  0.0000E+00  0.0000E+00  0.0000E+00
    -18.404  0.0000E+00  0.0000E+00  0.0000E+00
    -18.292  0.0000E+00  0.0000E+00  0.0000E+00
    -18.180  0.0000E+00  0.0000E+00  0.0000E+00
    -18.068  0.0000E+00  0.0000E+00  0.0000E+00
    -17.956  0.0000E+00  0.0000E+00  0.0000E+00
    -17.844  0.0000E+00  0.0000E+00  0.0000E+00
    -17.732  0.0000E+00  0.0000E+00  0.0000E+00
    -17.620  0.0000E+00  0.0000E+00  0.0000E+00
    -17.508  0.0000E+00  0.0000E+00  0.0000E+00
    -17.396  0.0000E+00  0.0000E+00  0.0000E+00
    -17.284  0.0000E+00  0.0000E+00  0.0000E+00
    -17.172  0.0000E+00  0.0000E+00  0.0000E+00
    -17.060  0.0000E+00  0.0000E+00  0.0000E+00
    -16.949  0.0000E+00  0.0000E+00  0.0000E+00
    -16.837  0.0000E+00  0.0000E+00  0.0000E+00
    -16.725  0.0000E+00  0.0000E+00  0.0000E+00
    -16.613  0.0000E+00  0.0000E+00  0.0000E+00
    -16.501  0.0000E+00  0.0000E+00  0.0000E+00
    -16.389  0.3772E-07  0.4874E-05  0.3307E-05
    -16.277  0.1501E-12  0.1085E-04  0.9597E-06
    -16.165  0.2100E-04  0.1521E-04  0.1482E-05
    -16.053  0.0000E+00  0.0000E+00  0.0000E+00
    -15.941  0.0000E+00  0.0000E+00  0.0000E+00
    -15.829  0.0000E+00  0.0000E+00  0.0000E+00
    -15.717  0.0000E+00  0.0000E+00  0.0000E+00
    -15.605  0.0000E+00  0.0000E+00  0.0000E+00
    -15.493  0.0000E+00  0.0000E+00  0.0000E+00
    -15.381  0.0000E+00  0.0000E+00  0.0000E+00
    -15.270  0.0000E+00  0.0000E+00  0.0000E+00
    -15.158  0.0000E+00  0.0000E+00  0.0000E+00
    -15.046  0.0000E+00  0.0000E+00  0.0000E+00
    -14.934  0.0000E+00  0.0000E+00  0.0000E+00
    -14.822  0.0000E+00  0.0000E+00  0.0000E+00
    -14.710  0.0000E+00  0.0000E+00  0.0000E+00
    -14.598  0.0000E+00  0.0000E+00  0.0000E+00
    -14.486  0.3020E-09  0.4940E-25  0.1536E-22
    -14.374  0.7760E-03  0.2342E-03  0.2570E-06
    -14.262  0.1168E-02  0.1245E-02  0.2173E-04
    -14.150  0.6591E-13  0.1884E-02  0.5573E-04
    -14.038  0.7131E-03  0.1794E-02  0.1265E-03
    -13.926  0.2368E-16  0.4526E-06  0.2301E-04
    -13.814  0.3126E-04  0.1726E-03  0.4733E-04
    -13.702  0.1251E-14  0.1006E-14  0.1934E-04
    -13.591  0.0000E+00  0.0000E+00  0.0000E+00
    -13.479  0.0000E+00  0.0000E+00  0.0000E+00
    -13.367  0.0000E+00  0.0000E+00  0.0000E+00
    -13.255  0.0000E+00  0.0000E+00  0.0000E+00
    -13.143  0.0000E+00  0.0000E+00  0.0000E+00
    -13.031  0.0000E+00  0.0000E+00  0.0000E+00
    -12.919  0.0000E+00  0.0000E+00  0.0000E+00
    -12.807  0.0000E+00  0.0000E+00  0.0000E+00
    -12.695  0.0000E+00  0.0000E+00  0.0000E+00
    -12.583  0.0000E+00  0.0000E+00  0.0000E+00
    -12.471  0.0000E+00  0.0000E+00  0.0000E+00
    -12.359  0.0000E+00  0.0000E+00  0.0000E+00
    -12.247  0.0000E+00  0.0000E+00  0.0000E+00
    -12.135  0.0000E+00  0.0000E+00  0.0000E+00
    -12.023  0.0000E+00  0.0000E+00  0.0000E+00
    -11.912  0.0000E+00  0.0000E+00  0.0000E+00
    -11.800  0.0000E+00  0.0000E+00  0.0000E+00
    -11.688  0.0000E+00  0.0000E+00  0.0000E+00
    -11.576  0.0000E+00  0.0000E+00  0.0000E+00
    -11.464  0.0000E+00  0.0000E+00  0.0000E+00
    -11.352  0.0000E+00  0.0000E+00  0.0000E+00
    -11.240  0.0000E+00  0.0000E+00  0.0000E+00
    -11.128  0.0000E+00  0.0000E+00  0.0000E+00
    -11.016  0.0000E+00  0.0000E+00  0.0000E+00
    -10.904  0.0000E+00  0.0000E+00  0.0000E+00
    -10.792  0.0000E+00  0.0000E+00  0.0000E+00
    -10.680  0.0000E+00  0.0000E+00  0.0000E+00
    -10.568  0.0000E+00  0.0000E+00  0.0000E+00
    -10.456  0.0000E+00  0.0000E+00  0.0000E+00
    -10.344  0.0000E+00  0.0000E+00  0.0000E+00
    -10.233  0.0000E+00  0.0000E+00  0.0000E+00
    -10.121  0.0000E+00  0.0000E+00  0.0000E+00
    -10.009  0.0000E+00  0.0000E+00  0.0000E+00
     -9.897  0.0000E+00  0.0000E+00  0.0000E+00
     -9.785  0.0000E+00  0.0000E+00  0.0000E+00
     -9.673  0.0000E+00  0.0000E+00  0.0000E+00
     -9.561  0.0000E+00  0.0000E+00  0.0000E+00
     -9.449  0.0000E+00  0.0000E+00  0.0000E+00
     -9.337  0.0000E+00  0.0000E+00  0.0000E+00
     -9.225  0.0000E+00  0.0000E+00  0.0000E+00
     -9.113  0.0000E+00  0.0000E+00  0.0000E+00
     -9.001  0.0000E+00  0.0000E+00  0.0000E+00
     -8.889  0.0000E+00  0.0000E+00  0.0000E+00
     -8.777  0.0000E+00  0.0000E+00  0.0000E+00
     -8.665  0.0000E+00  0.0000E+00  0.0000E+00
     -8.554  0.0000E+00  0.0000E+00  0.0000E+00
     -8.442  0.0000E+00  0.0000E+00  0.0000E+00
     -8.330  0.1340E-19  0.1834E-13  0.1323E-16
     -8.218  0.0000E+00  0.0000E+00  0.0000E+00
     -8.106  0.1167E-23  0.2122E-20  0.1156E-12
     -7.994  0.3277E-16  0.5961E-13  0.3248E-05
     -7.882  0.0000E+00  0.0000E+00  0.0000E+00
     -7.770  0.1631E-14  0.3751E-02  0.1217E-04
     -7.658  0.5526E-26  0.4275E-08  0.1471E-18
     -7.546  0.1406E-04  0.4162E+02  0.1771E-04
     -7.434  0.8778E-15  0.5334E-02  0.1610E-04
     -7.322  0.0000E+00  0.0000E+00  0.0000E+00
     -7.210  0.6980E-10  0.2804E-08  0.5338E-10
     -7.098  0.1317E-12  0.1094E-04  0.1457E-13
     -6.986  0.0000E+00  0.0000E+00  0.0000E+00
     -6.875  0.0000E+00  0.0000E+00  0.0000E+00
     -6.763  0.1325E-04  0.6491E-03  0.3452E-07
     -6.651  0.0000E+00  0.0000E+00  0.0000E+00
     -6.539  0.0000E+00  0.0000E+00  0.0000E+00
     -6.427  0.0000E+00  0.0000E+00  0.0000E+00
     -6.315  0.2249E-05  0.8539E-13  0.6560E-15
     -6.203  0.0000E+00  0.0000E+00  0.0000E+00
     -6.091  0.0000E+00  0.0000E+00  0.0000E+00
     -5.979  0.0000E+00  0.0000E+00  0.0000E+00
     -5.867  0.0000E+00  0.0000E+00  0.0000E+00
     -5.755  0.0000E+00  0.0000E+00  0.0000E+00
     -5.643  0.0000E+00  0.0000E+00  0.0000E+00
     -5.531  0.0000E+00  0.0000E+00  0.0000E+00
     -5.419  0.0000E+00  0.0000E+00  0.0000E+00
     -5.307  0.0000E+00  0.0000E+00  0.0000E+00
     -5.196  0.0000E+00  0.0000E+00  0.0000E+00
     -5.084  0.0000E+00  0.0000E+00  0.0000E+00
     -4.972  0.0000E+00  0.0000E+00  0.0000E+00
     -4.860  0.0000E+00  0.0000E+00  0.0000E+00
     -4.748  0.0000E+00  0.0000E+00  0.0000E+00
     -4.636  0.0000E+00  0.0000E+00  0.0000E+00
     -4.524  0.0000E+00  0.0000E+00  0.0000E+00
     -4.412  0.0000E+00  0.0000E+00  0.0000E+00
     -4.300  0.0000E+00  0.0000E+00  0.0000E+00
     -4.188  0.0000E+00  0.0000E+00  0.0000E+00
     -4.076  0.0000E+00  0.0000E+00  0.0000E+00
     -3.964  0.0000E+00  0.0000E+00  0.0000E+00
     -3.852  0.0000E+00  0.0000E+00  0.0000E+00
     -3.740  0.0000E+00  0.0000E+00  0.0000E+00
     -3.628  0.0000E+00  0.0000E+00  0.0000E+00
     -3.517  0.1037E-22  0.2871E-09  0.1775E-21
     -3.405  0.2532E-13  0.1528E-01  0.5455E-03
     -3.293  0.6184E-14  0.3568E-13  0.6774E-03
     -3.181  0.9300E-17  0.7973E-15  0.6260E-15
     -3.069  0.0000E+00  0.0000E+00  0.0000E+00
     -2.957  0.0000E+00  0.0000E+00  0.0000E+00
     -2.845  0.0000E+00  0.0000E+00  0.0000E+00
     -2.733  0.2706E-15  0.7583E-04  0.6888E-08
     -2.621  0.5159E-14  0.1339E-01  0.3877E-03
     -2.509  0.9904E-03  0.8020E-02  0.8435E-03
     -2.397  0.4477E-13  0.3428E-13  0.3299E-11
     -2.285  0.4350E-02  0.1675E-01  0.2196E-02
     -2.173  0.6278E-02  0.5157E-03  0.2384E-02
     -2.061  0.1991E-01  0.3416E-01  0.3462E-02
     -1.949  0.1256E-02  0.4449E-06  0.2703E-06
     -1.838  0.1915E-16  0.4874E-01  0.2172E-02
     -1.726  0.1030E-15  0.5007E-02  0.5323E-03
     -1.614  0.1640E-02  0.7380E-01  0.9021E-02
     -1.502  0.1015E-16  0.9188E-02  0.6562E-02
     -1.390  0.6969E-14  0.5996E-02  0.1392E-01
     -1.278  0.5220E-14  0.3898E-01  0.6749E-02
     -1.166  0.2222E-02  0.1510E-01  0.3399E-02
     -1.054  0.4666E-02  0.2515E-01  0.1366E-01
     -0.942  0.0000E+00  0.0000E+00  0.0000E+00
     -0.830  0.1833E-15  0.2704E-13  0.1166E-02
     -0.718  0.0000E+00  0.0000E+00  0.0000E+00
     -0.606  0.2662E-18  0.3477E-03  0.3467E-18
     -0.494  0.1089E-26  0.6805E-13  0.3133E-14
     -0.382  0.3906E-16  0.2440E-02  0.1123E-03
     -0.270  0.1698E-16  0.1338E-02  0.1160E-03
     -0.159  0.0000E+00  0.0000E+00  0.0000E+00
     -0.047  0.0000E+00  0.0000E+00  0.0000E+00
      0.065  0.4309E-26  0.1132E-20  0.3599E-09
      0.177  0.4179E-20  0.1098E-14  0.3490E-03
      0.289  0.7777E-15  0.1026E-13  0.2341E-03
      0.401  0.0000E+00  0.0000E+00  0.0000E+00
      0.513  0.0000E+00  0.0000E+00  0.0000E+00
      0.625  0.0000E+00  0.0000E+00  0.0000E+00
      0.737  0.1149E-32  0.1749E-27  0.7153E-25
      0.849  0.3426E-21  0.5215E-16  0.2132E-13
      0.961  0.0000E+00  0.0000E+00  0.0000E+00
      1.073  0.0000E+00  0.0000E+00  0.0000E+00
      1.185  0.0000E+00  0.0000E+00  0.0000E+00
      1.297  0.0000E+00  0.0000E+00  0.0000E+00
      1.409  0.0000E+00  0.0000E+00  0.0000E+00
      1.520  0.0000E+00  0.0000E+00  0.0000E+00
      1.632  0.0000E+00  0.0000E+00  0.0000E+00
      1.744  0.0000E+00  0.0000E+00  0.0000E+00
      1.856  0.0000E+00  0.0000E+00  0.0000E+00
      1.968  0.0000E+00  0.0000E+00  0.0000E+00
      2.080  0.0000E+00  0.0000E+00  0.0000E+00
      2.192  0.0000E+00  0.0000E+00  0.0000E+00
      2.304  0.0000E+00  0.0000E+00  0.0000E+00
      2.416  0.0000E+00  0.0000E+00  0.0000E+00
      2.528  0.0000E+00  0.0000E+00  0.0000E+00
      2.640  0.1090E-23  0.8247E-22  0.3026E-08
      2.752  0.7918E-18  0.5990E-16  0.2198E-02
      2.864  0.0000E+00  0.0000E+00  0.0000E+00
      2.976  0.1255E-15  0.3430E-03  0.3997E-02
      3.088  0.0000E+00  0.0000E+00  0.0000E+00
      3.199  0.1900E-04  0.4096E-03  0.2035E-02
      3.311  0.0000E+00  0.0000E+00  0.0000E+00
      3.423  0.1032E-03  0.1172E-03  0.5593E-04
      3.535  0.0000E+00  0.0000E+00  0.0000E+00
      3.647  0.8649E-04  0.1844E-15  0.1027E-04
      3.759  0.0000E+00  0.0000E+00  0.0000E+00
      3.871  0.0000E+00  0.0000E+00  0.0000E+00
      3.983  0.0000E+00  0.0000E+00  0.0000E+00
      4.095  0.0000E+00  0.0000E+00  0.0000E+00
      4.207  0.0000E+00  0.0000E+00  0.0000E+00
      4.319  0.0000E+00  0.0000E+00  0.0000E+00
      4.431  0.1315E-01  0.4808E-15  0.8497E-02
      4.543  0.1637E-26  0.1247E-24  0.3335E-13
      4.655  0.5776E-15  0.1899E-06  0.1177E-01
      4.767  0.8674E-17  0.5718E-06  0.2278E-04
      4.878  0.7751E-02  0.9298E-02  0.1156E-01
      4.990  0.6161E-01  0.1240E-01  0.3121E-02
      5.102  0.6630E-15  0.6484E-03  0.1003E-02
      5.214  0.0000E+00  0.0000E+00  0.0000E+00
      5.326  0.0000E+00  0.0000E+00  0.0000E+00
      5.438  0.1055E-01  0.2519E-02  0.5565E-01
      5.550  0.2837E-05  0.6723E-06  0.1144E-05
      5.662  0.0000E+00  0.0000E+00  0.0000E+00
      5.774  0.1803E-11  0.1645E-09  0.2201E-08
      5.886  0.1107E+00  0.2112E-01  0.4957E+00
      5.998  0.1755E-01  0.8534E-16  0.9802E-15
      6.110  0.1750E-14  0.6049E-15  0.2171E-12
      6.222  0.3751E-02  0.1411E-02  0.4707E+00
      6.334  0.1265E+00  0.2098E-01  0.3153E+00
      6.446  0.1076E+00  0.7377E-01  0.7913E+00
      6.557  0.1442E-14  0.6285E-02  0.2698E+00
      6.669  0.6826E-15  0.1485E-15  0.3026E+00
      6.781  0.2346E-02  0.6429E-01  0.1016E+01
      6.893  0.2048E-12  0.2676E-01  0.1224E+01
      7.005  0.3035E-15  0.7765E-05  0.1341E-02
      7.117  0.5604E-01  0.1371E-12  0.1831E+00
      7.229  0.1857E-01  0.4547E-01  0.2303E+01
      7.341  0.1820E-02  0.1675E-01  0.4696E+00
      7.453  0.6981E-05  0.1684E-02  0.4064E+00
      7.565  0.1402E-09  0.4727E-10  0.3376E+00
      7.677  0.8504E-02  0.1556E+00  0.1471E+01
      7.789  0.9604E-01  0.3637E-01  0.4811E+00
      7.901  0.6797E-14  0.2886E-11  0.1713E+00
      8.013  0.4430E-01  0.6809E-01  0.5881E+00
      8.125  0.6873E-10  0.7208E-07  0.5424E+00
      8.236  0.2316E-10  0.1107E+00  0.3026E+00
      8.348  0.0000E+00  0.0000E+00  0.0000E+00
      8.460  0.1090E-13  0.5076E-13  0.1873E-02
      8.572  0.9395E-03  0.1962E-02  0.3095E-02
      8.684  0.3842E-10  0.7826E-01  0.7128E-01
      8.796  0.0000E+00  0.0000E+00  0.0000E+00
      8.908  0.0000E+00  0.0000E+00  0.0000E+00
      9.020  0.0000E+00  0.0000E+00  0.0000E+00
      9.132  0.0000E+00  0.0000E+00  0.0000E+00
      9.244  0.3215E-17  0.7340E-10  0.3691E-01
      9.356  0.1527E-12  0.1707E-01  0.7284E-11
      9.468  0.0000E+00  0.0000E+00  0.0000E+00
      9.580  0.0000E+00  0.0000E+00  0.0000E+00
      9.692  0.0000E+00  0.0000E+00  0.0000E+00
      9.803  0.0000E+00  0.0000E+00  0.0000E+00
      9.915  0.0000E+00  0.0000E+00  0.0000E+00
     10.027  0.0000E+00  0.0000E+00  0.0000E+00
     10.139  0.0000E+00  0.0000E+00  0.0000E+00
     10.251  0.0000E+00  0.0000E+00  0.0000E+00
     10.363  0.0000E+00  0.0000E+00  0.0000E+00
     10.475  0.0000E+00  0.0000E+00  0.0000E+00
     10.587  0.0000E+00  0.0000E+00  0.0000E+00
     10.699  0.0000E+00  0.0000E+00  0.0000E+00
     10.811  0.0000E+00  0.0000E+00  0.0000E+00
     10.81089558    -22.76903735  301      0.87683209      1.00000000
    -22.769  0.0000E+00  0.0000E+00  0.0000E+00
    -22.657  0.0000E+00  0.0000E+00  0.0000E+00
    -22.545  0.0000E+00  0.0000E+00  0.0000E+00
    -22.433  0.0000E+00  0.0000E+00  0.0000E+00
    -22.321  0.0000E+00  0.0000E+00  0.0000E+00
    -22.209  0.0000E+00  0.0000E+00  0.0000E+00
    -22.097  0.0000E+00  0.0000E+00  0.0000E+00
    -21.986  0.0000E+00  0.0000E+00  0.0000E+00
    -21.874  0.0000E+00  0.0000E+00  0.0000E+00
    -21.762  0.0000E+00  0.0000E+00  0.0000E+00
    -21.650  0.0000E+00  0.0000E+00  0.0000E+00
    -21.538  0.0000E+00  0.0000E+00  0.0000E+00
    -21.426  0.0000E+00  0.0000E+00  0.0000E+00
    -21.314  0.0000E+00  0.0000E+00  0.0000E+00
    -21.202  0.5131E-05  0.2728E-05  0.4853E-05
    -21.090  0.0000E+00  0.0000E+00  0.0000E+00
    -20.978  0.0000E+00  0.0000E+00  0.0000E+00
    -20.866  0.0000E+00  0.0000E+00  0.0000E+00
    -20.754  0.0000E+00  0.0000E+00  0.0000E+00
    -20.642  0.0000E+00  0.0000E+00  0.0000E+00
    -20.530  0.0000E+00  0.0000E+00  0.0000E+00
    -20.418  0.0000E+00  0.0000E+00  0.0000E+00
    -20.307  0.0000E+00  0.0000E+00  0.0000E+00
    -20.195  0.0000E+00  0.0000E+00  0.0000E+00
    -20.083  0.0000E+00  0.0000E+00  0.0000E+00
    -19.971  0.0000E+00  0.0000E+00  0.0000E+00
    -19.859  0.0000E+00  0.0000E+00  0.0000E+00
    -19.747  0.0000E+00  0.0000E+00  0.0000E+00
    -19.635  0.0000E+00  0.0000E+00  0.0000E+00
    -19.523  0.0000E+00  0.0000E+00  0.0000E+00
    -19.411  0.0000E+00  0.0000E+00  0.0000E+00
    -19.299  0.0000E+00  0.0000E+00  0.0000E+00
    -19.187  0.0000E+00  0.0000E+00  0.0000E+00
    -19.075  0.0000E+00  0.0000E+00  0.0000E+00
    -18.963  0.0000E+00  0.0000E+00  0.0000E+00
    -18.851  0.0000E+00  0.0000E+00  0.0000E+00
    -18.739  0.0000E+00  0.0000E+00  0.0000E+00
    -18.628  0.0000E+00  0.0000E+00  0.0000E+00
    -18.516  0.0000E+00  0.0000E+00  0.0000E+00
    -18.404  0.0000E+00  0.0000E+00  0.0000E+00
    -18.292  0.0000E+00  0.0000E+00  0.0000E+00
    -18.180  0.0000E+00  0.0000E+00  0.0000E+00
    -18.068  0.0000E+00  0.0000E+00  0.0000E+00
    -17.956  0.0000E+00  0.0000E+00  0.0000E+00
    -17.844  0.0000E+00  0.0000E+00  0.0000E+00
    -17.732  0.0000E+00  0.0000E+00  0.0000E+00
    -17.620  0.0000E+00  0.0000E+00  0.0000E+00
    -17.508  0.0000E+00  0.0000E+00  0.0000E+00
    -17.396  0.0000E+00  0.0000E+00  0.0000E+00
    -17.284  0.0000E+00  0.0000E+00  0.0000E+00
    -17.172  0.0000E+00  0.0000E+00  0.0000E+00
    -17.060  0.0000E+00  0.0000E+00  0.0000E+00
    -16.949  0.0000E+00  0.0000E+00  0.0000E+00
    -16.837  0.0000E+00  0.0000E+00  0.0000E+00
    -16.725  0.0000E+00  0.0000E+00  0.0000E+00
    -16.613  0.0000E+00  0.0000E+00  0.0000E+00
    -16.501  0.0000E+00  0.0000E+00  0.0000E+00
    -16.389  0.5580E-03  0.8797E-04  0.1097E+02
    -16.277  0.5090E-03  0.1156E-03  0.1097E+02
    -16.165  0.1863E-08  0.8096E-07  0.5239E+02
    -16.053  0.0000E+00  0.0000E+00  0.0000E+00
    -15.941  0.0000E+00  0.0000E+00  0.0000E+00
    -15.829  0.0000E+00  0.0000E+00  0.0000E+00
    -15.717  0.0000E+00  0.0000E+00  0.0000E+00
    -15.605  0.0000E+00  0.0000E+00  0.0000E+00
    -15.493  0.0000E+00  0.0000E+00  0.0000E+00
    -15.381  0.0000E+00  0.0000E+00  0.0000E+00
    -15.270  0.0000E+00  0.0000E+00  0.0000E+00
    -15.158  0.0000E+00  0.0000E+00  0.0000E+00
    -15.046  0.0000E+00  0.0000E+00  0.0000E+00
    -14.934  0.0000E+00  0.0000E+00  0.0000E+00
    -14.822  0.0000E+00  0.0000E+00  0.0000E+00
    -14.710  0.0000E+00  0.0000E+00  0.0000E+00
    -14.598  0.0000E+00  0.0000E+00  0.0000E+00
    -14.486  0.1752E-07  0.5743E-22  0.8057E-21
    -14.374  0.5671E-01  0.9773E-03  0.3662E-02
    -14.262  0.1275E+00  0.9267E-02  0.6297E-02
    -14.150  0.1063E+00  0.1031E-01  0.1105E+00
    -14.038  0.1565E-02  0.6586E-01  0.5332E-02
    -13.926  0.1318E-01  0.1128E-04  0.4315E-01
    -13.814  0.5263E-02  0.7211E-02  0.2758E+00
    -13.702  0.6198E-13  0.4128E-14  0.2152E+00
    -13.591  0.0000E+00  0.0000E+00  0.0000E+00
    -13.479  0.0000E+00  0.0000E+00  0.0000E+00
    -13.367  0.0000E+00  0.0000E+00  0.0000E+00
    -13.255  0.0000E+00  0.0000E+00  0.0000E+00
    -13.143  0.0000E+00  0.0000E+00  0.0000E+00
    -13.031  0.0000E+00  0.0000E+00  0.0000E+00
    -12.919  0.0000E+00  0.0000E+00  0.0000E+00
    -12.807  0.0000E+00  0.0000E+00  0.0000E+00