       N       E                     dE             d eps       ncg     rms          rms(c)
DAV:   1     0.144905114760E+03    0.14491E+03   -0.13811E+04   648   0.790E+02
DAV:   2    -0.157765409158E+03   -0.30267E+03   -0.29118E+03   800   0.250E+02
DAV:   3    -0.187797445844E+03   -0.30032E+02   -0.29880E+02   832   0.869E+01
DAV:   4    -0.188466258497E+03   -0.66881E+00   -0.66814E+00   792   0.176E+01
DAV:   5    -0.188487043843E+03   -0.20785E-01   -0.20782E-01   856   0.252E+00    0.366E+00
DAV:   6    -0.178655978083E+03    0.98311E+01   -0.28082E+00   728   0.239E+01    0.261E+00
DAV:   7    -0.178592476422E+03    0.63502E-01   -0.85793E-01   904   0.403E+00    0.130E+00
DAV:   8    -0.178610854556E+03   -0.18378E-01   -0.32441E-02   720   0.123E+00    0.743E-01
DAV:   9    -0.178620800646E+03   -0.99461E-02   -0.17688E-02   704   0.991E-01    0.168E-01
DAV:  10    -0.178621036560E+03   -0.23591E-03   -0.77988E-04   824   0.235E-01    0.924E-02
DAV:  11    -0.178621652873E+03   -0.61631E-03   -0.71829E-04   688   0.208E-01    0.513E-02
DAV:  12    -0.178621491680E+03    0.16119E-03   -0.11853E-04   776   0.101E-01    0.118E-02
DAV:  13    -0.178621488615E+03    0.30652E-05   -0.13891E-05   760   0.209E-02    0.228E-03
DAV:  14    -0.178621488013E+03    0.60140E-06   -0.35273E-07   552   0.378E-03
   1 F= -.17862149E+03 E0= -.17862149E+03  d E =-.476803E-40
