PROCAR new format
# of k-points:   10         # of bands:   32         # of ions:    5

 k-point     1 :    0.00000000 0.00000000 0.00000000     weight = 0.01562500

band     1 # energy  -21.24267676 # occ.  2.00000000

ion      s      p      d    tot
    1  0.887  0.000  0.000  0.887
    2  0.000  0.000  0.000  0.000
    3  0.000  0.000  0.000  0.000
    4  0.000  0.000  0.000  0.000
    5  0.000  0.000  0.000  0.000
tot    0.887  0.000  0.000  0.887

band     2 # energy  -16.42846263 # occ.  2.00000000

ion      s      p      d    tot
    1  0.000  0.000  0.000  0.000
    2  0.000  0.000  0.910  0.910
    3  0.008  0.000  0.000  0.008
    4  0.032  0.000  0.000  0.032
    5  0.008  0.000  0.000  0.008
tot    0.047  0.000  0.910  0.958

band     3 # energy  -16.42846178 # occ.  2.00000000

ion      s      p      d    tot
    1  0.000  0.000  0.000  0.000
    2  0.000  0.000  0.910  0.910
    3  0.024  0.000  0.000  0.024
    4  0.000  0.000  0.000  0.000
    5  0.024  0.000  0.000  0.024
tot    0.047  0.000  0.910  0.958

band     4 # energy  -16.23106635 # occ.  2.00000000

ion      s      p      d    tot
    1  0.000  0.000  0.000  0.000
    2  0.000  0.000  0.978  0.978
    3  0.000  0.000  0.000  0.000
    4  0.000  0.000  0.000  0.000
    5  0.000  0.000  0.000  0.000
tot    0.000  0.000  0.978  0.978

band     5 # energy  -16.23106634 # occ.  2.00000000

ion      s      p      d    tot
    1  0.000  0.000  0.000  0.000
    2  0.000  0.000  0.978  0.978
    3  0.000  0.000  0.000  0.000
    4  0.000  0.000  0.000  0.000
    5  0.000  0.000  0.000  0.000
tot    0.000  0.000  0.978  0.978

band     6 # energy  -16.23106633 # occ.  2.00000000

ion      s      p      d    tot
    1  0.000  0.000  0.000  0.000
    2  0.000  0.000  0.978  0.978
    3  0.000  0.000  0.000  0.000
    4  0.000  0.000  0.000  0.000
    5  0.000  0.000  0.000  0.000
tot    0.000  0.000  0.978  0.978

band     7 # energy  -14.45322451 # occ.  2.00000000

ion      s      p      d    tot
    1  0.001  0.000  0.000  0.001
    2  0.035  0.000  0.000  0.035
    3  0.244  0.000  0.000  0.244
    4  0.244  0.000  0.000  0.244
    5  0.244  0.000  0.000  0.244
tot    0.768  0.000  0.000  0.769

band     8 # energy  -13.73407999 # occ.  2.00000000

ion      s      p      d    tot
    1  0.000  0.000  0.000  0.000
    2  0.000  0.000  0.070  0.070
    3  0.382  0.000  0.000  0.382
    4  0.000  0.000  0.000  0.000
    5  0.383  0.000  0.000  0.383
tot    0.765  0.000  0.070  0.835

band     9 # energy  -13.73407999 # occ.  2.00000000

ion      s      p      d    tot
    1  0.000  0.000  0.000  0.000
    2  0.000  0.000  0.070  0.070
    3  0.128  0.000  0.000  0.128
    4  0.510  0.000  0.000  0.510
    5  0.127  0.000  0.000  0.127
tot    0.765  0.000  0.070  0.835

band    10 # energy   -7.58605768 # occ.  2.00000000

ion      s      p      d    tot
    1  0.000  0.776  0.000  0.776
    2  0.000  0.000  0.000  0.000
    3  0.000  0.001  0.000  0.001
    4  0.000  0.001  0.000  0.001
    5  0.000  0.001  0.000  0.001
tot    0.000  0.778  0.000  0.778

band    11 # energy   -7.58605766 # occ.  2.00000000

ion      s      p      d    tot
    1  0.000  0.776  0.000  0.776
    2  0.000  0.000  0.000  0.000
    3  0.000  0.001  0.000  0.001
    4  0.000  0.001  0.000  0.001
    5  0.000  0.001  0.000  0.001
tot    0.000  0.778  0.000  0.778

band    12 # energy   -7.58605750 # occ.  2.00000000

ion      s      p      d    tot
    1  0.000  0.776  0.000  0.776
    2  0.000  0.000  0.000  0.000
    3  0.000  0.001  0.000  0.001
    4  0.000  0.000  0.000  0.000
    5  0.000  0.001  0.000  0.001
tot    0.000  0.778  0.000  0.778

band    13 # energy   -6.35910751 # occ.  2.00000000

ion      s      p      d    tot
    1  0.000  0.000  0.000  0.000
    2  0.720  0.000  0.000  0.720
    3  0.026  0.000  0.002  0.029
    4  0.026  0.000  0.002  0.029
    5  0.026  0.000  0.002  0.029
tot    0.799  0.000  0.007  0.806

band    14 # energy   -3.47908736 # occ.  2.00000000

ion      s      p      d    tot
    1  0.000  0.006  0.000  0.006
    2  0.000  0.098  0.000  0.098
    3  0.000  0.114  0.000  0.114
    4  0.000  0.034  0.000  0.034
    5  0.000  0.278  0.000  0.278
tot    0.000  0.529  0.000  0.529

band    15 # energy   -3.47908736 # occ.  2.00000000

ion      s      p      d    tot
    1  0.000  0.006  0.000  0.006
    2  0.000  0.098  0.000  0.098
    3  0.000  0.278  0.000  0.278
    4  0.000  0.034  0.000  0.034
    5  0.000  0.114  0.000  0.114
tot    0.000  0.529  0.000  0.529

band    16 # energy   -3.47908718 # occ.  2.00000000

ion      s      p      d    tot
    1  0.000  0.006  0.000  0.006
    2  0.000  0.098  0.000  0.098
    3  0.000  0.034  0.000  0.034
    4  0.000  0.358  0.000  0.358
    5  0.000  0.034  0.000  0.034
tot    0.000  0.529  0.000  0.529

band    17 # energy   -1.33436234 # occ.  2.00000000

ion      s      p      d    tot
    1  0.000  0.000  0.000  0.000
    2  0.000  0.000  0.000  0.000
    3  0.000  0.139  0.000  0.139
    4  0.000  0.297  0.000  0.297
    5  0.000  0.157  0.000  0.157
tot    0.000  0.593  0.000  0.593

band    18 # energy   -1.33436234 # occ.  2.00000000

ion      s      p      d    tot
    1  0.000  0.000  0.000  0.000
    2  0.000  0.000  0.000  0.000
    3  0.000  0.158  0.000  0.158
    4  0.000  0.296  0.000  0.296
    5  0.000  0.140  0.000  0.140
tot    0.000  0.593  0.000  0.593

band    19 # energy   -1.33436226 # occ.  2.00000000

ion      s      p      d    tot
    1  0.000  0.000  0.000  0.000
    2  0.000  0.000  0.000  0.000
    3  0.000  0.296  0.000  0.296
    4  0.000  0.001  0.000  0.001
    5  0.000  0.296  0.000  0.296
tot    0.000  0.593  0.000  0.593

band    20 # energy   -1.22239049 # occ.  2.00000000

ion      s      p      d    tot
    1  0.000  0.008  0.000  0.008
    2  0.000  0.005  0.000  0.005
    3  0.000  0.189  0.000  0.189
    4  0.000  0.246  0.000  0.246
    5  0.000  0.172  0.000  0.172
tot    0.000  0.619  0.000  0.619

band    21 # energy   -1.22239049 # occ.  2.00000000

ion      s      p      d    tot
    1  0.000  0.008  0.000  0.008
    2  0.000  0.005  0.000  0.005
    3  0.000  0.172  0.000  0.172
    4  0.000  0.246  0.000  0.246
    5  0.000  0.189  0.000  0.189
tot    0.000  0.619  0.000  0.619

band    22 # energy   -1.22239037 # occ.  2.00000000

ion      s      p      d    tot
    1  0.000  0.008  0.000  0.008
    2  0.000  0.005  0.000  0.005
    3  0.000  0.246  0.000  0.246
    4  0.000  0.114  0.000  0.114
    5  0.000  0.246  0.000  0.246
tot    0.000  0.619  0.000  0.619

band    23 # energy    4.39448268 # occ.  0.00000000

ion      s      p      d    tot
    1  0.047  0.000  0.000  0.047
    2  0.005  0.000  0.000  0.005
    3  0.018  0.000  0.003  0.022
    4  0.018  0.000  0.003  0.022
    5  0.018  0.000  0.003  0.022
tot    0.107  0.000  0.010  0.117

band    24 # energy    5.43122536 # occ.  0.00000000

ion      s      p      d    tot
    1  0.000  0.000  0.119  0.119
    2  0.000  0.000  0.000  0.000
    3  0.008  0.000  0.005  0.012
    4  0.000  0.000  0.014  0.014
    5  0.007  0.000  0.005  0.012
tot    0.015  0.000  0.142  0.157

band    25 # energy    5.43122539 # occ.  0.00000000

ion      s      p      d    tot
    1  0.000  0.000  0.119  0.119
    2  0.000  0.000  0.000  0.000
    3  0.002  0.000  0.011  0.013
    4  0.010  0.000  0.002  0.012
    5  0.003  0.000  0.011  0.013
tot    0.015  0.000  0.142  0.157

band    26 # energy    6.29274592 # occ.  0.00000000

ion      s      p      d    tot
    1  0.000  0.000  0.136  0.136
    2  0.000  0.000  0.018  0.018
    3  0.000  0.000  0.016  0.016
    4  0.000  0.000  0.016  0.016
    5  0.000  0.000  0.016  0.016
tot    0.000  0.000  0.203  0.203

band    27 # energy    6.29274592 # occ.  0.00000000

ion      s      p      d    tot
    1  0.000  0.000  0.136  0.136
    2  0.000  0.000  0.018  0.018
    3  0.000  0.000  0.017  0.017
    4  0.000  0.000  0.015  0.015
    5  0.000  0.000  0.017  0.017
tot    0.000  0.000  0.203  0.203

band    28 # energy    6.29274593 # occ.  0.00000000

ion      s      p      d    tot
    1  0.000  0.000  0.136  0.136
    2  0.000  0.000  0.018  0.018
    3  0.000  0.000  0.016  0.016
    4  0.000  0.000  0.018  0.018
    5  0.000  0.000  0.016  0.016
tot    0.000  0.000  0.203  0.203

band    29 # energy    7.03129211 # occ.  0.00000000

ion      s      p      d    tot
    1  0.000  0.000  0.000  0.000
    2  0.000  0.411  0.000  0.411
    3  0.000  0.124  0.000  0.124
    4  0.000  0.023  0.000  0.023
    5  0.000  0.126  0.000  0.126
tot    0.000  0.685  0.000  0.685

band    30 # energy    7.03129212 # occ.  0.00000000

ion      s      p      d    tot
    1  0.000  0.000  0.000  0.000
    2  0.000  0.411  0.000  0.411
    3  0.000  0.128  0.000  0.128
    4  0.000  0.019  0.000  0.019
    5  0.000  0.126  0.000  0.126
tot    0.000  0.685  0.000  0.685

band    31 # energy    7.03129236 # occ.  0.00000000

ion      s      p      d    tot
    1  0.000  0.000  0.000  0.000
    2  0.000  0.411  0.000  0.411
    3  0.000  0.021  0.000  0.021
    4  0.000  0.231  0.000  0.231
    5  0.000  0.021  0.000  0.021
tot    0.000  0.685  0.000  0.685

band    32 # energy    9.19628041 # occ.  0.00000000

ion      s      p      d    tot
    1  0.000  0.000  0.132  0.132
    2  0.000  0.000  0.046  0.046
    3  0.000  0.000  0.019  0.019
    4  0.000  0.000  0.043  0.043
    5  0.000  0.000  0.041  0.041
tot    0.000  0.000  0.281  0.281


 k-point     2 :    0.25000000 0.00000000 0.00000000     weight = 0.09375000

band     1 # energy  -21.24202812 # occ.  2.00000000

ion      s      p      d    tot
    1  0.887  0.000  0.000  0.887
    2  0.000  0.000  0.000  0.000
    3  0.000  0.000  0.000  0.000
    4  0.000  0.000  0.000  0.000
    5  0.000  0.000  0.000  0.000
tot    0.888  0.000  0.000  0.888

band     2 # energy  -16.42822240 # occ.  2.00000000

ion      s      p      d    tot
    1  0.000  0.000  0.000  0.000
    2  0.000  0.000  0.910  0.910
    3  0.024  0.000  0.000  0.024
    4  0.024  0.000  0.000  0.024
    5  0.000  0.000  0.000  0.000
tot    0.047  0.000  0.910  0.958

band     3 # energy  -16.39375602 # occ.  2.00000000

ion      s      p      d    tot
    1  0.000  0.000  0.000  0.000
    2  0.000  0.000  0.926  0.926
    3  0.009  0.000  0.000  0.009
    4  0.009  0.000  0.000  0.009
    5  0.016  0.001  0.000  0.018
tot    0.034  0.001  0.927  0.962

band     4 # energy  -16.23149352 # occ.  2.00000000

ion      s      p      d    tot
    1  0.000  0.000  0.000  0.000
    2  0.000  0.000  0.977  0.977
    3  0.000  0.000  0.000  0.000
    4  0.000  0.000  0.000  0.000
    5  0.000  0.000  0.000  0.000
tot    0.000  0.000  0.978  0.978

band     5 # energy  -16.23149351 # occ.  2.00000000

ion      s      p      d    tot
    1  0.000  0.000  0.000  0.000
    2  0.000  0.000  0.977  0.977
    3  0.000  0.000  0.000  0.000
    4  0.000  0.000  0.000  0.000
    5  0.000  0.000  0.000  0.000
tot    0.000  0.000  0.978  0.978

band     6 # energy  -16.23098317 # occ.  2.00000000

ion      s      p      d    tot
    1  0.000  0.000  0.000  0.000
    2  0.000  0.000  0.978  0.978
    3  0.000  0.000  0.000  0.000
    4  0.000  0.000  0.000  0.000
    5  0.000  0.000  0.000  0.000
tot    0.000  0.000  0.978  0.978

band     7 # energy  -14.38458239 # occ.  2.00000000

ion      s      p      d    tot
    1  0.000  0.000  0.000  0.001
    2  0.030  0.001  0.002  0.033
    3  0.254  0.000  0.000  0.254
    4  0.254  0.000  0.000  0.254
    5  0.232  0.000  0.000  0.233
tot    0.770  0.001  0.003  0.774

band     8 # energy  -13.86221477 # occ.  2.00000000

ion      s      p      d    tot
    1  0.000  0.000  0.000  0.000
    2  0.001  0.002  0.048  0.050
    3  0.115  0.000  0.000  0.115
    4  0.115  0.000  0.000  0.115
    5  0.541  0.000  0.000  0.541
tot    0.771  0.002  0.048  0.821

band     9 # energy  -13.73320124 # occ.  2.00000000

ion      s      p      d    tot
    1  0.000  0.000  0.000  0.000
    2  0.000  0.000  0.070  0.070
    3  0.383  0.000  0.000  0.383
    4  0.383  0.000  0.000  0.383
    5  0.000  0.000  0.000  0.000
tot    0.765  0.000  0.070  0.835

band    10 # energy   -7.58030796 # occ.  2.00000000

ion      s      p      d    tot
    1  0.000  0.777  0.000  0.777
    2  0.000  0.000  0.000  0.000
    3  0.001  0.000  0.000  0.001
    4  0.001  0.000  0.000  0.001
    5  0.000  0.000  0.000  0.000
tot    0.002  0.778  0.000  0.780

band    11 # energy   -7.58028053 # occ.  2.00000000

ion      s      p      d    tot
    1  0.000  0.778  0.000  0.778
    2  0.000  0.000  0.000  0.000
    3  0.000  0.000  0.000  0.000
    4  0.000  0.000  0.000  0.000
    5  0.000  0.001  0.000  0.001
tot    0.000  0.779  0.000  0.780

band    12 # energy   -7.58028036 # occ.  2.00000000

ion      s      p      d    tot
    1  0.000  0.778  0.000  0.778
    2  0.000  0.000  0.000  0.000
    3  0.000  0.000  0.000  0.000
    4  0.000  0.000  0.000  0.000
    5  0.000  0.001  0.000  0.001
tot    0.000  0.779  0.000  0.780

band    13 # energy   -6.79624956 # occ.  2.00000000

ion      s      p      d    tot
    1  0.000  0.000  0.000  0.000
    2  0.648  0.002  0.001  0.652
    3  0.027  0.000  0.002  0.029
    4  0.027  0.000  0.002  0.029
    5  0.010  0.044  0.001  0.055
tot    0.712  0.047  0.006  0.765

band    14 # energy   -3.43251531 # occ.  2.00000000

ion      s      p      d    tot
    1  0.000  0.003  0.000  0.003
    2  0.000  0.099  0.000  0.099
    3  0.000  0.373  0.000  0.373
    4  0.000  0.038  0.000  0.038
    5  0.000  0.018  0.000  0.019
tot    0.000  0.531  0.000  0.532

band    15 # energy   -3.43251513 # occ.  2.00000000

ion      s      p      d    tot
    1  0.000  0.003  0.000  0.003
    2  0.000  0.099  0.000  0.099
    3  0.000  0.038  0.000  0.038
    4  0.000  0.373  0.000  0.373
    5  0.000  0.018  0.000  0.019
tot    0.000  0.531  0.000  0.532

band    16 # energy   -2.53812953 # occ.  2.00000000

ion      s      p      d    tot
    1  0.001  0.005  0.000  0.005
    2  0.050  0.067  0.004  0.121
    3  0.001  0.095  0.000  0.096
    4  0.001  0.095  0.000  0.096
    5  0.010  0.231  0.001  0.241
tot    0.062  0.491  0.006  0.559

band    17 # energy   -1.39748680 # occ.  2.00000000

ion      s      p      d    tot
    1  0.000  0.002  0.000  0.002
    2  0.000  0.000  0.001  0.002
    3  0.000  0.003  0.000  0.003
    4  0.000  0.119  0.000  0.119
    5  0.000  0.461  0.000  0.461
tot    0.000  0.585  0.002  0.586

band    18 # energy   -1.39748673 # occ.  2.00000000

ion      s      p      d    tot
    1  0.000  0.002  0.000  0.002
    2  0.000  0.000  0.001  0.002
    3  0.000  0.119  0.000  0.119
    4  0.000  0.003  0.000  0.003
    5  0.000  0.461  0.000  0.461
tot    0.000  0.585  0.002  0.586

band    19 # energy   -1.39614038 # occ.  2.00000000

ion      s      p      d    tot
    1  0.000  0.000  0.001  0.001
    2  0.000  0.000  0.000  0.000
    3  0.000  0.290  0.000  0.290
    4  0.000  0.290  0.000  0.290
    5  0.000  0.000  0.000  0.000
tot    0.000  0.580  0.001  0.582

band    20 # energy   -1.27839509 # occ.  2.00000000

ion      s      p      d    tot
    1  0.000  0.005  0.001  0.006
    2  0.000  0.004  0.000  0.004
    3  0.000  0.092  0.000  0.092
    4  0.000  0.414  0.000  0.414
    5  0.000  0.093  0.000  0.093
tot    0.000  0.608  0.001  0.609

band    21 # energy   -1.27839496 # occ.  2.00000000

ion      s      p      d    tot
    1  0.000  0.005  0.001  0.006
    2  0.000  0.004  0.000  0.004
    3  0.000  0.414  0.000  0.414
    4  0.000  0.092  0.000  0.092
    5  0.000  0.093  0.000  0.093
tot    0.000  0.608  0.001  0.609

band    22 # energy   -1.19038169 # occ.  2.00000000

ion      s      p      d    tot
    1  0.001  0.002  0.000  0.003
    2  0.030  0.011  0.004  0.045
    3  0.000  0.171  0.000  0.172
    4  0.000  0.171  0.000  0.172
    5  0.000  0.236  0.001  0.237
tot    0.032  0.592  0.005  0.629

band    23 # energy    4.93125994 # occ.  0.00000000

ion      s      p      d    tot
    1  0.037  0.007  0.002  0.046
    2  0.008  0.037  0.000  0.045
    3  0.012  0.028  0.003  0.043
    4  0.012  0.028  0.003  0.043
    5  0.030  0.007  0.000  0.037
tot    0.099  0.107  0.009  0.214

band    24 # energy    5.38969414 # occ.  0.00000000

ion      s      p      d    tot
    1  0.006  0.002  0.000  0.008
    2  0.005  0.348  0.007  0.360
    3  0.004  0.008  0.000  0.012
    4  0.004  0.008  0.000  0.012
    5  0.008  0.129  0.023  0.161
tot    0.027  0.495  0.032  0.553

band    25 # energy    5.81339439 # occ.  0.00000000

ion      s      p      d    tot
    1  0.000  0.008  0.112  0.121
    2  0.001  0.008  0.000  0.009
    3  0.004  0.001  0.010  0.016
    4  0.004  0.001  0.010  0.016
    5  0.006  0.003  0.005  0.013
tot    0.015  0.022  0.137  0.174

band    26 # energy    5.87534110 # occ.  0.00000000

ion      s      p      d    tot
    1  0.000  0.000  0.132  0.132
    2  0.000  0.000  0.000  0.000
    3  0.005  0.016  0.003  0.024
    4  0.005  0.016  0.003  0.024
    5  0.000  0.000  0.014  0.014
tot    0.010  0.032  0.153  0.194

band    27 # energy    6.44527112 # occ.  0.00000000

ion      s      p      d    tot
    1  0.000  0.001  0.055  0.056
    2  0.000  0.176  0.008  0.184
    3  0.000  0.141  0.007  0.148
    4  0.000  0.027  0.006  0.033
    5  0.000  0.000  0.019  0.019
tot    0.000  0.345  0.095  0.440

band    28 # energy    6.44527124 # occ.  0.00000000

ion      s      p      d    tot
    1  0.000  0.001  0.055  0.056
    2  0.000  0.176  0.008  0.184
    3  0.000  0.027  0.006  0.033
    4  0.000  0.141  0.007  0.148
    5  0.000  0.000  0.019  0.019
tot    0.000  0.345  0.095  0.440

band    29 # energy    6.50078533 # occ.  0.00000000

ion      s      p      d    tot
    1  0.000  0.000  0.152  0.152
    2  0.000  0.000  0.014  0.014
    3  0.000  0.000  0.012  0.012
    4  0.000  0.000  0.012  0.012
    5  0.000  0.000  0.020  0.020
tot    0.000  0.000  0.211  0.211

band    30 # energy    7.18185368 # occ.  0.00000000

ion      s      p      d    tot
    1  0.000  0.003  0.109  0.112
    2  0.000  0.204  0.005  0.209
    3  0.000  0.093  0.006  0.099
    4  0.000  0.001  0.012  0.014
    5  0.000  0.017  0.000  0.017
tot    0.000  0.319  0.132  0.450

band    31 # energy    7.18185380 # occ.  0.00000000

ion      s      p      d    tot
    1  0.000  0.003  0.109  0.112
    2  0.000  0.204  0.005  0.209
    3  0.000  0.001  0.012  0.014
    4  0.000  0.093  0.006  0.099
    5  0.000  0.017  0.000  0.017
tot    0.000  0.319  0.132  0.450

band    32 # energy    8.47582321 # occ.  0.00000000

ion      s      p      d    tot
    1  0.000  0.000  0.079  0.079
    2  0.000  0.000  0.043  0.043
    3  0.000  0.000  0.043  0.043
    4  0.000  0.000  0.043  0.043
    5  0.000  0.000  0.006  0.006
tot    0.000  0.000  0.216  0.216


 k-point     3 :    0.50000000 0.00000000 0.00000000     weight = 0.04687500

band     1 # energy  -21.24139996 # occ.  2.00000000

ion      s      p      d    tot
    1  0.888  0.000  0.000  0.888
    2  0.000  0.000  0.000  0.000
    3  0.000  0.000  0.000  0.000
    4  0.000  0.000  0.000  0.000
    5  0.000  0.000  0.000  0.000
tot    0.888  0.000  0.000  0.888

band     2 # energy  -16.42794953 # occ.  2.00000000

ion      s      p      d    tot
    1  0.000  0.000  0.000  0.000
    2  0.000  0.000  0.910  0.910
    3  0.024  0.000  0.000  0.024
    4  0.024  0.000  0.000  0.024
    5  0.000  0.000  0.000  0.000
tot    0.047  0.000  0.910  0.958

band     3 # energy  -16.35835407 # occ.  2.00000000

ion      s      p      d    tot
    1  0.000  0.000  0.000  0.000
    2  0.000  0.000  0.944  0.944
    3  0.010  0.000  0.000  0.010
    4  0.010  0.000  0.000  0.010
    5  0.000  0.002  0.000  0.002
tot    0.021  0.002  0.944  0.966

band     4 # energy  -16.23191288 # occ.  2.00000000

ion      s      p      d    tot
    1  0.000  0.000  0.000  0.000
    2  0.000  0.000  0.977  0.977
    3  0.000  0.000  0.000  0.000
    4  0.000  0.000  0.000  0.000
    5  0.000  0.000  0.000  0.000
tot    0.000  0.000  0.977  0.977

band     5 # energy  -16.23191287 # occ.  2.00000000

ion      s      p      d    tot
    1  0.000  0.000  0.000  0.000
    2  0.000  0.000  0.977  0.977
    3  0.000  0.000  0.000  0.000
    4  0.000  0.000  0.000  0.000
    5  0.000  0.000  0.000  0.000
tot    0.000  0.000  0.977  0.977

band     6 # energy  -16.23078206 # occ.  2.00000000

ion      s      p      d    tot
    1  0.000  0.000  0.000  0.000
    2  0.000  0.000  0.978  0.978
    3  0.000  0.000  0.000  0.000
    4  0.000  0.000  0.000  0.000
    5  0.000  0.000  0.000  0.000
tot    0.000  0.000  0.978  0.978

band     7 # energy  -14.23569696 # occ.  2.00000000

ion      s      p      d    tot
    1  0.000  0.000  0.000  0.000
    2  0.027  0.000  0.029  0.056
    3  0.365  0.000  0.000  0.365
    4  0.365  0.000  0.000  0.365
    5  0.000  0.001  0.000  0.001
tot    0.757  0.001  0.029  0.788

band     8 # energy  -14.07198141 # occ.  2.00000000

ion      s      p      d    tot
    1  0.000  0.000  0.000  0.000
    2  0.000  0.005  0.000  0.005
    3  0.000  0.000  0.000  0.000
    4  0.000  0.000  0.000  0.000
    5  0.793  0.000  0.000  0.793
tot    0.793  0.005  0.000  0.798

band     9 # energy  -13.73233154 # occ.  2.00000000

ion      s      p      d    tot
    1  0.000  0.000  0.000  0.000
    2  0.000  0.000  0.070  0.070
    3  0.383  0.000  0.000  0.383
    4  0.383  0.000  0.000  0.383
    5  0.000  0.000  0.000  0.000
tot    0.765  0.000  0.070  0.835

band    10 # energy   -7.57504362 # occ.  2.00000000

ion      s      p      d    tot
    1  0.000  0.779  0.000  0.779
    2  0.000  0.000  0.000  0.000
    3  0.001  0.000  0.000  0.001
    4  0.001  0.000  0.000  0.001
    5  0.000  0.000  0.000  0.000
tot    0.003  0.779  0.000  0.782

band    11 # energy   -7.57443132 # occ.  2.00000000

ion      s      p      d    tot
    1  0.000  0.780  0.000  0.780
    2  0.000  0.000  0.000  0.000
    3  0.000  0.000  0.000  0.000
    4  0.000  0.000  0.000  0.000
    5  0.000  0.001  0.000  0.001
tot    0.000  0.781  0.000  0.781

band    12 # energy   -7.57443115 # occ.  2.00000000

ion      s      p      d    tot
    1  0.000  0.780  0.000  0.780
    2  0.000  0.000  0.000  0.000
    3  0.000  0.000  0.000  0.000
    4  0.000  0.000  0.000  0.000
    5  0.000  0.001  0.000  0.001
tot    0.000  0.781  0.000  0.781

band    13 # energy   -7.10260090 # occ.  2.00000000

ion      s      p      d    tot
    1  0.000  0.000  0.000  0.000
    2  0.624  0.000  0.003  0.627
    3  0.029  0.000  0.002  0.031
    4  0.029  0.000  0.002  0.031
    5  0.000  0.060  0.000  0.060
tot    0.681  0.060  0.006  0.748

band    14 # energy   -3.38261023 # occ.  2.00000000

ion      s      p      d    tot
    1  0.000  0.000  0.000  0.000
    2  0.000  0.101  0.000  0.101
    3  0.000  0.390  0.000  0.390
    4  0.000  0.043  0.000  0.043
    5  0.000  0.000  0.001  0.001
tot    0.000  0.533  0.001  0.534

band    15 # energy   -3.38261004 # occ.  2.00000000

ion      s      p      d    tot
    1  0.000  0.000  0.000  0.000
    2  0.000  0.101  0.000  0.101
    3  0.000  0.043  0.000  0.043
    4  0.000  0.390  0.000  0.390
    5  0.000  0.000  0.001  0.001
tot    0.000  0.533  0.001  0.534

band    16 # energy   -1.94878209 # occ.  2.00000000

ion      s      p      d    tot
    1  0.003  0.000  0.000  0.003
    2  0.000  0.019  0.000  0.019
    3  0.000  0.247  0.000  0.247
    4  0.000  0.247  0.000  0.247
    5  0.009  0.000  0.000  0.009
tot    0.012  0.512  0.000  0.524

band    17 # energy   -1.47358072 # occ.  2.00000000

ion      s      p      d    tot
    1  0.000  0.007  0.000  0.007
    2  0.000  0.000  0.003  0.003
    3  0.000  0.000  0.000  0.000
    4  0.000  0.000  0.000  0.000
    5  0.000  0.569  0.000  0.569
tot    0.000  0.576  0.004  0.580

band    18 # energy   -1.47358064 # occ.  2.00000000

ion      s      p      d    tot
    1  0.000  0.007  0.000  0.007
    2  0.000  0.000  0.003  0.003
    3  0.000  0.000  0.000  0.000
    4  0.000  0.000  0.000  0.000
    5  0.000  0.569  0.000  0.569
tot    0.000  0.576  0.004  0.580

band    19 # energy   -1.45531021 # occ.  2.00000000

ion      s      p      d    tot
    1  0.000  0.000  0.002  0.002
    2  0.000  0.000  0.000  0.000
    3  0.000  0.284  0.000  0.284
    4  0.000  0.284  0.000  0.284
    5  0.000  0.000  0.000  0.000
tot    0.000  0.568  0.002  0.571

band    20 # energy   -1.32305527 # occ.  2.00000000

ion      s      p      d    tot
    1  0.000  0.000  0.002  0.002
    2  0.000  0.003  0.000  0.003
    3  0.000  0.071  0.000  0.071
    4  0.000  0.523  0.000  0.523
    5  0.000  0.000  0.000  0.000
tot    0.000  0.598  0.002  0.599

band    21 # energy   -1.32305515 # occ.  2.00000000

ion      s      p      d    tot
    1  0.000  0.000  0.002  0.002
    2  0.000  0.003  0.000  0.003
    3  0.000  0.523  0.000  0.523
    4  0.000  0.071  0.000  0.071
    5  0.000  0.000  0.000  0.000
tot    0.000  0.598  0.002  0.599

band    22 # energy   -0.61683170 # occ.  2.00000000

ion      s      p      d    tot
    1  0.000  0.000  0.000  0.000
    2  0.127  0.000  0.020  0.147
    3  0.001  0.000  0.001  0.002
    4  0.001  0.000  0.001  0.002
    5  0.000  0.559  0.000  0.559
tot    0.129  0.559  0.023  0.711

band    23 # energy    3.63952191 # occ.  0.00000000

ion      s      p      d    tot
    1  0.000  0.000  0.000  0.000
    2  0.000  0.431  0.000  0.431
    3  0.000  0.032  0.000  0.032
    4  0.000  0.032  0.000  0.032
    5  0.035  0.000  0.030  0.065
tot    0.035  0.495  0.030  0.560

band    24 # energy    5.82102891 # occ.  0.00000000

ion      s      p      d    tot
    1  0.035  0.000  0.051  0.087
    2  0.000  0.003  0.000  0.003
    3  0.000  0.042  0.000  0.042
    4  0.000  0.042  0.000  0.042
    5  0.023  0.000  0.011  0.034
tot    0.058  0.088  0.063  0.208

band    25 # energy    6.38444423 # occ.  0.00000000

ion      s      p      d    tot
    1  0.000  0.060  0.000  0.060
    2  0.004  0.000  0.000  0.004
    3  0.024  0.000  0.013  0.037
    4  0.024  0.000  0.013  0.037
    5  0.000  0.002  0.000  0.002
tot    0.052  0.062  0.025  0.139

band    26 # energy    6.43034953 # occ.  0.00000000

ion      s      p      d    tot
    1  0.000  0.000  0.010  0.010
    2  0.000  0.298  0.000  0.298
    3  0.000  0.230  0.000  0.230
    4  0.000  0.031  0.000  0.031
    5  0.000  0.000  0.020  0.020
tot    0.000  0.559  0.030  0.590

band    27 # energy    6.43034973 # occ.  0.00000000

ion      s      p      d    tot
    1  0.000  0.000  0.010  0.010
    2  0.000  0.298  0.000  0.298
    3  0.000  0.031  0.000  0.031
    4  0.000  0.230  0.000  0.230
    5  0.000  0.000  0.020  0.020
tot    0.000  0.559  0.030  0.590

band    28 # energy    6.44728049 # occ.  0.00000000

ion      s      p      d    tot
    1  0.000  0.000  0.160  0.160
    2  0.000  0.000  0.000  0.000
    3  0.000  0.038  0.000  0.038
    4  0.000  0.038  0.000  0.038
    5  0.000  0.000  0.015  0.015
tot    0.000  0.077  0.174  0.251

band    29 # energy    6.86775466 # occ.  0.00000000

ion      s      p      d    tot
    1  0.000  0.000  0.215  0.215
    2  0.000  0.000  0.000  0.000
    3  0.000  0.000  0.000  0.000
    4  0.000  0.000  0.000  0.000
    5  0.000  0.000  0.027  0.027
tot    0.000  0.000  0.242  0.242

band    30 # energy    7.75603754 # occ.  0.00000000

ion      s      p      d    tot
    1  0.000  0.000  0.000  0.000
    2  0.000  0.000  0.055  0.055
    3  0.000  0.000  0.053  0.053
    4  0.000  0.000  0.053  0.053
    5  0.000  0.000  0.000  0.000
tot    0.000  0.000  0.161  0.161

band    31 # energy    7.96391659 # occ.  0.00000000

ion      s      p      d    tot
    1  0.000  0.000  0.278  0.278
    2  0.000  0.064  0.000  0.064
    3  0.000  0.020  0.000  0.020
    4  0.000  0.025  0.000  0.025
    5  0.000  0.000  0.000  0.000
tot    0.000  0.109  0.278  0.387

band    32 # energy    7.96438785 # occ.  0.00000000

ion      s      p      d    tot
    1  0.000  0.000  0.277  0.278
    2  0.000  0.064  0.000  0.064
    3  0.000  0.025  0.000  0.025
    4  0.000  0.020  0.000  0.020
    5  0.000  0.000  0.000  0.000
tot    0.000  0.109  0.278  0.387


 k-point     4 :    0.25000000 0.25000000 0.00000000     weight = 0.18750000

band     1 # energy  -21.24162002 # occ.  2.00000000

ion      s      p      d    tot
    1  0.888  0.000  0.000  0.888
    2  0.000  0.000  0.000  0.000
    3  0.000  0.000  0.000  0.000
    4  0.000  0.000  0.000  0.000
    5  0.000  0.000  0.000  0.000
tot    0.888  0.000  0.000  0.888

band     2 # energy  -16.41150600 # occ.  2.00000000

ion      s      p      d    tot
    1  0.000  0.000  0.000  0.000
    2  0.000  0.000  0.917  0.918
    3  0.004  0.000  0.000  0.004
    4  0.034  0.000  0.000  0.034
    5  0.004  0.000  0.000  0.004
tot    0.041  0.000  0.918  0.960

band     3 # energy  -16.37482134 # occ.  2.00000000

ion      s      p      d    tot
    1  0.000  0.000  0.000  0.000
    2  0.000  0.000  0.937  0.937
    3  0.013  0.001  0.000  0.014
    4  0.000  0.000  0.000  0.000
    5  0.013  0.001  0.000  0.014
tot    0.026  0.002  0.937  0.965

band     4 # energy  -16.23206910 # occ.  2.00000000

ion      s      p      d    tot
    1  0.000  0.000  0.000  0.000
    2  0.000  0.000  0.977  0.977
    3  0.000  0.000  0.000  0.000
    4  0.000  0.000  0.000  0.000
    5  0.000  0.000  0.000  0.000
tot    0.000  0.000  0.977  0.978

band     5 # energy  -16.23167719 # occ.  2.00000000

ion      s      p      d    tot
    1  0.000  0.000  0.000  0.000
    2  0.000  0.000  0.978  0.978
    3  0.000  0.000  0.000  0.000
    4  0.000  0.000  0.000  0.000
    5  0.000  0.000  0.000  0.000
tot    0.000  0.000  0.978  0.978

band     6 # energy  -16.23146355 # occ.  2.00000000

ion      s      p      d    tot
    1  0.000  0.000  0.000  0.000
    2  0.000  0.000  0.977  0.977
    3  0.000  0.000  0.000  0.000