<?xml version="1.0" encoding="ISO-8859-1"?>
<modeling>
 <generator>
  <i name="program" type="string">vasp </i>
  <i name="version" type="string">5.4.4.18Apr17-6-g9f103f2a35  </i>
  <i name="subversion" type="string">(build Jun 22 2020 09:27:21) complex            parallel </i>
  <i name="platform" type="string">tx2_gcc-7.3_libsci-18.07_cray-fftw-3.3.8 </i>
  <i name="date" type="string">2021 09 20 </i>
  <i name="time" type="string">15:16:37 </i>
 </generator>
 <incar>
  <i type="string" name="SYSTEM"> CsPbBr3 cubic bulk</i>
  <i type="string" name="PREC">accurate</i>
  <i type="string" name="ALGO"> NORMAL   ! Electronic minimisation algo</i>
  <i type="logical" name="ADDGRID"> T  </i>
  <i type="int" name="NELM">   200</i>
  <i type="int" name="IBRION">     2</i>
  <i name="EDIFF">      0.00000100</i>
  <i name="EDIFFG">     -0.01000000</i>
  <i type="int" name="NSW">     0</i>
  <i type="int" name="ISIF">     3</i>
  <i type="int" name="ISYM">     2</i>
  <i name="ENCUT">    300.00000000</i>
  <i name="POTIM">      0.50000000</i>
  <i type="string" name="LREAL"> AUTO</i>
  <i type="int" name="ISMEAR">     0</i>
  <i name="SIGMA">      0.01000000</i>
  <i type="logical" name="LWAVE"> F  </i>
  <i type="logical" name="LCHARG"> F  </i>
  <i type="logical" name="LVHAR"> T  </i>
  <i type="int" name="LORBIT">    10</i>
  <i type="logical" name="LASPH"> T  </i>
  <v type="int" name="KPOINT_BSE">    -1     0     0     0</v>
  <i type="int" name="NELM">   200</i>
  <i type="string" name="METAGGA"> SCAN       ! PBE exchange-correlation</i>
  <i type="logical" name="LASPH"> T  </i>
 </incar>
 <structure name="primitive_cell" >
  <crystal>
   <varray name="basis" >
    <v>       5.90874113       0.00000000      -0.00000000 </v>
    <v>       0.00000000       5.90874113       0.00000000 </v>
    <v>       0.00000000       0.00000000       5.90874113 </v>
   </varray>
   <i name="volume">    206.29318910 </i>
   <varray name="rec_basis" >
    <v>       0.16924079       0.00000000       0.00000000 </v>
    <v>      -0.00000000       0.16924079       0.00000000 </v>
    <v>       0.00000000      -0.00000000       0.16924079 </v>
   </varray>
  </crystal>
  <varray name="positions" >
   <v>      -0.50000000      -0.50000000      -0.50000000 </v>
   <v>       0.00000000      -0.50000000       0.00000000 </v>
   <v>       0.00000000       0.00000000      -0.50000000 </v>
   <v>      -0.50000000       0.00000000       0.00000000 </v>
   <v>       0.00000000       0.00000000       0.00000000 </v>
  </varray>
 </structure>
 <varray name="primitive_index" >
  <v type="int" >        1 </v>
  <v type="int" >        3 </v>
  <v type="int" >        4 </v>
  <v type="int" >        5 </v>
  <v type="int" >        2 </v>
 </varray>
 <kpoints>
  <generation param="Gamma">
   <v type="int" name="divisions">       4        4        4 </v>
   <v name="usershift">      0.00000000       0.00000000       0.00000000 </v>
   <v name="genvec1">      0.25000000       0.00000000       0.00000000 </v>
   <v name="genvec2">      0.00000000       0.25000000       0.00000000 </v>
   <v name="genvec3">      0.00000000       0.00000000       0.25000000 </v>
   <v name="shift">      0.00000000       0.00000000       0.00000000 </v>
  </generation>
  <varray name="kpointlist" >
   <v>       0.00000000       0.00000000       0.00000000 </v>
   <v>       0.25000000       0.00000000       0.00000000 </v>
   <v>       0.50000000       0.00000000       0.00000000 </v>
   <v>       0.25000000       0.25000000       0.00000000 </v>
   <v>       0.50000000       0.25000000       0.00000000 </v>
   <v>       0.50000000       0.50000000       0.00000000 </v>
   <v>       0.25000000       0.25000000       0.25000000 </v>
   <v>       0.50000000       0.25000000       0.25000000 </v>
   <v>       0.50000000       0.50000000       0.25000000 </v>
   <v>       0.50000000       0.50000000       0.50000000 </v>
  </varray>
  <varray name="weights" >
   <v>       0.01562500 </v>
   <v>       0.09375000 </v>
   <v>       0.04687500 </v>
   <v>       0.18750000 </v>
   <v>       0.18750000 </v>
   <v>       0.04687500 </v>
   <v>       0.12500000 </v>
   <v>       0.18750000 </v>
   <v>       0.09375000 </v>
   <v>       0.01562500 </v>
  </varray>
 </kpoints>
 <parameters>
  <separator name="general" >
   <i type="string" name="SYSTEM">CsPbBr3 cubic bulk</i>
   <i type="logical" name="LCOMPAT"> F  </i>
  </separator>
  <separator name="electronic" >
   <i type="string" name="PREC">accura</i>
   <i name="ENMAX">    300.00000000</i>
   <i name="ENAUG">    503.85200000</i>
   <i name="EDIFF">      0.00000100</i>
   <i type="int" name="IALGO">    38</i>
   <i type="int" name="IWAVPR">    10</i>
   <i type="int" name="NBANDS">    32</i>
   <i name="NELECT">     44.00000000</i>
   <i type="int" name="TURBO">     0</i>
   <i type="int" name="IRESTART">     0</i>
   <i type="int" name="NREBOOT">     0</i>
   <i type="int" name="NMIN">     0</i>
   <i name="EREF">      0.00000000</i>
   <separator name="electronic smearing" >
    <i type="int" name="ISMEAR">     0</i>
    <i name="SIGMA">      0.01000000</i>
    <i name="KSPACING">      0.50000000</i>
    <i type="logical" name="KGAMMA"> T  </i>
   </separator>
   <separator name="electronic projectors" >
    <i type="logical" name="LREAL"> T  </i>
    <v name="ROPT">     -0.00025000     -0.00025000     -0.00025000</v>
    <i type="int" name="LMAXPAW">  -100</i>
    <i type="int" name="LMAXMIX">     2</i>
    <i type="logical" name="NLSPLINE"> F  </i>
   </separator>
   <separator name="electronic startup" >
    <i type="int" name="ISTART">     0</i>
    <i type="int" name="ICHARG">     2</i>
    <i type="int" name="INIWAV">     1</i>
   </separator>
   <separator name="electronic spin" >
    <i type="int" name="ISPIN">     1</i>
    <i type="logical" name="LNONCOLLINEAR"> F  </i>
    <v name="MAGMOM">      1.00000000      1.00000000      1.00000000      1.00000000      1.00000000</v>
    <i name="NUPDOWN">     -1.00000000</i>
    <i type="logical" name="LSORBIT"> F  </i>
    <v name="SAXIS">      0.00000000      0.00000000      1.00000000</v>
    <i type="logical" name="LSPIRAL"> F  </i>
    <v name="QSPIRAL">      0.00000000      0.00000000      0.00000000</v>
    <i type="logical" name="LZEROZ"> F  </i>
   </separator>
   <separator name="electronic exchange-correlation" >
    <i type="logical" name="LASPH"> T  </i>
    <i type="logical" name="LMETAGGA"> F  </i>
   </separator>
   <separator name="electronic convergence" >
    <i type="int" name="NELM">   200</i>
    <i type="int" name="NELMDL">     0</i>
    <i type="int" name="NELMIN">     2</i>
    <i name="ENINI">    300.00000000</i>
    <separator name="electronic convergence detail" >
     <i type="logical" name="LDIAG"> T  </i>
     <i type="logical" name="LSUBROT"> F  </i>
     <i name="WEIMIN">      0.00000000</i>
     <i name="EBREAK">      0.00000001</i>
     <i name="DEPER">      0.30000000</i>
     <i type="int" name="NRMM">     4</i>
     <i name="TIME">      0.40000000</i>
    </separator>
   </separator>
   <separator name="electronic mixer" >
    <i name="AMIX">      0.40000000</i>
    <i name="BMIX">      1.00000000</i>
    <i name="AMIN">      0.10000000</i>
    <i name="AMIX_MAG">      1.60000000</i>
    <i name="BMIX_MAG">      1.00000000</i>
    <separator name="electronic mixer details" >
     <i type="int" name="IMIX">     4</i>
     <i type="logical" name="MIXFIRST"> F  </i>
     <i type="int" name="MAXMIX">   -45</i>
     <i name="WC">    100.00000000</i>
     <i type="int" name="INIMIX">     1</i>
     <i type="int" name="MIXPRE">     1</i>
     <i type="int" name="MREMOVE">     5</i>
    </separator>
   </separator>
   <separator name="electronic dipolcorrection" >
    <i type="logical" name="LDIPOL"> F  </i>
    <i type="logical" name="LMONO"> F  </i>
    <i type="int" name="IDIPOL">     0</i>
    <i name="EPSILON">      1.00000000</i>
    <v name="DIPOL">   -100.00000000   -100.00000000   -100.00000000</v>
    <i name="EFIELD">      0.00000000</i>
   </separator>
  </separator>
  <separator name="grids" >
   <i type="int" name="NGX">    36</i>
   <i type="int" name="NGY">    36</i>
   <i type="int" name="NGZ">    36</i>
   <i type="int" name="NGXF">    72</i>
   <i type="int" name="NGYF">    72</i>
   <i type="int" name="NGZF">    72</i>
   <i type="logical" name="ADDGRID"> T  </i>
  </separator>
  <separator name="ionic" >
   <i type="int" name="NSW">     0</i>
   <i type="int" name="IBRION">    -1</i>
   <i type="int" name="MDALGO">     0</i>
   <i type="int" name="ISIF">     3</i>
   <i name="PSTRESS">      0.00000000</i>
   <i name="EDIFFG">     -0.01000000</i>
   <i type="int" name="NFREE">     1</i>
   <i name="POTIM">      0.50000000</i>
   <i name="SMASS">     -3.00000000</i>
   <i name="SCALEE">      1.00000000</i>
  </separator>
  <separator name="ionic md" >
   <i name="TEBEG">      0.00010000</i>
   <i name="TEEND">      0.00010000</i>
   <i type="int" name="NBLOCK">     1</i>
   <i type="int" name="KBLOCK">     1</i>
   <i type="int" name="NPACO">   256</i>
   <i name="APACO">     16.00000000</i>
  </separator>
  <separator name="symmetry" >
   <i type="int" name="ISYM">     2</i>
   <i name="SYMPREC">      0.00001000</i>
  </separator>
  <separator name="dos" >
   <i type="int" name="LORBIT">    10</i>
   <v name="RWIGS">     -1.00000000     -1.00000000     -1.00000000</v>
   <i type="int" name="NEDOS">   301</i>
   <i name="EMIN">     10.00000000</i>
   <i name="EMAX">    -10.00000000</i>
   <i name="EFERMI">      0.00000000</i>
  </separator>
  <separator name="writing" >
   <i type="int" name="NWRITE">     2</i>
   <i type="logical" name="LWAVE"> F  </i>
   <i type="logical" name="LDOWNSAMPLE"> F  </i>
   <i type="logical" name="LCHARG"> F  </i>
   <i type="logical" name="LPARD"> F  </i>
   <i type="logical" name="LVTOT"> F  </i>
   <i type="logical" name="LVHAR"> T  </i>
   <i type="logical" name="LELF"> F  </i>
   <i type="logical" name="LOPTICS"> F  </i>
   <v name="STM">      0.00000000      0.00000000      0.00000000      0.00000000      0.00000000      0.00000000      0.00000000</v>
  </separator>
  <separator name="performance" >
   <i type="int" name="NPAR">     8</i>
   <i type="int" name="NSIM">     4</i>
   <i type="int" name="NBLK">    -1</i>
   <i type="logical" name="LPLANE"> T  </i>
   <i type="logical" name="LSCALAPACK"> T  </i>
   <i type="logical" name="LSCAAWARE"> F  </i>
   <i type="logical" name="LSCALU"> F  </i>
   <i type="logical" name="LASYNC"> F  </i>
   <i type="logical" name="LORBITALREAL"> F  </i>
  </separator>
  <separator name="miscellaneous" >
   <i type="int" name="IDIOT">     3</i>
   <i type="int" name="ISPECIAL">     0</i>
   <i type="logical" name="LMUSIC"> F  </i>
   <v name="POMASS">    132.90000000    207.20000000     79.90400000</v>
   <v name="DARWINR">      0.00000000      0.00000000      0.00000000</v>
   <v name="DARWINV">      1.00000000      1.00000000      1.00000000</v>
   <i type="logical" name="LCORR"> T  </i>
  </separator>
  <i type="logical" name="GGA_COMPAT"> T  </i>
  <i type="logical" name="LBERRY"> F  </i>
  <i type="int" name="ICORELEVEL">     0</i>
  <i type="logical" name="LDAU"> F  </i>
  <i type="int" name="I_CONSTRAINED_M">     0</i>
  <separator name="electronic exchange-correlation" >
   <i type="string" name="GGA">--</i>
   <i type="int" name="VOSKOWN">     0</i>
   <i type="logical" name="LHFCALC"> F  </i>
   <i type="string" name="PRECFOCK"></i>
   <i type="logical" name="LSYMGRAD"> F  </i>
   <i type="logical" name="LHFONE"> F  </i>
   <i type="logical" name="LRHFCALC"> F  </i>
   <i type="logical" name="LTHOMAS"> F  </i>
   <i type="logical" name="LMODELHF"> F  </i>
   <i name="ENCUT4O">     -1.00000000</i>
   <i type="int" name="EXXOEP">     0</i>
   <i type="int" name="FOURORBIT">     0</i>
   <i name="AEXX">      0.00000000</i>
   <i name="HFALPHA">      0.00000000</i>
   <i name="MCALPHA">      0.00000000</i>
   <i name="ALDAX">      1.00000000</i>
   <i name="AGGAX">      1.00000000</i>
   <i name="ALDAC">      1.00000000</i>
   <i name="AGGAC">      1.00000000</i>
   <i type="int" name="NKREDX">     1</i>
   <i type="int" name="NKREDY">     1</i>
   <i type="int" name="NKREDZ">     1</i>
   <i type="logical" name="SHIFTRED"> F  </i>
   <i type="logical" name="ODDONLY"> F  </i>
   <i type="logical" name="EVENONLY"> F  </i>
   <i type="int" name="LMAXFOCK">     0</i>
   <i type="int" name="NMAXFOCKAE">     0</i>
   <i type="logical" name="LFOCKAEDFT"> F  </i>
   <i name="HFSCREEN">      0.00000000</i>
   <i name="HFSCREENC">      0.00000000</i>
   <i type="int" name="NBANDSGWLOW">     0</i>
  </separator>
  <separator name="vdW DFT" >
   <i type="logical" name="LUSE_VDW"> F  </i>
   <i name="Zab_VDW">     -0.84910000</i>
   <i name="PARAM1">      0.12340000</i>
   <i name="PARAM2">      1.00000000</i>
   <i name="PARAM3">      0.00000000</i>
  </separator>
  <separator name="model GW" >
   <i type="int" name="MODEL_GW">     0</i>
   <i name="MODEL_EPS0">     24.75518269</i>
   <i name="MODEL_ALPHA">      1.00000000</i>
  </separator>
  <separator name="linear response parameters" >
   <i type="logical" name="LEPSILON"> F  </i>
   <i type="logical" name="LRPA"> F  </i>
   <i type="logical" name="LNABLA"> F  </i>
   <i type="logical" name="LVEL"> F  </i>
   <i type="int" name="KINTER">     0</i>
   <i name="CSHIFT">      0.10000000</i>
   <i name="OMEGAMAX">     -1.00000000</i>
   <i name="DEG_THRESHOLD">      0.00200000</i>
   <i name="RTIME">     -0.10000000</i>
   <i name="WPLASMAI">      0.00000000</i>
   <v name="DFIELD">      0.00000000      0.00000000      0.00000000</v>
   <v name="WPLASMA">      0.00000000      0.00000000      0.00000000      0.00000000      0.00000000      0.00000000      0.00000000      0.00000000      0.00000000</v>
  </separator>
  <separator name="orbital magnetization" >
   <i type="logical" name="NUCIND"> F  </i>
   <v name="MAGPOS">      0.00000000      0.00000000      0.00000000</v>
   <i type="logical" name="LNICSALL"> T  </i>
   <i type="logical" name="ORBITALMAG"> F  </i>
   <i type="logical" name="LMAGBLOCH"> F  </i>
   <i type="logical" name="LCHIMAG"> F  </i>
   <i type="logical" name="LGAUGE"> T  </i>
   <i type="int" name="MAGATOM">     0</i>
   <v name="MAGDIPOL">      0.00000000      0.00000000      0.00000000</v>
   <v name="AVECCONST">      0.00000000      0.00000000      0.00000000</v>
  </separator>
  <separator name="response functions" >
   <i type="logical" name="LADDER"> F  </i>
   <i type="logical" name="LRPAFORCE"> F  </i>
   <i type="logical" name="LFXC"> F  </i>
   <i type="logical" name="LHARTREE"> T  </i>
   <i type="int" name="IBSE">     0</i>
   <v type="int" name="KPOINT">    -1     0     0     0</v>
   <i type="logical" name="LTCTE"> F  </i>
   <i type="logical" name="LTETE"> F  </i>
   <i type="logical" name="LTRIPLET"> F  </i>
   <i type="logical" name="LFXCEPS"> F  </i>
   <i type="logical" name="LFXHEG"> F  </i>
   <i type="int" name="NATURALO">     2</i>
   <i type="logical" name="L2ORDER"> F  </i>
   <i type="logical" name="LMP2LT"> F  </i>
   <i type="logical" name="LUSEW"> F  </i>
   <i name="ENCUTGW">     -2.00000000</i>
   <i name="ENCUTGWSOFT">     -2.00000000</i>
   <i name="ENCUTLF">     -1.00000000</i>
   <i type="int" name="LMAXMP2">    -1</i>
   <i name="SCISSOR">      0.00000000</i>
   <i type="int" name="NOMEGA">     0</i>
   <i type="int" name="NOMEGAR">     0</i>
   <i type="int" name="NBANDSGW">    -1</i>
   <i type="int" name="NBANDSO">    -1</i>
   <i type="int" name="NBANDSV">    -1</i>
   <i type="int" name="NELM">   200</i>
   <i type="int" name="NELMHF">     1</i>
   <i type="int" name="DIM">     3</i>
   <i type="int" name="ANTIRES">     0</i>
   <i name="OMEGAMAX">    -30.00000000</i>
   <i name="OMEGAMIN">    -30.00000000</i>
   <i name="OMEGATL">   -200.00000000</i>
   <i type="int" name="OMEGAGRID">   140</i>
   <i name="CSHIFT">     -0.10000000</i>
   <i type="logical" name="SELFENERGY"> F  </i>
   <i type="logical" name="LSPECTRAL"> F  </i>
   <i type="logical" name="LSPECTRALGW"> F  </i>
   <i type="logical" name="LSINGLES"> F  </i>
   <i type="logical" name="LFERMIGW"> F  </i>
   <i type="logical" name="ODDONLYGW"> F  </i>
   <i type="logical" name="EVENONLYGW"> F  </i>
   <i type="int" name="NKREDLFX">     1</i>
   <i type="int" name="NKREDLFY">     1</i>
   <i type="int" name="NKREDLFZ">     1</i>
   <i type="int" name="MAXMEM">  2800</i>
   <i type="int" name="TELESCOPE">     0</i>
   <i type="int" name="TAUPAR">     1</i>
   <i type="int" name="OMEGAPAR">    -1</i>
   <i name="LAMBDA">      1.00000000</i>
  </separator>
  <separator name="External order field" >
   <i name="OFIELD_KAPPA">      0.00000000</i>
   <v name="OFIELD_K">      0.00000000      0.00000000      0.00000000</v>
   <i name="OFIELD_Q6_NEAR">      0.00000000</i>
   <i name="OFIELD_Q6_FAR">      0.00000000</i>
   <i name="OFIELD_A">      0.00000000</i>
  </separator>
 </parameters>
 <atominfo>
  <atoms>       5 </atoms>
  <types>       3 </types>
  <array name="atoms" >
   <dimension dim="1">ion</dimension>
   <field type="string">element</field>
   <field type="int">atomtype</field>
   <set>
    <rc><c>Cs</c><c>   1</c></rc>
    <rc><c>Pb</c><c>   2</c></rc>
    <rc><c>Br</c><c>   3</c></rc>
    <rc><c>Br</c><c>   3</c></rc>
    <rc><c>Br</c><c>   3</c></rc>
   </set>
  </array>
  <array name="atomtypes" >
   <dimension dim="1">type</dimension>
   <field type="int">atomspertype</field>
   <field type="string">element</field>
   <field>mass</field>
   <field>valence</field>
   <field type="string">pseudopotential</field>
   <set>
    <rc><c>   1</c><c>Cs</c><c>    132.90000000</c><c>      9.00000000</c><c>  PAW_PBE Cs_sv 08Apr2002               </c></rc>
    <rc><c>   1</c><c>Pb</c><c>    207.20000000</c><c>     14.00000000</c><c>  PAW_PBE Pb_d 06Sep2000                </c></rc>
    <rc><c>   3</c><c>Br</c><c>     79.90400000</c><c>      7.00000000</c><c>  PAW_PBE Br 06Sep2000                  </c></rc>
   </set>
  </array>
 </atominfo>
 <structure name="initialpos" >
  <crystal>
   <varray name="basis" >
    <v>       5.90874113       0.00000000      -0.00000000 </v>
    <v>       0.00000000       5.90874113       0.00000000 </v>
    <v>       0.00000000       0.00000000       5.90874113 </v>
   </varray>
   <i name="volume">    206.29318910 </i>
   <varray name="rec_basis" >
    <v>       0.16924079       0.00000000       0.00000000 </v>
    <v>      -0.00000000       0.16924079       0.00000000 </v>
    <v>       0.00000000      -0.00000000       0.16924079 </v>
   </varray>
  </crystal>
  <varray name="positions" >
   <v>       0.50000000       0.50000000       0.50000000 </v>
   <v>       0.00000000       0.00000000       0.00000000 </v>
   <v>       0.00000000       0.50000000       0.00000000 </v>
   <v>       0.00000000       0.00000000       0.50000000 </v>
   <v>       0.50000000       0.00000000       0.00000000 </v>
  </varray>
 </structure>
 <calculation>
  <scstep>
   <time name="dav">    0.58    0.58</time>
   <time name="total">    1.76    1.78</time>
   <energy>
    <i name="alphaZ">    109.31315017 </i>
    <i name="ewald">  -2257.86651636 </i>
    <i name="hartreedc">   -953.20237667 </i>
    <i name="XCdc">    115.45553069 </i>
    <i name="pawpsdc">   2704.24521816 </i>
    <i name="pawaedc">  -2838.49023175 </i>
    <i name="eentropy">     -0.00048207 </i>
    <i name="bandstr">    -57.11920224 </i>
    <i name="atom">   3322.57002482 </i>
    <i name="e_fr_energy">    144.90511476 </i>
    <i name="e_wo_entrp">    144.90559683 </i>
    <i name="e_0_energy">    144.90535579 </i>
   </energy>
  </scstep>
  <scstep>
   <time name="dav">    0.67    0.72</time>
   <time name="total">    0.67    0.72</time>
   <energy>
    <i name="e_fr_energy">   -157.76540916 </i>
    <i name="e_wo_entrp">   -157.76540916 </i>
    <i name="e_0_energy">   -157.76540916 </i>
   </energy>
  </scstep>
  <scstep>
   <time name="dav">    0.71    0.72</time>
   <time name="total">    0.71    0.72</time>
   <energy>
    <i name="e_fr_energy">   -187.79744584 </i>
    <i name="e_wo_entrp">   -187.79744584 </i>
    <i name="e_0_energy">   -187.79744584 </i>
   </energy>
  </scstep>
  <scstep>
   <time name="dav">    0.72    0.73</time>
   <time name="total">    0.72    0.73</time>
   <energy>
    <i name="e_fr_energy">   -188.46625850 </i>
    <i name="e_wo_entrp">   -188.46625850 </i>
    <i name="e_0_energy">   -188.46625850 </i>
   </energy>
  </scstep>
  <scstep>
   <time name="dav">    0.70    0.75</time>
   <time name="total">    0.87    0.92</time>
   <energy>
    <i name="e_fr_energy">   -188.48704384 </i>
    <i name="e_wo_entrp">   -188.48704384 </i>
    <i name="e_0_energy">   -188.48704384 </i>
   </energy>
  </scstep>
  <scstep>
   <time name="dav">    0.60    0.60</time>
   <time name="total">    1.94    2.00</time>
   <energy>
    <i name="e_fr_energy">   -178.65597808 </i>
    <i name="e_wo_entrp">   -178.65597808 </i>
    <i name="e_0_energy">   -178.65597808 </i>
   </energy>
  </scstep>
  <scstep>
   <time name="dav">    0.70    0.70</time>
   <time name="total">    2.08    2.10</time>
   <energy>
    <i name="e_fr_energy">   -178.59247642 </i>
    <i name="e_wo_entrp">   -178.59247642 </i>
    <i name="e_0_energy">   -178.59247642 </i>
   </energy>
  </scstep>
  <scstep>
   <time name="dav">    0.60    0.60</time>
   <time name="total">    1.95    1.99</time>
   <energy>
    <i name="e_fr_energy">   -178.61085456 </i>
    <i name="e_wo_entrp">   -178.61085456 </i>
    <i name="e_0_energy">   -178.61085456 </i>
   </energy>
  </scstep>
  <scstep>
   <time name="dav">    0.59    0.59</time>
   <time name="total">    1.95    1.98</time>
   <energy>
    <i name="e_fr_energy">   -178.62080065 </i>
    <i name="e_wo_entrp">   -178.62080065 </i>
    <i name="e_0_energy">   -178.62080065 </i>
   </energy>
  </scstep>
  <scstep>
   <time name="dav">    0.66    0.66</time>
   <time name="total">    2.01    2.06</time>
   <energy>
    <i name="e_fr_energy">   -178.62103656 </i>
    <i name="e_wo_entrp">   -178.62103656 </i>
    <i name="e_0_energy">   -178.62103656 </i>
   </energy>
  </scstep>
  <scstep>
   <time name="dav">    0.58    0.58</time>
   <time name="total">    1.92    1.97</time>
   <energy>
    <i name="e_fr_energy">   -178.62165287 </i>
    <i name="e_wo_entrp">   -178.62165287 </i>
    <i name="e_0_energy">   -178.62165287 </i>
   </energy>
  </scstep>
  <scstep>
   <time name="dav">    0.63    0.63</time>
   <time name="total">    1.97    2.02</time>
   <energy>
    <i name="e_fr_energy">   -178.62149168 </i>
    <i name="e_wo_entrp">   -178.62149168 </i>
    <i name="e_0_energy">   -178.62149168 </i>
   </energy>
  </scstep>
  <scstep>
   <time name="dav">    0.62    0.62</time>
   <time name="total">    2.02    2.02</time>
   <energy>
    <i name="e_fr_energy">   -178.62148861 </i>
    <i name="e_wo_entrp">   -178.62148861 </i>
    <i name="e_0_energy">   -178.62148861 </i>
   </energy>
  </scstep>
  <scstep>
   <time name="dav">    0.52    0.52</time>
   <time name="total">    1.76    1.76</time>
   <energy>
    <i name="alphaZ">    109.31315017 </i>
    <i name="ewald">  -2257.86651636 </i>
    <i name="hartreedc">   -958.40003633 </i>
    <i name="XCdc">    120.39747383 </i>
    <i name="pawpsdc">   2902.75470836 </i>
    <i name="pawaedc">  -3036.95936314 </i>
    <i name="eentropy">     -0.00000000 </i>
    <i name="bandstr">   -380.43092937 </i>
    <i name="atom">   3322.57002482 </i>
    <i name="e_fr_energy">   -178.62148801 </i>
    <i name="e_wo_entrp">   -178.62148801 </i>
    <i name="e_0_energy">   -178.62148801 </i>
   </energy>
  </scstep>
  <structure>
   <crystal>
    <varray name="basis" >
     <v>       5.90874113       0.00000000      -0.00000000 </v>
     <v>       0.00000000       5.90874113       0.00000000 </v>
     <v>       0.00000000       0.00000000       5.90874113 </v>
    </varray>
    <i name="volume">    206.29318910 </i>
    <varray name="rec_basis" >
     <v>       0.16924079       0.00000000       0.00000000 </v>
     <v>      -0.00000000       0.16924079       0.00000000 </v>
     <v>       0.00000000      -0.00000000       0.16924079 </v>
    </varray>
   </crystal>
   <varray name="positions" >
    <v>       0.50000000       0.50000000       0.50000000 </v>
    <v>       0.00000000       0.00000000       0.00000000 </v>
    <v>       0.00000000       0.50000000       0.00000000 </v>
    <v>       0.00000000       0.00000000       0.50000000 </v>
    <v>       0.50000000       0.00000000       0.00000000 </v>
   </varray>
  </structure>
  <varray name="forces" >
   <v>       0.00000000       0.00000000       0.00000000 </v>
   <v>       0.00000000       0.00000000      -0.00000000 </v>
   <v>       0.00000000       0.00000000       0.00000000 </v>
   <v>       0.00000000       0.00000000      -0.00000000 </v>
   <v>       0.00000000       0.00000000      -0.00000000 </v>
  </varray>
  <varray name="stress" >
   <v>      -0.19900553      -0.00000000      -0.00000000 </v>
   <v>      -0.00000000      -0.19900553      -0.00000000 </v>
   <v>       0.00000000       0.00000000      -0.19900553 </v>
  </varray>
  <energy>
   <i name="e_fr_energy">   -178.62148801 </i>
   <i name="e_wo_entrp">   -178.62148801 </i>
   <i name="e_0_energy">     -0.00000000 </i>
  </energy>
  <time name="totalsc">   26.69   27.23</time>
  <eigenvalues>
   <array>
    <dimension dim="1">band</dimension>
    <dimension dim="2">kpoint</dimension>
    <dimension dim="3">spin</dimension>
    <field>eigene</field>
    <field>occ</field>
    <set>
     <set comment="spin 1">
      <set comment="kpoint 1">
       <r>  -21.2427    1.0000 </r>
       <r>  -16.4285    1.0000 </r>
       <r>  -16.4285    1.0000 </r>
       <r>  -16.2311    1.0000 </r>
       <r>  -16.2311    1.0000 </r>
       <r>  -16.2311    1.0000 </r>
       <r>  -14.4532    1.0000 </r>
       <r>  -13.7341    1.0000 </r>
       <r>  -13.7341    1.0000 </r>
       <r>   -7.5861    1.0000 </r>
       <r>   -7.5861    1.0000 </r>
       <r>   -7.5861    1.0000 </r>
       <r>   -6.3591    1.0000 </r>
       <r>   -3.4791    1.0000 </r>
       <r>   -3.4791    1.0000 </r>
       <r>   -3.4791    1.0000 </r>
       <r>   -1.3344    1.0000 </r>
       <r>   -1.3344    1.0000 </r>
       <r>   -1.3344    1.0000 </r>
       <r>   -1.2224    1.0000 </r>
       <r>   -1.2224    1.0000 </r>
       <r>   -1.2224    1.0000 </r>
       <r>    4.3945    0.0000 </r>
       <r>    5.4312    0.0000 </r>
       <r>    5.4312    0.0000 </r>
       <r>    6.2927    0.0000 </r>
       <r>    6.2927    0.0000 </r>
       <r>    6.2927    0.0000 </r>
       <r>    7.0313    0.0000 </r>
       <r>    7.0313    0.0000 </r>
       <r>    7.0313    0.0000 </r>
       <r>    9.1963    0.0000 </r>
      </set>
      <set comment="kpoint 2">
       <r>  -21.2420    1.0000 </r>
       <r>  -16.4282    1.0000 </r>
       <r>  -16.3938    1.0000 </r>
       <r>  -16.2315    1.0000 </r>
       <r>  -16.2315    1.0000 </r>
       <r>  -16.2310    1.0000 </r>
       <r>  -14.3846    1.0000 </r>
       <r>  -13.8622    1.0000 </r>
       <r>  -13.7332    1.0000 </r>
       <r>   -7.5803    1.0000 </r>
       <r>   -7.5803    1.0000 </r>
       <r>   -7.5803    1.0000 </r>
       <r>   -6.7962    1.0000 </r>
       <r>   -3.4325    1.0000 </r>
       <r>   -3.4325    1.0000 </r>
       <r>   -2.5381    1.0000 </r>
       <r>   -1.3975    1.0000 </r>
       <r>   -1.3975    1.0000 </r>
       <r>   -1.3961    1.0000 </r>
       <r>   -1.2784    1.0000 </r>
       <r>   -1.2784    1.0000 </r>
       <r>   -1.1904    1.0000 </r>
       <r>    4.9313    0.0000 </r>
       <r>    5.3897    0.0000 </r>
       <r>    5.8134    0.0000 </r>
       <r>    5.8753    0.0000 </r>
       <r>    6.4453    0.0000 </r>
       <r>    6.4453    0.0000 </r>
       <r>    6.5008    0.0000 </r>
       <r>    7.1819    0.0000 </r>
       <r>    7.1819    0.0000 </r>
       <r>    8.4758    0.0000 </r>
      </set>
      <set comment="kpoint 3">
       <r>  -21.2414    1.0000 </r>
       <r>  -16.4279    1.0000 </r>
       <r>  -16.3584    1.0000 </r>
       <r>  -16.2319    1.0000 </r>
       <r>  -16.2319    1.0000 </r>
       <r>  -16.2308    1.0000 </r>
       <r>  -14.2357    1.0000 </r>
       <r>  -14.0720    1.0000 </r>
       <r>  -13.7323    1.0000 </r>
       <r>   -7.5750    1.0000 </r>
       <r>   -7.5744    1.0000 </r>
       <r>   -7.5744    1.0000 </r>
       <r>   -7.1026    1.0000 </r>
       <r>   -3.3826    1.0000 </r>
       <r>   -3.3826    1.0000 </r>
       <r>   -1.9488    1.0000 </r>
       <r>   -1.4736    1.0000 </r>
       <r>   -1.4736    1.0000 </r>
       <r>   -1.4553    1.0000 </r>
       <r>   -1.3231    1.0000 </r>
       <r>   -1.3231    1.0000 </r>
       <r>   -0.6168    1.0000 </r>
       <r>    3.6395    0.0000 </r>
       <r>    5.8210    0.0000 </r>
       <r>    6.3844    0.0000 </r>
       <r>    6.4303    0.0000 </r>
       <r>    6.4303    0.0000 </r>
       <r>    6.4473    0.0000 </r>
       <r>    6.8678    0.0000 </r>
       <r>    7.7560    0.0000 </r>
       <r>    7.9639    0.0000 </r>
       <r>    7.9644    0.0000 </r>
      </set>
      <set comment="kpoint 4">
       <r>  -21.2416    1.0000 </r>
       <r>  -16.4115    1.0000 </r>
       <r>  -16.3748    1.0000 </r>
       <r>  -16.2321    1.0000 </r>
       <r>  -16.2317    1.0000 </r>
       <r>  -16.2315    1.0000 </r>
       <r>  -14.3249    1.0000 </r>
       <r>  -13.9038    1.0000 </r>
       <r>  -13.8048    1.0000 </r>
       <r>   -7.5898    1.0000 </r>
       <r>   -7.5754    1.0000 </r>
       <r>   -7.5752    1.0000 </r>
       <r>   -7.1786    1.0000 </r>
       <r>   -3.3757    1.0000 </r>
       <r>   -2.7147    1.0000 </r>
       <r>   -2.3498    1.0000 </r>
       <r>   -1.6735    1.0000 </r>
       <r>   -1.4420    1.0000 </r>
       <r>   -1.3629    1.0000 </r>
       <r>   -1.3238    1.0000 </r>
       <r>   -1.1119    1.0000 </r>
       <r>   -1.1030    1.0000 </r>
       <r>    5.0194    0.0000 </r>
       <r>    5.0416    0.0000 </r>
       <r>    5.5786    0.0000 </r>
       <r>    6.1602    0.0000 </r>
       <r>    6.2408    0.0000 </r>
       <r>    6.2805    0.0000 </r>
       <r>    6.8841    0.0000 </r>
       <r>    7.2250    0.0000 </r>
       <r>    7.3387    0.0000 </r>
       <r>    8.5868    0.0000 </r>
      </set>
      <set comment="kpoint 5">
       <r>  -21.2411    1.0000 </r>
       <r>  -16.4070    1.0000 </r>
       <r>  -16.3423    1.0000 </r>
       <r>  -16.2326    1.0000 </r>
       <r>  -16.2321    1.0000 </r>
       <r>  -16.2316    1.0000 </r>
       <r>  -14.1883    1.0000 </r>
       <r>  -14.0725    1.0000 </r>
       <r>  -13.8277    1.0000 </r>
       <r>   -7.5855    1.0000 </r>
       <r>   -7.5849    1.0000 </r>
       <r>   -7.5701    1.0000 </r>
       <r>   -7.4631    1.0000 </r>
       <r>   -3.3138    1.0000 </r>
       <r>   -2.4950    1.0000 </r>
       <r>   -2.0865    1.0000 </r>
       <r>   -1.6298    1.0000 </r>
       <r>   -1.5084    1.0000 </r>
       <r>   -1.4292    1.0000 </r>
       <r>   -1.3453    1.0000 </r>
       <r>   -1.0726    1.0000 </r>
       <r>   -0.4480    1.0000 </r>
       <r>    3.4116    0.0000 </r>
       <r>    4.8928    0.0000 </r>
       <r>    6.1700    0.0000 </r>
       <r>    6.2854    0.0000 </r>
       <r>    6.5686    0.0000 </r>
       <r>    6.7270    0.0000 </r>
       <r>    7.1661    0.0000 </r>
       <r>    7.5675    0.0000 </r>
       <r>    7.6688    0.0000 </r>
       <r>    7.7508    0.0000 </r>
      </set>
      <set comment="kpoint 6">
       <r>  -21.2408    1.0000 </r>
       <r>  -16.3954    1.0000 </r>
       <r>  -16.3156    1.0000 </r>
       <r>  -16.2331    1.0000 </r>
       <r>  -16.2323    1.0000 </r>
       <r>  -16.2323    1.0000 </r>
       <r>  -14.0730    1.0000 </r>
       <r>  -14.0730    1.0000 </r>
       <r>  -13.9930    1.0000 </r>
       <r>   -7.7407    1.0000 </r>
       <r>   -7.5953    1.0000 </r>
       <r>   -7.5953    1.0000 </r>
       <r>   -7.5658    1.0000 </r>
       <r>   -3.2372    1.0000 </r>
       <r>   -2.2091    1.0000 </r>
       <r>   -1.6150    1.0000 </r>
       <r>   -1.6150    1.0000 </r>
       <r>   -1.5427    1.0000 </r>
       <r>   -1.5427    1.0000 </r>
       <r>   -1.4356    1.0000 </r>
       <r>   -0.8683    1.0000 </r>
       <r>    0.0989    1.0000 </r>
       <r>    3.1846    0.0000 </r>
       <r>    3.1846    0.0000 </r>
       <r>    5.9974    0.0000 </r>
       <r>    6.6298    0.0000 </r>
       <r>    7.0610    0.0000 </r>
       <r>    7.1079    0.0000 </r>
       <r>    7.5692    0.0000 </r>
       <r>    7.5692    0.0000 </r>
       <r>    7.6996    0.0000 </r>
       <r>    7.6996    0.0000 </r>
      </set>
      <set comment="kpoint 7">
       <r>  -21.2411    1.0000 </r>
       <r>  -16.3746    1.0000 </r>
       <r>  -16.3746    1.0000 </r>
       <r>  -16.2320    1.0000 </r>
       <r>  -16.2320    1.0000 </r>
       <r>  -16.2320    1.0000 </r>
       <r>  -14.2757    1.0000 </r>
       <r>  -13.9023    1.0000 </r>
       <r>  -13.9023    1.0000 </r>
       <r>   -7.5929    1.0000 </r>
       <r>   -7.5929    1.0000 </r>
       <r>   -7.5706    1.0000 </r>
       <r>   -7.5281    1.0000 </r>
       <r>   -2.6504    1.0000 </r>
       <r>   -2.6504    1.0000 </r>
       <r>   -2.2415    1.0000 </r>
       <r>   -1.7177    1.0000 </r>
       <r>   -1.7177    1.0000 </r>
       <r>   -1.1264    1.0000 </r>
       <r>   -1.1188    1.0000 </r>
       <r>   -1.1188    1.0000 </r>
       <r>   -1.1077    1.0000 </r>
       <r>    4.7875    0.0000 </r>
       <r>    4.7875    0.0000 </r>
       <r>    4.8575    0.0000 </r>
       <r>    5.8645    0.0000 </r>
       <r>    6.4331    0.0000 </r>
       <r>    6.4331    0.0000 </r>
       <r>    7.3503    0.0000 </r>
       <r>    7.3503    0.0000 </r>
       <r>    7.6401    0.0000 </r>
       <r>    7.9771    0.0000 </r>
      </set>
      <set comment="kpoint 8">
       <r>  -21.2406    1.0000 </r>
       <r>  -16.3746    1.0000 </r>
       <r>  -16.3365    1.0000 </r>
       <r>  -16.2325    1.0000 </r>
       <r>  -16.2324    1.0000 </r>
       <r>  -16.2320    1.0000 </r>
       <r>  -14.1565    1.0000 </r>
       <r>  -14.0717    1.0000 </r>
       <r>  -13.9008    1.0000 </r>
       <r>   -7.8000    1.0000 </r>
       <r>   -7.5961    1.0000 </r>
       <r>   -7.5956    1.0000 </r>
       <r>   -7.5808    1.0000 </r>
       <r>   -2.5722    1.0000 </r>
       <r>   -2.3121    1.0000 </r>
       <r>   -2.0768    1.0000 </r>
       <r>   -1.8830    1.0000 </r>
       <r>   -1.6525    1.0000 </r>
       <r>   -1.1774    1.0000 </r>
       <r>   -1.1287    1.0000 </r>
       <r>   -1.0240    1.0000 </r>
       <r>   -0.3220    1.0000 </r>
       <r>    3.1736    0.0000 </r>
       <r>    4.5913    0.0000 </r>
       <r>    4.6831    0.0000 </r>
       <r>    6.2499    0.0000 </r>
       <r>    6.7296    0.0000 </r>
       <r>    7.0254    0.0000 </r>
       <r>    7.1976    0.0000 </r>
       <r>    7.2343    0.0000 </r>
       <r>    7.6646    0.0000 </r>
       <r>    8.2211    0.0000 </r>
      </set>
      <set comment="kpoint 9">
       <r>  -21.2402    1.0000 </r>
       <r>  -16.3562    1.0000 </r>
       <r>  -16.3154    1.0000 </r>
       <r>  -16.2330    1.0000 </r>
       <r>  -16.2325    1.0000 </r>
       <r>  -16.2325    1.0000 </r>
       <r>  -14.0709    1.0000 </r>
       <r>  -14.0709    1.0000 </r>
       <r>  -14.0299    1.0000 </r>
       <r>   -8.0677    1.0000 </r>
       <r>   -7.6065    1.0000 </r>
       <r>   -7.6065    1.0000 </r>
       <r>   -7.5920    1.0000 </r>
       <r>   -2.3600    1.0000 </r>
       <r>   -2.1220    1.0000 </r>
       <r>   -1.9189    1.0000 </r>
       <r>   -1.9189    1.0000 </r>
       <r>   -1.4326    1.0000 </r>
       <r>   -1.1124    1.0000 </r>
       <r>   -1.1124    1.0000 </r>
       <r>   -0.8626    1.0000 </r>
       <r>    0.2434    1.0000 </r>
       <r>    2.9331    0.0000 </r>
       <r>    2.9331    0.0000 </r>
       <r>    4.4297    0.0000 </r>
       <r>    6.4128    0.0000 </r>
       <r>    6.7880    0.0000 </r>
       <r>    6.8600    0.0000 </r>
       <r>    6.8600    0.0000 </r>
       <r>    7.3844    0.0000 </r>
       <r>    8.0561    0.0000 </r>
       <r>    8.6473    0.0000 </r>
      </set>
      <set comment="kpoint 10">
       <r>  -21.2400    1.0000 </r>
       <r>  -16.3155    1.0000 </r>
       <r>  -16.3155    1.0000 </r>
       <r>  -16.2331    1.0000 </r>
       <r>  -16.2331    1.0000 </r>
       <r>  -16.2331    1.0000 </r>
       <r>  -14.0690    1.0000 </r>
       <r>  -14.0690    1.0000 </r>
       <r>  -14.0690    1.0000 </r>
       <r>   -8.3341    1.0000 </r>
       <r>   -7.6179    1.0000 </r>
       <r>   -7.6179    1.0000 </r>
       <r>   -7.6179    1.0000 </r>
       <r>   -2.0334    1.0000 </r>
       <r>   -2.0334    1.0000 </r>
       <r>   -2.0334    1.0000 </r>
       <r>   -1.4297    1.0000 </r>
       <r>   -1.4297    1.0000 </r>
       <r>   -0.8570    1.0000 </r>
       <r>   -0.8570    1.0000 </r>
       <r>   -0.8570    1.0000 </r>
       <r>    0.7854    1.0000 </r>
       <r>    2.6729    0.0000 </r>
       <r>    2.6729    0.0000 </r>
       <r>    2.6729    0.0000 </r>
       <r>    5.9847    0.0000 </r>
       <r>    6.5963    0.0000 </r>
       <r>    6.5963    0.0000 </r>
       <r>    6.5963    0.0000 </r>
       <r>    7.8790    0.0000 </r>
       <r>    7.8790    0.0000 </r>
       <r>    9.2845    0.0000 </r>
      </set>
     </set>
    </set>
   </array>
  </eigenvalues>
  <separator name="orbital magnetization" >
   <v name="MAGDIPOLOUT">      0.00000000      0.00000000      0.00000000</v>
  </separator>
  <dos>
   <i name="efermi">      0.87683209 </i>
   <total>
    <array>
     <dimension dim="1">gridpoints</dimension>
     <dimension dim="2">spin</dimension>
     <field>energy</field>
     <field>total</field>
     <field>integrated</field>
     <set>
      <set comment="spin 1">
       <r>   -22.7690     0.0000     0.0000 </r>
       <r>   -22.6571     0.0000     0.0000 </r>
       <r>   -22.5452     0.0000     0.0000 </r>
       <r>   -22.4332     0.0000     0.0000 </r>
       <r>   -22.3213     0.0000     0.0000 </r>
       <r>   -22.2094     0.0000     0.0000 </r>
       <r>   -22.0974     0.0000     0.0000 </r>
       <r>   -21.9855     0.0000     0.0000 </r>
       <r>   -21.8736     0.0000     0.0000 </r>
       <r>   -21.7616     0.0000     0.0000 </r>
       <r>   -21.6497     0.0000     0.0000 </r>
       <r>   -21.5378     0.0000     0.0000 </r>
       <r>   -21.4258     0.0000     0.0000 </r>
       <r>   -21.3139     0.0000     0.0000 </r>
       <r>   -21.2020    17.8678     2.0000 </r>
       <r>   -21.0900     0.0000     2.0000 </r>
       <r>   -20.9781     0.0000     2.0000 </r>
       <r>   -20.8662     0.0000     2.0000 </r>
       <r>   -20.7542     0.0000     2.0000 </r>
       <r>   -20.6423     0.0000     2.0000 </r>
       <r>   -20.5304     0.0000     2.0000 </r>
       <r>   -20.4184     0.0000     2.0000 </r>
       <r>   -20.3065     0.0000     2.0000 </r>
       <r>   -20.1946     0.0000     2.0000 </r>
       <r>   -20.0826     0.0000     2.0000 </r>
       <r>   -19.9707     0.0000     2.0000 </r>
       <r>   -19.8588     0.0000     2.0000 </r>
       <r>   -19.7468     0.0000     2.0000 </r>
       <r>   -19.6349     0.0000     2.0000 </r>
       <r>   -19.5230     0.0000     2.0000 </r>
       <r>   -19.4110     0.0000     2.0000 </r>
       <r>   -19.2991     0.0000     2.0000 </r>
       <r>   -19.1872     0.0000     2.0000 </r>
       <r>   -19.0752     0.0000     2.0000 </r>
       <r>   -18.9633     0.0000     2.0000 </r>
       <r>   -18.8514     0.0000     2.0000 </r>
       <r>   -18.7394     0.0000     2.0000 </r>
       <r>   -18.6275     0.0000     2.0000 </r>
       <r>   -18.5156     0.0000     2.0000 </r>
       <r>   -18.4036     0.0000     2.0000 </r>
       <r>   -18.2917     0.0000     2.0000 </r>
       <r>   -18.1798     0.0000     2.0000 </r>
       <r>   -18.0678     0.0000     2.0000 </r>
       <r>   -17.9559     0.0000     2.0000 </r>
       <r>   -17.8440     0.0000     2.0000 </r>
       <r>   -17.7320     0.0000     2.0000 </r>
       <r>   -17.6201     0.0000     2.0000 </r>
       <r>   -17.5082     0.0000     2.0000 </r>
       <r>   -17.3962     0.0000     2.0000 </r>
       <r>   -17.2843     0.0000     2.0000 </r>
       <r>   -17.1724     0.0000     2.0000 </r>
       <r>   -17.0604     0.0000     2.0000 </r>
       <r>   -16.9485     0.0000     2.0000 </r>
       <r>   -16.8366     0.0000     2.0000 </r>
       <r>   -16.7246     0.0000     2.0000 </r>
       <r>   -16.6127     0.0000     2.0000 </r>
       <r>   -16.5008     0.0000     2.0000 </r>
       <r>   -16.3889    11.9574     3.3384 </r>
       <r>   -16.2769    11.4466     6.0000 </r>
       <r>   -16.1650    53.6034    12.0000 </r>
       <r>   -16.0531     0.0000    12.0000 </r>
       <r>   -15.9411     0.0000    12.0000 </r>
       <r>   -15.8292     0.0000    12.0000 </r>
       <r>   -15.7173     0.0000    12.0000 </r>
       <r>   -15.6053     0.0000    12.0000 </r>
       <r>   -15.4934     0.0000    12.0000 </r>
       <r>   -15.3815     0.0000    12.0000 </r>
       <r>   -15.2695     0.0000    12.0000 </r>
       <r>   -15.1576     0.0000    12.0000 </r>
       <r>   -15.0457     0.0000    12.0000 </r>
       <r>   -14.9337     0.0000    12.0000 </r>
       <r>   -14.8218     0.0000    12.0000 </r>
       <r>   -14.7099     0.0000    12.0000 </r>
       <r>   -14.5979     0.0000    12.0000 </r>
       <r>   -14.4860     0.0000    12.0000 </r>
       <r>   -14.3741     1.8400    12.2060 </r>
       <r>   -14.2621     5.5222    12.8369 </r>
       <r>   -14.1502     6.0822    13.6183 </r>
       <r>   -14.0383    13.5982    15.2096 </r>
       <r>   -13.9263     0.8419    15.4692 </r>
       <r>   -13.8144     5.2166    17.3027 </r>
       <r>   -13.7025     3.0710    18.0000 </r>
       <r>   -13.5905     0.0000    18.0000 </r>
       <r>   -13.4786     0.0000    18.0000 </r>
       <r>   -13.3667     0.0000    18.0000 </r>
       <r>   -13.2547     0.0000    18.0000 </r>
       <r>   -13.1428     0.0000    18.0000 </r>
       <r>   -13.0309     0.0000    18.0000 </r>
       <r>   -12.9189     0.0000    18.0000 </r>
       <r>   -12.8070     0.0000    18.0000 </r>
       <r>   -12.6951     0.0000    18.0000 </r>
       <r>   -12.5831     0.0000    18.0000 </r>
       <r>   -12.4712     0.0000    18.0000 </r>
       <r>   -12.3593     0.0000    18.0000 </r>
       <r>   -12.2473     0.0000    18.0000 </r>
       <r>   -12.1354     0.0000    18.0000 </r>
       <r>   -12.0235     0.0000    18.0000 </r>
       <r>   -11.9115     0.0000    18.0000 </r>
       <r>   -11.7996     0.0000    18.0000 </r>
       <r>   -11.6877     0.0000    18.0000 </r>
       <r>   -11.5757     0.0000    18.0000 </r>
       <r>   -11.4638     0.0000    18.0000 </r>
       <r>   -11.3519     0.0000    18.0000 </r>
       <r>   -11.2399     0.0000    18.0000 </r>
       <r>   -11.1280     0.0000    18.0000 </r>
       <r>   -11.0161     0.0000    18.0000 </r>
       <r>   -10.9041     0.0000    18.0000 </r>
       <r>   -10.7922     0.0000    18.0000 </r>
       <r>   -10.6803     0.0000    18.0000 </r>
       <r>   -10.5683     0.0000    18.0000 </r>
       <r>   -10.4564     0.0000    18.0000 </r>
       <r>   -10.3445     0.0000    18.0000 </r>
       <r>   -10.2325     0.0000    18.0000 </r>
       <r>   -10.1206     0.0000    18.0000 </r>
       <r>   -10.0087     0.0000    18.0000 </r>
       <r>    -9.8967     0.0000    18.0000 </r>
       <r>    -9.7848     0.0000    18.0000 </r>
       <r>    -9.6729     0.0000    18.0000 </r>
       <r>    -9.5609     0.0000    18.0000 </r>
       <r>    -9.4490     0.0000    18.0000 </r>
       <r>    -9.3371     0.0000    18.0000 </r>
       <r>    -9.2251     0.0000    18.0000 </r>
       <r>    -9.1132     0.0000    18.0000 </r>
       <r>    -9.0013     0.0000    18.0000 </r>
       <r>    -8.8893     0.0000    18.0000 </r>
       <r>    -8.7774     0.0000    18.0000 </r>
       <r>    -8.6655     0.0000    18.0000 </r>
       <r>    -8.5535     0.0000    18.0000 </r>
       <r>    -8.4416     0.0000    18.0000 </r>
       <r>    -8.3297     0.2054    18.0230 </r>
       <r>    -8.2177     0.0000    18.0312 </r>
       <r>    -8.1058     0.0000    18.0313 </r>
       <r>    -7.9939     1.6751    18.2188 </r>
       <r>    -7.8819     0.0000    18.2188 </r>
       <r>    -7.7700     3.3502    18.5937 </r>
       <r>    -7.6581     0.0000    18.6875 </r>
       <r>    -7.5461    53.6112    24.6884 </r>
       <r>    -7.4342     3.3501    25.3125 </r>
       <r>    -7.3223     0.0000    25.3125 </r>
       <r>    -7.2103     0.0000    25.3125 </r>
       <r>    -7.0984     0.6061    25.7553 </r>
       <r>    -6.9865     0.0000    25.7812 </r>
       <r>    -6.8745     0.0000    25.7812 </r>
       <r>    -6.7626     1.6751    25.9687 </r>
       <r>    -6.6507     0.0000    25.9688 </r>
       <r>    -6.5387     0.0000    25.9688 </r>
       <r>    -6.4268     0.0000    25.9688 </r>
       <r>    -6.3149     0.2792    26.0000 </r>
       <r>    -6.2029     0.0000    26.0000 </r>
       <r>    -6.0910     0.0000    26.0000 </r>
       <r>    -5.9791     0.0000    26.0000 </r>
       <r>    -5.8671     0.0000    26.0000 </r>
       <r>    -5.7552     0.0000    26.0000 </r>
       <r>    -5.6433     0.0000    26.0000 </r>
       <r>    -5.5313     0.0000    26.0000 </r>
       <r>    -5.4194     0.0000    26.0000 </r>
       <r>    -5.3075     0.0000    26.0000 </r>
       <r>    -5.1955     0.0000    26.0000 </r>
       <r>    -5.0836     0.0000    26.0000 </r>
       <r>    -4.9717     0.0000    26.0000 </r>
       <r>    -4.8597     0.0000    26.0000 </r>
       <r>    -4.7478     0.0000    26.0000 </r>
       <r>    -4.6359     0.0000    26.0000 </r>
       <r>    -4.5239     0.0000    26.0000 </r>
       <r>    -4.4120     0.0000    26.0000 </r>
       <r>    -4.3001     0.0000    26.0000 </r>
       <r>    -4.1881     0.0000    26.0000 </r>
       <r>    -4.0762     0.0000    26.0000 </r>
       <r>    -3.9643     0.0000    26.0000 </r>
       <r>    -3.8523     0.0000    26.0000 </r>
       <r>    -3.7404     0.0000    26.0000 </r>
       <r>    -3.6285     0.0000    26.0000 </r>
       <r>    -3.5165     0.0000    26.0000 </r>
       <r>    -3.4046     4.1893    26.4689 </r>
       <r>    -3.2927     3.3455    27.4057 </r>
       <r>    -3.1807     0.8376    27.5000 </r>
       <r>    -3.0688     0.0000    27.5000 </r>
       <r>    -2.9569     0.0000    27.5000 </r>
       <r>    -2.8449     0.0000    27.5000 </r>
       <r>    -2.7330     0.0162    27.5018 </r>
       <r>    -2.6211     4.4669    28.3750 </r>
       <r>    -2.5091     5.1009    28.9460 </r>
       <r>    -2.3972     0.0000    29.3125 </r>
       <r>    -2.2853     8.3753    30.2500 </r>
       <r>    -2.1733     3.0710    30.5937 </r>
       <r>    -2.0614     8.3248    31.5256 </r>
       <r>    -1.9495     0.3859    31.6682 </r>
       <r>    -1.8375     3.3502    32.4687 </r>
       <r>    -1.7256     0.5862    32.5344 </r>
       <r>    -1.6137    10.9749    34.1972 </r>
       <r>    -1.5017     4.4452    34.7788 </r>
       <r>    -1.3898    14.8585    36.6944 </r>
       <r>    -1.2779    10.9854    38.3859 </r>
       <r>    -1.1659     5.6880    39.1992 </r>
       <r>    -1.0540    25.6705    42.0921 </r>
       <r>    -0.9421     0.0000    42.4688 </r>
       <r>    -0.8301     3.3501    42.8437 </r>
       <r>    -0.7182     0.0000    42.8438 </r>
       <r>    -0.6063     0.7807    42.9311 </r>
       <r>    -0.4943     0.0000    42.9375 </r>
       <r>    -0.3824     3.3502    43.3125 </r>
       <r>    -0.2705     3.3502    43.6875 </r>
       <r>    -0.1585     0.0000    43.6875 </r>
       <r>    -0.0466     0.0000    43.6875 </r>
       <r>     0.0653     0.0000    43.6875 </r>
       <r>     0.1773     0.8376    43.7812 </r>
       <r>     0.2892     1.6751    43.9687 </r>
       <r>     0.4011     0.0000    43.9688 </r>
       <r>     0.5130     0.0000    43.9688 </r>
       <r>     0.6250     0.0000    43.9688 </r>
       <r>     0.7369     0.0000    43.9688 </r>
       <r>     0.8488     0.2792    44.0000 </r>
       <r>     0.9608     0.0000    44.0000 </r>
       <r>     1.0727     0.0000    44.0000 </r>
       <r>     1.1846     0.0000    44.0000 </r>
       <r>     1.2966     0.0000    44.0000 </r>
       <r>     1.4085     0.0000    44.0000 </r>
       <r>     1.5204     0.0000    44.0000 </r>
       <r>     1.6324     0.0000    44.0000 </r>
       <r>     1.7443     0.0000    44.0000 </r>
       <r>     1.8562     0.0000    44.0000 </r>
       <r>     1.9682     0.0000    44.0000 </r>
       <r>     2.0801     0.0000    44.0000 </r>
       <r>     2.1920     0.0000    44.0000 </r>
       <r>     2.3040     0.0000    44.0000 </r>
       <r>     2.4159     0.0000    44.0000 </r>
       <r>     2.5278     0.0000    44.0000 </r>
       <r>     2.6398     0.0000    44.0000 </r>
       <r>     2.7517     0.8376    44.0938 </r>
       <r>     2.8636     0.0000    44.0938 </r>
       <r>     2.9756     3.3502    44.4687 </r>
       <r>     3.0875     0.0000    44.4688 </r>
       <r>     3.1994     4.9948    45.0278 </r>
       <r>     3.3114     0.0000    45.0312 </r>
       <r>     3.4233     3.1859    45.3879 </r>
       <r>     3.5352     0.0000    45.4062 </r>
       <r>     3.6472     0.7207    45.4869 </r>
       <r>     3.7591     0.0000    45.5000 </r>
       <r>     3.8710     0.0000    45.5000 </r>
       <r>     3.9830     0.0000    45.5000 </r>
       <r>     4.0949     0.0000    45.5000 </r>
       <r>     4.2068     0.0000    45.5000 </r>
       <r>     4.3188     0.0000    45.5000 </r>
       <r>     4.4307     1.2112    45.6356 </r>
       <r>     4.5426     0.0000    45.7188 </r>
       <r>     4.6546     3.3503    46.0938 </r>
       <r>     4.7665     0.0067    46.4695 </r>
       <r>     4.8784     2.3013    47.2263 </r>
       <r>     4.9904     1.6752    47.7813 </r>
       <r>     5.1023     3.3502    48.5312 </r>
       <r>     5.2142     0.0000    48.5312 </r>
       <r>     5.3262     0.0000    48.5312 </r>
       <r>     5.4381     2.1412    48.7709 </r>
       <r>     5.5500     0.0001    48.7813 </r>
       <r>     5.6620     0.0000    49.1562 </r>
       <r>     5.7739     0.0000    49.1563 </r>
       <r>     5.8858     6.3031    49.8618 </r>
       <r>     5.9978     0.7058    49.9540 </r>
       <r>     6.1097     0.0000    50.0000 </r>
       <r>     6.2216     6.7120    50.7513 </r>
       <r>     6.3336     7.5380    52.3437 </r>
       <r>     6.4455    10.5067    53.5198 </r>
       <r>     6.5574     1.8677    53.9903 </r>
       <r>     6.6694     1.6751    54.5312 </r>
       <r>     6.7813     6.9875    55.3134 </r>
       <r>     6.8932     7.2049    56.2752 </r>
       <r>     7.0052     0.0071    56.3133 </r>
       <r>     7.1171     1.5942    56.9597 </r>
       <r>     7.2290    13.2055    58.4469 </r>
       <r>     7.3410     2.5160    59.1254 </r>
       <r>     7.4529     1.6751    59.9062 </r>
       <r>     7.5648     1.6422    60.0901 </r>
       <r>     7.6768     8.3577    61.4043 </r>
       <r>     7.7887     4.1878    62.1250 </r>
       <r>     7.9006     0.5577    62.1874 </r>
       <r>     8.0126     3.9086    62.6250 </r>
       <r>     8.1245     1.6751    62.8125 </r>
       <r>     8.2364     3.3001    63.1819 </r>
       <r>     8.3484     0.0000    63.1875 </r>
       <r>     8.4603     0.0236    63.1901 </r>
       <r>     8.5722     0.0649    63.3823 </r>
       <r>     8.6842     1.6751    63.9375 </r>
       <r>     8.7961     0.0000    63.9375 </r>
       <r>     8.9080     0.0000    63.9375 </r>
       <r>     9.0200     0.0000    63.9375 </r>
       <r>     9.1319     0.0000    63.9375 </r>
       <r>     9.2438     0.2792    63.9688 </r>
       <r>     9.3558     0.2792    64.0000 </r>
       <r>     9.4677     0.0000    64.0000 </r>
       <r>     9.5796     0.0000    64.0000 </r>
       <r>     9.6916     0.0000    64.0000 </r>
       <r>     9.8035     0.0000    64.0000 </r>
       <r>     9.9154     0.0000    64.0000 </r>
       <r>    10.0274     0.0000    64.0000 </r>
       <r>    10.1393     0.0000    64.0000 </r>
       <r>    10.2512     0.0000    64.0000 </r>
       <r>    10.3632     0.0000    64.0000 </r>
       <r>    10.4751     0.0000    64.0000 </r>
       <r>    10.5870     0.0000    64.0000 </r>
       <r>    10.6990     0.0000    64.0000 </r>
       <r>    10.8109     0.0000    64.0000 </r>
      </set>
     </set>
    </array>
   </total>
   <partial>
    <array>
     <dimension dim="1">gridpoints</dimension>
     <dimension dim="2">spin</dimension>
     <dimension dim="3">ion</dimension>
     <field>energy</field>
     <field>  s  </field>
     <field>  p  </field>
     <field>  d  </field>
     <set>
      <set comment="ion 1">
       <set comment="spin 1">
        <r>   -22.7690     0.0000     0.0000     0.0000 </r>
        <r>   -22.6571     0.0000     0.0000     0.0000 </r>
        <r>   -22.5452     0.0000     0.0000     0.0000 </r>
        <r>   -22.4332     0.0000     0.0000     0.0000 </r>
        <r>   -22.3213     0.0000     0.0000     0.0000 </r>
        <r>   -22.2094     0.0000     0.0000     0.0000 </r>
        <r>   -22.0974     0.0000     0.0000     0.0000 </r>
        <r>   -21.9855     0.0000     0.0000     0.0000 </r>
        <r>   -21.8736     0.0000     0.0000     0.0000 </r>
        <r>   -21.7616     0.0000     0.0000     0.0000 </r>
        <r>   -21.6497     0.0000     0.0000     0.0000 </r>
        <r>   -21.5378     0.0000     0.0000     0.0000 </r>
        <r>   -21.4258     0.0000     0.0000     0.0000 </r>
        <r>   -21.3139     0.0000     0.0000     0.0000 </r>
        <r>   -21.2020    15.8609     0.0000     0.0000 </r>
        <r>   -21.0900     0.0000     0.0000     0.0000 </r>
        <r>   -20.9781     0.0000     0.0000     0.0000 </r>
        <r>   -20.8662     0.0000     0.0000     0.0000 </r>
        <r>   -20.7542     0.0000     0.0000     0.0000 </r>
        <r>   -20.6423     0.0000     0.0000     0.0000 </r>
        <r>   -20.5304     0.0000     0.0000     0.0000 </r>
        <r>   -20.4184     0.0000     0.0000     0.0000 </r>
        <r>   -20.3065     0.0000     0.0000     0.0000 </r>
        <r>   -20.1946     0.0000     0.0000     0.0000 </r>
        <r>   -20.0826     0.0000     0.0000     0.0000 </r>
        <r>   -19.9707     0.0000     0.0000     0.0000 </r>
        <r>   -19.8588     0.0000     0.0000     0.0000 </r>
        <r>   -19.7468     0.0000     0.0000     0.0000 </r>
        <r>   -19.6349     0.0000     0.0000     0.0000 </r>
        <r>   -19.5230     0.0000     0.0000     0.0000 </r>
        <r>   -19.4110     0.0000     0.0000     0.0000 </r>
        <r>   -19.2991     0.0000     0.0000     0.0000 </r>
        <r>   -19.1872     0.0000     0.0000     0.0000 </r>
        <r>   -19.0752     0.0000     0.0000     0.0000 </r>
        <r>   -18.9633     0.0000     0.0000     0.0000 </r>
        <r>   -18.8514     0.0000     0.0000     0.0000 </r>
        <r>   -18.7394     0.0000     0.0000     0.0000 </r>
        <r>   -18.6275     0.0000     0.0000     0.0000 </r>
        <r>   -18.5156     0.0000     0.0000     0.0000 </r>
        <r>   -18.4036     0.0000     0.0000     0.0000 </r>
        <r>   -18.2917     0.0000     0.0000     0.0000 </r>
        <r>   -18.1798     0.0000     0.0000     0.0000 </r>
        <r>   -18.0678     0.0000     0.0000     0.0000 </r>
        <r>   -17.9559     0.0000     0.0000     0.0000 </r>
        <r>   -17.8440     0.0000     0.0000     0.0000 </r>
        <r>   -17.7320     0.0000     0.0000     0.0000 </r>
        <r>   -17.6201     0.0000     0.0000     0.0000 </r>
        <r>   -17.5082     0.0000     0.0000     0.0000 </r>
        <r>   -17.3962     0.0000     0.0000     0.0000 </r>
        <r>   -17.2843     0.0000     0.0000     0.0000 </r>
        <r>   -17.1724     0.0000     0.0000     0.0000 </r>
        <r>   -17.0604     0.0000     0.0000     0.0000 </r>
        <r>   -16.9485     0.0000     0.0000     0.0000 </r>
        <r>   -16.8366     0.0000     0.0000     0.0000 </r>
        <r>   -16.7246     0.0000     0.0000     0.0000 </r>
        <r>   -16.6127     0.0000     0.0000     0.0000 </r>
        <r>   -16.5008     0.0000     0.0000     0.0000 </r>
        <r>   -16.3889     0.0000     0.0000     0.0000 </r>
        <r>   -16.2769     0.0000     0.0000     0.0000 </r>
        <r>   -16.1650     0.0000     0.0000     0.0000 </r>
        <r>   -16.0531     0.0000     0.0000     0.0000 </r>
        <r>   -15.9411     0.0000     0.0000     0.0000 </r>
        <r>   -15.8292     0.0000     0.0000     0.0000 </r>
        <r>   -15.7173     0.0000     0.0000     0.0000 </r>
        <r>   -15.6053     0.0000     0.0000     0.0000 </r>
        <r>   -15.4934     0.0000     0.0000     0.0000 </r>
        <r>   -15.3815     0.0000     0.0000     0.0000 </r>
        <r>   -15.2695     0.0000     0.0000     0.0000 </r>
        <r>   -15.1576     0.0000     0.0000     0.0000 </r>
        <r>   -15.0457     0.0000     0.0000     0.0000 </r>
        <r>   -14.9337     0.0000     0.0000     0.0000 </r>
        <r>   -14.8218     0.0000     0.0000     0.0000 </r>
        <r>   -14.7099     0.0000     0.0000     0.0000 </r>
        <r>   -14.5979     0.0000     0.0000     0.0000 </r>
        <r>   -14.4860     0.0000     0.0000     0.0000 </r>
        <r>   -14.3741     0.0008     0.0002     0.0000 </r>
        <r>   -14.2621     0.0012     0.0012     0.0000 </r>
        <r>   -14.1502     0.0000     0.0019     0.0001 </r>
        <r>   -14.0383     0.0007     0.0018     0.0001 </r>
        <r>   -13.9263     0.0000     0.0000     0.0000 </r>
        <r>   -13.8144     0.0000     0.0002     0.0000 </r>
        <r>   -13.7025     0.0000     0.0000     0.0000 </r>
        <r>   -13.5905     0.0000     0.0000     0.0000 </r>
        <r>   -13.4786     0.0000     0.0000     0.0000 </r>
        <r>   -13.3667     0.0000     0.0000     0.0000 </r>
        <r>   -13.2547     0.0000     0.0000     0.0000 </r>
        <r>   -13.1428     0.0000     0.0000     0.0000 </r>
        <r>   -13.0309     0.0000     0.0000     0.0000 </r>
        <r>   -12.9189     0.0000     0.0000     0.0000 </r>
        <r>   -12.8070     0.0000     0.0000     0.0000 </r>
        <r>   -12.6951     0.0000     0.0000     0.0000 </r>
        <r>   -12.5831     0.0000     0.0000     0.0000 </r>
        <r>   -12.4712     0.0000     0.0000     0.0000 </r>
        <r>   -12.3593     0.0000     0.0000     0.0000 </r>
        <r>   -12.2473     0.0000     0.0000     0.0000 </r>
        <r>   -12.1354     0.0000     0.0000     0.0000 </r>
        <r>   -12.0235     0.0000     0.0000     0.0000 </r>
        <r>   -11.9115     0.0000     0.0000     0.0000 </r>
        <r>   -11.7996     0.0000     0.0000     0.0000 </r>
        <r>   -11.6877     0.0000     0.0000     0.0000 </r>
        <r>   -11.5757     0.0000     0.0000     0.0000 </r>
        <r>   -11.4638     0.0000     0.0000     0.0000 </r>
        <r>   -11.3519     0.0000     0.0000     0.0000 </r>
        <r>   -11.2399     0.0000     0.0000     0.0000 </r>
        <r>   -11.1280     0.0000     0.0000     0.0000 </r>
        <r>   -11.0161     0.0000     0.0000     0.0000 </r>
        <r>   -10.9041     0.0000     0.0000     0.0000 </r>
        <r>   -10.7922     0.0000     0.0000     0.0000 </r>
        <r>   -10.6803     0.0000     0.0000     0.0000 </r>
        <r>   -10.5683     0.0000     0.0000     0.0000 </r>
        <r>   -10.4564     0.0000     0.0000     0.0000 </r>
        <r>   -10.3445     0.0000     0.0000     0.0000 </r>
        <r>   -10.2325     0.0000     0.0000     0.0000 </r>
        <r>   -10.1206     0.0000     0.0000     0.0000 </r>
        <r>   -10.0087     0.0000     0.0000     0.0000 </r>
        <r>    -9.8967     0.0000     0.0000     0.0000 </r>
        <r>    -9.7848     0.0000     0.0000     0.0000 </r>
        <r>    -9.6729     0.0000     0.0000     0.0000 </r>
        <r>    -9.5609     0.0000     0.0000     0.0000 </r>
        <r>    -9.4490     0.0000     0.0000     0.0000 </r>
        <r>    -9.3371     0.0000     0.0000     0.0000 </r>
        <r>    -9.2251     0.0000     0.0000     0.0000 </r>
        <r>    -9.1132     0.0000     0.0000     0.0000 </r>
        <r>    -9.0013     0.0000     0.0000     0.0000 </r>
        <r>    -8.8893     0.0000     0.0000     0.0000 </r>
        <r>    -8.7774     0.0000     0.0000     0.0000 </r>
        <r>    -8.6655     0.0000     0.0000     0.0000 </r>
        <r>    -8.5535     0.0000     0.0000     0.0000 </r>
        <r>    -8.4416     0.0000     0.0000     0.0000 </r>
        <r>    -8.3297     0.0000     0.0000     0.0000 </r>
        <r>    -8.2177     0.0000     0.0000     0.0000 </r>
        <r>    -8.1058     0.0000     0.0000     0.0000 </r>
        <r>    -7.9939     0.0000     0.0000     0.0000 </r>
        <r>    -7.8819     0.0000     0.0000     0.0000 </r>
        <r>    -7.7700     0.0000     0.0038     0.0000 </r>
        <r>    -7.6581     0.0000     0.0000     0.0000 </r>
        <r>    -7.5461     0.0000    41.6240     0.0000 </r>
        <r>    -7.4342     0.0000     0.0053     0.0000 </r>
        <r>    -7.3223     0.0000     0.0000     0.0000 </r>
        <r>    -7.2103     0.0000     0.0000     0.0000 </r>
        <r>    -7.0984     0.0000     0.0000     0.0000 </r>
        <r>    -6.9865     0.0000     0.0000     0.0000 </r>
        <r>    -6.8745     0.0000     0.0000     0.0000 </r>
        <r>    -6.7626     0.0000     0.0006     0.0000 </r>
        <r>    -6.6507     0.0000     0.0000     0.0000 </r>
        <r>    -6.5387     0.0000     0.0000     0.0000 </r>
        <r>    -6.4268     0.0000     0.0000     0.0000 </r>
        <r>    -6.3149     0.0000     0.0000     0.0000 </r>
        <r>    -6.2029     0.0000     0.0000     0.0000 </r>
        <r>    -6.0910     0.0000     0.0000     0.0000 </r>
        <r>    -5.9791     0.0000     0.0000     0.0000 </r>
        <r>    -5.8671     0.0000     0.0000     0.0000 </r>
        <r>    -5.7552     0.0000     0.0000     0.0000 </r>
        <r>    -5.6433     0.0000     0.0000     0.0000 </r>
        <r>    -5.5313     0.0000     0.0000     0.0000 </r>
        <r>    -5.4194     0.0000     0.0000     0.0000 </r>
        <r>    -5.3075     0.0000     0.0000     0.0000 </r>
        <r>    -5.1955     0.0000     0.0000     0.0000 </r>
        <r>    -5.0836     0.0000     0.0000     0.0000 </r>
        <r>    -4.9717     0.0000     0.0000     0.0000 </r>
        <r>    -4.8597     0.0000     0.0000     0.0000 </r>
        <r>    -4.7478     0.0000     0.0000     0.0000 </r>
        <r>    -4.6359     0.0000     0.0000     0.0000 </r>
        <r>    -4.5239     0.0000     0.0000     0.0000 </r>
        <r>    -4.4120     0.0000     0.0000     0.0000 </r>
        <r>    -4.3001     0.0000     0.0000     0.0000 </r>
        <r>    -4.1881     0.0000     0.0000     0.0000 </r>
        <r>    -4.0762     0.0000     0.0000     0.0000 </r>
        <r>    -3.9643     0.0000     0.0000     0.0000 </r>
        <r>    -3.8523     0.0000     0.0000     0.0000 </r>
        <r>    -3.7404     0.0000     0.0000     0.0000 </r>
        <r>    -3.6285     0.0000     0.0000     0.0000 </r>
        <r>    -3.5165     0.0000     0.0000     0.0000 </r>
        <r>    -3.4046     0.0000     0.0153     0.0005 </r>
        <r>    -3.2927     0.0000     0.0000     0.0007 </r>
        <r>    -3.1807     0.0000     0.0000     0.0000 </r>
        <r>    -3.0688     0.0000     0.0000     0.0000 </r>
        <r>    -2.9569     0.0000     0.0000     0.0000 </r>
        <r>    -2.8449     0.0000     0.0000     0.0000 </r>
        <r>    -2.7330     0.0000     0.0001     0.0000 </r>
        <r>    -2.6211     0.0000     0.0134     0.0004 </r>
        <r>    -2.5091     0.0010     0.0080     0.0008 </r>
        <r>    -2.3972     0.0000     0.0000     0.0000 </r>
        <r>    -2.2853     0.0044     0.0167     0.0022 </r>
        <r>    -2.1733     0.0063     0.0005     0.0024 </r>
        <r>    -2.0614     0.0199     0.0342     0.0035 </r>
        <r>    -1.9495     0.0013     0.0000     0.0000 </r>
        <r>    -1.8375     0.0000     0.0487     0.0022 </r>
        <r>    -1.7256     0.0000     0.0050     0.0005 </r>
        <r>    -1.6137     0.0016     0.0738     0.0090 </r>
        <r>    -1.5017     0.0000     0.0092     0.0066 </r>
        <r>    -1.3898     0.0000     0.0060     0.0139 </r>
        <r>    -1.2779     0.0000     0.0390     0.0067 </r>
        <r>    -1.1659     0.0022     0.0151     0.0034 </r>
        <r>    -1.0540     0.0047     0.0252     0.0137 </r>
        <r>    -0.9421     0.0000     0.0000     0.0000 </r>
        <r>    -0.8301     0.0000     0.0000     0.0012 </r>
        <r>    -0.7182     0.0000     0.0000     0.0000 </r>
        <r>    -0.6063     0.0000     0.0003     0.0000 </r>
        <r>    -0.4943     0.0000     0.0000     0.0000 </r>
        <r>    -0.3824     0.0000     0.0024     0.0001 </r>
        <r>    -0.2705     0.0000     0.0013     0.0001 </r>
        <r>    -0.1585     0.0000     0.0000     0.0000 </r>
        <r>    -0.0466     0.0000     0.0000     0.0000 </r>
        <r>     0.0653     0.0000     0.0000     0.0000 </r>
        <r>     0.1773     0.0000     0.0000     0.0003 </r>
        <r>     0.2892     0.0000     0.0000     0.0002 </r>
        <r>     0.4011     0.0000     0.0000     0.0000 </r>
        <r>     0.5130     0.0000     0.0000     0.0000 </r>
        <r>     0.6250     0.0000     0.0000     0.0000 </r>
        <r>     0.7369     0.0000     0.0000     0.0000 </r>
        <r>     0.8488     0.0000     0.0000     0.0000 </r>
        <r>     0.9608     0.0000     0.0000     0.0000 </r>
        <r>     1.0727     0.0000     0.0000     0.0000 </r>
        <r>     1.1846     0.0000     0.0000     0.0000 </r>
        <r>     1.2966     0.0000     0.0000     0.0000 </r>
        <r>     1.4085     0.0000     0.0000     0.0000 </r>
        <r>     1.5204     0.0000     0.0000     0.0000 </r>
        <r>     1.6324     0.0000     0.0000     0.0000 </r>
        <r>     1.7443     0.0000     0.0000     0.0000 </r>
        <r>     1.8562     0.0000     0.0000     0.0000 </r>
        <r>     1.9682     0.0000     0.0000     0.0000 </r>
        <r>     2.0801     0.0000     0.0000     0.0000 </r>
        <r>     2.1920     0.0000     0.0000     0.0000 </r>
        <r>     2.3040     0.0000     0.0000     0.0000 </r>
        <r>     2.4159     0.0000     0.0000     0.0000 </r>
        <r>     2.5278     0.0000     0.0000     0.0000 </r>
        <r>     2.6398     0.0000     0.0000     0.0000 </r>
        <r>     2.7517     0.0000     0.0000     0.0022 </r>
        <r>     2.8636     0.0000     0.0000     0.0000 </r>
        <r>     2.9756     0.0000     0.0003     0.0040 </r>
        <r>     3.0875     0.0000     0.0000     0.0000 </r>
        <r>     3.1994     0.0000     0.0004     0.0020 </r>
        <r>     3.3114     0.0000     0.0000     0.0000 </r>
        <r>     3.4233     0.0001     0.0001     0.0001 </r>
        <r>     3.5352     0.0000     0.0000     0.0000 </r>
        <r>     3.6472     0.0001     0.0000     0.0000 </r>
        <r>     3.7591     0.0000     0.0000     0.0000 </r>
        <r>     3.8710     0.0000     0.0000     0.0000 </r>
        <r>     3.9830     0.0000     0.0000     0.0000 </r>
        <r>     4.0949     0.0000     0.0000     0.0000 </r>
        <r>     4.2068     0.0000     0.0000     0.0000 </r>
        <r>     4.3188     0.0000     0.0000     0.0000 </r>
        <r>     4.4307     0.0131     0.0000     0.0085 </r>
        <r>     4.5426     0.0000     0.0000     0.0000 </r>
        <r>     4.6546     0.0000     0.0000     0.0118 </r>
        <r>     4.7665     0.0000     0.0000     0.0000 </r>
        <r>     4.8784     0.0078     0.0093     0.0116 </r>
        <r>     4.9904     0.0616     0.0124     0.0031 </r>
        <r>     5.1023     0.0000     0.0006     0.0010 </r>
        <r>     5.2142     0.0000     0.0000     0.0000 </r>
        <r>     5.3262     0.0000     0.0000     0.0000 </r>
        <r>     5.4381     0.0106     0.0025     0.0556 </r>
        <r>     5.5500     0.0000     0.0000     0.0000 </r>
        <r>     5.6620     0.0000     0.0000     0.0000 </r>
        <r>     5.7739     0.0000     0.0000     0.0000 </r>
        <r>     5.8858     0.1107     0.0211     0.4957 </r>
        <r>     5.9978     0.0176     0.0000     0.0000 </r>
        <r>     6.1097     0.0000     0.0000     0.0000 </r>
        <r>     6.2216     0.0038     0.0014     0.4707 </r>
        <r>     6.3336     0.1265     0.0210     0.3153 </r>
        <r>     6.4455     0.1076     0.0738     0.7913 </r>
        <r>     6.5574     0.0000     0.0063     0.2698 </r>
        <r>     6.6694     0.0000     0.0000     0.3026 </r>
        <r>     6.7813     0.0023     0.0643     1.0164 </r>
        <r>     6.8932     0.0000     0.0268     1.2240 </r>
        <r>     7.0052     0.0000     0.0000     0.0013 </r>
        <r>     7.1171     0.0560     0.0000     0.1831 </r>
        <r>     7.2290     0.0186     0.0455     2.3031 </r>
        <r>     7.3410     0.0018     0.0167     0.4696 </r>
        <r>     7.4529     0.0000     0.0017     0.4064 </r>
        <r>     7.5648     0.0000     0.0000     0.3376 </r>
        <r>     7.6768     0.0085     0.1556     1.4707 </r>
        <r>     7.7887     0.0960     0.0364     0.4811 </r>
        <r>     7.9006     0.0000     0.0000     0.1713 </r>
        <r>     8.0126     0.0443     0.0681     0.5881 </r>
        <r>     8.1245     0.0000     0.0000     0.5424 </r>
        <r>     8.2364     0.0000     0.1107     0.3026 </r>
        <r>     8.3484     0.0000     0.0000     0.0000 </r>
        <r>     8.4603     0.0000     0.0000     0.0019 </r>
        <r>     8.5722     0.0009     0.0020     0.0031 </r>
        <r>     8.6842     0.0000     0.0783     0.0713 </r>
        <r>     8.7961     0.0000     0.0000     0.0000 </r>
        <r>     8.9080     0.0000     0.0000     0.0000 </r>
        <r>     9.0200     0.0000     0.0000     0.0000 </r>
        <r>     9.1319     0.0000     0.0000     0.0000 </r>
        <r>     9.2438     0.0000     0.0000     0.0369 </r>
        <r>     9.3558     0.0000     0.0171     0.0000 </r>
        <r>     9.4677     0.0000     0.0000     0.0000 </r>
        <r>     9.5796     0.0000     0.0000     0.0000 </r>
        <r>     9.6916     0.0000     0.0000     0.0000 </r>
        <r>     9.8035     0.0000     0.0000     0.0000 </r>
        <r>     9.9154     0.0000     0.0000     0.0000 </r>
        <r>    10.0274     0.0000     0.0000     0.0000 </r>
        <r>    10.1393     0.0000     0.0000     0.0000 </r>
        <r>    10.2512     0.0000     0.0000     0.0000 </r>
        <r>    10.3632     0.0000     0.0000     0.0000 </r>
        <r>    10.4751     0.0000     0.0000     0.0000 </r>
        <r>    10.5870     0.0000     0.0000     0.0000 </r>
        <r>    10.6990     0.0000     0.0000     0.0000 </r>
        <r>    10.8109     0.0000     0.0000     0.0000 </r>
       </set>
      </set>
      <set comment="ion 2">
       <set comment="spin 1">
        <r>   -22.7690     0.0000     0.0000     0.0000 </r>
        <r>   -22.6571     0.0000     0.0000     0.0000 </r>
        <r>   -22.5452     0.0000     0.0000     0.0000 </r>
        <r>   -22.4332     0.0000     0.0000     0.0000 </r>
        <r>   -22.3213     0.0000     0.0000     0.0000 </r>
        <r>   -22.2094     0.0000     0.0000     0.0000 </r>
        <r>   -22.0974     0.0000     0.0000     0.0000 </r>
        <r>   -21.9855     0.0000     0.0000     0.0000 </r>
        <r>   -21.8736     0.0000     0.0000     0.0000 </r>
        <r>   -21.7616     0.0000     0.0000     0.0000 </r>
        <r>   -21.6497     0.0000     0.0000     0.0000 </r>
        <r>   -21.5378     0.0000     0.0000     0.0000 </r>
        <r>   -21.4258     0.0000     0.0000     0.0000 </r>
        <r>   -21.3139     0.0000     0.0000     0.0000 </r>
        <r>   -21.2020     0.0000     0.0000     0.0000 </r>
        <r>   -21.0900     0.0000     0.0000     0.0000 </r>
        <r>   -20.9781     0.0000     0.0000     0.0000 </r>
        <r>   -20.8662     0.0000     0.0000     0.0000 </r>
        <r>   -20.7542     0.0000     0.0000     0.0000 </r>
        <r>   -20.6423     0.0000     0.0000     0.0000 </r>
        <r>   -20.5304     0.0000     0.0000     0.0000 </r>
        <r>   -20.4184     0.0000     0.0000     0.0000 </r>
        <r>   -20.3065     0.0000     0.0000     0.0000 </r>
        <r>   -20.1946     0.0000     0.0000     0.0000 </r>
        <r>   -20.0826     0.0000     0.0000     0.0000 </r>
        <r>   -19.9707     0.0000     0.0000     0.0000 </r>
        <r>   -19.8588     0.0000     0.0000     0.0000 </r>
        <r>   -19.7468     0.0000     0.0000     0.0000 </r>
        <r>   -19.6349     0.0000     0.0000     0.0000 </r>
        <r>   -19.5230     0.0000     0.0000     0.0000 </r>
        <r>   -19.4110     0.0000     0.0000     0.0000 </r>
        <r>   -19.2991     0.0000     0.0000     0.0000 </r>
        <r>   -19.1872     0.0000     0.0000     0.0000 </r>
        <r>   -19.0752     0.0000     0.0000     0.0000 </r>
        <r>   -18.9633     0.0000     0.0000     0.0000 </r>
        <r>   -18.8514     0.0000     0.0000     0.0000 </r>
        <r>   -18.7394     0.0000     0.0000     0.0000 </r>
        <r>   -18.6275     0.0000     0.0000     0.0000 </r>
        <r>   -18.5156     0.0000     0.0000     0.0000 </r>
        <r>   -18.4036     0.0000     0.0000     0.0000 </r>
        <r>   -18.2917     0.0000     0.0000     0.0000 </r>
        <r>   -18.1798     0.0000     0.0000     0.0000 </r>
        <r>   -18.0678     0.0000     0.0000     0.0000 </r>
        <r>   -17.9559     0.0000     0.0000     0.0000 </r>
        <r>   -17.8440     0.0000     0.0000     0.0000 </r>
        <r>   -17.7320     0.0000     0.0000     0.0000 </r>
        <r>   -17.6201     0.0000     0.0000     0.0000 </r>
        <r>   -17.5082     0.0000     0.0000     0.0000 </r>
        <r>   -17.3962     0.0000     0.0000     0.0000 </r>
        <r>   -17.2843     0.0000     0.0000     0.0000 </r>
        <r>   -17.1724     0.0000     0.0000     0.0000 </r>
        <r>   -17.0604     0.0000     0.0000     0.0000 </r>
        <r>   -16.9485     0.0000     0.0000     0.0000 </r>
        <r>   -16.8366     0.0000     0.0000     0.0000 </r>
        <r>   -16.7246     0.0000     0.0000     0.0000 </r>
        <r>   -16.6127     0.0000     0.0000     0.0000 </r>
        <r>   -16.5008     0.0000     0.0000     0.0000 </r>
        <r>   -16.3889     0.0006     0.0001    10.9742 </r>
        <r>   -16.2769     0.0005     0.0001    10.9677 </r>
        <r>   -16.1650     0.0000     0.0000    52.3892 </r>
        <r>   -16.0531     0.0000     0.0000     0.0000 </r>
        <r>   -15.9411     0.0000     0.0000     0.0000 </r>
        <r>   -15.8292     0.0000     0.0000     0.0000 </r>
        <r>   -15.7173     0.0000     0.0000     0.0000 </r>
        <r>   -15.6053     0.0000     0.0000     0.0000 </r>
        <r>   -15.4934     0.0000     0.0000     0.0000 </r>
        <r>   -15.3815     0.0000     0.0000     0.0000 </r>
        <r>   -15.2695     0.0000     0.0000     0.0000 </r>
        <r>   -15.1576     0.0000     0.0000     0.0000 </r>
        <r>   -15.0457     0.0000     0.0000     0.0000 </r>
        <r>   -14.9337     0.0000     0.0000     0.0000 </r>
        <r>   -14.8218     0.0000     0.0000     0.0000 </r>
        <r>   -14.7099     0.0000     0.0000     0.0000 </r>
        <r>   -14.5979     0.0000     0.0000     0.0000 </r>
        <r>   -14.4860     0.0000     0.0000     0.0000 </r>
        <r>   -14.3741     0.0567     0.0010     0.0037 </r>
        <r>   -14.2621     0.1275     0.0093     0.0063 </r>
        <r>   -14.1502     0.1063     0.0103     0.1105 </r>
        <r>   -14.0383     0.0016     0.0659     0.0053 </r>
        <r>   -13.9263     0.0132     0.0000     0.0431 </r>
        <r>   -13.8144     0.0053     0.0072     0.2758 </r>
        <r>   -13.7025     0.0000     0.0000     0.2152 </r>
        <r>   -13.5905     0.0000     0.0000     0.0000 </r>
        <r>   -13.4786     0.0000     0.0000     0.0000 </r>
        <r>   -13.3667     0.0000     0.0000     0.0000 </r>
        <r>   -13.2547     0.0000     0.0000     0.0000 </r>
        <r>   -13.1428     0.0000     0.0000     0.0000 </r>
        <r>   -13.0309     0.0000     0.0000     0.0000 </r>
        <r>   -12.9189     0.0000     0.0000     0.0000 </r>
        <r>   -12.8070     0.0000     0.0000     0.0000 </r>
        <r>   -12.6951     0.0000     0.0000     0.0000 </r>
        <r>   -12.5831     0.0000     0.0000     0.0000 </r>
        <r>   -12.4712     0.0000     0.0000     0.0000 </r>
        <r>   -12.3593     0.0000     0.0000     0.0000 </r>
        <r>   -12.2473     0.0000     0.0000     0.0000 </r>
        <r>   -12.1354     0.0000     0.0000     0.0000 </r>
        <r>   -12.0235     0.0000     0.0000     0.0000 </r>
        <r>   -11.9115     0.0000     0.0000     0.0000 </r>
        <r>   -11.7996     0.0000     0.0000     0.0000 </r>
        <r>   -11.6877     0.0000     0.0000     0.0000 </r>
        <r>   -11.5757     0.0000     0.0000     0.0000 </r>
        <r>   -11.4638     0.0000     0.0000     0.0000 </r>
        <r>   -11.3519     0.0000     0.0000     0.0000 </r>
        <r>   -11.2399     0.0000     0.0000     0.0000 </r>
        <r>   -11.1280     0.0000     0.0000     0.0000 </r>
        <r>   -11.0161     0.0000     0.0000     0.0000 </r>
        <r>   -10.9041     0.0000     0.0000     0.0000 </r>
        <r>   -10.7922     0.0000     0.0000     0.0000 </r>
        <r>   -10.6803     0.0000     0.0000     0.0000 </r>
        <r>   -10.5683     0.0000     0.0000     0.0000 </r>
        <r>   -10.4564     0.0000     0.0000     0.0000 </r>
        <r>   -10.3445     0.0000     0.0000     0.0000 </r>
        <r>   -10.2325     0.0000     0.0000     0.0000 </r>
        <r>   -10.1206     0.0000     0.0000     0.0000 </r>
        <r>   -10.0087     0.0000     0.0000     0.0000 </r>
        <r>    -9.8967     0.0000     0.0000     0.0000 </r>
        <r>    -9.7848     0.0000     0.0000     0.0000 </r>
        <r>    -9.6729     0.0000     0.0000     0.0000 </r>
        <r>    -9.5609     0.0000     0.0000     0.0000 </r>
        <r>    -9.4490     0.0000     0.0000     0.0000 </r>
        <r>    -9.3371     0.0000     0.0000     0.0000 </r>
        <r>    -9.2251     0.0000     0.0000     0.0000 </r>
        <r>    -9.1132     0.0000     0.0000     0.0000 </r>
        <r>    -9.0013     0.0000     0.0000     0.0000 </r>
        <r>    -8.8893     0.0000     0.0000     0.0000 </r>
        <r>    -8.7774     0.0000     0.0000     0.0000 </r>
        <r>    -8.6655     0.0000     0.0000     0.0000 </r>
        <r>    -8.5535     0.0000     0.0000     0.0000 </r>
        <r>    -8.4416     0.0000     0.0000     0.0000 </r>
        <r>    -8.3297     0.1141     0.0000     0.0000 </r>
        <r>    -8.2177     0.0000     0.0000     0.0000 </r>
        <r>    -8.1058     0.0000     0.0000     0.0000 </r>
        <r>    -7.9939     0.9389     0.0020     0.0009 </r>
        <r>    -7.8819     0.0000     0.0000     0.0000 </r>
        <r>    -7.7700     1.9017     0.0088     0.0017 </r>
[...]
        <r>  0.0000  0.1572  0.0000 </r>
        <r>  0.0000  0.1572  0.0000 </r>
        <r>  0.0000  0.3061  0.0001 </r>
       </set>
       <set comment="band 22">
        <r>  0.0000  0.0004  0.0000 </r>
        <r>  0.1763  0.0260  0.0104 </r>
        <r>  0.0026  0.0358  0.0019 </r>
        <r>  0.0026  0.0358  0.0019 </r>
        <r>  0.0000  0.4257  0.0002 </r>
       </set>
       <set comment="band 23">
        <r>  0.0000  0.0001  0.0006 </r>
        <r>  0.0000  0.3969  0.0005 </r>
        <r>  0.0000  0.0204  0.0039 </r>
        <r>  0.0000  0.0204  0.0039 </r>
        <r>  0.0415  0.0039  0.0230 </r>
       </set>
       <set comment="band 24">
        <r>  0.0000  0.0000  0.0035 </r>
        <r>  0.0000  0.3128  0.0089 </r>
        <r>  0.0130  0.0831  0.0086 </r>
        <r>  0.0130  0.0831  0.0086 </r>
        <r>  0.0000  0.0000  0.0102 </r>
       </set>
       <set comment="band 25">
        <r>  0.0000  0.0020  0.0063 </r>
        <r>  0.0310  0.2728  0.0031 </r>
        <r>  0.0143  0.0770  0.0063 </r>
        <r>  0.0143  0.0770  0.0063 </r>
        <r>  0.0000  0.0007  0.0093 </r>
       </set>
       <set comment="band 26">
        <r>  0.0398  0.0004  0.0572 </r>
        <r>  0.0000  0.0112  0.0001 </r>
        <r>  0.0000  0.0201  0.0039 </r>
        <r>  0.0000  0.0201  0.0039 </r>
        <r>  0.0098  0.0051  0.0184 </r>
       </set>
       <set comment="band 27">
        <r>  0.0000  0.0186  0.1150 </r>
        <r>  0.0004  0.0492  0.0009 </r>
        <r>  0.0090  0.0179  0.0124 </r>
        <r>  0.0090  0.0179  0.0124 </r>
        <r>  0.0000  0.0067  0.0005 </r>
       </set>
       <set comment="band 28">
        <r>  0.0000  0.0011  0.1915 </r>
        <r>  0.0000  0.0000  0.0007 </r>
        <r>  0.0000  0.0226  0.0025 </r>
        <r>  0.0000  0.0226  0.0025 </r>
        <r>  0.0000  0.0048  0.0096 </r>
       </set>
       <set comment="band 29">
        <r>  0.0000  0.0000  0.2076 </r>
        <r>  0.0000  0.0513  0.0011 </r>
        <r>  0.0034  0.0107  0.0108 </r>
        <r>  0.0034  0.0107  0.0108 </r>
        <r>  0.0000  0.0000  0.0018 </r>
       </set>
       <set comment="band 30">
        <r>  0.0243  0.0122  0.1105 </r>
        <r>  0.0000  0.0104  0.0028 </r>
        <r>  0.0000  0.0027  0.0138 </r>
        <r>  0.0000  0.0027  0.0138 </r>
        <r>  0.0025  0.0243  0.0074 </r>
       </set>
       <set comment="band 31">
        <r>  0.0009  0.0106  0.2191 </r>
        <r>  0.0000  0.0011  0.0003 </r>
        <r>  0.0000  0.0071  0.0020 </r>
        <r>  0.0000  0.0071  0.0020 </r>
        <r>  0.0017  0.0527  0.0047 </r>
       </set>
       <set comment="band 32">
        <r>  0.0000  0.0335  0.0917 </r>
        <r>  0.0001  0.0001  0.0030 </r>
        <r>  0.0022  0.0575  0.0102 </r>
        <r>  0.0022  0.0575  0.0102 </r>
        <r>  0.0000  0.0010  0.0000 </r>
       </set>
      </set>
      <set comment="kpoint 9">
       <set comment="band 1">
        <r>  0.8879  0.0000  0.0000 </r>
        <r>  0.0000  0.0000  0.0000 </r>
        <r>  0.0000  0.0000  0.0000 </r>
        <r>  0.0000  0.0000  0.0000 </r>
        <r>  0.0000  0.0000  0.0000 </r>
       </set>
       <set comment="band 2">
        <r>  0.0000  0.0000  0.0000 </r>
        <r>  0.0000  0.0000  0.9461 </r>
        <r>  0.0000  0.0005  0.0000 </r>
        <r>  0.0189  0.0010  0.0002 </r>
        <r>  0.0000  0.0005  0.0000 </r>
       </set>
       <set comment="band 3">
        <r>  0.0000  0.0000  0.0000 </r>
        <r>  0.0000  0.0000  0.9705 </r>
        <r>  0.0000  0.0016  0.0000 </r>
        <r>  0.0000  0.0000  0.0000 </r>
        <r>  0.0000  0.0016  0.0000 </r>
       </set>
       <set comment="band 4">
        <r>  0.0000  0.0000  0.0000 </r>
        <r>  0.0000  0.0000  0.9771 </r>
        <r>  0.0000  0.0001  0.0000 </r>
        <r>  0.0000  0.0000  0.0000 </r>
        <r>  0.0000  0.0001  0.0000 </r>
       </set>
       <set comment="band 5">
        <r>  0.0000  0.0000  0.0000 </r>
        <r>  0.0000  0.0000  0.9772 </r>
        <r>  0.0000  0.0001  0.0000 </r>
        <r>  0.0000  0.0001  0.0000 </r>
        <r>  0.0000  0.0001  0.0000 </r>
       </set>
       <set comment="band 6">
        <r>  0.0000  0.0000  0.0000 </r>
        <r>  0.0000  0.0000  0.9772 </r>
        <r>  0.0000  0.0001  0.0000 </r>
        <r>  0.0000  0.0001  0.0000 </r>
        <r>  0.0000  0.0001  0.0000 </r>
       </set>
       <set comment="band 7">
        <r>  0.0000  0.0001  0.0000 </r>
        <r>  0.0000  0.0049  0.0000 </r>
        <r>  0.7752  0.0000  0.0001 </r>
        <r>  0.0000  0.0000  0.0000 </r>
        <r>  0.0183  0.0000  0.0000 </r>
       </set>
       <set comment="band 8">
        <r>  0.0000  0.0001  0.0000 </r>
        <r>  0.0000  0.0049  0.0000 </r>
        <r>  0.0183  0.0000  0.0000 </r>
        <r>  0.0000  0.0000  0.0000 </r>
        <r>  0.7752  0.0000  0.0001 </r>
       </set>
       <set comment="band 9">
        <r>  0.0000  0.0000  0.0000 </r>
        <r>  0.0079  0.0024  0.0270 </r>
        <r>  0.0000  0.0003  0.0000 </r>
        <r>  0.7669  0.0000  0.0001 </r>
        <r>  0.0000  0.0003  0.0000 </r>
       </set>
       <set comment="band 10">
        <r>  0.0000  0.0000  0.0000 </r>
        <r>  0.5605  0.0012  0.0005 </r>
        <r>  0.0000  0.0399  0.0000 </r>
        <r>  0.0149  0.0237  0.0006 </r>
        <r>  0.0000  0.0399  0.0000 </r>
       </set>
       <set comment="band 11">
        <r>  0.0000  0.7712  0.0000 </r>
        <r>  0.0000  0.0000  0.0000 </r>
        <r>  0.0004  0.0004  0.0000 </r>
        <r>  0.0000  0.0014  0.0000 </r>
        <r>  0.0004  0.0004  0.0000 </r>
       </set>
       <set comment="band 12">
        <r>  0.0000  0.7712  0.0000 </r>
        <r>  0.0000  0.0000  0.0000 </r>
        <r>  0.0004  0.0004  0.0000 </r>
        <r>  0.0000  0.0014  0.0000 </r>
        <r>  0.0004  0.0004  0.0000 </r>
       </set>
       <set comment="band 13">
        <r>  0.0000  0.7755  0.0000 </r>
        <r>  0.0000  0.0000  0.0000 </r>
        <r>  0.0000  0.0008  0.0000 </r>
        <r>  0.0000  0.0000  0.0000 </r>
        <r>  0.0000  0.0008  0.0000 </r>
       </set>
       <set comment="band 14">
        <r>  0.0000  0.0000  0.0000 </r>
        <r>  0.0077  0.0724  0.0128 </r>
        <r>  0.0000  0.0276  0.0004 </r>
        <r>  0.0047  0.4390  0.0008 </r>
        <r>  0.0000  0.0276  0.0004 </r>
       </set>
       <set comment="band 15">
        <r>  0.0015  0.0113  0.0005 </r>
        <r>  0.0000  0.0000  0.0053 </r>
        <r>  0.0000  0.2508  0.0000 </r>
        <r>  0.0000  0.0000  0.0000 </r>
        <r>  0.0000  0.2508  0.0000 </r>
       </set>
       <set comment="band 16">
        <r>  0.0000  0.0169  0.0004 </r>
        <r>  0.0000  0.0025  0.0040 </r>
        <r>  0.0004  0.0984  0.0000 </r>
        <r>  0.0000  0.2699  0.0001 </r>
        <r>  0.0005  0.1508  0.0000 </r>
       </set>
       <set comment="band 17">
        <r>  0.0000  0.0169  0.0004 </r>
        <r>  0.0000  0.0025  0.0040 </r>
        <r>  0.0005  0.1508  0.0000 </r>
        <r>  0.0000  0.2699  0.0001 </r>
        <r>  0.0004  0.0984  0.0000 </r>
       </set>
       <set comment="band 18">
        <r>  0.0000  0.0000  0.0000 </r>
        <r>  0.0000  0.0000  0.0308 </r>
        <r>  0.0000  0.3116  0.0000 </r>
        <r>  0.0000  0.0000  0.0000 </r>
        <r>  0.0000  0.3116  0.0000 </r>
       </set>
       <set comment="band 19">
        <r>  0.0000  0.0004  0.0008 </r>
        <r>  0.0000  0.0048  0.0002 </r>
        <r>  0.0009  0.1762  0.0001 </r>
        <r>  0.0000  0.2835  0.0002 </r>
        <r>  0.0008  0.1411  0.0001 </r>
       </set>
       <set comment="band 20">
        <r>  0.0000  0.0004  0.0008 </r>
        <r>  0.0000  0.0048  0.0002 </r>
        <r>  0.0008  0.1411  0.0001 </r>
        <r>  0.0000  0.2835  0.0002 </r>
        <r>  0.0009  0.1762  0.0001 </r>
       </set>
       <set comment="band 21">
        <r>  0.0000  0.0000  0.0003 </r>
        <r>  0.0000  0.0000  0.0000 </r>
        <r>  0.0000  0.3194  0.0000 </r>
        <r>  0.0000  0.0000  0.0000 </r>
        <r>  0.0000  0.3194  0.0000 </r>
       </set>
       <set comment="band 22">
        <r>  0.0000  0.0000  0.0001 </r>
        <r>  0.2278  0.0146  0.0063 </r>
        <r>  0.0000  0.2409  0.0001 </r>
        <r>  0.0030  0.0171  0.0026 </r>
        <r>  0.0000  0.2409  0.0001 </r>
       </set>
       <set comment="band 23">
        <r>  0.0000  0.0001  0.0012 </r>
        <r>  0.0000  0.3853  0.0002 </r>
        <r>  0.0214  0.0012  0.0136 </r>
        <r>  0.0000  0.0232  0.0037 </r>
        <r>  0.0232  0.0013  0.0141 </r>
       </set>
       <set comment="band 24">
        <r>  0.0000  0.0001  0.0012 </r>
        <r>  0.0000  0.3853  0.0002 </r>
        <r>  0.0232  0.0013  0.0141 </r>
        <r>  0.0000  0.0232  0.0037 </r>
        <r>  0.0214  0.0012  0.0136 </r>
       </set>
       <set comment="band 25">
        <r>  0.0000  0.0000  0.0091 </r>
        <r>  0.0192  0.2673  0.0046 </r>
        <r>  0.0000  0.0005  0.0091 </r>
        <r>  0.0286  0.1557  0.0062 </r>
        <r>  0.0000  0.0005  0.0091 </r>
       </set>
       <set comment="band 26">
        <r>  0.0642  0.0037  0.0001 </r>
        <r>  0.0000  0.0000  0.0001 </r>
        <r>  0.0000  0.0166  0.0118 </r>
        <r>  0.0000  0.0000  0.0160 </r>
        <r>  0.0000  0.0166  0.0118 </r>
       </set>
       <set comment="band 27">
        <r>  0.0000  0.0000  0.1790 </r>
        <r>  0.0006  0.0640  0.0006 </r>
        <r>  0.0000  0.0067  0.0001 </r>
        <r>  0.0124  0.0186  0.0232 </r>
        <r>  0.0000  0.0067  0.0001 </r>
       </set>
       <set comment="band 28">
        <r>  0.0000  0.0080  0.1616 </r>
        <r>  0.0000  0.0369  0.0011 </r>
        <r>  0.0010  0.0012  0.0037 </r>
        <r>  0.0000  0.0049  0.0042 </r>
        <r>  0.0100  0.0119  0.0226 </r>
       </set>
       <set comment="band 29">
        <r>  0.0000  0.0080  0.1616 </r>
        <r>  0.0000  0.0369  0.0011 </r>
        <r>  0.0100  0.0119  0.0226 </r>
        <r>  0.0000  0.0049  0.0042 </r>
        <r>  0.0010  0.0012  0.0037 </r>
       </set>
       <set comment="band 30">
        <r>  0.0000  0.0010  0.2426 </r>
        <r>  0.0000  0.0000  0.0004 </r>
        <r>  0.0000  0.0173  0.0005 </r>
        <r>  0.0000  0.0000  0.0083 </r>
        <r>  0.0000  0.0173  0.0005 </r>
       </set>
       <set comment="band 31">
        <r>  0.0000  0.0000  0.3238 </r>
        <r>  0.0000  0.0000  0.0000 </r>
        <r>  0.0000  0.0030  0.0047 </r>
        <r>  0.0000  0.0000  0.0000 </r>
        <r>  0.0000  0.0030  0.0047 </r>
       </set>
       <set comment="band 32">
        <r>  0.0000  0.0467  0.0426 </r>
        <r>  0.0000  0.0000  0.0006 </r>
        <r>  0.0007  0.0090  0.0026 </r>
        <r>  0.0000  0.0768  0.0002 </r>
        <r>  0.0039  0.0494  0.0130 </r>
       </set>
      </set>
      <set comment="kpoint 10">
       <set comment="band 1">
        <r>  0.8878  0.0000  0.0000 </r>
        <r>  0.0000  0.0000  0.0000 </r>
        <r>  0.0000  0.0000  0.0000 </r>
        <r>  0.0000  0.0000  0.0000 </r>
        <r>  0.0000  0.0000  0.0000 </r>
       </set>
       <set comment="band 2">
        <r>  0.0000  0.0000  0.0000 </r>
        <r>  0.0000  0.0000  0.9705 </r>
        <r>  0.0000  0.0005  0.0000 </r>
        <r>  0.0000  0.0021  0.0000 </r>
        <r>  0.0000  0.0005  0.0000 </r>
       </set>
       <set comment="band 3">
        <r>  0.0000  0.0000  0.0000 </r>
        <r>  0.0000  0.0000  0.9705 </r>
        <r>  0.0000  0.0016  0.0000 </r>
        <r>  0.0000  0.0000  0.0000 </r>
        <r>  0.0000  0.0016  0.0000 </r>
       </set>
       <set comment="band 4">
        <r>  0.0000  0.0000  0.0000 </r>
        <r>  0.0000  0.0000  0.9771 </r>
        <r>  0.0000  0.0001  0.0000 </r>
        <r>  0.0000  0.0001  0.0000 </r>
        <r>  0.0000  0.0001  0.0000 </r>
       </set>
       <set comment="band 5">
        <r>  0.0000  0.0000  0.0000 </r>
        <r>  0.0000  0.0000  0.9771 </r>
        <r>  0.0000  0.0001  0.0000 </r>
        <r>  0.0000  0.0001  0.0000 </r>
        <r>  0.0000  0.0001  0.0000 </r>
       </set>
       <set comment="band 6">
        <r>  0.0000  0.0000  0.0000 </r>
        <r>  0.0000  0.0000  0.9771 </r>
        <r>  0.0000  0.0001  0.0000 </r>
        <r>  0.0000  0.0000  0.0000 </r>
        <r>  0.0000  0.0001  0.0000 </r>
       </set>
       <set comment="band 7">
        <r>  0.0000  0.0000  0.0000 </r>
        <r>  0.0000  0.0049  0.0000 </r>
        <r>  0.4798  0.0000  0.0001 </r>
        <r>  0.0000  0.0000  0.0000 </r>
        <r>  0.3142  0.0000  0.0001 </r>
       </set>
       <set comment="band 8">
        <r>  0.0000  0.0000  0.0000 </r>
        <r>  0.0000  0.0049  0.0000 </r>
        <r>  0.3142  0.0000  0.0001 </r>
        <r>  0.0000  0.0000  0.0000 </r>
        <r>  0.4798  0.0000  0.0001 </r>
       </set>
       <set comment="band 9">
        <r>  0.0000  0.0000  0.0000 </r>
        <r>  0.0000  0.0049  0.0000 </r>
        <r>  0.0000  0.0000  0.0000 </r>
        <r>  0.7940  0.0000  0.0001 </r>
        <r>  0.0000  0.0000  0.0000 </r>
       </set>
       <set comment="band 10">
        <r>  0.0000  0.0000  0.0000 </r>
        <r>  0.5554  0.0000  0.0000 </r>
        <r>  0.0000  0.0367  0.0000 </r>
        <r>  0.0000  0.0367  0.0000 </r>
        <r>  0.0000  0.0367  0.0000 </r>
       </set>
       <set comment="band 11">
        <r>  0.0000  0.7684  0.0000 </r>
        <r>  0.0000  0.0000  0.0001 </r>
        <r>  0.0000  0.0008  0.0000 </r>
        <r>  0.0000  0.0013  0.0000 </r>
        <r>  0.0000  0.0008  0.0000 </r>
       </set>
       <set comment="band 12">
        <r>  0.0000  0.7684  0.0000 </r>
        <r>  0.0000  0.0000  0.0001 </r>
        <r>  0.0000  0.0008  0.0000 </r>
        <r>  0.0000  0.0015  0.0000 </r>
        <r>  0.0000  0.0007  0.0000 </r>
       </set>
       <set comment="band 13">
        <r>  0.0000  0.7684  0.0000 </r>
        <r>  0.0000  0.0000  0.0001 </r>
        <r>  0.0000  0.0014  0.0000 </r>
        <r>  0.0000  0.0001  0.0000 </r>
        <r>  0.0000  0.0014  0.0000 </r>
       </set>
       <set comment="band 14">
        <r>  0.0000  0.0226  0.0000 </r>
        <r>  0.0000  0.0000  0.0053 </r>
        <r>  0.0000  0.2524  0.0000 </r>
        <r>  0.0000  0.0070  0.0000 </r>
        <r>  0.0000  0.2510  0.0000 </r>
       </set>
       <set comment="band 15">
        <r>  0.0000  0.0226  0.0000 </r>
        <r>  0.0000  0.0000  0.0053 </r>
        <r>  0.0000  0.0991  0.0000 </r>
        <r>  0.0000  0.2486  0.0000 </r>
        <r>  0.0000  0.1627  0.0000 </r>
       </set>
       <set comment="band 16">
        <r>  0.0000  0.0226  0.0000 </r>
        <r>  0.0000  0.0000  0.0053 </r>
        <r>  0.0000  0.1589  0.0000 </r>
        <r>  0.0000  0.2549  0.0000 </r>
        <r>  0.0000  0.0967  0.0000 </r>
       </set>
       <set comment="band 17">
        <r>  0.0000  0.0000  0.0000 </r>
        <r>  0.0000  0.0000  0.0308 </r>
        <r>  0.0000  0.3119  0.0000 </r>
        <r>  0.0000  0.0000  0.0000 </r>
        <r>  0.0000  0.3120  0.0000 </r>
       </set>
       <set comment="band 18">
        <r>  0.0000  0.0000  0.0000 </r>
        <r>  0.0000  0.0000  0.0308 </r>
        <r>  0.0000  0.1040  0.0000 </r>
        <r>  0.0000  0.4159  0.0000 </r>
        <r>  0.0000  0.1039  0.0000 </r>
       </set>
       <set comment="band 19">
        <r>  0.0000  0.0000  0.0000 </r>
        <r>  0.0000  0.0000  0.0000 </r>
        <r>  0.0000  0.3144  0.0000 </r>
        <r>  0.0000  0.0114  0.0000 </r>
        <r>  0.0000  0.3143  0.0000 </r>
       </set>
       <set comment="band 20">
        <r>  0.0000  0.0000  0.0000 </r>
        <r>  0.0000  0.0000  0.0000 </r>
        <r>  0.0000  0.1608  0.0000 </r>
        <r>  0.0000  0.3201  0.0000 </r>
        <r>  0.0000  0.1592  0.0000 </r>
       </set>
       <set comment="band 21">
        <r>  0.0000  0.0000  0.0000 </r>
        <r>  0.0000  0.0000  0.0000 </r>
        <r>  0.0000  0.1649  0.0000 </r>
        <r>  0.0000  0.3087  0.0000 </r>
        <r>  0.0000  0.1666  0.0000 </r>
       </set>
       <set comment="band 22">
        <r>  0.0000  0.0000  0.0000 </r>
        <r>  0.2809  0.0000  0.0000 </r>
        <r>  0.0000  0.1704  0.0000 </r>
        <r>  0.0000  0.1704  0.0000 </r>
        <r>  0.0000  0.1704  0.0000 </r>
       </set>
       <set comment="band 23">
        <r>  0.0000  0.0000  0.0026 </r>
        <r>  0.0000  0.3740  0.0000 </r>
        <r>  0.0222  0.0000  0.0119 </r>
        <r>  0.0043  0.0000  0.0079 </r>
        <r>  0.0223  0.0000  0.0119 </r>
       </set>
       <set comment="band 24">
        <r>  0.0000  0.0000  0.0026 </r>
        <r>  0.0000  0.3740  0.0000 </r>
        <r>  0.0244  0.0000  0.0124 </r>
        <r>  0.0000  0.0000  0.0069 </r>
        <r>  0.0244  0.0000  0.0124 </r>
       </set>
       <set comment="band 25">
        <r>  0.0000  0.0000  0.0026 </r>
        <r>  0.0000  0.3740  0.0000 </r>
        <r>  0.0022  0.0000  0.0074 </r>
        <r>  0.0445  0.0000  0.0169 </r>
        <r>  0.0022  0.0000  0.0074 </r>
       </set>
       <set comment="band 26">
        <r>  0.0649  0.0000  0.0000 </r>
        <r>  0.0000  0.0000  0.0000 </r>
        <r>  0.0000  0.0000  0.0146 </r>
        <r>  0.0000  0.0000  0.0146 </r>
        <r>  0.0000  0.0000  0.0146 </r>
       </set>
       <set comment="band 27">
        <r>  0.0000  0.0000  0.1737 </r>
        <r>  0.0000  0.0525  0.0000 </r>
        <r>  0.0051  0.0000  0.0147 </r>
        <r>  0.0001  0.0000  0.0022 </r>
        <r>  0.0056  0.0000  0.0162 </r>
       </set>
       <set comment="band 28">
        <r>  0.0000  0.0000  0.1737 </r>
        <r>  0.0000  0.0525  0.0000 </r>
        <r>  0.0057  0.0000  0.0163 </r>
        <r>  0.0000  0.0000  0.0019 </r>
        <r>  0.0051  0.0000  0.0148 </r>
       </set>
       <set comment="band 29">
        <r>  0.0000  0.0000  0.1737 </r>
        <r>  0.0000  0.0525  0.0000 </r>
        <r>  0.0001  0.0000  0.0021 </r>
        <r>  0.0107  0.0000  0.0289 </r>
        <r>  0.0001  0.0000  0.0021 </r>
       </set>
       <set comment="band 30">
        <r>  0.0000  0.0000  0.3071 </r>
        <r>  0.0000  0.0000  0.0000 </r>
        <r>  0.0000  0.0000  0.0078 </r>
        <r>  0.0000  0.0000  0.0000 </r>
        <r>  0.0000  0.0000  0.0078 </r>
       </set>
       <set comment="band 31">
        <r>  0.0000  0.0000  0.3071 </r>
        <r>  0.0000  0.0000  0.0000 </r>
        <r>  0.0000  0.0000  0.0026 </r>
        <r>  0.0000  0.0000  0.0104 </r>
        <r>  0.0000  0.0000  0.0026 </r>
       </set>
       <set comment="band 32">
        <r>  0.0000  0.0611  0.0000 </r>
        <r>  0.0000  0.0000  0.0007 </r>
        <r>  0.0000  0.0368  0.0000 </r>
        <r>  0.0000  0.0816  0.0000 </r>
        <r>  0.0000  0.0642  0.0000 </r>
       </set>
      </set>
     </set>
    </set>
   </array>
  </projected>
 </calculation>
 <structure name="finalpos" >
  <crystal>
   <varray name="basis" >
    <v>       5.90874113       0.00000000      -0.00000000 </v>
    <v>       0.00000000       5.90874113       0.00000000 </v>
    <v>       0.00000000       0.00000000       5.90874113 </v>
   </varray>
   <i name="volume">    206.29318910 </i>
   <varray name="rec_basis" >
    <v>       0.16924079       0.00000000       0.00000000 </v>
    <v>      -0.00000000       0.16924079       0.00000000 </v>
    <v>       0.00000000      -0.00000000       0.16924079 </v>
   </varray>
  </crystal>
  <varray name="positions" >
   <v>       0.50000000       0.50000000       0.50000000 </v>
   <v>       0.00000000       0.00000000       0.00000000 </v>
   <v>       0.00000000       0.50000000       0.00000000 </v>
   <v>       0.00000000       0.00000000       0.50000000 </v>
   <v>       0.50000000       0.00000000       0.00000000 </v>
  </varray>
 </structure>
</modeling>
