CsPbBr3 cubic bulk                      
           1
     5.908741    0.000000   -0.000000
     0.000000    5.908741    0.000000
     0.000000    0.000000    5.908741
   Cs   Pb   Br
   1   1   3
Direct configuration=     1
   0.50000000  0.50000000  0.50000000
   0.00000000  0.00000000  0.00000000
   0.00000000  0.50000000  0.00000000
   0.00000000  0.00000000  0.50000000
   0.50000000  0.00000000  0.00000000
