  39  39   1   0
  0.4103261E+02  0.1166835E-08  0.1176381E-08  0.1166835E-08  0.5000000E-15
   1.0000000000000000E-004
  CAR 
 CsPbBr3 cubic bulk                      
      7.94830298    -22.43170549  301      0.37861754      1.00000000
    -22.432  0.0000E+00  0.0000E+00
    -22.330  0.0000E+00  0.0000E+00
    -22.229  0.0000E+00  0.0000E+00
    -22.128  0.0000E+00  0.0000E+00
    -22.027  0.0000E+00  0.0000E+00
    -21.925  0.0000E+00  0.0000E+00
    -21.824  0.0000E+00  0.0000E+00
    -21.723  0.0000E+00  0.0000E+00
    -21.622  0.0000E+00  0.0000E+00
    -21.520  0.0000E+00  0.0000E+00
    -21.419  0.0000E+00  0.0000E+00
    -21.318  0.0000E+00  0.0000E+00
    -21.217  0.0000E+00  0.0000E+00
    -21.115  0.0000E+00  0.0000E+00
    -21.014  0.2008E+02  0.2033E+01
    -20.913  0.8734E+02  0.1385E+02
    -20.811  0.0000E+00  0.1400E+02
    -20.710  0.0000E+00  0.1400E+02
    -20.609  0.0000E+00  0.1400E+02
    -20.508  0.0000E+00  0.1400E+02
    -20.406  0.0000E+00  0.1400E+02
    -20.305  0.0000E+00  0.1400E+02
    -20.204  0.0000E+00  0.1400E+02
    -20.103  0.0000E+00  0.1400E+02
    -20.001  0.0000E+00  0.1400E+02
    -19.900  0.0000E+00  0.1400E+02
    -19.799  0.0000E+00  0.1400E+02
    -19.698  0.0000E+00  0.1400E+02
    -19.596  0.0000E+00  0.1400E+02
    -19.495  0.0000E+00  0.1400E+02
    -19.394  0.0000E+00  0.1400E+02
    -19.292  0.0000E+00  0.1400E+02
    -19.191  0.0000E+00  0.1400E+02
    -19.090  0.0000E+00  0.1400E+02
    -18.989  0.0000E+00  0.1400E+02
    -18.887  0.0000E+00  0.1400E+02
    -18.786  0.0000E+00  0.1400E+02
    -18.685  0.0000E+00  0.1400E+02
    -18.584  0.0000E+00  0.1400E+02
    -18.482  0.0000E+00  0.1400E+02
    -18.381  0.0000E+00  0.1400E+02
    -18.280  0.0000E+00  0.1400E+02
    -18.179  0.0000E+00  0.1400E+02
    -18.077  0.0000E+00  0.1400E+02
    -17.976  0.0000E+00  0.1400E+02
    -17.875  0.0000E+00  0.1400E+02
    -17.773  0.0000E+00  0.1400E+02
    -17.672  0.0000E+00  0.1400E+02
    -17.571  0.0000E+00  0.1400E+02
    -17.470  0.0000E+00  0.1400E+02
    -17.368  0.0000E+00  0.1400E+02
    -17.267  0.0000E+00  0.1400E+02
    -17.166  0.0000E+00  0.1400E+02
    -17.065  0.0000E+00  0.1400E+02
    -16.963  0.4508E+01  0.1446E+02
    -16.862  0.7131E+02  0.2272E+02
    -16.761  0.1727E+03  0.4199E+02
    -16.660  0.1086E+03  0.5400E+02
    -16.558  0.1180E+02  0.5520E+02
    -16.457  0.9284E+02  0.6940E+02
    -16.356  0.2368E+03  0.9399E+02
    -16.254  0.0000E+00  0.9400E+02
    -16.153  0.0000E+00  0.9400E+02
    -16.052  0.0000E+00  0.9400E+02
    -15.951  0.0000E+00  0.9400E+02
    -15.849  0.0000E+00  0.9400E+02
    -15.748  0.0000E+00  0.9400E+02
    -15.647  0.0000E+00  0.9400E+02
    -15.546  0.0000E+00  0.9400E+02
    -15.444  0.0000E+00  0.9400E+02
    -15.343  0.0000E+00  0.9400E+02
    -15.242  0.0000E+00  0.9400E+02
    -15.141  0.2801E+00  0.9403E+02
    -15.039  0.9873E+01  0.9600E+02
    -14.938  0.0000E+00  0.9600E+02
    -14.837  0.0000E+00  0.9600E+02
    -14.735  0.2091E+02  0.9812E+02
    -14.634  0.4936E+01  0.1000E+03
    -14.533  0.1457E+02  0.1015E+03
    -14.432  0.1492E+02  0.1035E+03
    -14.330  0.3024E+02  0.1071E+03
    -14.229  0.3341E+02  0.1111E+03
    -14.128  0.7246E+02  0.1201E+03
    -14.027  0.7052E+02  0.1284E+03
    -13.925  0.4479E+02  0.1335E+03
    -13.824  0.3600E+02  0.1381E+03
    -13.723  0.9875E+01  0.1400E+03
    -13.622  0.2422E+01  0.1402E+03
    -13.520  0.2467E+01  0.1420E+03
    -13.419  0.0000E+00  0.1420E+03
    -13.318  0.0000E+00  0.1420E+03
    -13.216  0.0000E+00  0.1420E+03
    -13.115  0.0000E+00  0.1420E+03
    -13.014  0.0000E+00  0.1420E+03
    -12.913  0.0000E+00  0.1420E+03
    -12.811  0.0000E+00  0.1420E+03
    -12.710  0.0000E+00  0.1420E+03
    -12.609  0.0000E+00  0.1420E+03
    -12.508  0.0000E+00  0.1420E+03
    -12.406  0.0000E+00  0.1420E+03
    -12.305  0.0000E+00  0.1420E+03
    -12.204  0.0000E+00  0.1420E+03
    -12.103  0.0000E+00  0.1420E+03
    -12.001  0.0000E+00  0.1420E+03
    -11.900  0.0000E+00  0.1420E+03
    -11.799  0.0000E+00  0.1420E+03
    -11.697  0.0000E+00  0.1420E+03
    -11.596  0.0000E+00  0.1420E+03
    -11.495  0.0000E+00  0.1420E+03
    -11.394  0.0000E+00  0.1420E+03
    -11.292  0.0000E+00  0.1420E+03
    -11.191  0.0000E+00  0.1420E+03
    -11.090  0.0000E+00  0.1420E+03
    -10.989  0.0000E+00  0.1420E+03
    -10.887  0.0000E+00  0.1420E+03
    -10.786  0.0000E+00  0.1420E+03
    -10.685  0.0000E+00  0.1420E+03
    -10.584  0.0000E+00  0.1420E+03
    -10.482  0.0000E+00  0.1420E+03
    -10.381  0.0000E+00  0.1420E+03
    -10.280  0.0000E+00  0.1420E+03
    -10.178  0.0000E+00  0.1420E+03
    -10.077  0.0000E+00  0.1420E+03
     -9.976  0.0000E+00  0.1420E+03
     -9.875  0.0000E+00  0.1420E+03
     -9.773  0.0000E+00  0.1420E+03
     -9.672  0.0000E+00  0.1420E+03
     -9.571  0.0000E+00  0.1420E+03
     -9.470  0.0000E+00  0.1420E+03
     -9.368  0.0000E+00  0.1420E+03
     -9.267  0.0000E+00  0.1420E+03
     -9.166  0.0000E+00  0.1420E+03
     -9.065  0.0000E+00  0.1420E+03
     -8.963  0.0000E+00  0.1420E+03
     -8.862  0.0000E+00  0.1420E+03
     -8.761  0.0000E+00  0.1420E+03
     -8.659  0.0000E+00  0.1420E+03
     -8.558  0.1027E+00  0.1420E+03
     -8.457  0.2459E+01  0.1425E+03
     -8.356  0.4782E+01  0.1430E+03
     -8.254  0.9474E+01  0.1440E+03
     -8.153  0.7600E+01  0.1450E+03
     -8.052  0.7292E+01  0.1460E+03
     -7.951  0.1470E+02  0.1477E+03
     -7.849  0.1041E+02  0.1491E+03
     -7.748  0.2221E+02  0.1517E+03
     -7.647  0.1214E+02  0.1530E+03
     -7.546  0.2131E+02  0.1557E+03
     -7.444  0.4864E+02  0.1609E+03
     -7.343  0.1938E+03  0.1846E+03
     -7.242  0.6623E+02  0.1977E+03
     -7.140  0.2475E+01  0.1985E+03
     -7.039  0.5040E+01  0.1993E+03
     -6.938  0.2358E+01  0.1997E+03
     -6.837  0.0000E+00  0.1998E+03
     -6.735  0.2387E+01  0.2000E+03
     -6.634  0.0000E+00  0.2000E+03
     -6.533  0.0000E+00  0.2000E+03
     -6.432  0.0000E+00  0.2000E+03
     -6.330  0.0000E+00  0.2000E+03
     -6.229  0.0000E+00  0.2000E+03
     -6.128  0.0000E+00  0.2000E+03
     -6.027  0.0000E+00  0.2000E+03
     -5.925  0.0000E+00  0.2000E+03
     -5.824  0.0000E+00  0.2000E+03
     -5.723  0.0000E+00  0.2000E+03
     -5.621  0.0000E+00  0.2000E+03
     -5.520  0.0000E+00  0.2000E+03
     -5.419  0.0000E+00  0.2000E+03
     -5.318  0.0000E+00  0.2000E+03
     -5.216  0.0000E+00  0.2000E+03
     -5.115  0.0000E+00  0.2000E+03
     -5.014  0.0000E+00  0.2000E+03
     -4.913  0.0000E+00  0.2000E+03
     -4.811  0.0000E+00  0.2000E+03
     -4.710  0.0000E+00  0.2000E+03
     -4.609  0.0000E+00  0.2000E+03
     -4.508  0.0000E+00  0.2000E+03
     -4.406  0.0000E+00  0.2000E+03
     -4.305  0.0000E+00  0.2000E+03
     -4.204  0.0000E+00  0.2000E+03
     -4.102  0.0000E+00  0.2000E+03
     -4.001  0.0000E+00  0.2000E+03
     -3.900  0.0000E+00  0.2000E+03
     -3.799  0.0000E+00  0.2000E+03
     -3.697  0.1136E+02  0.2012E+03
     -3.596  0.1319E+02  0.2028E+03
     -3.495  0.7406E+01  0.2040E+03
     -3.394  0.4748E+01  0.2045E+03
     -3.292  0.1484E+02  0.2068E+03
     -3.191  0.3193E+02  0.2107E+03
     -3.090  0.1505E+02  0.2128E+03
     -2.989  0.1358E+02  0.2146E+03
     -2.887  0.2016E+02  0.2168E+03
     -2.786  0.2107E+02  0.2191E+03
     -2.685  0.2557E+02  0.2223E+03
     -2.583  0.1905E+02  0.2249E+03
     -2.482  0.3831E+02  0.2296E+03
     -2.381  0.2913E+02  0.2342E+03
     -2.280  0.3181E+02  0.2387E+03
     -2.178  0.4013E+02  0.2441E+03
     -2.077  0.1649E+02  0.2472E+03
     -1.976  0.3448E+02  0.2515E+03
     -1.875  0.4804E+02  0.2574E+03
     -1.773  0.4251E+02  0.2628E+03
     -1.672  0.6156E+02  0.2702E+03
     -1.571  0.7471E+02  0.2796E+03
     -1.469  0.7365E+02  0.2897E+03
     -1.368  0.8281E+02  0.3001E+03
     -1.267  0.6295E+02  0.3091E+03
     -1.166  0.6329E+02  0.3169E+03
     -1.064  0.5488E+02  0.3236E+03
     -0.963  0.3111E+02  0.3277E+03
     -0.862  0.3675E+02  0.3320E+03
     -0.761  0.3017E+02  0.3358E+03
     -0.659  0.9890E+01  0.3373E+03
     -0.558  0.1019E+02  0.3385E+03
     -0.457  0.7476E+01  0.3395E+03
     -0.356  0.4862E+01  0.3402E+03
     -0.254  0.1348E+02  0.3424E+03
     -0.153  0.2473E+01  0.3430E+03
     -0.052  0.2452E+01  0.3435E+03
      0.050  0.2469E+01  0.3438E+03
      0.151  0.0000E+00  0.3438E+03
      0.252  0.9099E-01  0.3438E+03
      0.353  0.0000E+00  0.3440E+03
      0.455  0.0000E+00  0.3440E+03
      0.556  0.0000E+00  0.3440E+03
      0.657  0.0000E+00  0.3440E+03
      0.758  0.0000E+00  0.3440E+03
      0.860  0.0000E+00  0.3440E+03
      0.961  0.0000E+00  0.3440E+03
      1.062  0.0000E+00  0.3440E+03
      1.163  0.0000E+00  0.3440E+03
      1.265  0.0000E+00  0.3440E+03
      1.366  0.0000E+00  0.3440E+03
      1.467  0.0000E+00  0.3440E+03
      1.569  0.0000E+00  0.3440E+03
      1.670  0.0000E+00  0.3440E+03
      1.771  0.0000E+00  0.3440E+03
      1.872  0.0000E+00  0.3440E+03
      1.974  0.0000E+00  0.3440E+03
      2.075  0.0000E+00  0.3440E+03
      2.176  0.0000E+00  0.3440E+03
      2.277  0.0000E+00  0.3440E+03
      2.379  0.1483E-08  0.3440E+03
      2.480  0.4919E+01  0.3445E+03
      2.581  0.7613E+01  0.3453E+03
      2.682  0.1160E+02  0.3469E+03
      2.784  0.9846E+01  0.3480E+03
      2.885  0.7426E+01  0.3490E+03
      2.986  0.1905E+02  0.3512E+03
      3.088  0.7423E+01  0.3520E+03
      3.189  0.1786E+02  0.3543E+03
      3.290  0.2469E+01  0.3550E+03
      3.391  0.7406E+01  0.3558E+03
      3.493  0.2469E+01  0.3560E+03
      3.594  0.2925E-01  0.3560E+03
      3.695  0.2469E+01  0.3565E+03
      3.796  0.7399E+01  0.3572E+03
      3.898  0.1034E+02  0.3583E+03
      3.999  0.1219E+02  0.3605E+03
      4.100  0.1168E+02  0.3622E+03
      4.201  0.2394E+02  0.3652E+03
      4.303  0.2063E+02  0.3681E+03
      4.404  0.2386E+02  0.3712E+03
      4.505  0.1861E+02  0.3734E+03
      4.607  0.1306E+02  0.3758E+03
      4.708  0.1676E+02  0.3782E+03
      4.809  0.5552E+01  0.3793E+03
      4.910  0.4942E+01  0.3803E+03
      5.012  0.2274E+01  0.3807E+03
      5.113  0.0000E+00  0.3808E+03
      5.214  0.4859E+01  0.3812E+03
      5.315  0.1483E+02  0.3830E+03
      5.417  0.9970E+01  0.3843E+03
      5.518  0.1547E+02  0.3861E+03
      5.619  0.1897E+02  0.3887E+03
      5.720  0.9499E+01  0.3902E+03
      5.822  0.7428E+01  0.3913E+03
      5.923  0.2641E+02  0.3942E+03
      6.024  0.2867E+02  0.3974E+03
      6.126  0.2204E+02  0.4002E+03
      6.227  0.2579E+02  0.4039E+03
      6.328  0.3074E+02  0.4074E+03
      6.429  0.3147E+02  0.4112E+03
      6.531  0.2762E+02  0.4150E+03
      6.632  0.4937E+01  0.4160E+03
      6.733  0.0000E+00  0.4160E+03
      6.834  0.0000E+00  0.4160E+03
      6.936  0.0000E+00  0.4160E+03
      7.037  0.0000E+00  0.4160E+03
      7.138  0.0000E+00  0.4160E+03
      7.239  0.0000E+00  0.4160E+03
      7.341  0.0000E+00  0.4160E+03
      7.442  0.0000E+00  0.4160E+03
      7.543  0.0000E+00  0.4160E+03
      7.645  0.0000E+00  0.4160E+03
      7.746  0.0000E+00  0.4160E+03
      7.847  0.0000E+00  0.4160E+03
      7.948  0.0000E+00  0.4160E+03
      7.94830298    -22.43170549  301      0.37861754      1.00000000
    -22.432  0.0000E+00  0.0000E+00  0.0000E+00
    -22.330  0.0000E+00  0.0000E+00  0.0000E+00
    -22.229  0.0000E+00  0.0000E+00  0.0000E+00
    -22.128  0.0000E+00  0.0000E+00  0.0000E+00
    -22.027  0.0000E+00  0.0000E+00  0.0000E+00
    -21.925  0.0000E+00  0.0000E+00  0.0000E+00
    -21.824  0.0000E+00  0.0000E+00  0.0000E+00
    -21.723  0.0000E+00  0.0000E+00  0.0000E+00
    -21.622  0.0000E+00  0.0000E+00  0.0000E+00
    -21.520  0.0000E+00  0.0000E+00  0.0000E+00
    -21.419  0.0000E+00  0.0000E+00  0.0000E+00
    -21.318  0.0000E+00  0.0000E+00  0.0000E+00
    -21.217  0.0000E+00  0.0000E+00  0.0000E+00
    -21.115  0.0000E+00  0.0000E+00  0.0000E+00
    -21.014  0.9259E-04  0.4089E-08  0.7863E-09
    -20.913  0.1752E+02  0.3354E-04  0.3813E-05
    -20.811  0.0000E+00  0.0000E+00  0.0000E+00
    -20.710  0.0000E+00  0.0000E+00  0.0000E+00
    -20.609  0.0000E+00  0.0000E+00  0.0000E+00
    -20.508  0.0000E+00  0.0000E+00  0.0000E+00
    -20.406  0.0000E+00  0.0000E+00  0.0000E+00
    -20.305  0.0000E+00  0.0000E+00  0.0000E+00
    -20.204  0.0000E+00  0.0000E+00  0.0000E+00
    -20.103  0.0000E+00  0.0000E+00  0.0000E+00
    -20.001  0.0000E+00  0.0000E+00  0.0000E+00
    -19.900  0.0000E+00  0.0000E+00  0.0000E+00
    -19.799  0.0000E+00  0.0000E+00  0.0000E+00
    -19.698  0.0000E+00  0.0000E+00  0.0000E+00
    -19.596  0.0000E+00  0.0000E+00  0.0000E+00
    -19.495  0.0000E+00  0.0000E+00  0.0000E+00
    -19.394  0.0000E+00  0.0000E+00  0.0000E+00
    -19.292  0.0000E+00  0.0000E+00  0.0000E+00
    -19.191  0.0000E+00  0.0000E+00  0.0000E+00
    -19.090  0.0000E+00  0.0000E+00  0.0000E+00
    -18.989  0.0000E+00  0.0000E+00  0.0000E+00
    -18.887  0.0000E+00  0.0000E+00  0.0000E+00
    -18.786  0.0000E+00  0.0000E+00  0.0000E+00
    -18.685  0.0000E+00  0.0000E+00  0.0000E+00
    -18.584  0.0000E+00  0.0000E+00  0.0000E+00
    -18.482  0.0000E+00  0.0000E+00  0.0000E+00
    -18.381  0.0000E+00  0.0000E+00  0.0000E+00
    -18.280  0.0000E+00  0.0000E+00  0.0000E+00
    -18.179  0.0000E+00  0.0000E+00  0.0000E+00
    -18.077  0.0000E+00  0.0000E+00  0.0000E+00
    -17.976  0.0000E+00  0.0000E+00  0.0000E+00
    -17.875  0.0000E+00  0.0000E+00  0.0000E+00
    -17.773  0.0000E+00  0.0000E+00  0.0000E+00
    -17.672  0.0000E+00  0.0000E+00  0.0000E+00
    -17.571  0.0000E+00  0.0000E+00  0.0000E+00
    -17.470  0.0000E+00  0.0000E+00  0.0000E+00
    -17.368  0.0000E+00  0.0000E+00  0.0000E+00
    -17.267  0.0000E+00  0.0000E+00  0.0000E+00
    -17.166  0.0000E+00  0.0000E+00  0.0000E+00
    -17.065  0.0000E+00  0.0000E+00  0.0000E+00
    -16.963  0.2717E-05  0.3440E-05  0.1040E-05
    -16.862  0.1481E-04  0.2401E-04  0.6101E-05
    -16.761  0.8208E-04  0.5442E-04  0.8540E-05
    -16.660  0.1811E-04  0.9663E-05  0.1384E-05
    -16.558  0.9215E-05  0.3186E-05  0.2389E-06
    -16.457  0.3184E-04  0.3665E-04  0.6338E-05
    -16.356  0.1152E-04  0.5796E-05  0.5249E-06
    -16.254  0.0000E+00  0.0000E+00  0.0000E+00
    -16.153  0.0000E+00  0.0000E+00  0.0000E+00
    -16.052  0.0000E+00  0.0000E+00  0.0000E+00
    -15.951  0.0000E+00  0.0000E+00  0.0000E+00
    -15.849  0.0000E+00  0.0000E+00  0.0000E+00
    -15.748  0.0000E+00  0.0000E+00  0.0000E+00
    -15.647  0.0000E+00  0.0000E+00  0.0000E+00
    -15.546  0.0000E+00  0.0000E+00  0.0000E+00
    -15.444  0.0000E+00  0.0000E+00  0.0000E+00
    -15.343  0.0000E+00  0.0000E+00  0.0000E+00
    -15.242  0.0000E+00  0.0000E+00  0.0000E+00
    -15.141  0.1370E-05  0.1024E-05  0.5768E-07
    -15.039  0.3243E-11  0.5110E-05  0.1438E-05
    -14.938  0.0000E+00  0.0000E+00  0.0000E+00
    -14.837  0.0000E+00  0.0000E+00  0.0000E+00
    -14.735  0.2730E-03  0.2103E-03  0.1318E-04
    -14.634  0.3521E-11  0.3146E-05  0.6051E-05
    -14.533  0.6796E-03  0.3438E-03  0.1643E-04
    -14.432  0.5510E-02  0.1505E-02  0.3146E-04
    -14.330  0.6062E-03  0.8577E-02  0.1940E-03
    -14.229  0.1260E-02  0.4989E-02  0.1868E-03
    -14.128  0.1949E-02  0.5570E-02  0.1016E-02
    -14.027  0.1359E-02  0.2797E-02  0.3156E-03
    -13.925  0.8692E-03  0.2513E-02  0.2854E-03
    -13.824  0.5709E-03  0.1334E-02  0.9593E-04
    -13.723  0.4020E-04  0.1336E-03  0.3952E-05
    -13.622  0.2064E-07  0.7780E-05  0.8582E-06
    -13.520  0.3212E-05  0.1079E-04  0.2713E-05
    -13.419  0.0000E+00  0.0000E+00  0.0000E+00
    -13.318  0.0000E+00  0.0000E+00  0.0000E+00
    -13.216  0.0000E+00  0.0000E+00  0.0000E+00
    -13.115  0.0000E+00  0.0000E+00  0.0000E+00
    -13.014  0.0000E+00  0.0000E+00  0.0000E+00
    -12.913  0.0000E+00  0.0000E+00  0.0000E+00
    -12.811  0.0000E+00  0.0000E+00  0.0000E+00
    -12.710  0.0000E+00  0.0000E+00  0.0000E+00
    -12.609  0.0000E+00  0.0000E+00  0.0000E+00
    -12.508  0.0000E+00  0.0000E+00  0.0000E+00
    -12.406  0.0000E+00  0.0000E+00  0.0000E+00
    -12.305  0.0000E+00  0.0000E+00  0.0000E+00
    -12.204  0.0000E+00  0.0000E+00  0.0000E+00
    -12.103  0.0000E+00  0.0000E+00  0.0000E+00
    -12.001  0.0000E+00  0.0000E+00  0.0000E+00
    -11.900  0.0000E+00  0.0000E+00  0.0000E+00
    -11.799  0.0000E+00  0.0000E+00  0.0000E+00
    -11.697  0.0000E+00  0.0000E+00  0.0000E+00
    -11.596  0.0000E+00  0.0000E+00  0.0000E+00
    -11.495  0.0000E+00  0.0000E+00  0.0000E+00
    -11.394  0.0000E+00  0.0000E+00  0.0000E+00
    -11.292  0.0000E+00  0.0000E+00  0.0000E+00
    -11.191  0.0000E+00  0.0000E+00  0.0000E+00
    -11.090  0.0000E+00  0.0000E+00  0.0000E+00
    -10.989  0.0000E+00  0.0000E+00  0.0000E+00
    -10.887  0.0000E+00  0.0000E+00  0.0000E+00
    -10.786  0.0000E+00  0.0000E+00  0.0000E+00
    -10.685  0.0000E+00  0.0000E+00  0.0000E+00
    -10.584  0.0000E+00  0.0000E+00  0.0000E+00
    -10.482  0.0000E+00  0.0000E+00  0.0000E+00
    -10.381  0.0000E+00  0.0000E+00  0.0000E+00
    -10.280  0.0000E+00  0.0000E+00  0.0000E+00
    -10.178  0.0000E+00  0.0000E+00  0.0000E+00
    -10.077  0.0000E+00  0.0000E+00  0.0000E+00
     -9.976  0.0000E+00  0.0000E+00  0.0000E+00
     -9.875  0.0000E+00  0.0000E+00  0.0000E+00
     -9.773  0.0000E+00  0.0000E+00  0.0000E+00
     -9.672  0.0000E+00  0.0000E+00  0.0000E+00
     -9.571  0.0000E+00  0.0000E+00  0.0000E+00
     -9.470  0.0000E+00  0.0000E+00  0.0000E+00
     -9.368  0.0000E+00  0.0000E+00  0.0000E+00
     -9.267  0.0000E+00  0.0000E+00  0.0000E+00
     -9.166  0.0000E+00  0.0000E+00  0.0000E+00
     -9.065  0.0000E+00  0.0000E+00  0.0000E+00
     -8.963  0.0000E+00  0.0000E+00  0.0000E+00
     -8.862  0.0000E+00  0.0000E+00  0.0000E+00
     -8.761  0.0000E+00  0.0000E+00  0.0000E+00
     -8.659  0.0000E+00  0.0000E+00  0.0000E+00
     -8.558  0.1174E-15  0.2269E-05  0.1786E-06
     -8.457  0.3704E-15  0.2631E-03  0.1757E-05
     -8.356  0.1638E-06  0.3534E-03  0.7896E-05
     -8.254  0.1263E-06  0.3373E-03  0.2536E-04
     -8.153  0.4215E-05  0.1687E-02  0.1181E-04
     -8.052  0.3147E-07  0.1379E-02  0.2296E-04
     -7.951  0.4574E-07  0.5123E-02  0.3339E-04
     -7.849  0.3009E-05  0.8366E-02  0.7111E-05
     -7.748  0.3901E-05  0.4714E-01  0.3311E-04
     -7.647  0.7634E-05  0.2681E-01  0.2604E-04
     -7.546  0.4212E-04  0.2392E+00  0.5007E-04
     -7.444  0.3625E-04  0.9015E+00  0.2387E-04
     -7.343  0.9127E-04  0.3327E+02  0.1014E-03
     -7.242  0.7503E-04  0.3536E+01  0.4103E-04
     -7.140  0.1271E-04  0.8838E-01  0.3112E-05
     -7.039  0.2716E-04  0.2757E-01  0.1467E-04
     -6.938  0.4304E-04  0.6845E-03  0.3455E-05
     -6.837  0.0000E+00  0.0000E+00  0.0000E+00
     -6.735  0.3774E-04  0.3007E-02  0.1453E-05
     -6.634  0.0000E+00  0.0000E+00  0.0000E+00
     -6.533  0.0000E+00  0.0000E+00  0.0000E+00
     -6.432  0.0000E+00  0.0000E+00  0.0000E+00
     -6.330  0.0000E+00  0.0000E+00  0.0000E+00
     -6.229  0.0000E+00  0.0000E+00  0.0000E+00
     -6.128  0.0000E+00  0.0000E+00  0.0000E+00
     -6.027  0.0000E+00  0.0000E+00  0.0000E+00
     -5.925  0.0000E+00  0.0000E+00  0.0000E+00
     -5.824  0.0000E+00  0.0000E+00  0.0000E+00
     -5.723  0.0000E+00  0.0000E+00  0.0000E+00
     -5.621  0.0000E+00  0.0000E+00  0.0000E+00
     -5.520  0.0000E+00  0.0000E+00  0.0000E+00
     -5.419  0.0000E+00  0.0000E+00  0.0000E+00
     -5.318  0.0000E+00  0.0000E+00  0.0000E+00
     -5.216  0.0000E+00  0.0000E+00  0.0000E+00
     -5.115  0.0000E+00  0.0000E+00  0.0000E+00
     -5.014  0.0000E+00  0.0000E+00  0.0000E+00
     -4.913  0.0000E+00  0.0000E+00  0.0000E+00
     -4.811  0.0000E+00  0.0000E+00  0.0000E+00
     -4.710  0.0000E+00  0.0000E+00  0.0000E+00
     -4.609  0.0000E+00  0.0000E+00  0.0000E+00
     -4.508  0.0000E+00  0.0000E+00  0.0000E+00
     -4.406  0.0000E+00  0.0000E+00  0.0000E+00
     -4.305  0.0000E+00  0.0000E+00  0.0000E+00
     -4.204  0.0000E+00  0.0000E+00  0.0000E+00
     -4.102  0.0000E+00  0.0000E+00  0.0000E+00
     -4.001  0.0000E+00  0.0000E+00  0.0000E+00
     -3.900  0.0000E+00  0.0000E+00  0.0000E+00
     -3.799  0.0000E+00  0.0000E+00  0.0000E+00
     -3.697  0.1121E-05  0.9124E-02  0.3326E-03
     -3.596  0.9724E-06  0.7245E-02  0.1150E-02
     -3.495  0.2383E-11  0.1356E-02  0.1691E-03
     -3.394  0.2697E-03  0.9125E-02  0.1984E-03
     -3.292  0.2137E-03  0.1020E-01  0.1445E-02
     -3.191  0.9796E-05  0.8145E-02  0.7445E-03
     -3.090  0.2889E-03  0.1466E-01  0.7268E-03
     -2.989  0.6794E-03  0.9584E-02  0.8539E-03
     -2.887  0.1077E-02  0.1773E-01  0.1101E-02
     -2.786  0.1602E-02  0.2489E-01  0.7126E-03
     -2.685  0.6026E-04  0.1126E-01  0.2710E-02
     -2.583  0.1193E-02  0.8864E-02  0.1783E-02
     -2.482  0.1863E-02  0.2546E-01  0.2419E-02
     -2.381  0.2470E-02  0.1170E-01  0.3304E-02
     -2.280  0.6413E-02  0.1664E-01  0.2869E-02
     -2.178  0.2809E-01  0.3086E-01  0.3325E-02
     -2.077  0.2638E-03  0.2529E-01  0.1820E-02
     -1.976  0.4236E-02  0.6906E-01  0.5058E-02
     -1.875  0.3791E-02  0.1492E+00  0.8342E-02
     -1.773  0.3861E-02  0.7088E-01  0.1241E-01
     -1.672  0.3789E-02  0.1019E+00  0.1504E-01
     -1.571  0.4830E-02  0.7925E-01  0.1915E-01
     -1.469  0.3721E-02  0.1034E+00  0.2539E-01
     -1.368  0.1515E-02  0.1018E+00  0.1131E-01
     -1.267  0.1738E-02  0.3617E-01  0.6462E-02
     -1.166  0.5326E-03  0.3600E-01  0.9868E-02
     -1.064  0.8445E-03  0.2619E-01  0.6386E-02
     -0.963  0.9951E-03  0.2314E-01  0.3327E-02
     -0.862  0.5136E-03  0.1184E-01  0.3810E-02
     -0.761  0.1673E-03  0.8560E-02  0.2192E-02
     -0.659  0.1935E-03  0.1744E-02  0.5572E-03
     -0.558  0.1007E-03  0.1448E-02  0.4277E-03
     -0.457  0.6722E-04  0.7303E-03  0.3127E-03
     -0.356  0.5060E-04  0.6158E-03  0.2170E-03
     -0.254  0.4139E-04  0.8622E-03  0.8284E-03
     -0.153  0.1391E-07  0.2217E-03  0.1056E-03
     -0.052  0.2272E-12  0.6706E-04  0.3071E-03
      0.050  0.1820E-12  0.1059E-03  0.5656E-04
      0.151  0.0000E+00  0.0000E+00  0.0000E+00
      0.252  0.2989E-15  0.2531E-05  0.4366E-05
      0.353  0.0000E+00  0.0000E+00  0.0000E+00
      0.455  0.0000E+00  0.0000E+00  0.0000E+00
      0.556  0.0000E+00  0.0000E+00  0.0000E+00
      0.657  0.0000E+00  0.0000E+00  0.0000E+00
      0.758  0.0000E+00  0.0000E+00  0.0000E+00
      0.860  0.0000E+00  0.0000E+00  0.0000E+00
      0.961  0.0000E+00  0.0000E+00  0.0000E+00
      1.062  0.0000E+00  0.0000E+00  0.0000E+00
      1.163  0.0000E+00  0.0000E+00  0.0000E+00
      1.265  0.0000E+00  0.0000E+00  0.0000E+00
      1.366  0.0000E+00  0.0000E+00  0.0000E+00
      1.467  0.0000E+00  0.0000E+00  0.0000E+00
      1.569  0.0000E+00  0.0000E+00  0.0000E+00
      1.670  0.0000E+00  0.0000E+00  0.0000E+00
      1.771  0.0000E+00  0.0000E+00  0.0000E+00
      1.872  0.0000E+00  0.0000E+00  0.0000E+00
      1.974  0.0000E+00  0.0000E+00  0.0000E+00
      2.075  0.0000E+00  0.0000E+00  0.0000E+00
      2.176  0.0000E+00  0.0000E+00  0.0000E+00
      2.277  0.0000E+00  0.0000E+00  0.0000E+00
      2.379  0.4172E-23  0.6255E-16  0.4087E-12
      2.480  0.2874E-05  0.7749E-04  0.1286E-02
      2.581  0.5347E-04  0.3996E-03  0.1644E-02
      2.682  0.2838E-04  0.9417E-03  0.3140E-02
      2.784  0.7905E-04  0.1582E-02  0.2134E-02
      2.885  0.5418E-03  0.1061E-02  0.2107E-02
      2.986  0.9150E-03  0.4157E-02  0.3138E-02
      3.088  0.4318E-03  0.9851E-03  0.9219E-03
      3.189  0.6118E-03  0.1938E-02  0.2600E-02
      3.290  0.3784E-05  0.5007E-03  0.6393E-03
      3.391  0.4693E-03  0.1133E-02  0.1144E-02
      3.493  0.1535E-03  0.8602E-04  0.6615E-03
      3.594  0.2169E-05  0.2345E-05  0.4835E-05
      3.695  0.5613E-04  0.3452E-03  0.4728E-03
      3.796  0.9461E-04  0.8632E-03  0.2389E-02
      3.898  0.1115E-03  0.5368E-03  0.4415E-02
      3.999  0.3895E-05  0.1400E-02  0.3169E-02
      4.100  0.1317E-03  0.5085E-03  0.2807E-02
      4.201  0.5928E-03  0.2175E-02  0.7357E-02
      4.303  0.1001E-02  0.3070E-02  0.9879E-02
      4.404  0.9192E-03  0.4990E-02  0.1028E-01
      4.505  0.4593E-03  0.3241E-02  0.6800E-02
      4.607  0.3276E-02  0.4196E-02  0.7447E-02
      4.708  0.1535E-03  0.3652E-02  0.7419E-02
      4.809  0.1202E-01  0.3950E-03  0.1407E-02
      4.910  0.1366E-02  0.1634E-02  0.3675E-02
      5.012  0.1884E-10  0.3434E-04  0.1450E-03
      5.113  0.0000E+00  0.0000E+00  0.0000E+00
      5.214  0.6071E-08  0.9160E-04  0.4208E-03
      5.315  0.2826E-02  0.6912E-02  0.2704E-02
      5.417  0.1353E-01  0.4127E-03  0.6506E-02
      5.518  0.8968E-02  0.2479E-02  0.1390E-01
      5.619  0.1984E-02  0.6306E-02  0.1383E-01
      5.720  0.4825E-02  0.4781E-03  0.3160E-01
      5.822  0.4994E-02  0.2621E-03  0.1322E-01
      5.923  0.2241E-01  0.2484E-01  0.7642E-01
      6.024  0.8717E-01  0.7977E-02  0.1854E+00
      6.126  0.1556E-01  0.1418E-01  0.1302E+00
      6.227  0.2494E-01  0.1067E-01  0.4837E+00
      6.328  0.3403E-01  0.2402E-01  0.3390E+00
      6.429  0.2019E-01  0.1036E-01  0.6785E+00
      6.531  0.3083E-01  0.2694E-01  0.4677E+00
      6.632  0.2721E-04  0.4285E-02  0.5028E-01
      6.733  0.0000E+00  0.0000E+00  0.0000E+00
      6.834  0.0000E+00  0.0000E+00  0.0000E+00
      6.936  0.0000E+00  0.0000E+00  0.0000E+00
      7.037  0.0000E+00  0.0000E+00  0.0000E+00
      7.138  0.0000E+00  0.0000E+00  0.0000E+00
      7.239  0.0000E+00  0.0000E+00  0.0000E+00
      7.341  0.0000E+00  0.0000E+00  0.0000E+00
      7.442  0.0000E+00  0.0000E+00  0.0000E+00
      7.543  0.0000E+00  0.0000E+00  0.0000E+00
      7.645  0.0000E+00  0.0000E+00  0.0000E+00
      7.746  0.0000E+00  0.0000E+00  0.0000E+00
      7.847  0.0000E+00  0.0000E+00  0.0000E+00
      7.948  0.0000E+00  0.0000E+00  0.0000E+00
      7.94830298    -22.43170549  301      0.37861754      1.00000000
    -22.432  0.0000E+00  0.0000E+00  0.0000E+00
    -22.330  0.0000E+00  0.0000E+00  0.0000E+00
    -22.229  0.0000E+00  0.0000E+00  0.0000E+00
    -22.128  0.0000E+00  0.0000E+00  0.0000E+00
    -22.027  0.0000E+00  0.0000E+00  0.0000E+00
    -21.925  0.0000E+00  0.0000E+00  0.0000E+00
    -21.824  0.0000E+00  0.0000E+00  0.0000E+00
    -21.723  0.0000E+00  0.0000E+00  0.0000E+00
    -21.622  0.0000E+00  0.0000E+00  0.0000E+00
    -21.520  0.0000E+00  0.0000E+00  0.0000E+00
    -21.419  0.0000E+00  0.0000E+00  0.0000E+00
    -21.318  0.0000E+00  0.0000E+00  0.0000E+00
    -21.217  0.0000E+00  0.0000E+00  0.0000E+00
    -21.115  0.0000E+00  0.0000E+00  0.0000E+00
    -21.014  0.3068E-04  0.3346E-08  0.8045E-09
    -20.913  0.1751E+02  0.6032E-04  0.3860E-05
    -20.811  0.0000E+00  0.0000E+00  0.0000E+00
    -20.710  0.0000E+00  0.0000E+00  0.0000E+00
    -20.609  0.0000E+00  0.0000E+00  0.0000E+00
    -20.508  0.0000E+00  0.0000E+00  0.0000E+00
    -20.406  0.0000E+00  0.0000E+00  0.0000E+00
    -20.305  0.0000E+00  0.0000E+00  0.0000E+00
    -20.204  0.0000E+00  0.0000E+00  0.0000E+00
    -20.103  0.0000E+00  0.0000E+00  0.0000E+00
    -20.001  0.0000E+00  0.0000E+00  0.0000E+00
    -19.900  0.0000E+00  0.0000E+00  0.0000E+00
    -19.799  0.0000E+00  0.0000E+00  0.0000E+00
    -19.698  0.0000E+00  0.0000E+00  0.0000E+00
    -19.596  0.0000E+00  0.0000E+00  0.0000E+00
    -19.495  0.0000E+00  0.0000E+00  0.0000E+00
    -19.394  0.0000E+00  0.0000E+00  0.0000E+00
    -19.292  0.0000E+00  0.0000E+00  0.0000E+00
    -19.191  0.0000E+00  0.0000E+00  0.0000E+00
    -19.090  0.0000E+00  0.0000E+00  0.0000E+00
    -18.989  0.0000E+00  0.0000E+00  0.0000E+00
    -18.887  0.0000E+00  0.0000E+00  0.0000E+00
    -18.786  0.0000E+00  0.0000E+00  0.0000E+00
    -18.685  0.0000E+00  0.0000E+00  0.0000E+00
    -18.584  0.0000E+00  0.0000E+00  0.0000E+00
    -18.482  0.0000E+00  0.0000E+00  0.0000E+00
    -18.381  0.0000E+00  0.0000E+00  0.0000E+00
    -18.280  0.0000E+00  0.0000E+00  0.0000E+00
    -18.179  0.0000E+00  0.0000E+00  0.0000E+00
    -18.077  0.0000E+00  0.0000E+00  0.0000E+00
    -17.976  0.0000E+00  0.0000E+00  0.0000E+00
    -17.875  0.0000E+00  0.0000E+00  0.0000E+00
    -17.773  0.0000E+00  0.0000E+00  0.0000E+00
    -17.672  0.0000E+00  0.0000E+00  0.0000E+00
    -17.571  0.0000E+00  0.0000E+00  0.0000E+00
    -17.470  0.0000E+00  0.0000E+00  0.0000E+00
    -17.368  0.0000E+00  0.0000E+00  0.0000E+00
    -17.267  0.0000E+00  0.0000E+00  0.0000E+00
    -17.166  0.0000E+00  0.0000E+00  0.0000E+00
    -17.065  0.0000E+00  0.0000E+00  0.0000E+00
    -16.963  0.6012E-07  0.1244E-06  0.1133E-07
    -16.862  0.6299E-04  0.2367E-04  0.3349E-05
    -16.761  0.8532E-05  0.1423E-04  0.3110E-05
    -16.660  0.5979E-05  0.2972E-05  0.3566E-06
    -16.558  0.6079E-05  0.1007E-04  0.3031E-05
    -16.457  0.4301E-04  0.4730E-04  0.7476E-05
    -16.356  0.6772E-04  0.3859E-04  0.4553E-05
    -16.254  0.0000E+00  0.0000E+00  0.0000E+00
    -16.153  0.0000E+00  0.0000E+00  0.0000E+00
    -16.052  0.0000E+00  0.0000E+00  0.0000E+00
    -15.951  0.0000E+00  0.0000E+00  0.0000E+00
    -15.849  0.0000E+00  0.0000E+00  0.0000E+00
    -15.748  0.0000E+00  0.0000E+00  0.0000E+00
    -15.647  0.0000E+00  0.0000E+00  0.0000E+00
    -15.546  0.0000E+00  0.0000E+00  0.0000E+00
    -15.444  0.0000E+00  0.0000E+00  0.0000E+00
    -15.343  0.0000E+00  0.0000E+00  0.0000E+00
    -15.242  0.0000E+00  0.0000E+00  0.0000E+00
    -15.141  0.2831E-05  0.7464E-06  0.1387E-07
    -15.039  0.8397E-11  0.2044E-04  0.6850E-06
    -14.938  0.0000E+00  0.0000E+00  0.0000E+00
    -14.837  0.0000E+00  0.0000E+00  0.0000E+00
    -14.735  0.1797E-03  0.8033E-04  0.4336E-05
    -14.634  0.9735E-12  0.4201E-04  0.1398E-05
    -14.533  0.4895E-05  0.5397E-04  0.2489E-05
    -14.432  0.8568E-03  0.1278E-02  0.7186E-04
    -14.330  0.2259E-02  0.2502E-02  0.1523E-03
    -14.229  0.2007E-02  0.2798E-02  0.1287E-03
    -14.128  0.3101E-02  0.6502E-02  0.3758E-03
    -14.027  0.2595E-02  0.8282E-02  0.6626E-03
    -13.925  0.7464E-03  0.2183E-02  0.4030E-03
    -13.824  0.8949E-04  0.1267E-02  0.3382E-03
    -13.723  0.1934E-04  0.9121E-04  0.5438E-04
    -13.622  0.1390E-05  0.2968E-04  0.1879E-05
    -13.520  0.2570E-04  0.3737E-04  0.4828E-06
    -13.419  0.0000E+00  0.0000E+00  0.0000E+00