 vasp.5.4.4.18Apr17-6-g9f103f2a35 (build Jun 22 2020 09:27:21) complex           
 executed on tx2_gcc-7.3_libsci-1 date 2021.10.12  05:44:31
 running on   64 total cores
 distrk:  each k-point on   64 cores,    1 groups
 distr:  one band on NCORES_PER_BAND=   8 cores,    8 groups


--------------------------------------------------------------------------------------------------------


 INCAR:
 POTCAR:    PAW_PBE Cs_sv 08Apr2002               
 POTCAR:    PAW_PBE Pb_d 06Sep2000                
 POTCAR:    PAW_PBE Br 06Sep2000                  
 POTCAR:    PAW_PBE Cs_sv 08Apr2002               
 POTCAR:    PAW_PBE Cs_sv 08Apr2002               
   SHA256 =  c1463496f0f6037ed62c6012a8013a89ee9ad6ffb38599dcd6c079e7ed31779b Cs
   COPYR  = (c) Copyright 08Apr2002 Georg Kresse                                
   COPYR  = This file is part of the software VASP. Any use, copying, and all ot
   COPYR  = If you do not have a valid VASP license, you may not use, copy or di
   VRHFIN =Cs: 5s5p6s                                                           
   LEXCH  = PE                                                                  
   EATOM  =   555.6835 eV,   40.8416 Ry                                         
                                                                                
   TITEL  = PAW_PBE Cs_sv 08Apr2002                                             
   LULTRA =        F    use ultrasoft PP ?                                      
   IUNSCR =        1    unscreen: 0-lin 1-nonlin 2-no                           
   RPACOR =    2.200    partial core radius                                     
   POMASS =  132.900; ZVAL   =    9.000    mass and valenz                      
   RCORE  =    2.500    outmost cutoff radius                                   
   RWIGS  =    2.500; RWIGS  =    1.323    wigner-seitz radius (au A)           
   ENMAX  =  220.318; ENMIN  =  165.238 eV                                      
   RCLOC  =    2.207    cutoff for local pot                                    
   LCOR   =        T    correct aug charges                                     
   LPAW   =        T    paw PP                                                  
   EAUG   =  407.933                                                            
   DEXC   =    0.000                                                            
   RMAX   =    2.554    core radius for proj-oper                               
   RAUG   =    1.300    factor for augmentation sphere                          
   RDEP   =    2.590    radius for radial grids                                 
   RDEPT  =    2.117    core radius for aug-charge                              
                                                                                
   Atomic configuration                                                         
   13 entries                                                                   
     n  l   j            E        occ.                                          
     1  0  0.50    -35790.1377   2.0000                                         
     2  0  0.50     -5613.6201   2.0000                                         
     2  1  1.50     -5035.0101   6.0000                                         
     3  0  0.50     -1167.0767   2.0000                                         
     3  1  1.50      -980.9754   6.0000                                         
     3  2  2.50      -708.0703  10.0000                                         
     4  0  0.50      -220.2386   2.0000                                         
     4  1  1.50      -160.7596   6.0000                                         
     4  2  2.50       -74.2354  10.0000                                         
     5  0  0.50       -26.7287   2.0000                                         
     6  0  0.50        -2.0862   1.0000                                         
     5  1  1.50       -13.5159   6.0000                                         
     5  2  2.50        -0.4136   0.0000                                         
   Description                                                                  
     l       E           TYP  RCUT    TYP  RCUT                                 
     0    -26.7287425     23  1.900                                             
     0     -2.0862306     23  1.900                                             
     1    -13.5158719     23  2.500                                             
     1     -2.7211652     23  2.500                                             
     2     -0.4136171     23  2.500                                             
  local pseudopotential read in
  partial core-charges read in
  partial kinetic energy density read in
  atomic valenz-charges read in
  non local Contribution for L=           0  read in
    real space projection operators read in
  non local Contribution for L=           0  read in
    real space projection operators read in
  non local Contribution for L=           1  read in
    real space projection operators read in
  non local Contribution for L=           1  read in
    real space projection operators read in
  non local Contribution for L=           2  read in
    real space projection operators read in
    PAW grid and wavefunctions read in

   number of l-projection  operators is LMAX  =           5
   number of lm-projection operators is LMMAX =          13

 POTCAR:    PAW_PBE Pb_d 06Sep2000                
   SHA256 =  fb885b08f0fba73a15f6a6b0e39bd200c13ec96ef97cf3ecd8e63bade5137abd Pb
   COPYR  = (c) Copyright 06Sep2000 Georg Kresse                                
   COPYR  = This file is part of the software VASP. Any use, copying, and all ot
   COPYR  = If you do not have a valid VASP license, you may not use, copy or di
   VRHFIN =Pb:                                                                  
   LEXCH  = PE                                                                  
   EATOM  =  1661.6185 eV,  122.1255 Ry                                         
                                                                                
   TITEL  = PAW_PBE Pb_d 06Sep2000                                              
   LULTRA =        F    use ultrasoft PP ?                                      
   IUNSCR =        1    unscreen: 0-lin 1-nonlin 2-no                           
   RPACOR =    2.200    partial core radius                                     
   POMASS =  207.200; ZVAL   =   14.000    mass and valenz                      
   RCORE  =    2.500    outmost cutoff radius                                   
   RWIGS  =    3.260; RWIGS  =    1.725    wigner-seitz radius (au A)           
   ENMAX  =  237.835; ENMIN  =  178.376 eV                                      
   ICORE  =        3    local potential                                         
   LCOR   =        T    correct aug charges                                     
   LPAW   =        T    paw PP                                                  
   EAUG   =  391.914                                                            
   DEXC   =    0.000                                                            
   RMAX   =    2.565    core radius for proj-oper                               
   RAUG   =    1.300    factor for augmentation sphere                          
   RDEP   =    2.643    radius for radial grids                                 
   RDEPT  =    2.092    core radius for aug-charge                              
                                                                                
   Atomic configuration                                                         
   16 entries                                                                   
     n  l   j            E        occ.                                          
     1  0  0.50    -88091.8466   2.0000                                         
     2  0  0.50    -15753.4197   2.0000                                         
     2  1  1.50    -13508.1797   6.0000                                         
     3  0  0.50     -3781.7194   2.0000                                         
     3  1  1.50     -3138.2529   6.0000                                         
     3  2  2.50     -2483.2977  10.0000                                         
     4  0  0.50      -856.2895   2.0000                                         
     4  1  1.50      -645.4942   6.0000                                         
     4  2  2.50      -401.8768  10.0000                                         
     4  3  3.50      -132.9059  14.0000                                         
     5  0  0.50      -144.0950   2.0000                                         
     5  1  1.50       -85.7879   6.0000                                         
     5  2  2.50       -21.1769  10.0000                                         
     6  0  0.50       -12.0372   2.0000                                         
     6  1  1.50        -3.4971   2.0000                                         
     5  3  2.50        -2.7212   0.0000                                         
   Description                                                                  
     l       E           TYP  RCUT    TYP  RCUT                                 
     2    -21.1768523     23  2.500                                             
     2      1.3605826     23  2.500                                             
     0    -12.0371562     23  2.500                                             
     0     13.6058260     23  2.500                                             
     1     -3.4971339     23  2.500                                             
     1     13.6058260     23  2.500                                             
     3     -1.3605826      7  2.500                                             
  local pseudopotential read in
  partial core-charges read in
  partial kinetic energy density read in
  atomic valenz-charges read in
  non local Contribution for L=           2  read in
    real space projection operators read in
  non local Contribution for L=           2  read in
    real space projection operators read in
  non local Contribution for L=           0  read in
    real space projection operators read in
  non local Contribution for L=           0  read in
    real space projection operators read in
  non local Contribution for L=           1  read in
    real space projection operators read in
  non local Contribution for L=           1  read in
    real space projection operators read in
    PAW grid and wavefunctions read in

   number of l-projection  operators is LMAX  =           6
   number of lm-projection operators is LMMAX =          18

 POTCAR:    PAW_PBE Br 06Sep2000                  
   SHA256 =  96a73d2954943bbee26f4990d676cc6c3bf44b8dd2c75cd4b3b825d8403f0103 Br
   COPYR  = (c) Copyright 06Sep2000 Georg Kresse                                
   COPYR  = This file is part of the software VASP. Any use, copying, and all ot
   COPYR  = If you do not have a valid VASP license, you may not use, copy or di
   VRHFIN =Br: s2p5                                                             
   LEXCH  = PE                                                                  
   EATOM  =   368.4488 eV,   27.0802 Ry                                         
                                                                                
   TITEL  = PAW_PBE Br 06Sep2000                                                
   LULTRA =        F    use ultrasoft PP ?                                      
   IUNSCR =        1    unscreen: 0-lin 1-nonlin 2-no                           
   RPACOR =    1.900    partial core radius                                     
   POMASS =   79.904; ZVAL   =    7.000    mass and valenz                      
   RCORE  =    2.100    outmost cutoff radius                                   
   RWIGS  =    2.200; RWIGS  =    1.164    wigner-seitz radius (au A)           
   ENMAX  =  216.285; ENMIN  =  162.214 eV                                      
   ICORE  =        3    local potential                                         
   LCOR   =        T    correct aug charges                                     
   LPAW   =        T    paw PP                                                  
   EAUG   =  503.852                                                            
   DEXC   =    0.000                                                            
   RMAX   =    2.139    core radius for proj-oper                               
   RAUG   =    1.300    factor for augmentation sphere                          
   RDEP   =    2.186    radius for radial grids                                 
   RDEPT  =    1.890    core radius for aug-charge                              
                                                                                
   Atomic configuration                                                         
   10 entries                                                                   
     n  l   j            E        occ.                                          
     1  0  0.50    -13316.2796   2.0000                                         
     2  0  0.50     -1732.8239   2.0000                                         
     2  1  1.50     -1528.2193   6.0000                                         
     3  0  0.50      -238.0460   2.0000                                         
     3  1  1.50      -173.4609   6.0000                                         
     3  2  2.50       -66.7132  10.0000                                         
     4  0  0.50       -20.1334   2.0000                                         
     4  1  0.50        -7.8591   5.0000                                         
     4  2  2.50        -8.1635   0.0000                                         
     4  3  2.50        -8.1635   0.0000                                         
   Description                                                                  
     l       E           TYP  RCUT    TYP  RCUT                                 
     0    -20.1333652     23  2.100                                             
     0    -21.4939478     23  2.100                                             
     1     -7.8591052     23  2.100                                             
     1     -3.1608434     23  2.100                                             
     2     -8.1634956     23  2.100                                             
     3     -1.3605826      7  2.100                                             
  local pseudopotential read in
  partial core-charges read in
  partial kinetic energy density read in
  atomic valenz-charges read in
  non local Contribution for L=           0  read in
    real space projection operators read in
  non local Contribution for L=           0  read in
    real space projection operators read in
  non local Contribution for L=           1  read in
    real space projection operators read in
  non local Contribution for L=           1  read in
    real space projection operators read in
  non local Contribution for L=           2  read in
    real space projection operators read in
    PAW grid and wavefunctions read in

   number of l-projection  operators is LMAX  =           5
   number of lm-projection operators is LMMAX =          13

 POTCAR:    PAW_PBE Cs_sv 08Apr2002               
   SHA256 =  c1463496f0f6037ed62c6012a8013a89ee9ad6ffb38599dcd6c079e7ed31779b Cs
   COPYR  = (c) Copyright 08Apr2002 Georg Kresse                                
   COPYR  = This file is part of the software VASP. Any use, copying, and all ot
   COPYR  = If you do not have a valid VASP license, you may not use, copy or di
   VRHFIN =Cs: 5s5p6s                                                           
   LEXCH  = PE                                                                  
   EATOM  =   555.6835 eV,   40.8416 Ry                                         
                                                                                
   TITEL  = PAW_PBE Cs_sv 08Apr2002                                             
   LULTRA =        F    use ultrasoft PP ?                                      
   IUNSCR =        1    unscreen: 0-lin 1-nonlin 2-no                           
   RPACOR =    2.200    partial core radius                                     
   POMASS =  132.900; ZVAL   =    9.000    mass and valenz                      
   RCORE  =    2.500    outmost cutoff radius                                   
   RWIGS  =    2.500; RWIGS  =    1.323    wigner-seitz radius (au A)           
   ENMAX  =  220.318; ENMIN  =  165.238 eV                                      
   RCLOC  =    2.207    cutoff for local pot                                    
   LCOR   =        T    correct aug charges                                     
   LPAW   =        T    paw PP                                                  
   EAUG   =  407.933                                                            
   DEXC   =    0.000                                                            
   RMAX   =    2.554    core radius for proj-oper                               
   RAUG   =    1.300    factor for augmentation sphere                          
   RDEP   =    2.590    radius for radial grids                                 
   RDEPT  =    2.117    core radius for aug-charge                              
                                                                                
   Atomic configuration                                                         
   13 entries                                                                   
     n  l   j            E        occ.                                          
     1  0  0.50    -35790.1377   2.0000                                         
     2  0  0.50     -5613.6201   2.0000                                         
     2  1  1.50     -5035.0101   6.0000                                         
     3  0  0.50     -1167.0767   2.0000                                         
     3  1  1.50      -980.9754   6.0000                                         
     3  2  2.50      -708.0703  10.0000                                         
     4  0  0.50      -220.2386   2.0000                                         
     4  1  1.50      -160.7596   6.0000                                         
     4  2  2.50       -74.2354  10.0000                                         
     5  0  0.50       -26.7287   2.0000                                         
     6  0  0.50        -2.0862   1.0000                                         
     5  1  1.50       -13.5159   6.0000                                         
     5  2  2.50        -0.4136   0.0000                                         
   Description                                                                  
     l       E           TYP  RCUT    TYP  RCUT                                 
     0    -26.7287425     23  1.900                                             
     0     -2.0862306     23  1.900                                             
     1    -13.5158719     23  2.500                                             
     1     -2.7211652     23  2.500                                             
     2     -0.4136171     23  2.500                                             
  local pseudopotential read in
  partial core-charges read in
  partial kinetic energy density read in
  atomic valenz-charges read in
  non local Contribution for L=           0  read in
    real space projection operators read in
  non local Contribution for L=           0  read in
    real space projection operators read in
  non local Contribution for L=           1  read in
    real space projection operators read in
  non local Contribution for L=           1  read in
    real space projection operators read in
  non local Contribution for L=           2  read in
    real space projection operators read in
    PAW grid and wavefunctions read in

   number of l-projection  operators is LMAX  =           5
   number of lm-projection operators is LMMAX =          13

 Optimization of the real space projectors (new method)

 maximal supplied QI-value         = 15.12
 optimisation between [QCUT,QGAM] = [  8.77, 17.69] = [ 21.53, 87.61] Ry 
 Optimized for a Real-space Cutoff    1.85 Angstroem

   l    n(q)    QCUT    max X(q) W(low)/X(q) W(high)/X(q)  e(spline) 
   0     10     8.768    25.322    0.81E-04    0.51E-04    0.48E-06
   0     10     8.768    99.187    0.78E-04    0.50E-04    0.47E-06
   1      9     8.768    11.761    0.21E-03    0.20E-03    0.37E-06
   1      9     8.768     8.275    0.24E-03    0.22E-03    0.41E-06
   2      9     8.768     3.829    0.23E-04    0.15E-03    0.18E-06
 Optimization of the real space projectors (new method)

 maximal supplied QI-value         = 15.12
 optimisation between [QCUT,QGAM] = [  8.77, 17.69] = [ 21.53, 87.61] Ry 
 Optimized for a Real-space Cutoff    1.59 Angstroem

   l    n(q)    QCUT    max X(q) W(low)/X(q) W(high)/X(q)  e(spline) 
   2      7     8.768     3.846    0.48E-04    0.11E-03    0.11E-06
   2      7     8.768     8.593    0.20E-03    0.22E-04    0.24E-06
   0      8     8.768    20.082    0.68E-04    0.88E-04    0.41E-07
   0      8     8.768     8.597    0.89E-04    0.13E-03    0.59E-07
   1      8     8.768    33.223    0.15E-03    0.53E-04    0.87E-07
   1      8     8.768    15.899    0.14E-03    0.44E-04    0.78E-07
 Optimization of the real space projectors (new method)

 maximal supplied QI-value         = 17.95
 optimisation between [QCUT,QGAM] = [  8.80, 17.59] = [ 21.67, 86.68] Ry 
 Optimized for a Real-space Cutoff    1.59 Angstroem

   l    n(q)    QCUT    max X(q) W(low)/X(q) W(high)/X(q)  e(spline) 
   0      8     8.797   175.082    0.82E-04    0.14E-03    0.89E-07
   0      8     8.797   174.004    0.79E-04    0.14E-03    0.86E-07
   1      8     8.797    54.315    0.16E-03    0.14E-04    0.30E-06
   1      8     8.797    42.441    0.16E-03    0.14E-04    0.30E-06
   2      7     8.797     3.596    0.92E-04    0.15E-03    0.85E-07
 Optimization of the real space projectors (new method)

 maximal supplied QI-value         = 15.12
 optimisation between [QCUT,QGAM] = [  8.77, 17.69] = [ 21.53, 87.61] Ry 
 Optimized for a Real-space Cutoff    1.85 Angstroem

   l    n(q)    QCUT    max X(q) W(low)/X(q) W(high)/X(q)  e(spline) 
   0     10     8.768    25.322    0.81E-04    0.51E-04    0.48E-06
   0     10     8.768    99.187    0.78E-04    0.50E-04    0.47E-06
   1      9     8.768    11.761    0.21E-03    0.20E-03    0.37E-06
   1      9     8.768     8.275    0.24E-03    0.22E-03    0.41E-06
   2      9     8.768     3.829    0.23E-04    0.15E-03    0.18E-06
  PAW_PBE Cs_sv 08Apr2002               :
 energy of atom  1       EATOM= -555.6835
 kinetic energy error for atom=    0.0069 (will be added to EATOM!!)
  PAW_PBE Pb_d 06Sep2000                :
 energy of atom  2       EATOM=-1661.6185
 kinetic energy error for atom=    0.0498 (will be added to EATOM!!)
  PAW_PBE Br 06Sep2000                  :
 energy of atom  3       EATOM= -368.4488
 kinetic energy error for atom=    0.0072 (will be added to EATOM!!)
  PAW_PBE Cs_sv 08Apr2002               :
 energy of atom  4       EATOM= -555.6835
 kinetic energy error for atom=    0.0069 (will be added to EATOM!!)


 POSCAR: Cs7 Pb8 Br24                            
  positions in direct lattice
  No initial velocities read in

 METAGGA = SCAN     LMAXTAU =  6    LMIXTAU =  F

 exchange correlation table for  LEXCH =        8
   RHO(1)=    0.500       N(1)  =     2000
   RHO(2)=  100.500       N(2)  =     4000

 VTST: version 3.2, (02/03/18)

 CHAIN: initializing optimizer
 
 OPT: Using VASP Conjugate-Gradient optimizer
 CHAIN: Read ICHAIN            0

 POSCAR: Cs7 Pb8 Br24                            
  positions in direct lattice
  No initial velocities read in



--------------------------------------------------------------------------------------------------------


 ion  position               nearest neighbor table
   1  0.271  0.250  0.202-
   2  0.776  0.250  0.715-
   3  0.207  0.750  0.768-
   4  0.291  0.250  0.729-
   5  0.791  0.250  0.225-
   6  0.236  0.750  0.296-
   7  0.999  0.997  0.000-  29 2.98  19 2.99  34 2.99  17 3.01  28 3.02  31 3.03
   8  0.503  0.000  0.497-  20 2.97  32 2.99  33 3.00  18 3.01  27 3.01  30 3.04
   9  0.503  0.998  0.997-  15 2.98  29 2.99  27 3.01  21 3.01  33 3.02  31 3.03
  10  1.000  0.999  0.500-  16 2.98  32 3.00  34 3.00  30 3.01  22 3.01  28 3.02
  11  0.503  0.502  0.997-  15 2.98  35 2.99  37 3.01  21 3.01  25 3.02  23 3.03
  12  1.000  0.501  0.500-  16 2.98  24 3.00  26 3.00  36 3.01  22 3.01  38 3.02
  13  0.999  0.503  0.000-  35 2.98  19 2.99  26 2.99  17 3.01  38 3.02  23 3.03
  14  0.503  0.500  0.497-  20 2.97  24 2.99  25 3.00  18 3.01  37 3.01  36 3.04
  15  0.461  0.750  0.964-   9 2.98  11 2.98
  16  0.978  0.750  0.463-  10 2.98  12 2.98
  17  0.970  0.250  0.971-  13 3.01   7 3.01
  18  0.454  0.250  0.466-   8 3.01  14 3.01
  19  0.050  0.750  0.035-   7 2.99  13 2.99
  20  0.523  0.750  0.527-  14 2.97   8 2.97
  21  0.530  0.250  0.034-  11 3.01   9 3.01
  22  0.033  0.250  0.541-  12 3.01  10 3.01
  23  0.249  0.465  0.949-  11 3.03  13 3.03
  24  0.749  0.452  0.455-  14 2.99  12 3.00
  25  0.443  0.525  0.246-  14 3.00  11 3.02
  26  0.950  0.535  0.748-  13 2.99  12 3.00
  27  0.545  0.046  0.749-   9 3.01   8 3.01
  28  0.051  0.037  0.252-  10 3.02   7 3.02
  29  0.753  0.972  0.056-  39 2.67   7 2.98   9 2.99
  30  0.252  0.968  0.551-  10 3.01   8 3.04
  31  0.249  0.035  0.949-   9 3.03   7 3.03
  32  0.749  0.048  0.455-   8 2.99  10 3.00
  33  0.443  0.975  0.246-   8 3.00   9 3.02
  34  0.950  0.965  0.748-   7 2.99  10 3.00
  35  0.753  0.528  0.056-  39 2.67  13 2.98  11 2.99
  36  0.252  0.532  0.551-  12 3.01  14 3.04
  37  0.545  0.454  0.749-  11 3.01  14 3.01
  38  0.051  0.463  0.252-  12 3.02  13 3.02
  39  0.713  0.750  0.031-  29 2.67  35 2.67


IMPORTANT INFORMATION: All symmetrisations will be switched off!
NOSYMM: (Re-)initialisation of all symmetry stuff for point group C_1.



 KPOINTS: 1x1x1                                   

Automatic generation of k-mesh.
Space group operators:
 irot       det(A)        alpha          n_x          n_y          n_z        tau_x        tau_y        tau_z
    1     1.000000     0.000000     1.000000     0.000000     0.000000     0.000000     0.000000     0.000000
 
 Subroutine IBZKPT returns following result:
 ===========================================
 
 Found      8 irreducible k-points:
 
 Following reciprocal coordinates:
            Coordinates               Weight
  0.000000  0.000000  0.000000      1.000000
  0.500000  0.000000  0.000000      1.000000
  0.000000  0.500000  0.000000      1.000000
  0.500000  0.500000  0.000000      1.000000
  0.000000  0.000000  0.500000      1.000000
  0.500000  0.000000  0.500000      1.000000
  0.000000  0.500000  0.500000      1.000000
  0.500000  0.500000  0.500000      1.000000
 
 Following cartesian coordinates:
            Coordinates               Weight
  0.000000  0.000000  0.000000      1.000000
  0.029691  0.000000  0.030948      1.000000
  0.000000  0.042503  0.000000      1.000000
  0.029691  0.042503  0.030948      1.000000
 -0.029691  0.000000  0.030948      1.000000
  0.000000  0.000000  0.061897      1.000000
 -0.029691  0.042503  0.030948      1.000000
  0.000000  0.042503  0.061897      1.000000
 


--------------------------------------------------------------------------------------------------------




 Dimension of arrays:
   k-points           NKPTS =      8   k-points in BZ     NKDIM =      8   number of bands    NBANDS=    208
   number of dos      NEDOS =    301   number of ions     NIONS =     39
   non local maximal  LDIM  =      6   non local SUM 2l+1 LMDIM =     18
   total plane-waves  NPLWV = 343000
   max r-space proj   IRMAX =   5716   max aug-charges    IRDMAX=  91227
   dimension x,y,z NGX =    70 NGY =   70 NGZ =   70
   dimension x,y,z NGXF=   140 NGYF=  140 NGZF=  140
   support grid    NGXF=   280 NGYF=  280 NGZF=  280
   ions per type =               6   8  24   1
   NGX,Y,Z   is equivalent  to a cutoff of   9.97,  9.89,  9.97 a.u.
   NGXF,Y,Z  is equivalent  to a cutoff of  19.95, 19.78, 19.95 a.u.

 SYSTEM =  CsPbBr3 cubic bulk                      
 POSCAR =  Cs7 Pb8 Br24                            

 Startparameter for this run:
   NWRITE =      2    write-flag & timer
   PREC   = accura    normal or accurate (medium, high low for compatibility)
   ISTART =      0    job   : 0-new  1-cont  2-samecut
   ICHARG =      2    charge: 1-file 2-atom 10-const
   ISPIN  =      1    spin polarized calculation?
   LNONCOLLINEAR =      F non collinear calculations
   LSORBIT =      F    spin-orbit coupling
   INIWAV =      1    electr: 0-lowe 1-rand  2-diag
   LASPH  =      T    aspherical Exc in radial PAW
   METAGGA=      F    non-selfconsistent MetaGGA calc.

 Electronic Relaxation 1
   ENCUT  =  300.0 eV  22.05 Ry    4.70 a.u.  16.48 16.61 16.48*2*pi/ulx,y,z
   ENINI  =  300.0     initial cutoff
   ENAUG  =  503.9 eV  augmentation charge cutoff
   NELM   =    200;   NELMIN=  2; NELMDL= -5     # of ELM steps 
   EDIFF  = 0.1E-05   stopping-criterion for ELM
   LREAL  =      T    real-space projection
   NLSPLINE    = F    spline interpolate recip. space projectors
   LCOMPAT=      F    compatible to vasp.4.4
   GGA_COMPAT  = T    GGA compatible to vasp.4.4-vasp.4.6
   LMAXPAW     = -100 max onsite density
   LMAXMIX     =    2 max onsite mixed and CHGCAR
   VOSKOWN=      0    Vosko Wilk Nusair interpolation
   ROPT   =   -0.00025  -0.00025  -0.00025  -0.00025
 Ionic relaxation
   EDIFFG = -.1E-01   stopping-criterion for IOM
   NSW    =      0    number of steps for IOM
   NBLOCK =      1;   KBLOCK =      1    inner block; outer block 
   IBRION =     -1    ionic relax: 0-MD 1-quasi-New 2-CG
   NFREE  =      1    steps in history (QN), initial steepest desc. (CG)
   ISIF   =      2    stress and relaxation
   IWAVPR =     10    prediction:  0-non 1-charg 2-wave 3-comb
   ISYM   =      0    0-nonsym 1-usesym 2-fastsym
   LCORR  =      T    Harris-Foulkes like correction to forces

   POTIM  = 0.5000    time-step for ionic-motion
   TEIN   =    0.0    initial temperature
   TEBEG  =    0.0;   TEEND  =   0.0 temperature during run
   SMASS  =  -3.00    Nose mass-parameter (am)
   estimated Nose-frequenzy (Omega)   =  0.10E-29 period in steps =****** mass=  -0.311E-26a.u.
   SCALEE = 1.0000    scale energy and forces
   NPACO  =    256;   APACO  = 16.0  distance and # of slots for P.C.
   PSTRESS=    0.0 pullay stress

  Mass of Ions in am
   POMASS = 132.90207.20 79.90132.90
  Ionic Valenz
   ZVAL   =   9.00 14.00  7.00  9.00
  Atomic Wigner-Seitz radii
   RWIGS  =  -1.00 -1.00 -1.00 -1.00
  virtual crystal weights 
   VCA    =   1.00  1.00  1.00  1.00
   NELECT =     344.0000    total number of electrons
   NUPDOWN=       0.0000    fix difference up-down

 DOS related values:
   EMIN   =  10.00;   EMAX   =-10.00  energy-range for DOS
   EFERMI =   0.00
   ISMEAR =     0;   SIGMA  =   0.01  broadening in eV -4-tet -1-fermi 0-gaus

 Electronic relaxation 2 (details)
   IALGO  =     38    algorithm
   LDIAG  =      T    sub-space diagonalisation (order eigenvalues)
   LSUBROT=      F    optimize rotation matrix (better conditioning)
   TURBO    =      0    0=normal 1=particle mesh
   IRESTART =      0    0=no restart 2=restart with 2 vectors
   NREBOOT  =      0    no. of reboots
   NMIN     =      0    reboot dimension
   EREF     =   0.00    reference energy to select bands
   IMIX   =      4    mixing-type and parameters
     AMIX     =   0.40;   BMIX     =  1.00
     AMIX_MAG =   1.60;   BMIX_MAG =  1.00
     AMIN     =   0.10
     WC   =   100.;   INIMIX=   1;  MIXPRE=   1;  MAXMIX= -45

 Intra band minimization:
   WEIMIN = 0.0000     energy-eigenvalue tresh-hold
   EBREAK =  0.12E-08  absolut break condition
   DEPER  =   0.30     relativ break condition  

   TIME   =   0.40     timestep for ELM

  volume/ion in A,a.u.               =      41.03       276.90
  Fermi-wavevector in a.u.,A,eV,Ry     =   0.980685  1.853227 13.085320  0.961744
  Thomas-Fermi vector in A             =   2.111635

 Write flags
   LWAVE        =      F    write WAVECAR
   LDOWNSAMPLE  =      F    k-point downsampling of WAVECAR
   LCHARG       =      F    write CHGCAR
   LVTOT        =      F    write LOCPOT, total local potential
   LVHAR        =      T    write LOCPOT, Hartree potential only
   LELF         =      F    write electronic localiz. function (ELF)
   LORBIT       =     10    0 simple, 1 ext, 2 COOP (PROOUT), +10 PAW based schemes


 Dipole corrections
   LMONO  =      F    monopole corrections only (constant potential shift)
   LDIPOL =      F    correct potential (dipole corrections)
   IDIPOL =      0    1-x, 2-y, 3-z, 4-all directions 
   EPSILON=  1.0000000 bulk dielectric constant

 Exchange correlation treatment:
   GGA     =    --    GGA type
   LEXCH   =     8    internal setting for exchange type
   VOSKOWN=      0    Vosko Wilk Nusair interpolation
   LHFCALC =     F    Hartree Fock is set to
   LHFONE  =     F    Hartree Fock one center treatment
   AEXX    =    0.0000 exact exchange contribution

 Linear response parameters
   LEPSILON=     F    determine dielectric tensor
   LRPA    =     F    only Hartree local field effects (RPA)
   LNABLA  =     F    use nabla operator in PAW spheres
   LVEL    =     F    velocity operator in full k-point grid
   LINTERFAST=   F  fast interpolation
   KINTER  =     0    interpolate to denser k-point grid
   CSHIFT  =0.1000    complex shift for real part using Kramers Kronig
   OMEGAMAX=  -1.0    maximum frequency
   DEG_THRESHOLD= 0.2000000E-02 threshold for treating states as degnerate
   RTIME   =   -0.100 relaxation time in fs
  (WPLASMAI=    0.000 imaginary part of plasma frequency in eV, 0.658/RTIME)
   DFIELD  = 0.0000000 0.0000000 0.0000000 field for delta impulse in time

 Orbital magnetization related:
   ORBITALMAG=     F  switch on orbital magnetization
   LCHIMAG   =     F  perturbation theory with respect to B field
   DQ        =  0.001000  dq finite difference perturbation B field
   LLRAUG    =     F  two centre corrections for induced B field



--------------------------------------------------------------------------------------------------------


 Static calculation
 charge density and potential will be updated during run
 non-spin polarized calculation
 Variant of blocked Davidson
 Davidson routine will perform the subspace rotation
 perform sub-space diagonalisation
    after iterative eigenvector-optimisation
 modified Broyden-mixing scheme, WC =      100.0
 initial mixing is a Kerker type mixing with AMIX =  0.4000 and BMIX =      1.0000
 Hartree-type preconditioning will be used
 using additional bands           36
 real space projection scheme for non local part
 use partial core corrections
 calculate Harris-corrections to forces   (improved forces if not selfconsistent)
 use gradient corrections 
 use of overlap-Matrix (Vanderbilt PP)
 Gauss-broadening in eV      SIGMA  =   0.01


--------------------------------------------------------------------------------------------------------


  energy-cutoff  :      300.00
  volume of cell :     1600.27
      direct lattice vectors                 reciprocal lattice vectors
     8.420018000  0.000000000  8.077981000     0.059382296 -0.000000000  0.061896655
     0.000000000 11.763808000  0.000000000     0.000000000  0.085006488 -0.000000000
    -8.420018000  0.000000000  8.077981000    -0.059382296  0.000000000  0.061896655

  length of vectors
    11.668353789 11.763808000 11.668353789     0.085775596  0.085006488  0.085775596



 k-points in units of 2pi/SCALE and weight: 1x1x1                                   
   0.00000000  0.00000000  0.00000000       0.125
   0.02969115  0.00000000  0.03094833       0.125
   0.00000000  0.04250324  0.00000000       0.125
   0.02969115  0.04250324  0.03094833       0.125
  -0.02969115  0.00000000  0.03094833       0.125
   0.00000000  0.00000000  0.06189665       0.125
  -0.02969115  0.04250324  0.03094833       0.125
   0.00000000  0.04250324  0.06189665       0.125

 k-points in reciprocal lattice and weights: 1x1x1                                   
   0.00000000  0.00000000  0.00000000       0.125
   0.50000000  0.00000000  0.00000000       0.125
   0.00000000  0.50000000  0.00000000       0.125
   0.50000000  0.50000000  0.00000000       0.125
   0.00000000  0.00000000  0.50000000       0.125
   0.50000000  0.00000000  0.50000000       0.125
   0.00000000  0.50000000  0.50000000       0.125
   0.50000000  0.50000000  0.50000000       0.125

 position of ions in fractional coordinates (direct lattice) 
   0.27088800  0.25000000  0.20230000
   0.77556500  0.25000100  0.71511300
   0.20661500  0.75000000  0.76772200
   0.29137000  0.24999900  0.72865100
   0.79122200  0.24999900  0.22493000
   0.23638600  0.75000100  0.29576200
   0.99913600  0.99682200  0.00008600
   0.50300300  0.00030800  0.49694500
   0.50336400  0.99771800  0.99729500
   0.99960400  0.99946400  0.50049300
   0.50336300  0.50227800  0.99729900
   0.99959900  0.50053400  0.50049700
   0.99914300  0.50316900  0.00008700
   0.50300300  0.49970100  0.49694300
   0.46093100  0.75000300  0.96376400
   0.97780700  0.74999900  0.46251100
   0.97005000  0.24999700  0.97129300
   0.45400800  0.25000100  0.46570100
   0.05026700  0.74999700  0.03454400
   0.52347000  0.75000200  0.52672100
   0.53037200  0.25000100  0.03449800
   0.03271900  0.24999900  0.54141500
   0.24899600  0.46476100  0.94877500
   0.74927900  0.45243700  0.45487900
   0.44345300  0.52490000  0.24572500
   0.94981200  0.53548100  0.74848200
   0.54485600  0.04563000  0.74941900
   0.05144300  0.03731500  0.25231600
   0.75346200  0.97171500  0.05613600
   0.25236200  0.96788100  0.55055300
   0.24899600  0.03524100  0.94877500
   0.74927900  0.04756400  0.45487900
   0.44345200  0.97510100  0.24572300
   0.94981300  0.96451800  0.74848200
   0.75346200  0.52828600  0.05613700
   0.25236300  0.53212000  0.55055200
   0.54485600  0.45437300  0.74942000
   0.05143900  0.46268200  0.25231700
   0.71273700  0.75000100  0.03091400

 position of ions in cartesian coordinates  (Angst):
   0.57751219  2.94095200  3.82240367
   0.50900693  2.94096376 12.04166856
  -4.72453104  8.82285600  7.87067577
  -3.68191389  2.94094024  8.23971026
   4.76818883  2.94094024  8.20845655
  -0.49994699  8.82286776  4.29868143
   8.41201898 11.72642262  8.07169633
   0.05100847  0.00362325  8.07756094
  -4.15890791 11.73696299 12.12229489
   4.20252360 11.75750260 12.11775506
  -4.15895001  5.90870195 12.12231912
   4.20244782  5.88818587 12.11774699
   8.41206950  5.91918351  8.07176095
   0.05102531  5.87838662  8.07754479
  -4.23386291  8.82289129 11.50865914
   4.33880160  8.82284424 11.63486144
  -0.01046608  2.94091671 15.68213187
  -0.09845527  2.94096376  7.42939183
   0.13238794  8.82282071  0.68510165
  -0.02737348  8.82287953  8.48342294
   4.17526801  2.94096376  4.56300913
  -4.28322948  2.94094024  4.63784354
  -5.89215178  5.46735917  9.67557138
   2.47885330  5.32238200  9.72716544
   1.66487332  6.17482282  5.56716679
   1.69520222  6.29929567 13.71878666
  -1.72242414  0.53678256 10.45512886
  -1.69135428  0.43896650  2.45375943
   5.87149747 11.43106869  6.53991726
  -2.51077359 11.38596625  6.48593211
  -5.89215178  0.41456836  9.67557138
   2.47885330  0.55953376  9.72716544
   1.66488174 11.47090094  5.56714256
   1.69521064 11.34640456 13.71879474
   5.87148905  6.21465507  6.53992534
  -2.51075675  6.25975751  6.48593211
  -1.72243256  5.34515673 10.45513694
  -1.69139638  5.44290221  2.45373520
   5.74096193  8.82286776  6.00719865



--------------------------------------------------------------------------------------------------------


 k-point  1 :   0.0000 0.0000 0.0000  plane waves:   18901
 k-point  2 :   0.5000 0.0000 0.0000  plane waves:   18892
 k-point  3 :   0.0000 0.5000 0.0000  plane waves:   18858
 k-point  4 :   0.5000 0.5000 0.0000  plane waves:   18900
 k-point  5 :   0.0000 0.0000 0.5000  plane waves:   18892
 k-point  6 :   0.5000 0.0000 0.5000  plane waves:   18810
 k-point  7 :   0.0000 0.5000 0.5000  plane waves:   18900
 k-point  8 :   0.5000 0.5000 0.5000  plane waves:   18888

 maximum and minimum number of plane-waves per node :      2391     2328

 maximum number of plane-waves:     18901
 maximum index in each direction: 
   IXMAX=   16   IYMAX=   16   IZMAX=   16
   IXMIN=  -16   IYMIN=  -17   IZMIN=  -16


 real space projection operators:
  total allocation   :      16487.49 KBytes
  max/ min on nodes  :       2155.54       1785.38


 parallel 3D FFT for wavefunctions:
    minimum data exchange during FFTs selected (reduces bandwidth)
 parallel 3D FFT for charge:
    minimum data exchange during FFTs selected (reduces bandwidth)


 total amount of memory used by VASP MPI-rank0    61021. kBytes
=======================================================================

   base      :      30000. kBytes
   nonlr-proj:       6433. kBytes
   fftplans  :       8423. kBytes
   grid      :       7942. kBytes
   one-center:         77. kBytes
   wavefun   :       8146. kBytes

     INWAV:  cpu time    0.0002: real time    0.0007
 Broyden mixing: mesh for mixing (old mesh)
   NGX = 33   NGY = 33   NGZ = 33
  (NGX  =140   NGY  =140   NGZ  =140)
  gives a total of  35937 points

 initial charge density was supplied:
 charge density of overlapping atoms calculated
 number of electron     343.0000000 magnetization 
 keeping initial charge density in first step


--------------------------------------------------------------------------------------------------------


 Maximum index for non-local projection operator          730
 Maximum index for augmentation-charges         3025 (set IRDMAX)


--------------------------------------------------------------------------------------------------------


 First call to EWALD:  gamma=   0.152
 Maximum number of real-space cells 3x 3x 3
 Maximum number of reciprocal cells 3x 3x 3

    FEWALD:  cpu time    0.0041: real time    0.0041


--------------------------------------- Iteration      1(   1)  ---------------------------------------


    POTLOK:  cpu time    0.2636: real time    0.2638
    SETDIJ:  cpu time    1.1956: real time    1.1956
     EDDAV:  cpu time   16.6299: real time   16.6357
       DOS:  cpu time    0.0007: real time    0.0007
    --------------------------------------------
      LOOP:  cpu time   18.0898: real time   18.0958

 eigenvalue-minimisations  :  3488
 total energy-change (2. order) : 0.1364100E+04  (-0.1106912E+05)
 number of electron     343.0000000 magnetization 
 augmentation part      343.0000000 magnetization 

 Free energy of the ion-electron system (eV)
  ---------------------------------------------------
  alpha Z        PSCENC =       835.99855037
  Ewald energy   TEWEN  =    -17372.74596314
  -Hartree energ DENC   =     -7744.25607007
  -exchange      EXHF   =         0.00000000
  -V(xc)+E(xc)   XCENC  =       906.18806325
  PAW double counting   =     21217.07306836   -22257.58625956
  entropy T*S    EENTRO =        -0.00001630
  eigenvalues    EBANDS =      -245.45511115
  atomic energy  EATOM  =     26024.88362379
  Solvation  Ediel_sol  =         0.00000000
  ---------------------------------------------------
  free energy    TOTEN  =      1364.09988554 eV

  energy without entropy =     1364.09990184  energy(sigma->0) =     1364.09989369


--------------------------------------------------------------------------------------------------------




--------------------------------------- Iteration      1(   2)  ---------------------------------------


     EDDAV:  cpu time   18.4945: real time   18.5269
       DOS:  cpu time    0.0004: real time    0.0004
    --------------------------------------------
      LOOP:  cpu time   18.4949: real time   18.5273

 eigenvalue-minimisations  :  4112
 total energy-change (2. order) :-0.2451714E+04  (-0.2369648E+04)
 number of electron     343.0000000 magnetization 
 augmentation part      343.0000000 magnetization 

 Free energy of the ion-electron system (eV)
  ---------------------------------------------------
  alpha Z        PSCENC =       835.99855037
  Ewald energy   TEWEN  =    -17372.74596314
  -Hartree energ DENC   =     -7744.25607007
  -exchange      EXHF   =         0.00000000
  -V(xc)+E(xc)   XCENC  =       906.18806325
  PAW double counting   =     21217.07306836   -22257.58625956
  entropy T*S    EENTRO =        -0.00000000
  eigenvalues    EBANDS =     -2697.16881318
  atomic energy  EATOM  =     26024.88362379
  Solvation  Ediel_sol  =         0.00000000
  ---------------------------------------------------
  free energy    TOTEN  =     -1087.61380019 eV

  energy without entropy =    -1087.61380019  energy(sigma->0) =    -1087.61380019


--------------------------------------------------------------------------------------------------------




--------------------------------------- Iteration      1(   3)  ---------------------------------------


     EDDAV:  cpu time   19.2636: real time   19.3145
       DOS:  cpu time    0.0004: real time    0.0004
    --------------------------------------------
      LOOP:  cpu time   19.2640: real time   19.3149

 eigenvalue-minimisations  :  4400
 total energy-change (2. order) :-0.3622548E+03  (-0.3601690E+03)
 number of electron     343.0000000 magnetization 
 augmentation part      343.0000000 magnetization 

 Free energy of the ion-electron system (eV)
  ---------------------------------------------------
  alpha Z        PSCENC =       835.99855037
  Ewald energy   TEWEN  =    -17372.74596314
  -Hartree energ DENC   =     -7744.25607007
  -exchange      EXHF   =         0.00000000
  -V(xc)+E(xc)   XCENC  =       906.18806325
  PAW double counting   =     21217.07306836   -22257.58625956
  entropy T*S    EENTRO =        -0.00000000
  eigenvalues    EBANDS =     -3059.42359534
  atomic energy  EATOM  =     26024.88362379
  Solvation  Ediel_sol  =         0.00000000
  ---------------------------------------------------
  free energy    TOTEN  =     -1449.86858235 eV

  energy without entropy =    -1449.86858235  energy(sigma->0) =    -1449.86858235


--------------------------------------------------------------------------------------------------------




--------------------------------------- Iteration      1(   4)  ---------------------------------------


     EDDAV:  cpu time   18.2209: real time   18.2289
       DOS:  cpu time    0.0004: real time    0.0004
    --------------------------------------------
      LOOP:  cpu time   18.2213: real time   18.2293

 eigenvalue-minimisations  :  4016
 total energy-change (2. order) :-0.1252679E+02  (-0.1248837E+02)
 number of electron     343.0000000 magnetization 
 augmentation part      343.0000000 magnetization 

 Free energy of the ion-electron system (eV)
  ---------------------------------------------------
  alpha Z        PSCENC =       835.99855037
  Ewald energy   TEWEN  =    -17372.74596314
  -Hartree energ DENC   =     -7744.25607007
  -exchange      EXHF   =         0.00000000
  -V(xc)+E(xc)   XCENC  =       906.18806325
  PAW double counting   =     21217.07306836   -22257.58625956
  entropy T*S    EENTRO =        -0.00000000
  eigenvalues    EBANDS =     -3071.95038451
  atomic energy  EATOM  =     26024.88362379
  Solvation  Ediel_sol  =         0.00000000
  ---------------------------------------------------
  free energy    TOTEN  =     -1462.39537152 eV

  energy without entropy =    -1462.39537152  energy(sigma->0) =    -1462.39537152


--------------------------------------------------------------------------------------------------------




--------------------------------------- Iteration      1(   5)  ---------------------------------------


     EDDAV:  cpu time   19.3821: real time   19.3996
       DOS:  cpu time    0.0004: real time    0.0004
    CHARGE:  cpu time    2.7089: real time    2.7091
    MIXING:  cpu time    0.0017: real time    0.0017
    --------------------------------------------
      LOOP:  cpu time   22.0932: real time   22.1109

 eigenvalue-minimisations  :  4424
 total energy-change (2. order) :-0.5218102E+00  (-0.5215231E+00)
 number of electron     343.9999996 magnetization 
 augmentation part       -4.6852550 magnetization 

 Broyden mixing:
  rms(total) = 0.11521E+01    rms(broyden)= 0.11516E+01
  rms(prec ) = 0.15233E+01
  weight for this iteration     100.00

 Free energy of the ion-electron system (eV)
  ---------------------------------------------------
  alpha Z        PSCENC =       835.99855037
  Ewald energy   TEWEN  =    -17372.74596314
  -Hartree energ DENC   =     -7744.25607007
  -exchange      EXHF   =         0.00000000
  -V(xc)+E(xc)   XCENC  =       906.18806325
  PAW double counting   =     21217.07306836   -22257.58625956
  entropy T*S    EENTRO =        -0.00000000
  eigenvalues    EBANDS =     -3072.47219472
  atomic energy  EATOM  =     26024.88362379
  Solvation  Ediel_sol  =         0.00000000
  ---------------------------------------------------
  free energy    TOTEN  =     -1462.91718173 eV

  energy without entropy =    -1462.91718173  energy(sigma->0) =    -1462.91718173


--------------------------------------------------------------------------------------------------------




--------------------------------------- Iteration      1(   6)  ---------------------------------------


    POTLOK:  cpu time    0.2581: real time    0.3143
    SETDIJ:  cpu time    1.1958: real time    1.1958
     EDDAV:  cpu time   19.1933: real time   19.1944
       DOS:  cpu time    0.0004: real time    0.0004
    CHARGE:  cpu time    2.6860: real time    2.6862
    MIXING:  cpu time    0.0015: real time    0.0015
    --------------------------------------------
      LOOP:  cpu time   23.3350: real time   23.3927

 eigenvalue-minimisations  :  4376
 total energy-change (2. order) : 0.7926878E+02  (-0.2343505E+01)
 number of electron     343.9999996 magnetization 
 augmentation part       -3.2378528 magnetization 

 Broyden mixing:
  rms(total) = 0.78650E+00    rms(broyden)= 0.78642E+00
  rms(prec ) = 0.95222E+00
  weight for this iteration     100.00

 eigenvalues of (default mixing * dielectric matrix)
  average eigenvalue GAMMA=   1.3427
  1.3427

 Free energy of the ion-electron system (eV)
  ---------------------------------------------------
  alpha Z        PSCENC =       835.99855037
  Ewald energy   TEWEN  =    -17372.74596314
  -Hartree energ DENC   =     -7729.82293060
  -exchange      EXHF   =         0.00000000
  -V(xc)+E(xc)   XCENC  =       939.94901893
  PAW double counting   =     21593.94036944   -22633.14268790
  entropy T*S    EENTRO =        -0.00000000
  eigenvalues    EBANDS =     -3042.70838579
  atomic energy  EATOM  =     26024.88362379
  Solvation  Ediel_sol  =         0.00000000
  ---------------------------------------------------
  free energy    TOTEN  =     -1383.64840491 eV

  energy without entropy =    -1383.64840491  energy(sigma->0) =    -1383.64840491


--------------------------------------------------------------------------------------------------------




--------------------------------------- Iteration      1(   7)  ---------------------------------------


    POTLOK:  cpu time    0.2589: real time    0.2906
    SETDIJ:  cpu time    1.1951: real time    1.1951
     EDDAV:  cpu time   18.4535: real time   18.4546
       DOS:  cpu time    0.0006: real time    0.0006
    CHARGE:  cpu time    2.6849: real time    2.6852
    MIXING:  cpu time    0.0015: real time    0.0015
    --------------------------------------------
      LOOP:  cpu time   22.5946: real time   22.6277

 eigenvalue-minimisations  :  4120
 total energy-change (2. order) : 0.3914654E+00  (-0.9768222E+00)
 number of electron     343.9999996 magnetization 
 augmentation part       -2.5927772 magnetization 

 Broyden mixing:
  rms(total) = 0.38242E+00    rms(broyden)= 0.38241E+00
  rms(prec ) = 0.41624E+00
  weight for this iteration     100.00

 eigenvalues of (default mixing * dielectric matrix)
  average eigenvalue GAMMA=   1.3249
  1.3249  1.3249

 Free energy of the ion-electron system (eV)
  ---------------------------------------------------
  alpha Z        PSCENC =       835.99855037
  Ewald energy   TEWEN  =    -17372.74596314
  -Hartree energ DENC   =     -7773.93035559
  -exchange      EXHF   =         0.00000000
  -V(xc)+E(xc)   XCENC  =       945.76045447
  PAW double counting   =     22353.04938849   -23390.51868852
  entropy T*S    EENTRO =        -0.00000000
  eigenvalues    EBANDS =     -3005.75394932
  atomic energy  EATOM  =     26024.88362379
  Solvation  Ediel_sol  =         0.00000000
  ---------------------------------------------------
  free energy    TOTEN  =     -1383.25693946 eV

  energy without entropy =    -1383.25693946  energy(sigma->0) =    -1383.25693946


--------------------------------------------------------------------------------------------------------




--------------------------------------- Iteration      1(   8)  ---------------------------------------


    POTLOK:  cpu time    0.3026: real time    0.3164
    SETDIJ:  cpu time    1.1952: real time    1.1953
     EDDAV:  cpu time   17.8363: real time   17.8372
       DOS:  cpu time    0.0004: real time    0.0004
    CHARGE:  cpu time    2.6873: real time    2.6874
    MIXING:  cpu time    0.0016: real time    0.0016
    --------------------------------------------
      LOOP:  cpu time   22.0234: real time   22.0382

 eigenvalue-minimisations  :  3904
 total energy-change (2. order) :-0.1842060E+00  (-0.4515162E-01)
 number of electron     343.9999996 magnetization 
 augmentation part       -2.7020055 magnetization 

 Broyden mixing:
  rms(total) = 0.22371E+00    rms(broyden)= 0.22371E+00
  rms(prec ) = 0.24627E+00
  weight for this iteration     100.00

 eigenvalues of (default mixing * dielectric matrix)
  average eigenvalue GAMMA=   1.6806
  1.0976  1.3847  2.5596

 Free energy of the ion-electron system (eV)
  ---------------------------------------------------
  alpha Z        PSCENC =       835.99855037
  Ewald energy   TEWEN  =    -17372.74596314
  -Hartree energ DENC   =     -7777.20468633
  -exchange      EXHF   =         0.00000000
  -V(xc)+E(xc)   XCENC  =       946.28570392
  PAW double counting   =     22602.60571964   -23640.59582382
  entropy T*S    EENTRO =        -0.00000000
  eigenvalues    EBANDS =     -3002.66826986
  atomic energy  EATOM  =     26024.88362379
  Solvation  Ediel_sol  =         0.00000000
  ---------------------------------------------------
  free energy    TOTEN  =     -1383.44114544 eV

  energy without entropy =    -1383.44114544  energy(sigma->0) =    -1383.44114544


--------------------------------------------------------------------------------------------------------




--------------------------------------- Iteration      1(   9)  ---------------------------------------


    POTLOK:  cpu time    0.3045: real time    0.3200
    SETDIJ:  cpu time    1.1958: real time    1.1958
     EDDAV:  cpu time   17.0585: real time   17.0592
       DOS:  cpu time    0.0004: real time    0.0004
    CHARGE:  cpu time    2.6837: real time    2.6839
    MIXING:  cpu time    0.0018: real time    0.0018
    --------------------------------------------
      LOOP:  cpu time   21.2448: real time   21.2611

 eigenvalue-minimisations  :  3648
 total energy-change (2. order) :-0.8314240E-01  (-0.1462783E-01)
 number of electron     343.9999996 magnetization 
 augmentation part       -2.7516025 magnetization 

 Broyden mixing:
  rms(total) = 0.39323E-01    rms(broyden)= 0.39319E-01
  rms(prec ) = 0.45831E-01
  weight for this iteration     100.00

 eigenvalues of (default mixing * dielectric matrix)
  average eigenvalue GAMMA=   1.4770
  2.5292  1.2637  1.2637  0.8513

 Free energy of the ion-electron system (eV)
  ---------------------------------------------------
  alpha Z        PSCENC =       835.99855037
  Ewald energy   TEWEN  =    -17372.74596314
  -Hartree energ DENC   =     -7782.25594816
  -exchange      EXHF   =         0.00000000
  -V(xc)+E(xc)   XCENC  =       948.16232205
  PAW double counting   =     22952.02494062   -23991.01949622
  entropy T*S    EENTRO =        -0.00000000
  eigenvalues    EBANDS =     -2998.57231714
  atomic energy  EATOM  =     26024.88362379
  Solvation  Ediel_sol  =         0.00000000
  ---------------------------------------------------
  free energy    TOTEN  =     -1383.52428784 eV

  energy without entropy =    -1383.52428784  energy(sigma->0) =    -1383.52428784


--------------------------------------------------------------------------------------------------------




--------------------------------------- Iteration      1(  10)  ---------------------------------------


    POTLOK:  cpu time    0.2703: real time    0.3168
    SETDIJ:  cpu time    1.1930: real time    1.1931
     EDDAV:  cpu time   20.2254: real time   20.2263
       DOS:  cpu time    0.0005: real time    0.0005
    CHARGE:  cpu time    2.6844: real time    2.6845
    MIXING:  cpu time    0.0018: real time    0.0018
    --------------------------------------------
      LOOP:  cpu time   24.3755: real time   24.4230

 eigenvalue-minimisations  :  4736
 total energy-change (2. order) :-0.2919972E-02  (-0.1336398E-02)
 number of electron     343.9999996 magnetization 
 augmentation part       -2.7379565 magnetization 

 Broyden mixing:
  rms(total) = 0.26904E-01    rms(broyden)= 0.26903E-01
  rms(prec ) = 0.32310E-01
  weight for this iteration     100.00

 eigenvalues of (default mixing * dielectric matrix)
  average eigenvalue GAMMA=   1.4098
  2.3603  1.4229  1.4229  0.9214  0.9214

 Free energy of the ion-electron system (eV)
  ---------------------------------------------------
  alpha Z        PSCENC =       835.99855037
  Ewald energy   TEWEN  =    -17372.74596314
  -Hartree energ DENC   =     -7780.69988019
  -exchange      EXHF   =         0.00000000
  -V(xc)+E(xc)   XCENC  =       948.07428382
  PAW double counting   =     22926.53428912   -23965.60560185
  entropy T*S    EENTRO =        -0.00000000
  eigenvalues    EBANDS =     -2999.96650972
  atomic energy  EATOM  =     26024.88362379
  Solvation  Ediel_sol  =         0.00000000
  ---------------------------------------------------
  free energy    TOTEN  =     -1383.52720782 eV

  energy without entropy =    -1383.52720782  energy(sigma->0) =    -1383.52720782


--------------------------------------------------------------------------------------------------------




--------------------------------------- Iteration      1(  11)  ---------------------------------------


    POTLOK:  cpu time    0.2819: real time    0.3143
    SETDIJ:  cpu time    1.1975: real time    1.1975
     EDDAV:  cpu time   17.1811: real time   17.1818
       DOS:  cpu time    0.0006: real time    0.0006
    CHARGE:  cpu time    2.6853: real time    2.6855
    MIXING:  cpu time    0.0020: real time    0.0020
    --------------------------------------------
      LOOP:  cpu time   21.3483: real time   21.3817

 eigenvalue-minimisations  :  3688
 total energy-change (2. order) :-0.2896231E-02  (-0.2308722E-03)
 number of electron     343.9999996 magnetization 
 augmentation part       -2.7365177 magnetization 

 Broyden mixing:
  rms(total) = 0.10793E-01    rms(broyden)= 0.10793E-01
  rms(prec ) = 0.15317E-01
  weight for this iteration     100.00

 eigenvalues of (default mixing * dielectric matrix)
  average eigenvalue GAMMA=   1.6044
  2.7077  2.7077  1.2180  1.2180  0.8875  0.8875

 Free energy of the ion-electron system (eV)
  ---------------------------------------------------
  alpha Z        PSCENC =       835.99855037
  Ewald energy   TEWEN  =    -17372.74596314
  -Hartree energ DENC   =     -7779.12935000
  -exchange      EXHF   =         0.00000000
  -V(xc)+E(xc)   XCENC  =       948.04059883
  PAW double counting   =     22904.84885349   -23944.13231889
  entropy T*S    EENTRO =        -0.00000000
  eigenvalues    EBANDS =     -3001.29409849
  atomic energy  EATOM  =     26024.88362379
  Solvation  Ediel_sol  =         0.00000000
  ---------------------------------------------------
  free energy    TOTEN  =     -1383.53010405 eV

  energy without entropy =    -1383.53010405  energy(sigma->0) =    -1383.53010405


--------------------------------------------------------------------------------------------------------




--------------------------------------- Iteration      1(  12)  ---------------------------------------


    POTLOK:  cpu time    0.2865: real time    0.3119
    SETDIJ:  cpu time    1.1971: real time    1.1972
     EDDAV:  cpu time   17.0188: real time   17.0196
       DOS:  cpu time    0.0006: real time    0.0006
    CHARGE:  cpu time    2.6889: real time    2.6890
    MIXING:  cpu time    0.0020: real time    0.0020
    --------------------------------------------
      LOOP:  cpu time   21.1940: real time   21.2203

 eigenvalue-minimisations  :  3640
 total energy-change (2. order) :-0.2006230E-02  (-0.2264476E-03)
 number of electron     343.9999996 magnetization 
 augmentation part       -2.7398459 magnetization 

 Broyden mixing:
  rms(total) = 0.58549E-02    rms(broyden)= 0.58539E-02
  rms(prec ) = 0.78964E-02
  weight for this iteration     100.00

 eigenvalues of (default mixing * dielectric matrix)
  average eigenvalue GAMMA=   1.6213
  2.7708  2.7708  1.3678  1.3678  0.9545  1.0587  1.0587

 Free energy of the ion-electron system (eV)
  ---------------------------------------------------
  alpha Z        PSCENC =       835.99855037
  Ewald energy   TEWEN  =    -17372.74596314
  -Hartree energ DENC   =     -7778.39937062
  -exchange      EXHF   =         0.00000000
  -V(xc)+E(xc)   XCENC  =       948.09763610
  PAW double counting   =     22897.06773880   -23936.56986950
  entropy T*S    EENTRO =        -0.00000000
  eigenvalues    EBANDS =     -3001.86445607
  atomic energy  EATOM  =     26024.88362379
  Solvation  Ediel_sol  =         0.00000000
  ---------------------------------------------------
  free energy    TOTEN  =     -1383.53211028 eV

  energy without entropy =    -1383.53211028  energy(sigma->0) =    -1383.53211028


--------------------------------------------------------------------------------------------------------




--------------------------------------- Iteration      1(  13)  ---------------------------------------


    POTLOK:  cpu time    0.2498: real time    0.3083
    SETDIJ:  cpu time    1.1979: real time    1.1980
     EDDAV:  cpu time   19.7546: real time   19.7555
       DOS:  cpu time    0.0011: real time    0.0011
    CHARGE:  cpu time    2.6901: real time    2.6902
    MIXING:  cpu time    0.0019: real time    0.0019
    --------------------------------------------
      LOOP:  cpu time   23.8954: real time   23.9549

 eigenvalue-minimisations  :  4584
 total energy-change (2. order) : 0.1551404E-03  (-0.8907453E-04)
 number of electron     343.9999996 magnetization 
 augmentation part       -2.7404415 magnetization 

 Broyden mixing:
  rms(total) = 0.24906E-02    rms(broyden)= 0.24894E-02
  rms(prec ) = 0.32329E-02
  weight for this iteration     100.00

 eigenvalues of (default mixing * dielectric matrix)
  average eigenvalue GAMMA=   1.5636
  2.8785  2.5192  1.3933  1.3933  1.2261  1.2261  0.9361  0.9361

 Free energy of the ion-electron system (eV)
  ---------------------------------------------------
  alpha Z        PSCENC =       835.99855037
  Ewald energy   TEWEN  =    -17372.74596314
  -Hartree energ DENC   =     -7779.19391997
  -exchange      EXHF   =         0.00000000
  -V(xc)+E(xc)   XCENC  =       948.14973636
  PAW double counting   =     22897.99287196   -23937.47595953
  entropy T*S    EENTRO =        -0.00000000
  eigenvalues    EBANDS =     -3001.14089498
  atomic energy  EATOM  =     26024.88362379
  Solvation  Ediel_sol  =         0.00000000
  ---------------------------------------------------
  free energy    TOTEN  =     -1383.53195514 eV

  energy without entropy =    -1383.53195514  energy(sigma->0) =    -1383.53195514


--------------------------------------------------------------------------------------------------------




--------------------------------------- Iteration      1(  14)  ---------------------------------------


    POTLOK:  cpu time    0.2568: real time    0.2998
    SETDIJ:  cpu time    1.1974: real time    1.1975
     EDDAV:  cpu time   17.7033: real time   17.7042
       DOS:  cpu time    0.0006: real time    0.0006
    CHARGE:  cpu time    2.6983: real time    2.6984
    MIXING:  cpu time    0.0018: real time    0.0018
    --------------------------------------------
      LOOP:  cpu time   21.8583: real time   21.9023

 eigenvalue-minimisations  :  3864
 total energy-change (2. order) : 0.3740277E-05  (-0.1231853E-04)
 number of electron     343.9999996 magnetization 
 augmentation part       -2.7402916 magnetization 

 Broyden mixing:
  rms(total) = 0.17186E-02    rms(broyden)= 0.17171E-02
  rms(prec ) = 0.23813E-02
  weight for this iteration     100.00

 eigenvalues of (default mixing * dielectric matrix)
  average eigenvalue GAMMA=   1.6158
  3.1114  2.4410  2.4410  1.1909  1.1909  0.9148  0.9148  1.1686  1.1686

 Free energy of the ion-electron system (eV)
  ---------------------------------------------------
  alpha Z        PSCENC =       835.99855037
  Ewald energy   TEWEN  =    -17372.74596314
  -Hartree energ DENC   =     -7779.25042357
  -exchange      EXHF   =         0.00000000
  -V(xc)+E(xc)   XCENC  =       948.15090817
  PAW double counting   =     22899.36997830   -23938.84539328
  entropy T*S    EENTRO =        -0.00000000
  eigenvalues    EBANDS =     -3001.09323202
  atomic energy  EATOM  =     26024.88362379
  Solvation  Ediel_sol  =         0.00000000
  ---------------------------------------------------
  free energy    TOTEN  =     -1383.53195140 eV

  energy without entropy =    -1383.53195140  energy(sigma->0) =    -1383.53195140


--------------------------------------------------------------------------------------------------------




--------------------------------------- Iteration      1(  15)  ---------------------------------------


    POTLOK:  cpu time    0.2590: real time    0.3022
    SETDIJ:  cpu time    1.1945: real time    1.1946
     EDDAV:  cpu time   16.9685: real time   16.9692
       DOS:  cpu time    0.0004: real time    0.0004
    CHARGE:  cpu time    2.6946: real time    2.6947
    MIXING:  cpu time    0.0018: real time    0.0018
    --------------------------------------------
      LOOP:  cpu time   21.1188: real time   21.1630

 eigenvalue-minimisations  :  3616
 total energy-change (2. order) : 0.1152796E-04  (-0.3096063E-05)
 number of electron     343.9999996 magnetization 
 augmentation part       -2.7401560 magnetization 

 Broyden mixing:
  rms(total) = 0.10430E-02    rms(broyden)= 0.10407E-02
  rms(prec ) = 0.14412E-02
  weight for this iteration     100.00

 eigenvalues of (default mixing * dielectric matrix)
  average eigenvalue GAMMA=   1.6181
  3.4138  2.4211  2.4211  1.3691  1.3691  1.2100  1.2100  0.9525  0.9525  0.8614

 Free energy of the ion-electron system (eV)
  ---------------------------------------------------
  alpha Z        PSCENC =       835.99855037
  Ewald energy   TEWEN  =    -17372.74596314
  -Hartree energ DENC   =     -7779.42208129
  -exchange      EXHF   =         0.00000000
  -V(xc)+E(xc)   XCENC  =       948.16017598
  PAW double counting   =     22899.43549030   -23938.90231336
  entropy T*S    EENTRO =        -0.00000000
  eigenvalues    EBANDS =     -3000.93942252
  atomic energy  EATOM  =     26024.88362379
  Solvation  Ediel_sol  =         0.00000000
  ---------------------------------------------------
  free energy    TOTEN  =     -1383.53193987 eV

  energy without entropy =    -1383.53193987  energy(sigma->0) =    -1383.53193987


--------------------------------------------------------------------------------------------------------




--------------------------------------- Iteration      1(  16)  ---------------------------------------


    POTLOK:  cpu time    0.2753: real time    0.3155
    SETDIJ:  cpu time    1.1942: real time    1.1943
     EDDAV:  cpu time   17.5422: real time   17.5430
       DOS:  cpu time    0.0004: real time    0.0004
    CHARGE:  cpu time    2.6893: real time    2.6894
    MIXING:  cpu time    0.0020: real time    0.0020
    --------------------------------------------
      LOOP:  cpu time   21.7034: real time   21.7446

 eigenvalue-minimisations  :  3808
 total energy-change (2. order) :-0.5750814E-04  (-0.1348998E-05)
 number of electron     343.9999996 magnetization 
 augmentation part       -2.7398163 magnetization 

 Broyden mixing:
  rms(total) = 0.44088E-03    rms(broyden)= 0.43544E-03
  rms(prec ) = 0.57632E-03
  weight for this iteration     100.00

 eigenvalues of (default mixing * dielectric matrix)
  average eigenvalue GAMMA=   1.7158
  4.0591  2.7943  2.6178  1.7933  1.1923  1.1923  1.1458  1.1458  0.8852  0.9827
  1.0649

 Free energy of the ion-electron system (eV)
  ---------------------------------------------------
  alpha Z        PSCENC =       835.99855037
  Ewald energy   TEWEN  =    -17372.74596314
  -Hartree energ DENC   =     -7779.35033477
  -exchange      EXHF   =         0.00000000
  -V(xc)+E(xc)   XCENC  =       948.15353201
  PAW double counting   =     22898.56180388   -23938.03166799
  entropy T*S    EENTRO =        -0.00000000
  eigenvalues    EBANDS =     -3001.00154152
  atomic energy  EATOM  =     26024.88362379
  Solvation  Ediel_sol  =         0.00000000
  ---------------------------------------------------
  free energy    TOTEN  =     -1383.53199738 eV

  energy without entropy =    -1383.53199738  energy(sigma->0) =    -1383.53199738


--------------------------------------------------------------------------------------------------------




--------------------------------------- Iteration      1(  17)  ---------------------------------------


    POTLOK:  cpu time    0.2674: real time    0.3248
    SETDIJ:  cpu time    1.1951: real time    1.1952
     EDDAV:  cpu time   15.9952: real time   15.9960
       DOS:  cpu time    0.0004: real time    0.0004
    CHARGE:  cpu time    2.6864: real time    2.6865
    MIXING:  cpu time    0.0019: real time    0.0019
    --------------------------------------------
      LOOP:  cpu time   20.1465: real time   20.2048

 eigenvalue-minimisations  :  3264
 total energy-change (2. order) :-0.2614459E-05  (-0.4400877E-06)
 number of electron     343.9999996 magnetization 
 augmentation part       -2.7397750 magnetization 

 Broyden mixing:
  rms(total) = 0.29913E-03    rms(broyden)= 0.29107E-03
  rms(prec ) = 0.32666E-03
  weight for this iteration     100.00

 eigenvalues of (default mixing * dielectric matrix)
  average eigenvalue GAMMA=   1.6810
  4.2354  2.7139  2.7139  1.3403  1.3403  1.5221  1.3483  1.1313  1.1313  0.9570
  0.8692  0.8692

 Free energy of the ion-electron system (eV)
  ---------------------------------------------------
  alpha Z        PSCENC =       835.99855037
  Ewald energy   TEWEN  =    -17372.74596314
  -Hartree energ DENC   =     -7779.33719849
  -exchange      EXHF   =         0.00000000
  -V(xc)+E(xc)   XCENC  =       948.15002604
  PAW double counting   =     22898.88381222   -23938.34910071
  entropy T*S    EENTRO =        -0.00000000
  eigenvalues    EBANDS =     -3001.01575005
  atomic energy  EATOM  =     26024.88362379
  Solvation  Ediel_sol  =         0.00000000
  ---------------------------------------------------
  free energy    TOTEN  =     -1383.53199999 eV

  energy without entropy =    -1383.53199999  energy(sigma->0) =    -1383.53199999


--------------------------------------------------------------------------------------------------------




--------------------------------------- Iteration      1(  18)  ---------------------------------------


    POTLOK:  cpu time    0.3087: real time    0.3201
    SETDIJ:  cpu time    1.1952: real time    1.1953
     EDDAV:  cpu time   13.1393: real time   13.1400
       DOS:  cpu time    0.0004: real time    0.0004
    CHARGE:  cpu time    2.6936: real time    2.6937
    MIXING:  cpu time    0.0019: real time    0.0020
    --------------------------------------------
      LOOP:  cpu time   17.3392: real time   17.3514

 eigenvalue-minimisations  :  2248
 total energy-change (2. order) : 0.2084339E-05  (-0.9969673E-07)
 number of electron     343.9999996 magnetization 
 augmentation part       -2.7398094 magnetization 

 Broyden mixing:
  rms(total) = 0.13083E-03    rms(broyden)= 0.11121E-03
  rms(prec ) = 0.13080E-03
  weight for this iteration     100.00
  WARNING: grid for Broyden might be to small

 eigenvalues of (default mixing * dielectric matrix)
  average eigenvalue GAMMA=   1.6990
  4.4924  2.9203  2.4430  2.1122  1.3914  1.3914  1.2191  1.2191  0.8747  0.9845
  0.9845  1.0269  1.0269

 Free energy of the ion-electron system (eV)
  ---------------------------------------------------
  alpha Z        PSCENC =       835.99855037
  Ewald energy   TEWEN  =    -17372.74596314
  -Hartree energ DENC   =     -7779.34364880
  -exchange      EXHF   =         0.00000000
  -V(xc)+E(xc)   XCENC  =       948.15037637
  PAW double counting   =     22898.89431002   -23938.35878495
  entropy T*S    EENTRO =        -0.00000000
  eigenvalues    EBANDS =     -3001.01046157
  atomic energy  EATOM  =     26024.88362379
  Solvation  Ediel_sol  =         0.00000000
  ---------------------------------------------------
  free energy    TOTEN  =     -1383.53199791 eV

  energy without entropy =    -1383.53199791  energy(sigma->0) =    -1383.53199791


--------------------------------------------------------------------------------------------------------




--------------------------------------- Iteration      1(  19)  ---------------------------------------


    POTLOK:  cpu time    0.2748: real time    0.3168
    SETDIJ:  cpu time    1.1950: real time    1.1950
     EDDAV:  cpu time   12.6243: real time   12.6249
       DOS:  cpu time    0.0005: real time    0.0005
    CHARGE:  cpu time    2.6825: real time    2.6826
    MIXING:  cpu time    0.0025: real time    0.0025
    --------------------------------------------
      LOOP:  cpu time   16.7796: real time   16.8223

 eigenvalue-minimisations  :  2072
 total energy-change (2. order) :-0.1708693E-05  (-0.3806071E-07)
 number of electron     343.9999996 magnetization 
 augmentation part       -2.7397804 magnetization 

 Broyden mixing:
  rms(total) = 0.89477E-04    rms(broyden)= 0.57095E-04
  rms(prec ) = 0.67173E-04
  weight for this iteration     100.00
  WARNING: grid for Broyden might be to small

 eigenvalues of (default mixing * dielectric matrix)
  average eigenvalue GAMMA=   1.7016
  4.7136  3.0008  2.3785  2.3785  1.3134  1.3134  1.4314  1.4314  1.1234  1.1234
  0.9535  0.9535  0.8540  0.8540

 Free energy of the ion-electron system (eV)
  ---------------------------------------------------
  alpha Z        PSCENC =       835.99855037
  Ewald energy   TEWEN  =    -17372.74596314
  -Hartree energ DENC   =     -7779.33695989
  -exchange      EXHF   =         0.00000000
  -V(xc)+E(xc)   XCENC  =       948.14972503
  PAW double counting   =     22898.90295516   -23938.36766599
  entropy T*S    EENTRO =        -0.00000000
  eigenvalues    EBANDS =     -3001.01626495
  atomic energy  EATOM  =     26024.88362379
  Solvation  Ediel_sol  =         0.00000000
  ---------------------------------------------------
  free energy    TOTEN  =     -1383.53199962 eV

  energy without entropy =    -1383.53199962  energy(sigma->0) =    -1383.53199962


--------------------------------------------------------------------------------------------------------




--------------------------------------- Iteration      1(  20)  ---------------------------------------


    POTLOK:  cpu time    0.3072: real time    0.3107
    SETDIJ:  cpu time    1.1938: real time    1.1939
     EDDAV:  cpu time   12.4880: real time   12.4887
       DOS:  cpu time    0.0004: real time    0.0004
    CHARGE:  cpu time    2.6950: real time    2.6951
    MIXING:  cpu time    0.0022: real time    0.0022
    --------------------------------------------
      LOOP:  cpu time   16.6866: real time   16.6911

 eigenvalue-minimisations  :  2024
 total energy-change (2. order) : 0.1461084E-05  (-0.1985197E-07)
 number of electron     343.9999996 magnetization 
 augmentation part       -2.7398242 magnetization 

 Broyden mixing:
  rms(total) = 0.89376E-04    rms(broyden)= 0.56938E-04
  rms(prec ) = 0.63437E-04
  weight for this iteration     100.00
  WARNING: grid for Broyden might be to small

 eigenvalues of (default mixing * dielectric matrix)
  average eigenvalue GAMMA=   1.6577
  4.7755  2.9622  2.3608  2.2447  1.4046  1.4046  1.3860  1.3860  1.1964  1.1964
  0.9739  0.9739  0.9220  0.9220  0.7561

 Free energy of the ion-electron system (eV)
  ---------------------------------------------------
  alpha Z        PSCENC =       835.99855037
  Ewald energy   TEWEN  =    -17372.74596314
  -Hartree energ DENC   =     -7779.33976001
  -exchange      EXHF   =         0.00000000
  -V(xc)+E(xc)   XCENC  =       948.14973204
  PAW double counting   =     22898.90360116   -23938.36816746
  entropy T*S    EENTRO =        -0.00000000
  eigenvalues    EBANDS =     -3001.01361491
  atomic energy  EATOM  =     26024.88362379
  Solvation  Ediel_sol  =         0.00000000
  ---------------------------------------------------
  free energy    TOTEN  =     -1383.53199815 eV

  energy without entropy =    -1383.53199815  energy(sigma->0) =    -1383.53199815


--------------------------------------------------------------------------------------------------------




--------------------------------------- Iteration      1(  21)  ---------------------------------------


    POTLOK:  cpu time    0.2833: real time    0.3075
    SETDIJ:  cpu time    1.1986: real time    1.1986
     EDDAV:  cpu time   12.4541: real time   12.4548
       DOS:  cpu time    0.0004: real time    0.0004
    --------------------------------------------
      LOOP:  cpu time   13.9364: real time   13.9613

 eigenvalue-minimisations  :  2008
 total energy-change (2. order) : 0.3934060E-06  (-0.7052414E-08)
 number of electron     343.9999996 magnetization 
 augmentation part       -2.7398242 magnetization 

 Free energy of the ion-electron system (eV)
  ---------------------------------------------------
  alpha Z        PSCENC =       835.99855037
  Ewald energy   TEWEN  =    -17372.74596314
  -Hartree energ DENC   =     -7779.34193675
  -exchange      EXHF   =         0.00000000
  -V(xc)+E(xc)   XCENC  =       948.14988319
  PAW double counting   =     22898.90175358   -23938.36619820
  entropy T*S    EENTRO =        -0.00000000
  eigenvalues    EBANDS =     -3001.01171060
  atomic energy  EATOM  =     26024.88362379
  Solvation  Ediel_sol  =         0.00000000
  ---------------------------------------------------
  free energy    TOTEN  =     -1383.53199776 eV

  energy without entropy =    -1383.53199776  energy(sigma->0) =    -1383.53199776


--------------------------------------------------------------------------------------------------------




 average (electrostatic) potential at core
  the test charge radii are     1.1312  1.1541  1.0178  1.1312
  (the norm of the test charge is              1.0000)
       1 -55.4216       2 -55.4010       3 -55.5204       4 -55.3851       5 -55.4615
       6 -55.4462       7-102.0606       8-101.7261       9-102.1388      10-101.7681
[...]


--------------------------------------------------------------------------------------------------------


 soft charge-density along one line, spin component           1
         0         1         2         3         4         5         6         7         8         9
 total charge-density along one line

 pseudopotential strength for first ion, spin component:           1
 18.039  -4.722   0.000  -0.002  -0.001  -0.000   0.003   0.001
 -4.722   1.245  -0.000   0.000   0.000   0.000  -0.001  -0.000
  0.000  -0.000   2.294  -0.000   0.000  -2.750   0.000  -0.000
 -0.002   0.000  -0.000   2.295  -0.001   0.000  -2.751   0.001
 -0.001   0.000   0.000  -0.001   2.295  -0.000   0.001  -2.752
 -0.000   0.000  -2.750   0.000  -0.000   3.266  -0.000   0.000
  0.003  -0.001   0.000  -2.751   0.001  -0.000   3.268  -0.001
  0.001  -0.000  -0.000   0.001  -2.752   0.000  -0.001   3.268
  0.000  -0.000   0.001  -0.000   0.000  -0.001   0.000  -0.000
 -0.000   0.000  -0.000   0.000  -0.000   0.001  -0.000   0.000
  0.000  -0.000  -0.000  -0.003   0.000   0.000   0.004  -0.000
 -0.001   0.000  -0.000  -0.000  -0.000   0.000   0.001   0.000
  0.001  -0.000  -0.000   0.000  -0.001   0.000  -0.000   0.002
 total augmentation occupancy for first ion, spin component:           1
  1.912  -0.140   0.000  -0.000  -0.000   0.000  -0.001  -0.000   0.000  -0.000   0.000  -0.001   0.001
 -0.140   0.132   0.000  -0.007  -0.001  -0.000   0.002   0.002  -0.000  -0.000  -0.002   0.005  -0.001
  0.000   0.000   2.015  -0.000   0.000   0.003  -0.000   0.000   0.001  -0.001  -0.000  -0.000  -0.000
 -0.000  -0.007  -0.000   2.018  -0.003  -0.000   0.005  -0.002  -0.000   0.000  -0.006   0.000   0.000
 -0.000  -0.001   0.000  -0.003   2.019   0.000  -0.002   0.005   0.000  -0.000   0.000  -0.000  -0.002
  0.000  -0.000   0.003  -0.000   0.000   0.010  -0.000  -0.000  -0.001  -0.001   0.000   0.000   0.000
 -0.001   0.002  -0.000   0.005  -0.002  -0.000   0.009   0.001   0.000  -0.000   0.003  -0.001   0.000
 -0.000   0.002   0.000  -0.002   0.005  -0.000   0.001   0.009  -0.000   0.000  -0.001  -0.001   0.002
  0.000  -0.000   0.001  -0.000   0.000  -0.001   0.000  -0.000   0.007   0.002  -0.000   0.000   0.000
 -0.000  -0.000  -0.001   0.000  -0.000  -0.001  -0.000   0.000   0.002   0.006   0.000  -0.000   0.000
  0.000  -0.002  -0.000  -0.006   0.000   0.000   0.003  -0.001  -0.000   0.000   0.006  -0.002  -0.000
 -0.001   0.005  -0.000   0.000  -0.000   0.000  -0.001  -0.001   0.000  -0.000  -0.002   0.004   0.001
  0.001  -0.001  -0.000   0.000  -0.002   0.000   0.000   0.002   0.000   0.000  -0.000   0.001   0.005


------------------------ aborting loop because EDIFF is reached ----------------------------------------





 total charge     

# of ion       s       p       d       tot
------------------------------------------
    1        1.787   4.722   0.021   6.530
    2        1.786   4.721   0.020   6.528
    3        1.786   4.721   0.019   6.527
    4        1.787   4.721   0.021   6.529
    5        1.787   4.721   0.021   6.529
    6        1.786   4.721   0.020   6.527
    7        1.554   0.423   9.834  11.810
    8        1.555   0.417   9.833  11.805
    9        1.553   0.428   9.833  11.814
   10        1.555   0.420   9.834  11.808
   11        1.553   0.428   9.833  11.814
   12        1.555   0.420   9.834  11.808
   13        1.554   0.423   9.834  11.810
   14        1.555   0.417   9.833  11.805
   15        1.619   3.314   0.010   4.943
   16        1.615   3.282   0.006   4.903
   17        1.614   3.289   0.006   4.910
   18        1.614   3.292   0.006   4.912
   19        1.615   3.292   0.007   4.914
   20        1.615   3.274   0.006   4.895
   21        1.614   3.288   0.006   4.908
   22        1.614   3.292   0.006   4.912
   23        1.614   3.286   0.006   4.905
   24        1.614   3.286   0.006   4.906
   25        1.614   3.286   0.006   4.906
   26        1.615   3.278   0.006   4.899
   27        1.614   3.285   0.006   4.905
   28        1.614   3.288   0.006   4.908
   29        1.629   3.344   0.019   4.992
   30        1.614   3.289   0.006   4.909
   31        1.614   3.286   0.006   4.905
   32        1.614   3.286   0.006   4.906
   33        1.614   3.286   0.006   4.906
   34        1.615   3.278   0.006   4.899
   35        1.629   3.344   0.019   4.992
   36        1.614   3.289   0.006   4.909
   37        1.614   3.285   0.006   4.905
   38        1.614   3.288   0.006   4.908
   39        1.833   4.748   0.152   6.733
--------------------------------------------------
tot         63.761 115.460  79.115 258.336

    CHARGE:  cpu time    0.3939: real time    0.3939
    FORLOC:  cpu time    0.0119: real time    0.0119
    FORNL :  cpu time    1.8931: real time    1.8932
    STRESS:  cpu time   49.6473: real time   49.6494
    FORCOR:  cpu time    0.2454: real time    0.2454
    FORHAR:  cpu time    0.0288: real time    0.0288
    MIXING:  cpu time    0.0023: real time    0.0023
    OFIELD:  cpu time    0.0001: real time    0.0001

  FORCE on cell =-STRESS in cart. coord.  units (eV):
  Direction    XX          YY          ZZ          XY          YZ          ZX
  --------------------------------------------------------------------------------------
  Alpha Z   835.99855   835.99855   835.99855
  Ewald   -5983.53141 -5346.88012 -6042.41278     0.00542    -0.00661   291.65670
  Hartree  2503.86284  2830.16051  2445.32130     0.00395    -0.00446   187.60796
  E(xc)   -1448.43311 -1447.53096 -1448.27688     0.00000    -0.00001     0.10155
  Local   -2911.98272 -3864.04497 -2794.80529    -0.00932     0.01108  -476.49489
  n-local  1795.62523  1797.38703  1795.03819     0.00001     0.00004    -0.20869
  augment   825.08224   824.22303   824.26765    -0.00003    -0.00002    -0.33529
  Kinetic  4388.15533  4402.23313  4394.00276     0.00006    -0.00004     1.36570
  Fock        0.00000     0.00000     0.00000     0.00000     0.00000     0.00000
  -------------------------------------------------------------------------------------
  Total       4.77694    31.54622     9.13349     0.00009    -0.00002     3.69303
  in kB       4.78263    31.58378     9.14437     0.00009    -0.00002     3.69743
  external pressure =       15.17 kB  Pullay stress =        0.00 kB


 VOLUME and BASIS-vectors are now :
 -----------------------------------------------------------------------------
  energy-cutoff  :      300.00
  volume of cell :     1600.27
      direct lattice vectors                 reciprocal lattice vectors
     8.420018000  0.000000000  8.077981000     0.059382296 -0.000000000  0.061896655
     0.000000000 11.763808000  0.000000000     0.000000000  0.085006488 -0.000000000
    -8.420018000  0.000000000  8.077981000    -0.059382296  0.000000000  0.061896655

  length of vectors
    11.668353789 11.763808000 11.668353789     0.085775596  0.085006488  0.085775596


 FORCES acting on ions
    electron-ion (+dipol)            ewald-force                    non-local-force                 convergence-correction
 -----------------------------------------------------------------------------------------------
   0.310E+02 0.302E-03 -.160E+02   -.310E+02 -.380E-03 0.163E+02   -.512E-01 0.604E-04 -.200E+00   0.290E-04 -.468E-06 0.357E-04
   0.247E+02 0.301E-03 -.455E+01   -.245E+02 -.282E-03 0.437E+01   -.200E+00 -.153E-04 0.132E+00   -.159E-04 -.528E-06 -.769E-04
   -.302E+02 0.106E-02 -.115E+01   0.303E+02 -.105E-02 0.944E+00   0.924E-03 -.633E-05 0.981E-01   0.717E-04 0.320E-06 -.435E-04
   0.245E+02 -.365E-02 0.150E+02   -.242E+02 0.363E-02 -.151E+02   -.264E+00 0.452E-04 0.690E-01   0.642E-04 -.189E-06 0.172E-04
   0.384E+02 -.309E-03 0.467E+01   -.385E+02 0.333E-03 -.458E+01   0.226E-01 -.374E-05 -.158E-01   -.315E-04 -.662E-06 0.545E-05
   -.229E+02 0.246E-02 0.524E+01   0.227E+02 -.243E-02 -.505E+01   0.180E+00 -.322E-04 -.974E-01   -.244E-04 0.366E-06 0.101E-03
   0.220E+01 0.229E+02 0.229E+02   -.217E+01 -.228E+02 -.227E+02   0.237E+00 0.132E+00 -.387E-01   -.108E-03 0.698E-05 -.758E-04
   -.489E+02 0.718E+02 -.473E+02   0.488E+02 -.719E+02 0.474E+02   0.161E+00 -.170E+00 0.288E-02   0.202E-04 -.248E-04 0.211E-04
   -.175E+02 0.144E+02 0.102E+01   0.176E+02 -.145E+02 -.887E+00   -.360E+00 0.596E+00 -.461E+00   0.705E-04 0.104E-04 0.569E-04
   0.363E+02 0.498E+02 0.407E+02   -.363E+02 -.497E+02 -.409E+02   -.139E+00 -.232E+00 0.191E+00   -.488E-04 -.427E-04 -.239E-04
   -.176E+02 -.144E+02 0.102E+01   0.176E+02 0.146E+02 -.887E+00   -.360E+00 -.598E+00 -.461E+00   0.708E-04 -.877E-05 0.587E-04
   0.363E+02 -.498E+02 0.407E+02   -.362E+02 0.497E+02 -.409E+02   -.141E+00 0.232E+00 0.191E+00   -.477E-04 0.446E-04 -.232E-04
   0.220E+01 -.229E+02 0.229E+02   -.218E+01 0.228E+02 -.228E+02   0.237E+00 -.133E+00 -.375E-01   -.108E-03 -.495E-05 -.772E-04
   -.489E+02 -.718E+02 -.473E+02   0.488E+02 0.718E+02 0.474E+02   0.161E+00 0.171E+00 0.223E-02   0.209E-04 0.238E-04 0.213E-04
   0.339E+01 0.141E-01 0.672E+02   -.363E+01 -.144E-01 -.678E+02   -.488E+00 0.934E-04 -.683E+00   -.161E-04 -.204E-06 -.706E-04
   0.458E+02 0.460E-04 0.825E+02   -.460E+02 -.341E-04 -.830E+02   0.180E+00 -.193E-06 0.465E+00   -.300E-04 0.824E-07 -.148E-04
   -.113E+02 0.101E-02 0.386E+02   0.115E+02 -.102E-02 -.388E+02   -.119E+00 0.100E-04 0.222E+00   -.150E-04 -.553E-06 0.288E-05
   -.123E+02 -.814E-02 0.311E+02   0.123E+02 0.825E-02 -.314E+02   -.219E-01 -.856E-04 0.268E+00   0.718E-05 -.134E-06 0.426E-04
   0.828E+01 0.821E-03 -.361E+02   -.821E+01 -.809E-03 0.366E+02   -.143E+00 -.852E-05 -.477E+00   -.166E-04 0.184E-06 -.940E-05
   -.333E+02 -.487E-02 -.798E+02   0.333E+02 0.494E-02 0.802E+02   0.232E-01 -.101E-03 -.468E+00   0.298E-04 0.403E-06 0.123E-04
   -.121E+02 0.694E-02 -.398E+02   0.121E+02 -.710E-02 0.401E+02   -.334E-01 0.184E-03 -.266E+00   0.153E-04 -.231E-06 -.203E-04
   -.381E+01 -.518E-03 -.294E+02   0.388E+01 0.532E-03 0.297E+02   -.493E-01 -.533E-05 -.241E+00   -.825E-07 -.425E-06 -.133E-04
   -.215E+02 0.929E+01 0.283E+02   0.217E+02 -.949E+01 -.285E+02   -.192E+00 0.229E+00 0.293E+00   0.224E-04 -.190E-04 0.255E-04
   -.157E+02 -.285E+02 0.285E+02   0.159E+02 0.283E+02 -.287E+02   -.199E+00 0.959E-01 0.181E+00   -.335E-04 0.390E-04 -.984E-05
   0.123E+02 -.392E+02 -.477E+01   -.125E+02 0.393E+02 0.451E+01   0.327E+00 -.148E+00 0.141E+00   -.433E-05 0.545E-05 0.570E-04
   0.410E+02 -.567E+02 0.612E+02   -.413E+02 0.570E+02 -.616E+02   0.190E+00 -.308E+00 0.462E+00   0.282E-05 0.280E-05 -.505E-04
   -.438E+02 0.166E+02 -.316E+02   0.440E+02 -.164E+02 0.317E+02   -.348E+00 -.194E+00 -.807E-01   0.257E-04 -.111E-04 -.186E-04
   -.357E+01 -.414E+01 -.224E+02   0.376E+01 0.434E+01 0.226E+02   -.119E+00 -.186E+00 -.289E+00   -.312E-04 -.154E-04 0.197E-05
   0.305E+02 -.196E+02 -.446E+02   -.306E+02 0.209E+02 0.452E+02   0.400E+00 0.350E+01 0.546E+00   -.117E-04 0.150E-03 0.229E-04
   0.158E+02 0.265E+02 -.291E+02   -.159E+02 -.267E+02 0.294E+02   0.112E+00 0.172E+00 -.241E+00   0.361E-04 0.123E-04 0.118E-04
   -.214E+02 -.929E+01 0.283E+02   0.217E+02 0.949E+01 -.285E+02   -.192E+00 -.229E+00 0.293E+00   0.218E-04 0.190E-04 0.252E-04
   -.157E+02 0.285E+02 0.285E+02   0.159E+02 -.283E+02 -.287E+02   -.199E+00 -.959E-01 0.181E+00   -.332E-04 -.391E-04 -.984E-05
   0.123E+02 0.392E+02 -.477E+01   -.125E+02 -.393E+02 0.451E+01   0.327E+00 0.148E+00 0.141E+00   -.464E-05 -.479E-05 0.567E-04
   0.410E+02 0.567E+02 0.613E+02   -.413E+02 -.570E+02 -.616E+02   0.190E+00 0.308E+00 0.462E+00   0.297E-05 -.279E-05 -.507E-04
   0.305E+02 0.196E+02 -.446E+02   -.306E+02 -.209E+02 0.452E+02   0.400E+00 -.350E+01 0.546E+00   -.120E-04 -.147E-03 0.212E-04
   0.158E+02 -.265E+02 -.291E+02   -.159E+02 0.267E+02 0.294E+02   0.112E+00 -.172E+00 -.241E+00   0.358E-04 -.121E-04 0.120E-04
   -.438E+02 -.166E+02 -.316E+02   0.440E+02 0.164E+02 0.317E+02   -.348E+00 0.194E+00 -.806E-01   0.256E-04 0.109E-04 -.187E-04
   -.356E+01 0.414E+01 -.224E+02   0.375E+01 -.434E+01 0.227E+02   -.119E+00 0.186E+00 -.289E+00   -.308E-04 0.155E-04 0.214E-05
   -.241E+02 0.777E-02 -.435E+02   0.242E+02 -.809E-02 0.428E+02   0.283E+00 0.104E-04 -.533E-01   0.899E-05 -.271E-05 0.555E-05
 -----------------------------------------------------------------------------------------------
   0.524E+00 0.572E-03 -.147E+00   -.462E-13 -.836E-15 -.497E-13   -.542E+00 -.777E-03 0.166E+00   -.413E-04 0.342E-05 0.102E-04


 POSITION                                       TOTAL-FORCE (eV/Angst)
 -----------------------------------------------------------------------------------
      0.57751      2.94095      3.82240        -0.016260     -0.000013      0.025904
      0.50901      2.94096     12.04167         0.062208     -0.000001     -0.046258
     -4.72453      8.82286      7.87068         0.059751      0.000008     -0.103567
     -3.68191      2.94094      8.23971         0.054305      0.000038     -0.031255
      4.76819      2.94094      8.20846        -0.040545      0.000032      0.074661
     -0.49995      8.82287      4.29868        -0.048899     -0.000004      0.083057
      8.41202     11.72642      8.07170         0.264370      0.225171      0.075759
      0.05101      0.00362      8.07756         0.040989     -0.209759      0.081060
     -4.15891     11.73696     12.12229        -0.271179      0.473076     -0.346424
      4.20252     11.75750     12.11776        -0.073732     -0.108089     -0.036808
     -4.15895      5.90870     12.12232        -0.270936     -0.472976     -0.346272
      4.20245      5.88819     12.11775        -0.073504      0.108110     -0.036746
      8.41207      5.91918      8.07176         0.264076     -0.225194      0.075532
      0.05103      5.87839      8.07754         0.040835      0.209725      0.081141
     -4.23386      8.82289     11.50866        -0.714433     -0.000084     -1.234167
      4.33880      8.82284     11.63486         0.053236      0.000007      0.016155
     -0.01047      2.94092     15.68213         0.012572     -0.000022      0.020038
     -0.09846      2.94096      7.42939        -0.009843      0.000034     -0.027597
      0.13239      8.82282      0.68510        -0.077296     -0.000019     -0.041423
     -0.02737      8.82288      8.48342        -0.024527     -0.000004     -0.065347
      4.17527      2.94096      4.56301         0.009352      0.000053     -0.007959
     -4.28323      2.94094      4.63784         0.011959      0.000003      0.017290
     -5.89215      5.46736      9.67557         0.006082      0.026628      0.041345
      2.47885      5.32238      9.72717        -0.001878     -0.070198     -0.000934
      1.66487      6.17482      5.56717         0.121029     -0.016229     -0.098360
      1.69520      6.29930     13.71879        -0.096044      0.012878      0.088754
     -1.72242      0.53678     10.45513        -0.131403     -0.004435      0.091915
     -1.69135      0.43897      2.45376         0.064132     -0.005067     -0.055957
      5.87150     11.43107      6.53992         0.243799      4.722656      1.139020
     -2.51077     11.38597      6.48593        -0.018598      0.012852      0.004144
     -5.89215      0.41457      9.67557         0.006064     -0.026695      0.041369
      2.47885      0.55953      9.72717        -0.001897      0.070198     -0.000926
      1.66488     11.47090      5.56714         0.121023      0.016268     -0.098275
      1.69521     11.34640     13.71879        -0.096044     -0.012869      0.088729
      5.87149      6.21466      6.53993         0.243819     -4.722457      1.138973
     -2.51076      6.25976      6.48593        -0.018634     -0.012863      0.004096
     -1.72243      5.34516     10.45514        -0.131450      0.004461      0.091906
     -1.69140      5.44290      2.45374         0.064203      0.005075     -0.055946
      5.74096      8.82287      6.00720         0.373295     -0.000294     -0.646625
 -----------------------------------------------------------------------------------
    total drift:                               -0.017916     -0.000202      0.019203


--------------------------------------------------------------------------------------------------------



  FREE ENERGIE OF THE ION-ELECTRON SYSTEM (eV)
  ---------------------------------------------------
  free  energy   TOTEN  =     -1383.53199776 eV

  energy  without entropy=    -1383.53199776  energy(sigma->0) =    -1383.53199776



--------------------------------------------------------------------------------------------------------


    POTLOK:  cpu time    1.4340: real time    1.4341


--------------------------------------------------------------------------------------------------------


 stress matrix after NEB project (eV)
      4.77694      0.00009      3.69303
      0.00009     31.54622     -0.00002
      3.69297     -0.00002      9.13349
  FORCES: max atom, RMS     4.864184    1.147604
  FORCE total and by dimension    7.166784    4.722656
  Stress total and by dimension   33.595840   31.546221
     LOOP+:  cpu time  480.7062: real time  481.4154
    4ORBIT:  cpu time    0.0000: real time    0.0000



 total charge     

# of ion       s       p       d       tot
------------------------------------------
    1        1.787   4.722   0.021   6.530
    2        1.786   4.721   0.020   6.528
    3        1.786   4.721   0.019   6.527
    4        1.787   4.721   0.021   6.529
    5        1.787   4.721   0.021   6.529
    6        1.786   4.721   0.020   6.527
    7        1.554   0.423   9.834  11.810
    8        1.555   0.417   9.833  11.805
    9        1.553   0.428   9.833  11.814
   10        1.555   0.420   9.834  11.808
   11        1.553   0.428   9.833  11.814
   12        1.555   0.420   9.834  11.808
   13        1.554   0.423   9.834  11.810
   14        1.555   0.417   9.833  11.805
   15        1.619   3.314   0.010   4.943
   16        1.615   3.282   0.006   4.903
   17        1.614   3.289   0.006   4.910
   18        1.614   3.292   0.006   4.912
   19        1.615   3.292   0.007   4.914
   20        1.615   3.274   0.006   4.895
   21        1.614   3.288   0.006   4.908
   22        1.614   3.292   0.006   4.912
   23        1.614   3.286   0.006   4.905
   24        1.614   3.286   0.006   4.906
   25        1.614   3.286   0.006   4.906
   26        1.615   3.278   0.006   4.899
   27        1.614   3.285   0.006   4.905
   28        1.614   3.288   0.006   4.908
   29        1.629   3.344   0.019   4.992
   30        1.614   3.289   0.006   4.909
   31        1.614   3.286   0.006   4.905
   32        1.614   3.286   0.006   4.906
   33        1.614   3.286   0.006   4.906
   34        1.615   3.278   0.006   4.899
   35        1.629   3.344   0.019   4.992
   36        1.614   3.289   0.006   4.909
   37        1.614   3.285   0.006   4.905
   38        1.614   3.288   0.006   4.908
   39        1.833   4.748   0.152   6.733
--------------------------------------------------
tot         63.761 115.460  79.115 258.336


 total amount of memory used by VASP MPI-rank0    61021. kBytes
=======================================================================

   base      :      30000. kBytes
   nonlr-proj:       6433. kBytes
   fftplans  :       8423. kBytes
   grid      :       7942. kBytes
   one-center:         77. kBytes
   wavefun   :       8146. kBytes

  
  
 General timing and accounting informations for this job:
 ========================================================
  
                  Total CPU time used (sec):      493.084
                            User time (sec):      491.528
                          System time (sec):        1.556
                         Elapsed time (sec):      494.271
  
                   Maximum memory used (kb):       79228.
                   Average memory used (kb):           0.
  
                          Minor page faults:        21210
                          Major page faults:            0
                 Voluntary context switches:         1917
