<?xml version="1.0" encoding="ISO-8859-1"?>
<modeling>
 <generator>
  <i name="program" type="string">vasp </i>
  <i name="version" type="string">5.4.4.18Apr17-6-g9f103f2a35  </i>
  <i name="subversion" type="string">(build Jun 22 2020 09:27:21) complex            parallel </i>
  <i name="platform" type="string">tx2_gcc-7.3_libsci-18.07_cray-fftw-3.3.8 </i>
  <i name="date" type="string">2021 10 12 </i>
  <i name="time" type="string">05:44:31 </i>
 </generator>
 <incar>
  <i type="string" name="SYSTEM"> CsPbBr3 cubic bulk</i>
  <i type="string" name="PREC">accurate</i>
  <i type="string" name="ALGO"> NORMAL   ! Electronic minimisation algo</i>
  <i type="logical" name="ADDGRID"> T  </i>
  <i type="int" name="ISPIN">     1</i>
  <i type="int" name="NELM">   200</i>
  <i type="int" name="IBRION">     2</i>
  <i name="EDIFF">      0.00000100</i>
  <i name="EDIFFG">     -0.01000000</i>
  <i type="int" name="NSW">     0</i>
  <i type="int" name="ISIF">     2</i>
  <i type="int" name="ISYM">     0</i>
  <i name="ENCUT">    300.00000000</i>
  <i name="POTIM">      0.50000000</i>
  <i name="NUPDOWN">      0.00000000</i>
  <i name="NELECT">    344.00000000</i>
  <i type="string" name="LREAL"> AUTO</i>
  <i type="int" name="ISMEAR">     0</i>
  <i name="SIGMA">      0.01000000</i>
  <i type="logical" name="LWAVE"> F  </i>
  <i type="logical" name="LCHARG"> F  </i>
  <i type="logical" name="LVHAR"> T  </i>
  <i type="int" name="LORBIT">    10</i>
  <i type="logical" name="LASPH"> T  </i>
  <v type="int" name="KPOINT_BSE">    -1     0     0     0</v>
  <i type="int" name="NELM">   200</i>
  <i type="string" name="METAGGA"> SCAN       ! PBE exchange-correlation</i>
  <i type="logical" name="LASPH"> T  </i>
 </incar>
 <structure name="primitive_cell" >
  <crystal>
   <varray name="basis" >
    <v>       8.42001800       0.00000000       8.07798100 </v>
    <v>       0.00000000      11.76380800       0.00000000 </v>
    <v>      -8.42001800       0.00000000       8.07798100 </v>
   </varray>
   <i name="volume">   1600.27186790 </i>
   <varray name="rec_basis" >
    <v>       0.05938230      -0.00000000       0.06189665 </v>
    <v>       0.00000000       0.08500649      -0.00000000 </v>
    <v>      -0.05938230       0.00000000       0.06189665 </v>
   </varray>
  </crystal>
  <varray name="positions" >
   <v>       0.27088800       0.25000000       0.20230000 </v>
   <v>       0.05144300       0.03731500       0.25231600 </v>
   <v>       0.05143900       0.46268200       0.25231700 </v>
   <v>       0.45400800       0.25000100       0.46570100 </v>
   <v>      -0.46962800       0.25000100       0.03449800 </v>
   <v>       0.44345200      -0.02489900       0.24572300 </v>
   <v>       0.44345300      -0.47510000       0.24572500 </v>
   <v>       0.24899600       0.03524100      -0.05122500 </v>
   <v>       0.24899600       0.46476100      -0.05122500 </v>
   <v>      -0.02995000       0.24999700      -0.02870700 </v>
   <v>      -0.49663700      -0.49772200      -0.00270100 </v>
   <v>      -0.49663600      -0.00228200      -0.00270500 </v>
   <v>      -0.00085700      -0.49683100       0.00008700 </v>
   <v>      -0.00086400      -0.00317800       0.00008600 </v>
   <v>       0.03271900       0.24999900      -0.45858500 </v>
   <v>      -0.49699700       0.00030800       0.49694500 </v>
   <v>      -0.49699700       0.49970100       0.49694300 </v>
   <v>       0.25236300      -0.46788000      -0.44944800 </v>
   <v>       0.25236200      -0.03211900      -0.44944700 </v>
   <v>       0.29137000       0.24999900      -0.27134900 </v>
   <v>      -0.20877800       0.24999900       0.22493000 </v>
   <v>      -0.00039600      -0.00053600      -0.49950700 </v>
   <v>      -0.00040100      -0.49946600      -0.49950300 </v>
   <v>       0.23638600      -0.24999900       0.29576200 </v>
   <v>      -0.25072100       0.04756400       0.45487900 </v>
   <v>      -0.25072100       0.45243700       0.45487900 </v>
   <v>       0.05026700      -0.25000300       0.03454400 </v>
   <v>      -0.45514400       0.04563000      -0.25058100 </v>
   <v>      -0.45514400       0.45437300      -0.25058000 </v>
   <v>      -0.24653800      -0.02828500       0.05613600 </v>
   <v>      -0.24653800      -0.47171400       0.05613700 </v>
   <v>       0.46093100      -0.24999700      -0.03623600 </v>
   <v>      -0.05018700      -0.03548200      -0.25151800 </v>
   <v>      -0.05018800      -0.46451900      -0.25151800 </v>
   <v>      -0.02219300      -0.25000100       0.46251100 </v>
   <v>      -0.47653000      -0.24999800      -0.47327900 </v>
   <v>       0.20661500      -0.25000000      -0.23227800 </v>
   <v>      -0.22443500       0.25000100      -0.28488700 </v>
   <v>      -0.28726300      -0.24999900       0.03091400 </v>
  </varray>
 </structure>
 <varray name="primitive_index" >
  <v type="int" >        1 </v>
  <v type="int" >       28 </v>
  <v type="int" >       38 </v>
  <v type="int" >       18 </v>
  <v type="int" >       21 </v>
  <v type="int" >       33 </v>
  <v type="int" >       25 </v>
  <v type="int" >       31 </v>
  <v type="int" >       23 </v>
  <v type="int" >       17 </v>
  <v type="int" >       11 </v>
  <v type="int" >        9 </v>
  <v type="int" >       13 </v>
  <v type="int" >        7 </v>
  <v type="int" >       22 </v>
  <v type="int" >        8 </v>
  <v type="int" >       14 </v>
  <v type="int" >       36 </v>
  <v type="int" >       30 </v>
  <v type="int" >        4 </v>
  <v type="int" >        5 </v>
  <v type="int" >       10 </v>
  <v type="int" >       12 </v>
  <v type="int" >        6 </v>
  <v type="int" >       32 </v>
  <v type="int" >       24 </v>
  <v type="int" >       19 </v>
  <v type="int" >       27 </v>
  <v type="int" >       37 </v>
  <v type="int" >       29 </v>
  <v type="int" >       35 </v>
  <v type="int" >       15 </v>
  <v type="int" >       34 </v>
  <v type="int" >       26 </v>
  <v type="int" >       16 </v>
  <v type="int" >       20 </v>
  <v type="int" >        3 </v>
  <v type="int" >        2 </v>
  <v type="int" >       39 </v>
 </varray>
 <kpoints>
  <generation param="Gamma">
   <v type="int" name="divisions">       2        2        2 </v>
   <v name="usershift">      0.00000000       0.00000000       0.00000000 </v>
   <v name="genvec1">      0.50000000       0.00000000       0.00000000 </v>
   <v name="genvec2">      0.00000000       0.50000000       0.00000000 </v>
   <v name="genvec3">      0.00000000       0.00000000       0.50000000 </v>
   <v name="shift">      0.00000000       0.00000000       0.00000000 </v>
  </generation>
  <varray name="kpointlist" >
   <v>       0.00000000       0.00000000       0.00000000 </v>
   <v>       0.50000000       0.00000000       0.00000000 </v>
   <v>       0.00000000       0.50000000       0.00000000 </v>
   <v>       0.50000000       0.50000000       0.00000000 </v>
   <v>       0.00000000       0.00000000       0.50000000 </v>
   <v>       0.50000000       0.00000000       0.50000000 </v>
   <v>       0.00000000       0.50000000       0.50000000 </v>
   <v>       0.50000000       0.50000000       0.50000000 </v>
  </varray>
  <varray name="weights" >
   <v>       0.12500000 </v>
   <v>       0.12500000 </v>
   <v>       0.12500000 </v>
   <v>       0.12500000 </v>
   <v>       0.12500000 </v>
   <v>       0.12500000 </v>
   <v>       0.12500000 </v>
   <v>       0.12500000 </v>
  </varray>
 </kpoints>
 <parameters>
  <separator name="general" >
   <i type="string" name="SYSTEM">CsPbBr3 cubic bulk</i>
   <i type="logical" name="LCOMPAT"> F  </i>
  </separator>
  <separator name="electronic" >
   <i type="string" name="PREC">accura</i>
   <i name="ENMAX">    300.00000000</i>
   <i name="ENAUG">    503.85200000</i>
   <i name="EDIFF">      0.00000100</i>
   <i type="int" name="IALGO">    38</i>
   <i type="int" name="IWAVPR">    10</i>
   <i type="int" name="NBANDS">   208</i>
   <i name="NELECT">    344.00000000</i>
   <i type="int" name="TURBO">     0</i>
   <i type="int" name="IRESTART">     0</i>
   <i type="int" name="NREBOOT">     0</i>
   <i type="int" name="NMIN">     0</i>
   <i name="EREF">      0.00000000</i>
   <separator name="electronic smearing" >
    <i type="int" name="ISMEAR">     0</i>
    <i name="SIGMA">      0.01000000</i>
    <i name="KSPACING">      0.50000000</i>
    <i type="logical" name="KGAMMA"> T  </i>
   </separator>
   <separator name="electronic projectors" >
    <i type="logical" name="LREAL"> T  </i>
    <v name="ROPT">     -0.00025000     -0.00025000     -0.00025000     -0.00025000</v>
    <i type="int" name="LMAXPAW">  -100</i>
    <i type="int" name="LMAXMIX">     2</i>
    <i type="logical" name="NLSPLINE"> F  </i>
   </separator>
   <separator name="electronic startup" >
    <i type="int" name="ISTART">     0</i>
    <i type="int" name="ICHARG">     2</i>
    <i type="int" name="INIWAV">     1</i>
   </separator>
   <separator name="electronic spin" >
    <i type="int" name="ISPIN">     1</i>
    <i type="logical" name="LNONCOLLINEAR"> F  </i>
    <v name="MAGMOM">      0.00000000      0.00000000      0.00000000      0.00000000      0.00000000      0.00000000      0.00000000      0.00000000      0.00000000      0.00000000      0.00000000      0.00000000      0.00000000      0.00000000      0.00000000      0.00000000      0.00000000      0.00000000      0.00000000      0.00000000
      0.00000000      0.00000000      0.00000000      0.00000000      0.00000000      0.00000000      0.00000000      0.00000000      0.00000000      0.00000000      0.00000000      0.00000000      0.00000000      0.00000000      0.00000000      0.00000000      0.00000000      0.00000000      0.00000000</v>
    <i name="NUPDOWN">      0.00000000</i>
    <i type="logical" name="LSORBIT"> F  </i>
    <v name="SAXIS">      0.00000000      0.00000000      1.00000000</v>
    <i type="logical" name="LSPIRAL"> F  </i>
    <v name="QSPIRAL">      0.00000000      0.00000000      0.00000000</v>
    <i type="logical" name="LZEROZ"> F  </i>
   </separator>
   <separator name="electronic exchange-correlation" >
    <i type="logical" name="LASPH"> T  </i>
    <i type="logical" name="LMETAGGA"> F  </i>
   </separator>
   <separator name="electronic convergence" >
    <i type="int" name="NELM">   200</i>
    <i type="int" name="NELMDL">    -5</i>
    <i type="int" name="NELMIN">     2</i>
    <i name="ENINI">    300.00000000</i>
    <separator name="electronic convergence detail" >
     <i type="logical" name="LDIAG"> T  </i>
     <i type="logical" name="LSUBROT"> F  </i>
     <i name="WEIMIN">      0.00000000</i>
     <i name="EBREAK">      0.00000000</i>
     <i name="DEPER">      0.30000000</i>
     <i type="int" name="NRMM">     4</i>
     <i name="TIME">      0.40000000</i>
    </separator>
   </separator>
   <separator name="electronic mixer" >
    <i name="AMIX">      0.40000000</i>
    <i name="BMIX">      1.00000000</i>
    <i name="AMIN">      0.10000000</i>
    <i name="AMIX_MAG">      1.60000000</i>
    <i name="BMIX_MAG">      1.00000000</i>
    <separator name="electronic mixer details" >
     <i type="int" name="IMIX">     4</i>
     <i type="logical" name="MIXFIRST"> F  </i>
     <i type="int" name="MAXMIX">   -45</i>
     <i name="WC">    100.00000000</i>
     <i type="int" name="INIMIX">     1</i>
     <i type="int" name="MIXPRE">     1</i>
     <i type="int" name="MREMOVE">     5</i>
    </separator>
   </separator>
   <separator name="electronic dipolcorrection" >
    <i type="logical" name="LDIPOL"> F  </i>
    <i type="logical" name="LMONO"> F  </i>
    <i type="int" name="IDIPOL">     0</i>
    <i name="EPSILON">      1.00000000</i>
    <v name="DIPOL">   -100.00000000   -100.00000000   -100.00000000</v>
    <i name="EFIELD">      0.00000000</i>
   </separator>
  </separator>
  <separator name="grids" >
   <i type="int" name="NGX">    70</i>
   <i type="int" name="NGY">    70</i>
   <i type="int" name="NGZ">    70</i>
   <i type="int" name="NGXF">   140</i>
   <i type="int" name="NGYF">   140</i>
   <i type="int" name="NGZF">   140</i>
   <i type="logical" name="ADDGRID"> T  </i>
  </separator>
  <separator name="ionic" >
   <i type="int" name="NSW">     0</i>
   <i type="int" name="IBRION">    -1</i>
   <i type="int" name="MDALGO">     0</i>
   <i type="int" name="ISIF">     2</i>
   <i name="PSTRESS">      0.00000000</i>
   <i name="EDIFFG">     -0.01000000</i>
   <i type="int" name="NFREE">     1</i>
   <i name="POTIM">      0.50000000</i>
   <i name="SMASS">     -3.00000000</i>
   <i name="SCALEE">      1.00000000</i>
  </separator>
  <separator name="ionic md" >
   <i name="TEBEG">      0.00010000</i>
   <i name="TEEND">      0.00010000</i>
   <i type="int" name="NBLOCK">     1</i>
   <i type="int" name="KBLOCK">     1</i>
   <i type="int" name="NPACO">   256</i>
   <i name="APACO">     16.00000000</i>
  </separator>
  <separator name="symmetry" >
   <i type="int" name="ISYM">     0</i>
   <i name="SYMPREC">      0.00001000</i>
  </separator>
  <separator name="dos" >
   <i type="int" name="LORBIT">    10</i>
   <v name="RWIGS">     -1.00000000     -1.00000000     -1.00000000     -1.00000000</v>
   <i type="int" name="NEDOS">   301</i>
   <i name="EMIN">     10.00000000</i>
   <i name="EMAX">    -10.00000000</i>
   <i name="EFERMI">      0.00000000</i>
  </separator>
  <separator name="writing" >
   <i type="int" name="NWRITE">     2</i>
   <i type="logical" name="LWAVE"> F  </i>
   <i type="logical" name="LDOWNSAMPLE"> F  </i>
   <i type="logical" name="LCHARG"> F  </i>
   <i type="logical" name="LPARD"> F  </i>
   <i type="logical" name="LVTOT"> F  </i>
   <i type="logical" name="LVHAR"> T  </i>
   <i type="logical" name="LELF"> F  </i>
   <i type="logical" name="LOPTICS"> F  </i>
   <v name="STM">      0.00000000      0.00000000      0.00000000      0.00000000      0.00000000      0.00000000      0.00000000</v>
  </separator>
  <separator name="performance" >
   <i type="int" name="NPAR">     8</i>
   <i type="int" name="NSIM">     4</i>
   <i type="int" name="NBLK">    -1</i>
   <i type="logical" name="LPLANE"> T  </i>
   <i type="logical" name="LSCALAPACK"> T  </i>
   <i type="logical" name="LSCAAWARE"> F  </i>
   <i type="logical" name="LSCALU"> F  </i>
   <i type="logical" name="LASYNC"> F  </i>
   <i type="logical" name="LORBITALREAL"> F  </i>
  </separator>
  <separator name="miscellaneous" >
   <i type="int" name="IDIOT">     3</i>
   <i type="int" name="ISPECIAL">     0</i>
   <i type="logical" name="LMUSIC"> F  </i>
   <v name="POMASS">    132.90000000    207.20000000     79.90400000    132.90000000</v>
   <v name="DARWINR">      0.00000000      0.00000000      0.00000000      0.00000000</v>
   <v name="DARWINV">      1.00000000      1.00000000      1.00000000      1.00000000</v>
   <i type="logical" name="LCORR"> T  </i>
  </separator>
  <i type="logical" name="GGA_COMPAT"> T  </i>
  <i type="logical" name="LBERRY"> F  </i>
  <i type="int" name="ICORELEVEL">     0</i>
  <i type="logical" name="LDAU"> F  </i>
  <i type="int" name="I_CONSTRAINED_M">     0</i>
  <separator name="electronic exchange-correlation" >
   <i type="string" name="GGA">--</i>
   <i type="int" name="VOSKOWN">     0</i>
   <i type="logical" name="LHFCALC"> F  </i>
   <i type="string" name="PRECFOCK"></i>
   <i type="logical" name="LSYMGRAD"> F  </i>
   <i type="logical" name="LHFONE"> F  </i>
   <i type="logical" name="LRHFCALC"> F  </i>
   <i type="logical" name="LTHOMAS"> F  </i>
   <i type="logical" name="LMODELHF"> F  </i>
   <i name="ENCUT4O">     -1.00000000</i>
   <i type="int" name="EXXOEP">     0</i>
   <i type="int" name="FOURORBIT">     0</i>
   <i name="AEXX">      0.00000000</i>
   <i name="HFALPHA">      0.00000000</i>
   <i name="MCALPHA">      0.00000000</i>
   <i name="ALDAX">      1.00000000</i>
   <i name="AGGAX">      1.00000000</i>
   <i name="ALDAC">      1.00000000</i>
   <i name="AGGAC">      1.00000000</i>
   <i type="int" name="NKREDX">     1</i>
   <i type="int" name="NKREDY">     1</i>
   <i type="int" name="NKREDZ">     1</i>
   <i type="logical" name="SHIFTRED"> F  </i>
   <i type="logical" name="ODDONLY"> F  </i>
   <i type="logical" name="EVENONLY"> F  </i>
   <i type="int" name="LMAXFOCK">     0</i>
   <i type="int" name="NMAXFOCKAE">     0</i>
   <i type="logical" name="LFOCKAEDFT"> F  </i>
   <i name="HFSCREEN">      0.00000000</i>
   <i name="HFSCREENC">      0.00000000</i>
   <i type="int" name="NBANDSGWLOW">     0</i>
  </separator>
  <separator name="vdW DFT" >
   <i type="logical" name="LUSE_VDW"> F  </i>
   <i name="Zab_VDW">     -0.84910000</i>
   <i name="PARAM1">      0.12340000</i>
   <i name="PARAM2">      1.00000000</i>
   <i name="PARAM3">      0.00000000</i>
  </separator>
  <separator name="model GW" >
   <i type="int" name="MODEL_GW">     0</i>
   <i name="MODEL_EPS0">     24.61956720</i>
   <i name="MODEL_ALPHA">      1.00000000</i>
  </separator>
  <separator name="linear response parameters" >
   <i type="logical" name="LEPSILON"> F  </i>
   <i type="logical" name="LRPA"> F  </i>
   <i type="logical" name="LNABLA"> F  </i>
   <i type="logical" name="LVEL"> F  </i>
   <i type="int" name="KINTER">     0</i>
   <i name="CSHIFT">      0.10000000</i>
   <i name="OMEGAMAX">     -1.00000000</i>
   <i name="DEG_THRESHOLD">      0.00200000</i>
   <i name="RTIME">     -0.10000000</i>
   <i name="WPLASMAI">      0.00000000</i>
   <v name="DFIELD">      0.00000000      0.00000000      0.00000000</v>
   <v name="WPLASMA">      0.00000000      0.00000000      0.00000000      0.00000000      0.00000000      0.00000000      0.00000000      0.00000000      0.00000000</v>
  </separator>
  <separator name="orbital magnetization" >
   <i type="logical" name="NUCIND"> F  </i>
   <v name="MAGPOS">      0.00000000      0.00000000      0.00000000</v>
   <i type="logical" name="LNICSALL"> T  </i>
   <i type="logical" name="ORBITALMAG"> F  </i>
   <i type="logical" name="LMAGBLOCH"> F  </i>
   <i type="logical" name="LCHIMAG"> F  </i>
   <i type="logical" name="LGAUGE"> T  </i>
   <i type="int" name="MAGATOM">     0</i>
   <v name="MAGDIPOL">      0.00000000      0.00000000      0.00000000</v>
   <v name="AVECCONST">      0.00000000      0.00000000      0.00000000</v>
  </separator>
  <separator name="response functions" >
   <i type="logical" name="LADDER"> F  </i>
   <i type="logical" name="LRPAFORCE"> F  </i>
   <i type="logical" name="LFXC"> F  </i>
   <i type="logical" name="LHARTREE"> T  </i>
   <i type="int" name="IBSE">     0</i>
   <v type="int" name="KPOINT">    -1     0     0     0</v>
   <i type="logical" name="LTCTE"> F  </i>
   <i type="logical" name="LTETE"> F  </i>
   <i type="logical" name="LTRIPLET"> F  </i>
   <i type="logical" name="LFXCEPS"> F  </i>
   <i type="logical" name="LFXHEG"> F  </i>
   <i type="int" name="NATURALO">     2</i>
   <i type="logical" name="L2ORDER"> F  </i>
   <i type="logical" name="LMP2LT"> F  </i>
   <i type="logical" name="LUSEW"> F  </i>
   <i name="ENCUTGW">     -2.00000000</i>
   <i name="ENCUTGWSOFT">     -2.00000000</i>
   <i name="ENCUTLF">     -1.00000000</i>
   <i type="int" name="LMAXMP2">    -1</i>
   <i name="SCISSOR">      0.00000000</i>
   <i type="int" name="NOMEGA">     0</i>
   <i type="int" name="NOMEGAR">     0</i>
   <i type="int" name="NBANDSGW">    -1</i>
   <i type="int" name="NBANDSO">    -1</i>
   <i type="int" name="NBANDSV">    -1</i>
   <i type="int" name="NELM">   200</i>
   <i type="int" name="NELMHF">     1</i>
   <i type="int" name="DIM">     3</i>
   <i type="int" name="ANTIRES">     0</i>
   <i name="OMEGAMAX">    -30.00000000</i>
   <i name="OMEGAMIN">    -30.00000000</i>
   <i name="OMEGATL">   -200.00000000</i>
   <i type="int" name="OMEGAGRID">   140</i>
   <i name="CSHIFT">     -0.10000000</i>
   <i type="logical" name="SELFENERGY"> F  </i>
   <i type="logical" name="LSPECTRAL"> F  </i>
   <i type="logical" name="LSPECTRALGW"> F  </i>
   <i type="logical" name="LSINGLES"> F  </i>
   <i type="logical" name="LFERMIGW"> F  </i>
   <i type="logical" name="ODDONLYGW"> F  </i>
   <i type="logical" name="EVENONLYGW"> F  </i>
   <i type="int" name="NKREDLFX">     1</i>
   <i type="int" name="NKREDLFY">     1</i>
   <i type="int" name="NKREDLFZ">     1</i>
   <i type="int" name="MAXMEM">  2800</i>
   <i type="int" name="TELESCOPE">     0</i>
   <i type="int" name="TAUPAR">     1</i>
   <i type="int" name="OMEGAPAR">    -1</i>
   <i name="LAMBDA">      1.00000000</i>
  </separator>
  <separator name="External order field" >
   <i name="OFIELD_KAPPA">      0.00000000</i>
   <v name="OFIELD_K">      0.00000000      0.00000000      0.00000000</v>
   <i name="OFIELD_Q6_NEAR">      0.00000000</i>
   <i name="OFIELD_Q6_FAR">      0.00000000</i>
   <i name="OFIELD_A">      0.00000000</i>
  </separator>
 </parameters>
 <atominfo>
  <atoms>      39 </atoms>
  <types>       4 </types>
  <array name="atoms" >
   <dimension dim="1">ion</dimension>
   <field type="string">element</field>
   <field type="int">atomtype</field>
   <set>
    <rc><c>Cs</c><c>   1</c></rc>
    <rc><c>Cs</c><c>   1</c></rc>
    <rc><c>Cs</c><c>   1</c></rc>
    <rc><c>Cs</c><c>   1</c></rc>
    <rc><c>Cs</c><c>   1</c></rc>
    <rc><c>Cs</c><c>   1</c></rc>
    <rc><c>Pb</c><c>   2</c></rc>
    <rc><c>Pb</c><c>   2</c></rc>
    <rc><c>Pb</c><c>   2</c></rc>
    <rc><c>Pb</c><c>   2</c></rc>
    <rc><c>Pb</c><c>   2</c></rc>
    <rc><c>Pb</c><c>   2</c></rc>
    <rc><c>Pb</c><c>   2</c></rc>
    <rc><c>Pb</c><c>   2</c></rc>
    <rc><c>Br</c><c>   3</c></rc>
    <rc><c>Br</c><c>   3</c></rc>
    <rc><c>Br</c><c>   3</c></rc>
    <rc><c>Br</c><c>   3</c></rc>
    <rc><c>Br</c><c>   3</c></rc>
    <rc><c>Br</c><c>   3</c></rc>
    <rc><c>Br</c><c>   3</c></rc>
    <rc><c>Br</c><c>   3</c></rc>
    <rc><c>Br</c><c>   3</c></rc>
    <rc><c>Br</c><c>   3</c></rc>
    <rc><c>Br</c><c>   3</c></rc>
    <rc><c>Br</c><c>   3</c></rc>
    <rc><c>Br</c><c>   3</c></rc>
    <rc><c>Br</c><c>   3</c></rc>
    <rc><c>Br</c><c>   3</c></rc>
    <rc><c>Br</c><c>   3</c></rc>
    <rc><c>Br</c><c>   3</c></rc>
    <rc><c>Br</c><c>   3</c></rc>
    <rc><c>Br</c><c>   3</c></rc>
    <rc><c>Br</c><c>   3</c></rc>
    <rc><c>Br</c><c>   3</c></rc>
    <rc><c>Br</c><c>   3</c></rc>
    <rc><c>Br</c><c>   3</c></rc>
    <rc><c>Br</c><c>   3</c></rc>
    <rc><c>Cs</c><c>   4</c></rc>
   </set>
  </array>
  <array name="atomtypes" >
   <dimension dim="1">type</dimension>
   <field type="int">atomspertype</field>
   <field type="string">element</field>
   <field>mass</field>
   <field>valence</field>
   <field type="string">pseudopotential</field>
   <set>
    <rc><c>   6</c><c>Cs</c><c>    132.90000000</c><c>      9.00000000</c><c>  PAW_PBE Cs_sv 08Apr2002               </c></rc>
    <rc><c>   8</c><c>Pb</c><c>    207.20000000</c><c>     14.00000000</c><c>  PAW_PBE Pb_d 06Sep2000                </c></rc>
    <rc><c>  24</c><c>Br</c><c>     79.90400000</c><c>      7.00000000</c><c>  PAW_PBE Br 06Sep2000                  </c></rc>
    <rc><c>   1</c><c>Cs</c><c>    132.90000000</c><c>      9.00000000</c><c>  PAW_PBE Cs_sv 08Apr2002               </c></rc>
   </set>
  </array>
 </atominfo>
 <structure name="initialpos" >
  <crystal>
   <varray name="basis" >
    <v>       8.42001800       0.00000000       8.07798100 </v>
    <v>       0.00000000      11.76380800       0.00000000 </v>
    <v>      -8.42001800       0.00000000       8.07798100 </v>
   </varray>
   <i name="volume">   1600.27186790 </i>
   <varray name="rec_basis" >
    <v>       0.05938230      -0.00000000       0.06189665 </v>
    <v>       0.00000000       0.08500649      -0.00000000 </v>
    <v>      -0.05938230       0.00000000       0.06189665 </v>
   </varray>
  </crystal>
  <varray name="positions" >
   <v>       0.27088800       0.25000000       0.20230000 </v>
   <v>       0.77556500       0.25000100       0.71511300 </v>
   <v>       0.20661500       0.75000000       0.76772200 </v>
   <v>       0.29137000       0.24999900       0.72865100 </v>
   <v>       0.79122200       0.24999900       0.22493000 </v>
   <v>       0.23638600       0.75000100       0.29576200 </v>
   <v>       0.99913600       0.99682200       0.00008600 </v>
   <v>       0.50300300       0.00030800       0.49694500 </v>
   <v>       0.50336400       0.99771800       0.99729500 </v>
   <v>       0.99960400       0.99946400       0.50049300 </v>
   <v>       0.50336300       0.50227800       0.99729900 </v>
   <v>       0.99959900       0.50053400       0.50049700 </v>
   <v>       0.99914300       0.50316900       0.00008700 </v>
   <v>       0.50300300       0.49970100       0.49694300 </v>
   <v>       0.46093100       0.75000300       0.96376400 </v>
   <v>       0.97780700       0.74999900       0.46251100 </v>
   <v>       0.97005000       0.24999700       0.97129300 </v>
   <v>       0.45400800       0.25000100       0.46570100 </v>
   <v>       0.05026700       0.74999700       0.03454400 </v>
   <v>       0.52347000       0.75000200       0.52672100 </v>
   <v>       0.53037200       0.25000100       0.03449800 </v>
   <v>       0.03271900       0.24999900       0.54141500 </v>
   <v>       0.24899600       0.46476100       0.94877500 </v>
   <v>       0.74927900       0.45243700       0.45487900 </v>
   <v>       0.44345300       0.52490000       0.24572500 </v>
   <v>       0.94981200       0.53548100       0.74848200 </v>
   <v>       0.54485600       0.04563000       0.74941900 </v>
   <v>       0.05144300       0.03731500       0.25231600 </v>
   <v>       0.75346200       0.97171500       0.05613600 </v>
   <v>       0.25236200       0.96788100       0.55055300 </v>
   <v>       0.24899600       0.03524100       0.94877500 </v>
   <v>       0.74927900       0.04756400       0.45487900 </v>
   <v>       0.44345200       0.97510100       0.24572300 </v>
   <v>       0.94981300       0.96451800       0.74848200 </v>
   <v>       0.75346200       0.52828600       0.05613700 </v>
   <v>       0.25236300       0.53212000       0.55055200 </v>
   <v>       0.54485600       0.45437300       0.74942000 </v>
   <v>       0.05143900       0.46268200       0.25231700 </v>
   <v>       0.71273700       0.75000100       0.03091400 </v>
  </varray>
 </structure>
 <calculation>
  <scstep>
   <time name="dav">   16.63   16.64</time>
   <time name="total">   18.09   18.10</time>
   <energy>
    <i name="alphaZ">    835.99855037 </i>
    <i name="ewald"> -17372.74596314 </i>
    <i name="hartreedc">  -7744.25607007 </i>
    <i name="XCdc">    906.18806325 </i>
    <i name="pawpsdc">  21217.07306836 </i>
    <i name="pawaedc"> -22257.58625956 </i>
    <i name="eentropy">     -0.00001630 </i>
    <i name="bandstr">   -245.45511115 </i>
    <i name="atom">  26024.88362379 </i>
    <i name="e_fr_energy">   1364.09988554 </i>
    <i name="e_wo_entrp">   1364.09990184 </i>
    <i name="e_0_energy">   1364.09989369 </i>
   </energy>
  </scstep>
  <scstep>
   <time name="dav">   18.49   18.53</time>
   <time name="total">   18.49   18.53</time>
   <energy>
    <i name="e_fr_energy">  -1087.61380019 </i>
    <i name="e_wo_entrp">  -1087.61380019 </i>
    <i name="e_0_energy">  -1087.61380019 </i>
   </energy>
  </scstep>
  <scstep>
   <time name="dav">   19.26   19.31</time>
   <time name="total">   19.26   19.31</time>
   <energy>
    <i name="e_fr_energy">  -1449.86858235 </i>
    <i name="e_wo_entrp">  -1449.86858235 </i>
    <i name="e_0_energy">  -1449.86858235 </i>
   </energy>
  </scstep>
  <scstep>
   <time name="dav">   18.22   18.23</time>
   <time name="total">   18.22   18.23</time>
   <energy>
    <i name="e_fr_energy">  -1462.39537152 </i>
    <i name="e_wo_entrp">  -1462.39537152 </i>
    <i name="e_0_energy">  -1462.39537152 </i>
   </energy>
  </scstep>
  <scstep>
   <time name="dav">   19.38   19.40</time>
   <time name="total">   22.09   22.11</time>
   <energy>
    <i name="e_fr_energy">  -1462.91718173 </i>
    <i name="e_wo_entrp">  -1462.91718173 </i>
    <i name="e_0_energy">  -1462.91718173 </i>
   </energy>
  </scstep>
  <scstep>
   <time name="dav">   19.19   19.19</time>
   <time name="total">   23.34   23.39</time>
   <energy>
    <i name="e_fr_energy">  -1383.64840491 </i>
    <i name="e_wo_entrp">  -1383.64840491 </i>
    <i name="e_0_energy">  -1383.64840491 </i>
   </energy>
  </scstep>
  <scstep>
   <time name="dav">   18.45   18.45</time>
   <time name="total">   22.59   22.63</time>
   <energy>
    <i name="e_fr_energy">  -1383.25693946 </i>
    <i name="e_wo_entrp">  -1383.25693946 </i>
    <i name="e_0_energy">  -1383.25693946 </i>
   </energy>
  </scstep>
  <scstep>
   <time name="dav">   17.84   17.84</time>
   <time name="total">   22.02   22.04</time>
   <energy>
    <i name="e_fr_energy">  -1383.44114544 </i>
    <i name="e_wo_entrp">  -1383.44114544 </i>
    <i name="e_0_energy">  -1383.44114544 </i>
   </energy>
  </scstep>
  <scstep>
   <time name="dav">   17.06   17.06</time>
   <time name="total">   21.24   21.26</time>
   <energy>
    <i name="e_fr_energy">  -1383.52428784 </i>
    <i name="e_wo_entrp">  -1383.52428784 </i>
    <i name="e_0_energy">  -1383.52428784 </i>
   </energy>
  </scstep>
  <scstep>
   <time name="dav">   20.23   20.23</time>
   <time name="total">   24.38   24.42</time>
   <energy>
    <i name="e_fr_energy">  -1383.52720782 </i>
    <i name="e_wo_entrp">  -1383.52720782 </i>
    <i name="e_0_energy">  -1383.52720782 </i>
   </energy>
  </scstep>
  <scstep>
   <time name="dav">   17.18   17.18</time>
   <time name="total">   21.35   21.38</time>
   <energy>
    <i name="e_fr_energy">  -1383.53010405 </i>
    <i name="e_wo_entrp">  -1383.53010405 </i>
    <i name="e_0_energy">  -1383.53010405 </i>
   </energy>
  </scstep>
  <scstep>
   <time name="dav">   17.02   17.02</time>
   <time name="total">   21.19   21.22</time>
   <energy>
    <i name="e_fr_energy">  -1383.53211028 </i>
    <i name="e_wo_entrp">  -1383.53211028 </i>
    <i name="e_0_energy">  -1383.53211028 </i>
   </energy>
  </scstep>
  <scstep>
   <time name="dav">   19.75   19.76</time>
   <time name="total">   23.90   23.95</time>
   <energy>
    <i name="e_fr_energy">  -1383.53195514 </i>
    <i name="e_wo_entrp">  -1383.53195514 </i>
    <i name="e_0_energy">  -1383.53195514 </i>
   </energy>
  </scstep>
  <scstep>
   <time name="dav">   17.70   17.70</time>
   <time name="total">   21.86   21.90</time>
   <energy>
    <i name="e_fr_energy">  -1383.53195140 </i>
    <i name="e_wo_entrp">  -1383.53195140 </i>
    <i name="e_0_energy">  -1383.53195140 </i>
   </energy>
  </scstep>
  <scstep>
   <time name="dav">   16.97   16.97</time>
   <time name="total">   21.12   21.16</time>
   <energy>
    <i name="e_fr_energy">  -1383.53193987 </i>
    <i name="e_wo_entrp">  -1383.53193987 </i>
    <i name="e_0_energy">  -1383.53193987 </i>
   </energy>
  </scstep>
  <scstep>
   <time name="dav">   17.54   17.54</time>
   <time name="total">   21.70   21.74</time>
   <energy>
    <i name="e_fr_energy">  -1383.53199738 </i>
    <i name="e_wo_entrp">  -1383.53199738 </i>
    <i name="e_0_energy">  -1383.53199738 </i>
   </energy>
  </scstep>
  <scstep>
   <time name="dav">   16.00   16.00</time>
   <time name="total">   20.15   20.20</time>
   <energy>
    <i name="e_fr_energy">  -1383.53199999 </i>
    <i name="e_wo_entrp">  -1383.53199999 </i>
    <i name="e_0_energy">  -1383.53199999 </i>
   </energy>
  </scstep>
  <scstep>
   <time name="dav">   13.14   13.14</time>
   <time name="total">   17.34   17.35</time>
   <energy>
    <i name="e_fr_energy">  -1383.53199791 </i>
    <i name="e_wo_entrp">  -1383.53199791 </i>
    <i name="e_0_energy">  -1383.53199791 </i>
   </energy>
  </scstep>
  <scstep>
   <time name="dav">   12.62   12.62</time>
   <time name="total">   16.78   16.82</time>
   <energy>
    <i name="e_fr_energy">  -1383.53199962 </i>
    <i name="e_wo_entrp">  -1383.53199962 </i>
    <i name="e_0_energy">  -1383.53199962 </i>
   </energy>
  </scstep>
  <scstep>
   <time name="dav">   12.49   12.49</time>
   <time name="total">   16.69   16.69</time>
   <energy>
    <i name="e_fr_energy">  -1383.53199815 </i>
    <i name="e_wo_entrp">  -1383.53199815 </i>
    <i name="e_0_energy">  -1383.53199815 </i>
   </energy>
  </scstep>
  <scstep>
   <time name="dav">   12.45   12.45</time>
   <time name="total">   13.94   13.96</time>
   <energy>
    <i name="alphaZ">    835.99855037 </i>
    <i name="ewald"> -17372.74596314 </i>
    <i name="hartreedc">  -7779.34193675 </i>
    <i name="XCdc">    948.14988319 </i>
    <i name="pawpsdc">  22898.90175358 </i>
    <i name="pawaedc"> -23938.36619820 </i>
    <i name="eentropy">     -0.00000000 </i>
    <i name="bandstr">  -3001.01171060 </i>
    <i name="atom">  26024.88362379 </i>
    <i name="e_fr_energy">  -1383.53199776 </i>
    <i name="e_wo_entrp">  -1383.53199776 </i>
    <i name="e_0_energy">  -1383.53199776 </i>
   </energy>
  </scstep>
  <structure>
   <crystal>
    <varray name="basis" >
     <v>       8.42001800       0.00000000       8.07798100 </v>
     <v>       0.00000000      11.76380800       0.00000000 </v>
     <v>      -8.42001800       0.00000000       8.07798100 </v>
    </varray>
    <i name="volume">   1600.27186790 </i>
    <varray name="rec_basis" >
     <v>       0.05938230      -0.00000000       0.06189665 </v>
     <v>       0.00000000       0.08500649      -0.00000000 </v>
     <v>      -0.05938230       0.00000000       0.06189665 </v>
    </varray>
   </crystal>
   <varray name="positions" >
    <v>       0.27088800       0.25000000       0.20230000 </v>
    <v>       0.77556500       0.25000100       0.71511300 </v>
    <v>       0.20661500       0.75000000       0.76772200 </v>
    <v>       0.29137000       0.24999900       0.72865100 </v>
    <v>       0.79122200       0.24999900       0.22493000 </v>
    <v>       0.23638600       0.75000100       0.29576200 </v>
    <v>       0.99913600       0.99682200       0.00008600 </v>
    <v>       0.50300300       0.00030800       0.49694500 </v>
    <v>       0.50336400       0.99771800       0.99729500 </v>
    <v>       0.99960400       0.99946400       0.50049300 </v>
    <v>       0.50336300       0.50227800       0.99729900 </v>
    <v>       0.99959900       0.50053400       0.50049700 </v>
    <v>       0.99914300       0.50316900       0.00008700 </v>
    <v>       0.50300300       0.49970100       0.49694300 </v>
    <v>       0.46093100       0.75000300       0.96376400 </v>
    <v>       0.97780700       0.74999900       0.46251100 </v>
    <v>       0.97005000       0.24999700       0.97129300 </v>
    <v>       0.45400800       0.25000100       0.46570100 </v>
    <v>       0.05026700       0.74999700       0.03454400 </v>
    <v>       0.52347000       0.75000200       0.52672100 </v>
    <v>       0.53037200       0.25000100       0.03449800 </v>
    <v>       0.03271900       0.24999900       0.54141500 </v>
    <v>       0.24899600       0.46476100       0.94877500 </v>
    <v>       0.74927900       0.45243700       0.45487900 </v>
    <v>       0.44345300       0.52490000       0.24572500 </v>
    <v>       0.94981200       0.53548100       0.74848200 </v>
    <v>       0.54485600       0.04563000       0.74941900 </v>
    <v>       0.05144300       0.03731500       0.25231600 </v>
    <v>       0.75346200       0.97171500       0.05613600 </v>
    <v>       0.25236200       0.96788100       0.55055300 </v>
    <v>       0.24899600       0.03524100       0.94877500 </v>
    <v>       0.74927900       0.04756400       0.45487900 </v>
    <v>       0.44345200       0.97510100       0.24572300 </v>
    <v>       0.94981300       0.96451800       0.74848200 </v>
    <v>       0.75346200       0.52828600       0.05613700 </v>
    <v>       0.25236300       0.53212000       0.55055200 </v>
    <v>       0.54485600       0.45437300       0.74942000 </v>
    <v>       0.05143900       0.46268200       0.25231700 </v>
    <v>       0.71273700       0.75000100       0.03091400 </v>
   </varray>
  </structure>
  <varray name="forces" >
   <v>      -0.01625951      -0.00001258       0.02590396 </v>
   <v>       0.06220752      -0.00000113      -0.04625840 </v>
   <v>       0.05975113       0.00000811      -0.10356740 </v>
   <v>       0.05430538       0.00003784      -0.03125511 </v>
   <v>      -0.04054475       0.00003213       0.07466125 </v>
   <v>      -0.04889865      -0.00000406       0.08305661 </v>
   <v>       0.26436994       0.22517072       0.07575924 </v>
   <v>       0.04098945      -0.20975910       0.08106003 </v>
   <v>      -0.27117878       0.47307646      -0.34642438 </v>
   <v>      -0.07373227      -0.10808924      -0.03680843 </v>
   <v>      -0.27093638      -0.47297596      -0.34627173 </v>
   <v>      -0.07350364       0.10810985      -0.03674564 </v>
   <v>       0.26407594      -0.22519370       0.07553176 </v>
   <v>       0.04083504       0.20972460       0.08114066 </v>
   <v>      -0.71443335      -0.00008408      -1.23416666 </v>
   <v>       0.05323634       0.00000716       0.01615493 </v>
   <v>       0.01257218      -0.00002228       0.02003754 </v>
   <v>      -0.00984310       0.00003450      -0.02759709 </v>
   <v>      -0.07729584      -0.00001941      -0.04142265 </v>
   <v>      -0.02452661      -0.00000430      -0.06534722 </v>
   <v>       0.00935250       0.00005286      -0.00795908 </v>
   <v>       0.01195868       0.00000340       0.01729019 </v>
   <v>       0.00608239       0.02662807       0.04134464 </v>
   <v>      -0.00187766      -0.07019780      -0.00093411 </v>
   <v>       0.12102851      -0.01622947      -0.09835981 </v>
   <v>      -0.09604398       0.01287773       0.08875411 </v>
   <v>      -0.13140281      -0.00443499       0.09191540 </v>
   <v>       0.06413192      -0.00506708      -0.05595707 </v>
   <v>       0.24379854       4.72265574       1.13902035 </v>
   <v>      -0.01859796       0.01285166       0.00414392 </v>
   <v>       0.00606442      -0.02669457       0.04136850 </v>
   <v>      -0.00189704       0.07019783      -0.00092646 </v>
   <v>       0.12102312       0.01626813      -0.09827469 </v>
   <v>      -0.09604375      -0.01286857       0.08872943 </v>
   <v>       0.24381898      -4.72245729       1.13897337 </v>
   <v>      -0.01863413      -0.01286326       0.00409573 </v>
   <v>      -0.13144997       0.00446096       0.09190602 </v>
   <v>       0.06420286       0.00507490      -0.05594623 </v>
   <v>       0.37329536      -0.00029377      -0.64662548 </v>
  </varray>
  <varray name="stress" >
   <v>       4.78263259       0.00009092       3.69742940 </v>
   <v>       0.00009082      31.58378341      -0.00002408 </v>
   <v>       3.69736534      -0.00002387       9.14436757 </v>
  </varray>
  <energy>
   <i name="e_fr_energy">  -1383.53199776 </i>
   <i name="e_wo_entrp">  -1383.53199776 </i>
   <i name="e_0_energy">     -0.00000000 </i>
  </energy>
  <time name="totalsc">  480.71  481.42</time>
  <eigenvalues>
   <array>
    <dimension dim="1">band</dimension>
    <dimension dim="2">kpoint</dimension>
    <dimension dim="3">spin</dimension>
    <field>eigene</field>
    <field>occ</field>
    <set>
     <set comment="spin 1">
      <set comment="kpoint 1">
       <r>  -21.0508    1.0000 </r>
       <r>  -20.9994    1.0000 </r>
       <r>  -20.9920    1.0000 </r>
       <r>  -20.9777    1.0000 </r>
       <r>  -20.9597    1.0000 </r>
       <r>  -20.9350    1.0000 </r>
       <r>  -20.9228    1.0000 </r>
       <r>  -16.9645    1.0000 </r>
       <r>  -16.9319    1.0000 </r>
       <r>  -16.8985    1.0000 </r>
       <r>  -16.8751    1.0000 </r>
       <r>  -16.8629    1.0000 </r>
       <r>  -16.8277    1.0000 </r>
       <r>  -16.8230    1.0000 </r>
       <r>  -16.8191    1.0000 </r>
       <r>  -16.8154    1.0000 </r>
       <r>  -16.7998    1.0000 </r>
       <r>  -16.7992    1.0000 </r>
       <r>  -16.7969    1.0000 </r>
       <r>  -16.7796    1.0000 </r>
       <r>  -16.7791    1.0000 </r>
       <r>  -16.7396    1.0000 </r>
       <r>  -16.7384    1.0000 </r>
       <r>  -16.7144    1.0000 </r>
       <r>  -16.7143    1.0000 </r>
       <r>  -16.7100    1.0000 </r>
       <r>  -16.7092    1.0000 </r>
       <r>  -16.5690    1.0000 </r>
       <r>  -16.5493    1.0000 </r>
       <r>  -16.5479    1.0000 </r>
       <r>  -16.5158    1.0000 </r>
       <r>  -16.5120    1.0000 </r>
       <r>  -16.4865    1.0000 </r>
       <r>  -16.4847    1.0000 </r>
       <r>  -16.4526    1.0000 </r>
       <r>  -16.4313    1.0000 </r>
       <r>  -16.4309    1.0000 </r>
       <r>  -16.4299    1.0000 </r>
       <r>  -16.4292    1.0000 </r>
       <r>  -16.4182    1.0000 </r>
       <r>  -16.4172    1.0000 </r>
       <r>  -16.3943    1.0000 </r>
       <r>  -16.3942    1.0000 </r>
       <r>  -16.3827    1.0000 </r>
       <r>  -16.3815    1.0000 </r>
       <r>  -16.3754    1.0000 </r>
       <r>  -16.3741    1.0000 </r>
       <r>  -15.1163    1.0000 </r>
       <r>  -14.7557    1.0000 </r>
       <r>  -14.7334    1.0000 </r>
       <r>  -14.5393    1.0000 </r>
       <r>  -14.4273    1.0000 </r>
       <r>  -14.3798    1.0000 </r>
       <r>  -14.3497    1.0000 </r>
       <r>  -14.2952    1.0000 </r>
       <r>  -14.1895    1.0000 </r>
       <r>  -14.1722    1.0000 </r>
       <r>  -14.1550    1.0000 </r>
       <r>  -14.1372    1.0000 </r>
       <r>  -14.1340    1.0000 </r>
       <r>  -14.1249    1.0000 </r>
       <r>  -14.1220    1.0000 </r>
       <r>  -14.0577    1.0000 </r>
       <r>  -14.0495    1.0000 </r>
       <r>  -14.0368    1.0000 </r>
       <r>  -14.0166    1.0000 </r>
       <r>  -13.9401    1.0000 </r>
       <r>  -13.8614    1.0000 </r>
       <r>  -13.8563    1.0000 </r>
       <r>  -13.7765    1.0000 </r>
       <r>  -13.5986    1.0000 </r>
       <r>   -8.5459    1.0000 </r>
       <r>   -8.0691    1.0000 </r>
       <r>   -8.0635    1.0000 </r>
       <r>   -7.9651    1.0000 </r>
       <r>   -7.7755    1.0000 </r>
       <r>   -7.6373    1.0000 </r>
       <r>   -7.4726    1.0000 </r>
       <r>   -7.4521    1.0000 </r>
       <r>   -7.4451    1.0000 </r>
       <r>   -7.4442    1.0000 </r>
       <r>   -7.4240    1.0000 </r>
       <r>   -7.4039    1.0000 </r>
       <r>   -7.3999    1.0000 </r>
       <r>   -7.3916    1.0000 </r>
       <r>   -7.3817    1.0000 </r>
       <r>   -7.3741    1.0000 </r>
       <r>   -7.3731    1.0000 </r>
       <r>   -7.3624    1.0000 </r>
       <r>   -7.3516    1.0000 </r>
       <r>   -7.3500    1.0000 </r>
       <r>   -7.3427    1.0000 </r>
       <r>   -7.3304    1.0000 </r>
       <r>   -7.3280    1.0000 </r>
       <r>   -7.3259    1.0000 </r>
       <r>   -7.3220    1.0000 </r>
       <r>   -7.3006    1.0000 </r>
       <r>   -7.2963    1.0000 </r>
       <r>   -7.2481    1.0000 </r>
       <r>   -6.7483    1.0000 </r>
       <r>   -3.7351    1.0000 </r>
       <r>   -3.6449    1.0000 </r>
       <r>   -3.6177    1.0000 </r>
       <r>   -3.5703    1.0000 </r>
       <r>   -3.4271    1.0000 </r>
       <r>   -3.3325    1.0000 </r>
       <r>   -3.3300    1.0000 </r>
       <r>   -3.2592    1.0000 </r>
       <r>   -3.2425    1.0000 </r>
       <r>   -3.1999    1.0000 </r>
       <r>   -3.1506    1.0000 </r>
       <r>   -3.0349    1.0000 </r>
       <r>   -2.5423    1.0000 </r>
       <r>   -2.3965    1.0000 </r>
       <r>   -2.3557    1.0000 </r>
       <r>   -2.3345    1.0000 </r>
       <r>   -2.2554    1.0000 </r>
       <r>   -2.2469    1.0000 </r>
       <r>   -2.1655    1.0000 </r>
       <r>   -2.1396    1.0000 </r>
       <r>   -2.0091    1.0000 </r>
       <r>   -1.9967    1.0000 </r>
       <r>   -1.9783    1.0000 </r>
       <r>   -1.9552    1.0000 </r>
       <r>   -1.9513    1.0000 </r>
       <r>   -1.9178    1.0000 </r>
       <r>   -1.8500    1.0000 </r>
       <r>   -1.8326    1.0000 </r>
       <r>   -1.8238    1.0000 </r>
       <r>   -1.7402    1.0000 </r>
       <r>   -1.7129    1.0000 </r>
       <r>   -1.6990    1.0000 </r>
       <r>   -1.6700    1.0000 </r>
       <r>   -1.6503    1.0000 </r>
       <r>   -1.6496    1.0000 </r>
       <r>   -1.6080    1.0000 </r>
       <r>   -1.5962    1.0000 </r>
       <r>   -1.5647    1.0000 </r>
       <r>   -1.5603    1.0000 </r>
       <r>   -1.5397    1.0000 </r>
       <r>   -1.5395    1.0000 </r>
       <r>   -1.5261    1.0000 </r>
       <r>   -1.5054    1.0000 </r>
       <r>   -1.4989    1.0000 </r>
       <r>   -1.4906    1.0000 </r>
       <r>   -1.4454    1.0000 </r>
       <r>   -1.4335    1.0000 </r>
       <r>   -1.4230    1.0000 </r>
       <r>   -1.4078    1.0000 </r>
       <r>   -1.3710    1.0000 </r>
       <r>   -1.3508    1.0000 </r>
       <r>   -1.3452    1.0000 </r>
       <r>   -1.3046    1.0000 </r>
       <r>   -1.2986    1.0000 </r>
       <r>   -1.2952    1.0000 </r>
       <r>   -1.2636    1.0000 </r>
       <r>   -1.2189    1.0000 </r>
       <r>   -1.2076    1.0000 </r>
       <r>   -1.1895    1.0000 </r>
       <r>   -1.1240    1.0000 </r>
       <r>   -1.0744    1.0000 </r>
       <r>   -1.0225    1.0000 </r>
       <r>   -0.9838    1.0000 </r>
       <r>   -0.9332    1.0000 </r>
       <r>   -0.8661    1.0000 </r>
       <r>   -0.8299    1.0000 </r>
       <r>   -0.7559    1.0000 </r>
       <r>   -0.6032    1.0000 </r>
       <r>   -0.3578    1.0000 </r>
       <r>   -0.2887    1.0000 </r>
       <r>   -0.2549    1.0000 </r>
       <r>    0.2647    1.0000 </r>
       <r>    2.4216    0.0000 </r>
       <r>    2.4629    0.0000 </r>
       <r>    2.6370    0.0000 </r>
       <r>    2.7472    0.0000 </r>
       <r>    2.8018    0.0000 </r>
       <r>    2.9396    0.0000 </r>
       <r>    2.9816    0.0000 </r>
       <r>    3.0098    0.0000 </r>
       <r>    3.0385    0.0000 </r>
       <r>    3.3195    0.0000 </r>
       <r>    3.3386    0.0000 </r>
       <r>    3.4290    0.0000 </r>
       <r>    4.7592    0.0000 </r>
       <r>    4.9299    0.0000 </r>
       <r>    5.2016    0.0000 </r>
       <r>    5.2872    0.0000 </r>
       <r>    5.4841    0.0000 </r>
       <r>    5.5508    0.0000 </r>
       <r>    5.6167    0.0000 </r>
       <r>    5.6496    0.0000 </r>
       <r>    5.7158    0.0000 </r>
       <r>    5.7686    0.0000 </r>
       <r>    5.9287    0.0000 </r>
       <r>    5.9580    0.0000 </r>
       <r>    6.0095    0.0000 </r>
       <r>    6.0637    0.0000 </r>
       <r>    6.1174    0.0000 </r>
       <r>    6.1500    0.0000 </r>
       <r>    6.2511    0.0000 </r>
       <r>    6.2574    0.0000 </r>
       <r>    6.3056    0.0000 </r>
       <r>    6.3149    0.0000 </r>
       <r>    6.3398    0.0000 </r>
       <r>    6.3894    0.0000 </r>
       <r>    6.4541    0.0000 </r>
       <r>    6.5160    0.0000 </r>
      </set>
      <set comment="kpoint 2">
       <r>  -21.0508    1.0000 </r>
       <r>  -20.9993    1.0000 </r>
       <r>  -20.9920    1.0000 </r>
       <r>  -20.9777    1.0000 </r>
       <r>  -20.9597    1.0000 </r>
       <r>  -20.9349    1.0000 </r>
       <r>  -20.9228    1.0000 </r>
       <r>  -16.9605    1.0000 </r>
       <r>  -16.9205    1.0000 </r>
       <r>  -16.8908    1.0000 </r>
       <r>  -16.8749    1.0000 </r>
       <r>  -16.8710    1.0000 </r>
       <r>  -16.8393    1.0000 </r>
       <r>  -16.8232    1.0000 </r>
       <r>  -16.8201    1.0000 </r>
       <r>  -16.8194    1.0000 </r>
       <r>  -16.7999    1.0000 </r>
       <r>  -16.7993    1.0000 </r>
       <r>  -16.7969    1.0000 </r>
       <r>  -16.7796    1.0000 </r>
       <r>  -16.7791    1.0000 </r>
       <r>  -16.7396    1.0000 </r>
       <r>  -16.7384    1.0000 </r>
       <r>  -16.7144    1.0000 </r>
       <r>  -16.7143    1.0000 </r>
       <r>  -16.7101    1.0000 </r>
       <r>  -16.7092    1.0000 </r>
       <r>  -16.5674    1.0000 </r>
       <r>  -16.5390    1.0000 </r>
       <r>  -16.5381    1.0000 </r>
       <r>  -16.5126    1.0000 </r>
       <r>  -16.5086    1.0000 </r>
       <r>  -16.4984    1.0000 </r>
       <r>  -16.4974    1.0000 </r>
       <r>  -16.4575    1.0000 </r>
       <r>  -16.4313    1.0000 </r>
       <r>  -16.4310    1.0000 </r>
       <r>  -16.4300    1.0000 </r>
       <r>  -16.4293    1.0000 </r>
       <r>  -16.4182    1.0000 </r>
       <r>  -16.4171    1.0000 </r>
       <r>  -16.3943    1.0000 </r>
       <r>  -16.3942    1.0000 </r>
       <r>  -16.3827    1.0000 </r>
       <r>  -16.3815    1.0000 </r>
       <r>  -16.3754    1.0000 </r>
       <r>  -16.3741    1.0000 </r>
       <r>  -15.1146    1.0000 </r>
       <r>  -14.7655    1.0000 </r>
       <r>  -14.7217    1.0000 </r>
       <r>  -14.5521    1.0000 </r>
       <r>  -14.4417    1.0000 </r>
       <r>  -14.3464    1.0000 </r>
       <r>  -14.3362    1.0000 </r>
       <r>  -14.2688    1.0000 </r>
       <r>  -14.2198    1.0000 </r>
       <r>  -14.1927    1.0000 </r>
       <r>  -14.1774    1.0000 </r>
       <r>  -14.1470    1.0000 </r>
       <r>  -14.1389    1.0000 </r>
       <r>  -14.1347    1.0000 </r>
       <r>  -14.1269    1.0000 </r>
       <r>  -14.0927    1.0000 </r>
       <r>  -14.0377    1.0000 </r>
       <r>  -13.9545    1.0000 </r>
       <r>  -13.9438    1.0000 </r>
       <r>  -13.9294    1.0000 </r>
       <r>  -13.8983    1.0000 </r>
       <r>  -13.8885    1.0000 </r>
       <r>  -13.7849    1.0000 </r>
       <r>  -13.6058    1.0000 </r>
       <r>   -8.3864    1.0000 </r>
       <r>   -8.2611    1.0000 </r>
       <r>   -7.9572    1.0000 </r>
       <r>   -7.9027    1.0000 </r>
       <r>   -7.7246    1.0000 </r>
       <r>   -7.6476    1.0000 </r>
       <r>   -7.6244    1.0000 </r>
       <r>   -7.5081    1.0000 </r>
       <r>   -7.4510    1.0000 </r>
       <r>   -7.4398    1.0000 </r>
       <r>   -7.4318    1.0000 </r>
       <r>   -7.4192    1.0000 </r>
       <r>   -7.4042    1.0000 </r>
       <r>   -7.3924    1.0000 </r>
       <r>   -7.3822    1.0000 </r>
       <r>   -7.3758    1.0000 </r>
       <r>   -7.3735    1.0000 </r>
       <r>   -7.3589    1.0000 </r>
       <r>   -7.3581    1.0000 </r>
       <r>   -7.3505    1.0000 </r>
       <r>   -7.3477    1.0000 </r>
       <r>   -7.3424    1.0000 </r>
       <r>   -7.3308    1.0000 </r>
       <r>   -7.3236    1.0000 </r>
       <r>   -7.3203    1.0000 </r>
       <r>   -7.3129    1.0000 </r>
       <r>   -7.3050    1.0000 </r>
       <r>   -7.0778    1.0000 </r>
       <r>   -7.0269    1.0000 </r>
       <r>   -3.6965    1.0000 </r>
       <r>   -3.5751    1.0000 </r>
       <r>   -3.3871    1.0000 </r>
       <r>   -3.3750    1.0000 </r>
       <r>   -3.2755    1.0000 </r>
       <r>   -3.2529    1.0000 </r>
       <r>   -3.2332    1.0000 </r>
       <r>   -3.1267    1.0000 </r>
       <r>   -3.0804    1.0000 </r>
       <r>   -3.0246    1.0000 </r>
       <r>   -2.8235    1.0000 </r>
       <r>   -2.7406    1.0000 </r>
       <r>   -2.5595    1.0000 </r>
       <r>   -2.5251    1.0000 </r>
       <r>   -2.4969    1.0000 </r>
       <r>   -2.4278    1.0000 </r>
       <r>   -2.4097    1.0000 </r>
       <r>   -2.2957    1.0000 </r>
       <r>   -2.2707    1.0000 </r>
       <r>   -2.2570    1.0000 </r>
       <r>   -2.2375    1.0000 </r>
       <r>   -2.2011    1.0000 </r>
       <r>   -2.1646    1.0000 </r>
       <r>   -1.9925    1.0000 </r>
       <r>   -1.9626    1.0000 </r>
       <r>   -1.9451    1.0000 </r>
       <r>   -1.9244    1.0000 </r>
       <r>   -1.9010    1.0000 </r>
       <r>   -1.8550    1.0000 </r>
       <r>   -1.7683    1.0000 </r>
       <r>   -1.7291    1.0000 </r>
       <r>   -1.7289    1.0000 </r>
       <r>   -1.7079    1.0000 </r>
       <r>   -1.6667    1.0000 </r>
       <r>   -1.6591    1.0000 </r>
       <r>   -1.6277    1.0000 </r>
       <r>   -1.6099    1.0000 </r>
       <r>   -1.5908    1.0000 </r>
       <r>   -1.5806    1.0000 </r>
       <r>   -1.5770    1.0000 </r>
       <r>   -1.5640    1.0000 </r>
       <r>   -1.5500    1.0000 </r>
       <r>   -1.5303    1.0000 </r>
       <r>   -1.5180    1.0000 </r>
       <r>   -1.4833    1.0000 </r>
       <r>   -1.4245    1.0000 </r>
       <r>   -1.4172    1.0000 </r>
       <r>   -1.3975    1.0000 </r>
       <r>   -1.3932    1.0000 </r>
       <r>   -1.3783    1.0000 </r>
       <r>   -1.3663    1.0000 </r>
       <r>   -1.3399    1.0000 </r>
       <r>   -1.3217    1.0000 </r>
       <r>   -1.2980    1.0000 </r>
       <r>   -1.2722    1.0000 </r>
       <r>   -1.2301    1.0000 </r>
       <r>   -1.2246    1.0000 </r>
       <r>   -1.2136    1.0000 </r>
       <r>   -1.1981    1.0000 </r>
       <r>   -1.1360    1.0000 </r>
       <r>   -1.0857    1.0000 </r>
       <r>   -1.0814    1.0000 </r>
       <r>   -0.9581    1.0000 </r>
       <r>   -0.8946    1.0000 </r>
       <r>   -0.8824    1.0000 </r>
       <r>   -0.8051    1.0000 </r>
       <r>   -0.7592    1.0000 </r>
       <r>   -0.7320    1.0000 </r>
       <r>   -0.7099    1.0000 </r>
       <r>   -0.3421    1.0000 </r>
       <r>   -0.1915    1.0000 </r>
       <r>   -0.0692    1.0000 </r>
       <r>    2.5907    0.0000 </r>
       <r>    2.6568    0.0000 </r>
       <r>    2.7486    0.0000 </r>
       <r>    2.7688    0.0000 </r>
       <r>    3.1073    0.0000 </r>
       <r>    3.1204    0.0000 </r>
       <r>    3.1568    0.0000 </r>
       <r>    3.1986    0.0000 </r>
       <r>    3.7372    0.0000 </r>
       <r>    3.9019    0.0000 </r>
       <r>    4.0620    0.0000 </r>
       <r>    4.2709    0.0000 </r>
       <r>    4.3497    0.0000 </r>
       <r>    4.3733    0.0000 </r>
       <r>    4.6372    0.0000 </r>
       <r>    4.7309    0.0000 </r>
       <r>    5.1843    0.0000 </r>
       <r>    5.2896    0.0000 </r>
       <r>    5.3466    0.0000 </r>
       <r>    5.4289    0.0000 </r>
       <r>    5.4512    0.0000 </r>
       <r>    5.5909    0.0000 </r>
       <r>    5.6282    0.0000 </r>
       <r>    5.8465    0.0000 </r>
       <r>    5.9614    0.0000 </r>
       <r>    6.0159    0.0000 </r>
       <r>    6.0374    0.0000 </r>
       <r>    6.1160    0.0000 </r>
       <r>    6.1275    0.0000 </r>
       <r>    6.1953    0.0000 </r>
       <r>    6.3142    0.0000 </r>
       <r>    6.3694    0.0000 </r>
       <r>    6.3958    0.0000 </r>
       <r>    6.4380    0.0000 </r>
       <r>    6.4938    0.0000 </r>
       <r>    6.5144    0.0000 </r>
      </set>
      <set comment="kpoint 3">
       <r>  -21.0508    1.0000 </r>
       <r>  -20.9978    1.0000 </r>
       <r>  -20.9935    1.0000 </r>
       <r>  -20.9776    1.0000 </r>
       <r>  -20.9597    1.0000 </r>
       <r>  -20.9349    1.0000 </r>
       <r>  -20.9227    1.0000 </r>
       <r>  -16.9451    1.0000 </r>
       <r>  -16.9417    1.0000 </r>
       <r>  -16.8914    1.0000 </r>
       <r>  -16.8910    1.0000 </r>
       <r>  -16.8427    1.0000 </r>
       <r>  -16.8374    1.0000 </r>
       <r>  -16.8212    1.0000 </r>
       <r>  -16.8204    1.0000 </r>
       <r>  -16.8132    1.0000 </r>
       <r>  -16.8121    1.0000 </r>
       <r>  -16.7996    1.0000 </r>
       <r>  -16.7994    1.0000 </r>
       <r>  -16.7794    1.0000 </r>
       <r>  -16.7792    1.0000 </r>
       <r>  -16.7390    1.0000 </r>
       <r>  -16.7389    1.0000 </r>
       <r>  -16.7144    1.0000 </r>
       <r>  -16.7143    1.0000 </r>
       <r>  -16.7096    1.0000 </r>
       <r>  -16.7095    1.0000 </r>
       <r>  -16.5486    1.0000 </r>
       <r>  -16.5486    1.0000 </r>
       <r>  -16.5420    1.0000 </r>
       <r>  -16.5410    1.0000 </r>
       <r>  -16.4943    1.0000 </r>
       <r>  -16.4941    1.0000 </r>
       <r>  -16.4756    1.0000 </r>
       <r>  -16.4748    1.0000 </r>
       <r>  -16.4311    1.0000 </r>
       <r>  -16.4310    1.0000 </r>
       <r>  -16.4296    1.0000 </r>
       <r>  -16.4295    1.0000 </r>
       <r>  -16.4178    1.0000 </r>
       <r>  -16.4176    1.0000 </r>
       <r>  -16.3943    1.0000 </r>
       <r>  -16.3943    1.0000 </r>
       <r>  -16.3822    1.0000 </r>
       <r>  -16.3819    1.0000 </r>
       <r>  -16.3749    1.0000 </r>
       <r>  -16.3745    1.0000 </r>
       <r>  -15.1272    1.0000 </r>
       <r>  -14.7419    1.0000 </r>
       <r>  -14.7199    1.0000 </r>
       <r>  -14.5363    1.0000 </r>
       <r>  -14.4688    1.0000 </r>
       <r>  -14.3794    1.0000 </r>
       <r>  -14.2962    1.0000 </r>
       <r>  -14.2789    1.0000 </r>
       <r>  -14.2088    1.0000 </r>
       <r>  -14.1967    1.0000 </r>
       <r>  -14.1698    1.0000 </r>
       <r>  -14.1509    1.0000 </r>
       <r>  -14.1379    1.0000 </r>
       <r>  -14.1350    1.0000 </r>
       <r>  -14.1226    1.0000 </r>
       <r>  -14.0681    1.0000 </r>
       <r>  -14.0504    1.0000 </r>
       <r>  -14.0409    1.0000 </r>
       <r>  -13.9456    1.0000 </r>
       <r>  -13.9196    1.0000 </r>
       <r>  -13.8671    1.0000 </r>
       <r>  -13.8356    1.0000 </r>
       <r>  -13.8100    1.0000 </r>
       <r>  -13.6137    1.0000 </r>
       <r>   -8.3664    1.0000 </r>
       <r>   -8.2894    1.0000 </r>
       <r>   -7.9006    1.0000 </r>
       <r>   -7.8138    1.0000 </r>
       <r>   -7.7837    1.0000 </r>
       <r>   -7.6498    1.0000 </r>
       <r>   -7.6196    1.0000 </r>
       <r>   -7.5201    1.0000 </r>
       <r>   -7.4499    1.0000 </r>
       <r>   -7.4411    1.0000 </r>
       <r>   -7.4256    1.0000 </r>
       <r>   -7.4187    1.0000 </r>
       <r>   -7.4038    1.0000 </r>
       <r>   -7.3916    1.0000 </r>
       <r>   -7.3848    1.0000 </r>
       <r>   -7.3777    1.0000 </r>
       <r>   -7.3771    1.0000 </r>
       <r>   -7.3642    1.0000 </r>
       <r>   -7.3619    1.0000 </r>
       <r>   -7.3593    1.0000 </r>
       <r>   -7.3505    1.0000 </r>
       <r>   -7.3501    1.0000 </r>
       <r>   -7.3296    1.0000 </r>
       <r>   -7.3251    1.0000 </r>
       <r>   -7.3175    1.0000 </r>
       <r>   -7.3164    1.0000 </r>
       <r>   -7.3034    1.0000 </r>
       <r>   -7.1206    1.0000 </r>
       <r>   -7.0694    1.0000 </r>
       <r>   -3.7120    1.0000 </r>
       <r>   -3.6012    1.0000 </r>
       <r>   -3.3980    1.0000 </r>
       <r>   -3.3751    1.0000 </r>
       <r>   -3.2720    1.0000 </r>
       <r>   -3.2611    1.0000 </r>
       <r>   -3.2179    1.0000 </r>
       <r>   -3.1767    1.0000 </r>
       <r>   -2.9450    1.0000 </r>
       <r>   -2.8862    1.0000 </r>
       <r>   -2.8348    1.0000 </r>
       <r>   -2.7222    1.0000 </r>
       <r>   -2.5159    1.0000 </r>
       <r>   -2.4628    1.0000 </r>
       <r>   -2.4177    1.0000 </r>
       <r>   -2.3896    1.0000 </r>
       <r>   -2.3565    1.0000 </r>
       <r>   -2.3139    1.0000 </r>
       <r>   -2.2462    1.0000 </r>
       <r>   -2.2059    1.0000 </r>
       <r>   -2.1944    1.0000 </r>
       <r>   -2.1831    1.0000 </r>
       <r>   -2.1431    1.0000 </r>
       <r>   -2.0561    1.0000 </r>
       <r>   -2.0401    1.0000 </r>
       <r>   -1.9806    1.0000 </r>
       <r>   -1.9451    1.0000 </r>
       <r>   -1.9113    1.0000 </r>
       <r>   -1.8997    1.0000 </r>
       <r>   -1.8483    1.0000 </r>
       <r>   -1.8256    1.0000 </r>
       <r>   -1.7873    1.0000 </r>
       <r>   -1.7233    1.0000 </r>
       <r>   -1.6645    1.0000 </r>
       <r>   -1.6400    1.0000 </r>
       <r>   -1.6084    1.0000 </r>
       <r>   -1.5961    1.0000 </r>
       <r>   -1.5818    1.0000 </r>
       <r>   -1.5625    1.0000 </r>
       <r>   -1.5566    1.0000 </r>
       <r>   -1.5527    1.0000 </r>
       <r>   -1.5056    1.0000 </r>
       <r>   -1.5055    1.0000 </r>
       <r>   -1.4884    1.0000 </r>
       <r>   -1.4673    1.0000 </r>
       <r>   -1.4622    1.0000 </r>
       <r>   -1.4578    1.0000 </r>
       <r>   -1.4346    1.0000 </r>
       <r>   -1.4091    1.0000 </r>
       <r>   -1.3794    1.0000 </r>
       <r>   -1.3731    1.0000 </r>
       <r>   -1.3632    1.0000 </r>
       <r>   -1.3333    1.0000 </r>
       <r>   -1.3251    1.0000 </r>
       <r>   -1.2867    1.0000 </r>
       <r>   -1.2493    1.0000 </r>
       <r>   -1.2208    1.0000 </r>
       <r>   -1.1842    1.0000 </r>
       <r>   -1.1450    1.0000 </r>
       <r>   -1.1296    1.0000 </r>
       <r>   -1.1029    1.0000 </r>
       <r>   -0.9993    1.0000 </r>
       <r>   -0.9811    1.0000 </r>
       <r>   -0.9702    1.0000 </r>
       <r>   -0.9180    1.0000 </r>
       <r>   -0.8904    1.0000 </r>
       <r>   -0.7848    1.0000 </r>
       <r>   -0.7616    1.0000 </r>
       <r>   -0.7029    1.0000 </r>
       <r>   -0.3604    1.0000 </r>
       <r>   -0.2640    1.0000 </r>
       <r>   -0.1323    1.0000 </r>
       <r>    2.5636    0.0000 </r>
       <r>    2.6006    0.0000 </r>
       <r>    2.8146    0.0000 </r>
       <r>    2.8308    0.0000 </r>
       <r>    3.1060    0.0000 </r>
       <r>    3.1214    0.0000 </r>
       <r>    3.1710    0.0000 </r>
       <r>    3.1958    0.0000 </r>
       <r>    3.8422    0.0000 </r>
       <r>    4.0087    0.0000 </r>
       <r>    4.2160    0.0000 </r>
       <r>    4.2229    0.0000 </r>
       <r>    4.4429    0.0000 </r>
       <r>    4.5092    0.0000 </r>
       <r>    4.6766    0.0000 </r>
       <r>    4.8177    0.0000 </r>
       <r>    5.2422    0.0000 </r>
       <r>    5.2435    0.0000 </r>
       <r>    5.3532    0.0000 </r>
       <r>    5.3974    0.0000 </r>
       <r>    5.4419    0.0000 </r>
       <r>    5.4828    0.0000 </r>
       <r>    5.7279    0.0000 </r>
       <r>    5.8447    0.0000 </r>
       <r>    5.8580    0.0000 </r>
       <r>    5.9038    0.0000 </r>
       <r>    6.0378    0.0000 </r>
       <r>    6.1249    0.0000 </r>
       <r>    6.2040    0.0000 </r>
       <r>    6.2653    0.0000 </r>
       <r>    6.3581    0.0000 </r>
       <r>    6.3714    0.0000 </r>
       <r>    6.4021    0.0000 </r>
       <r>    6.4675    0.0000 </r>
       <r>    6.4979    0.0000 </r>
       <r>    6.5674    0.0000 </r>
      </set>
      <set comment="kpoint 4">
       <r>  -21.0508    1.0000 </r>
       <r>  -20.9978    1.0000 </r>
       <r>  -20.9935    1.0000 </r>
       <r>  -20.9776    1.0000 </r>
       <r>  -20.9597    1.0000 </r>
       <r>  -20.9349    1.0000 </r>
       <r>  -20.9228    1.0000 </r>
       <r>  -16.9392    1.0000 </r>
       <r>  -16.9324    1.0000 </r>
       <r>  -16.8886    1.0000 </r>
       <r>  -16.8872    1.0000 </r>
       <r>  -16.8511    1.0000 </r>
       <r>  -16.8485    1.0000 </r>
       <r>  -16.8211    1.0000 </r>
       <r>  -16.8206    1.0000 </r>
       <r>  -16.8160    1.0000 </r>
       <r>  -16.8137    1.0000 </r>
       <r>  -16.7997    1.0000 </r>
       <r>  -16.7995    1.0000 </r>
       <r>  -16.7795    1.0000 </r>
       <r>  -16.7793    1.0000 </r>
       <r>  -16.7391    1.0000 </r>
       <r>  -16.7390    1.0000 </r>
       <r>  -16.7144    1.0000 </r>
       <r>  -16.7143    1.0000 </r>
       <r>  -16.7096    1.0000 </r>
       <r>  -16.7096    1.0000 </r>
       <r>  -16.5432    1.0000 </r>
       <r>  -16.5427    1.0000 </r>
       <r>  -16.5343    1.0000 </r>
       <r>  -16.5337    1.0000 </r>
       <r>  -16.4992    1.0000 </r>
       <r>  -16.4992    1.0000 </r>
       <r>  -16.4846    1.0000 </r>
       <r>  -16.4836    1.0000 </r>
       <r>  -16.4311    1.0000 </r>
       <r>  -16.4311    1.0000 </r>
       <r>  -16.4296    1.0000 </r>
       <r>  -16.4296    1.0000 </r>
       <r>  -16.4178    1.0000 </r>
       <r>  -16.4177    1.0000 </r>
       <r>  -16.3943    1.0000 </r>
       <r>  -16.3943    1.0000 </r>
       <r>  -16.3823    1.0000 </r>
       <r>  -16.3819    1.0000 </r>
       <r>  -16.3750    1.0000 </r>
       <r>  -16.3746    1.0000 </r>
       <r>  -15.1264    1.0000 </r>
       <r>  -14.7516    1.0000 </r>
       <r>  -14.7110    1.0000 </r>
       <r>  -14.5319    1.0000 </r>
       <r>  -14.4788    1.0000 </r>
       <r>  -14.3605    1.0000 </r>
       <r>  -14.2895    1.0000 </r>
       <r>  -14.2574    1.0000 </r>
       <r>  -14.2183    1.0000 </r>
       <r>  -14.2121    1.0000 </r>
       <r>  -14.2027    1.0000 </r>
       <r>  -14.1582    1.0000 </r>
       <r>  -14.1465    1.0000 </r>
       <r>  -14.1341    1.0000 </r>
       <r>  -14.1337    1.0000 </r>
       <r>  -14.1240    1.0000 </r>
       <r>  -13.9649    1.0000 </r>
       <r>  -13.9433    1.0000 </r>
       <r>  -13.9337    1.0000 </r>
       <r>  -13.9227    1.0000 </r>
       <r>  -13.8944    1.0000 </r>
       <r>  -13.8845    1.0000 </r>
       <r>  -13.8185    1.0000 </r>
       <r>  -13.6177    1.0000 </r>
       <r>   -8.2376    1.0000 </r>
       <r>   -8.1440    1.0000 </r>
       <r>   -8.0355    1.0000 </r>
       <r>   -7.9852    1.0000 </r>
       <r>   -7.7956    1.0000 </r>
       <r>   -7.5778    1.0000 </r>
       <r>   -7.4680    1.0000 </r>
       <r>   -7.4614    1.0000 </r>
       <r>   -7.4464    1.0000 </r>
       <r>   -7.4443    1.0000 </r>
       <r>   -7.4377    1.0000 </r>
       <r>   -7.4253    1.0000 </r>
       <r>   -7.4138    1.0000 </r>
       <r>   -7.4097    1.0000 </r>
       <r>   -7.3907    1.0000 </r>
       <r>   -7.3833    1.0000 </r>
       <r>   -7.3795    1.0000 </r>
       <r>   -7.3716    1.0000 </r>
       <r>   -7.3581    1.0000 </r>
       <r>   -7.3560    1.0000 </r>
       <r>   -7.3456    1.0000 </r>
       <r>   -7.3407    1.0000 </r>
       <r>   -7.3380    1.0000 </r>
       <r>   -7.3364    1.0000 </r>
       <r>   -7.3241    1.0000 </r>
       <r>   -7.3183    1.0000 </r>
       <r>   -7.3082    1.0000 </r>
       <r>   -7.2962    1.0000 </r>
       <r>   -7.2531    1.0000 </r>
       <r>   -3.3489    1.0000 </r>
       <r>   -3.3336    1.0000 </r>
       <r>   -3.3313    1.0000 </r>
       <r>   -3.3101    1.0000 </r>
       <r>   -3.2603    1.0000 </r>
       <r>   -3.0768    1.0000 </r>
       <r>   -2.9885    1.0000 </r>
       <r>   -2.8974    1.0000 </r>
       <r>   -2.7674    1.0000 </r>
       <r>   -2.7443    1.0000 </r>
       <r>   -2.6813    1.0000 </r>
       <r>   -2.6646    1.0000 </r>
       <r>   -2.6539    1.0000 </r>
       <r>   -2.5660    1.0000 </r>
       <r>   -2.5588    1.0000 </r>
       <r>   -2.5015    1.0000 </r>
       <r>   -2.3951    1.0000 </r>
       <r>   -2.3665    1.0000 </r>
       <r>   -2.3152    1.0000 </r>
       <r>   -2.2848    1.0000 </r>
       <r>   -2.2633    1.0000 </r>
       <r>   -2.2315    1.0000 </r>
       <r>   -2.1788    1.0000 </r>
       <r>   -2.1585    1.0000 </r>
       <r>   -2.1122    1.0000 </r>
       <r>   -2.0769    1.0000 </r>
       <r>   -2.0429    1.0000 </r>
       <r>   -2.0236    1.0000 </r>
       <r>   -1.9628    1.0000 </r>
       <r>   -1.9401    1.0000 </r>
       <r>   -1.9280    1.0000 </r>
       <r>   -1.8024    1.0000 </r>
       <r>   -1.7613    1.0000 </r>
       <r>   -1.6916    1.0000 </r>
       <r>   -1.6551    1.0000 </r>
       <r>   -1.6393    1.0000 </r>
       <r>   -1.6236    1.0000 </r>
       <r>   -1.6169    1.0000 </r>
       <r>   -1.5840    1.0000 </r>
       <r>   -1.5537    1.0000 </r>
       <r>   -1.5457    1.0000 </r>
       <r>   -1.5342    1.0000 </r>
       <r>   -1.5126    1.0000 </r>
       <r>   -1.4891    1.0000 </r>
       <r>   -1.4811    1.0000 </r>
       <r>   -1.4782    1.0000 </r>
       <r>   -1.4482    1.0000 </r>
       <r>   -1.4401    1.0000 </r>
       <r>   -1.4232    1.0000 </r>
       <r>   -1.4046    1.0000 </r>
       <r>   -1.3864    1.0000 </r>
       <r>   -1.3829    1.0000 </r>
       <r>   -1.3692    1.0000 </r>
       <r>   -1.3381    1.0000 </r>
       <r>   -1.2791    1.0000 </r>
       <r>   -1.2331    1.0000 </r>
       <r>   -1.1925    1.0000 </r>
       <r>   -1.1639    1.0000 </r>
       <r>   -1.1597    1.0000 </r>
       <r>   -1.1287    1.0000 </r>
       <r>   -1.0890    1.0000 </r>
       <r>   -1.0478    1.0000 </r>
       <r>   -1.0374    1.0000 </r>
       <r>   -0.9685    1.0000 </r>
       <r>   -0.9648    1.0000 </r>
       <r>   -0.9158    1.0000 </r>
       <r>   -0.8525    1.0000 </r>
       <r>   -0.6876    1.0000 </r>
       <r>   -0.6416    1.0000 </r>
       <r>   -0.6273    1.0000 </r>
       <r>   -0.5367    1.0000 </r>
       <r>   -0.3299    1.0000 </r>
       <r>    2.9223    0.0000 </r>
       <r>    2.9266    0.0000 </r>
       <r>    2.9501    0.0000 </r>
       <r>    2.9728    0.0000 </r>
       <r>    3.6258    0.0000 </r>
       <r>    3.9060    0.0000 </r>
       <r>    3.9432    0.0000 </r>
       <r>    3.9626    0.0000 </r>
       <r>    4.0977    0.0000 </r>
       <r>    4.1206    0.0000 </r>
       <r>    4.1876    0.0000 </r>
       <r>    4.1974    0.0000 </r>
       <r>    4.3818    0.0000 </r>
       <r>    4.4255    0.0000 </r>
       <r>    4.4782    0.0000 </r>
       <r>    4.5262    0.0000 </r>
       <r>    4.6220    0.0000 </r>
       <r>    4.6576    0.0000 </r>
       <r>    4.6708    0.0000 </r>
       <r>    4.8883    0.0000 </r>
       <r>    5.4457    0.0000 </r>
       <r>    5.4902    0.0000 </r>
       <r>    5.5383    0.0000 </r>
       <r>    5.6023    0.0000 </r>
       <r>    5.6975    0.0000 </r>
       <r>    5.8870    0.0000 </r>
       <r>    5.9032    0.0000 </r>
       <r>    5.9740    0.0000 </r>
       <r>    6.0201    0.0000 </r>
       <r>    6.1391    0.0000 </r>
       <r>    6.2231    0.0000 </r>
       <r>    6.2860    0.0000 </r>
       <r>    6.3739    0.0000 </r>
       <r>    6.4392    0.0000 </r>
       <r>    6.4638    0.0000 </r>
       <r>    6.5571    0.0000 </r>
      </set>
      <set comment="kpoint 5">
       <r>  -21.0508    1.0000 </r>
       <r>  -20.9993    1.0000 </r>
       <r>  -20.9920    1.0000 </r>
       <r>  -20.9777    1.0000 </r>
       <r>  -20.9597    1.0000 </r>
       <r>  -20.9350    1.0000 </r>
       <r>  -20.9228    1.0000 </r>
       <r>  -16.9644    1.0000 </r>
       <r>  -16.9317    1.0000 </r>
       <r>  -16.8973    1.0000 </r>
       <r>  -16.8739    1.0000 </r>
       <r>  -16.8625    1.0000 </r>
       <r>  -16.8273    1.0000 </r>
       <r>  -16.8226    1.0000 </r>
       <r>  -16.8189    1.0000 </r>
       <r>  -16.8137    1.0000 </r>
       <r>  -16.7999    1.0000 </r>
       <r>  -16.7991    1.0000 </r>
       <r>  -16.7950    1.0000 </r>
       <r>  -16.7796    1.0000 </r>
       <r>  -16.7790    1.0000 </r>
       <r>  -16.7396    1.0000 </r>
       <r>  -16.7385    1.0000 </r>
       <r>  -16.7144    1.0000 </r>
       <r>  -16.7143    1.0000 </r>
       <r>  -16.7101    1.0000 </r>
       <r>  -16.7091    1.0000 </r>
       <r>  -16.5697    1.0000 </r>
       <r>  -16.5511    1.0000 </r>
       <r>  -16.5500    1.0000 </r>
       <r>  -16.5172    1.0000 </r>
       <r>  -16.5132    1.0000 </r>
       <r>  -16.4881    1.0000 </r>
       <r>  -16.4855    1.0000 </r>
       <r>  -16.4528    1.0000 </r>
       <r>  -16.4313    1.0000 </r>
       <r>  -16.4309    1.0000 </r>
       <r>  -16.4299    1.0000 </r>
       <r>  -16.4292    1.0000 </r>
       <r>  -16.4182    1.0000 </r>
       <r>  -16.4173    1.0000 </r>
       <r>  -16.3943    1.0000 </r>
       <r>  -16.3942    1.0000 </r>
       <r>  -16.3827    1.0000 </r>
       <r>  -16.3815    1.0000 </r>
       <r>  -16.3754    1.0000 </r>
       <r>  -16.3742    1.0000 </r>
       <r>  -15.1165    1.0000 </r>
       <r>  -14.7555    1.0000 </r>
       <r>  -14.7331    1.0000 </r>
       <r>  -14.5391    1.0000 </r>
       <r>  -14.4211    1.0000 </r>
       <r>  -14.3789    1.0000 </r>
       <r>  -14.3429    1.0000 </r>
       <r>  -14.3428    1.0000 </r>
       <r>  -14.2264    1.0000 </r>
       <r>  -14.2095    1.0000 </r>
       <r>  -14.1585    1.0000 </r>
       <r>  -14.1416    1.0000 </r>
       <r>  -14.0750    1.0000 </r>
       <r>  -14.0718    1.0000 </r>
       <r>  -14.0572    1.0000 </r>
       <r>  -14.0477    1.0000 </r>
       <r>  -14.0402    1.0000 </r>
       <r>  -14.0320    1.0000 </r>
       <r>  -14.0166    1.0000 </r>
       <r>  -13.9668    1.0000 </r>
       <r>  -13.8926    1.0000 </r>
       <r>  -13.8730    1.0000 </r>
       <r>  -13.7821    1.0000 </r>
       <r>  -13.6002    1.0000 </r>
       <r>   -8.4758    1.0000 </r>
       <r>   -8.0154    1.0000 </r>
       <r>   -8.0095    1.0000 </r>
       <r>   -7.9934    1.0000 </r>
       <r>   -7.7972    1.0000 </r>
       <r>   -7.5741    1.0000 </r>
       <r>   -7.5466    1.0000 </r>
       <r>   -7.5231    1.0000 </r>
       <r>   -7.4541    1.0000 </r>
       <r>   -7.4351    1.0000 </r>
       <r>   -7.4322    1.0000 </r>
       <r>   -7.4289    1.0000 </r>
       <r>   -7.4067    1.0000 </r>
       <r>   -7.3855    1.0000 </r>
       <r>   -7.3840    1.0000 </r>
       <r>   -7.3779    1.0000 </r>
       <r>   -7.3753    1.0000 </r>
       <r>   -7.3616    1.0000 </r>
       <r>   -7.3590    1.0000 </r>
       <r>   -7.3539    1.0000 </r>
       <r>   -7.3425    1.0000 </r>
       <r>   -7.3415    1.0000 </r>
       <r>   -7.3268    1.0000 </r>
       <r>   -7.3204    1.0000 </r>
       <r>   -7.3191    1.0000 </r>
       <r>   -7.3164    1.0000 </r>
       <r>   -7.3064    1.0000 </r>
       <r>   -7.2237    1.0000 </r>
       <r>   -6.9499    1.0000 </r>
       <r>   -3.7278    1.0000 </r>
       <r>   -3.6432    1.0000 </r>
       <r>   -3.6171    1.0000 </r>
       <r>   -3.5647    1.0000 </r>
       <r>   -3.2652    1.0000 </r>
       <r>   -3.2528    1.0000 </r>
       <r>   -3.1974    1.0000 </r>
       <r>   -3.0490    1.0000 </r>
       <r>   -2.7893    1.0000 </r>
       <r>   -2.7343    1.0000 </r>
       <r>   -2.7083    1.0000 </r>
       <r>   -2.6439    1.0000 </r>
       <r>   -2.6011    1.0000 </r>
       <r>   -2.5717    1.0000 </r>
       <r>   -2.4971    1.0000 </r>
       <r>   -2.4814    1.0000 </r>
       <r>   -2.4511    1.0000 </r>
       <r>   -2.3660    1.0000 </r>
       <r>   -2.2718    1.0000 </r>
       <r>   -2.2085    1.0000 </r>
       <r>   -2.2023    1.0000 </r>
       <r>   -2.1838    1.0000 </r>
       <r>   -2.0949    1.0000 </r>
       <r>   -2.0529    1.0000 </r>
       <r>   -1.9987    1.0000 </r>
       <r>   -1.9538    1.0000 </r>
       <r>   -1.9439    1.0000 </r>
       <r>   -1.9249    1.0000 </r>
       <r>   -1.8641    1.0000 </r>
       <r>   -1.8414    1.0000 </r>
       <r>   -1.7888    1.0000 </r>
       <r>   -1.7269    1.0000 </r>
       <r>   -1.7049    1.0000 </r>
       <r>   -1.6870    1.0000 </r>
       <r>   -1.6828    1.0000 </r>
       <r>   -1.6710    1.0000 </r>
       <r>   -1.6457    1.0000 </r>
       <r>   -1.5794    1.0000 </r>
       <r>   -1.5671    1.0000 </r>
       <r>   -1.5468    1.0000 </r>
       <r>   -1.5401    1.0000 </r>
       <r>   -1.4745    1.0000 </r>
       <r>   -1.4704    1.0000 </r>
       <r>   -1.4536    1.0000 </r>
       <r>   -1.4531    1.0000 </r>
       <r>   -1.4161    1.0000 </r>
       <r>   -1.4030    1.0000 </r>
       <r>   -1.3931    1.0000 </r>
       <r>   -1.3784    1.0000 </r>
       <r>   -1.3780    1.0000 </r>
       <r>   -1.3575    1.0000 </r>
       <r>   -1.3410    1.0000 </r>
       <r>   -1.3163    1.0000 </r>
       <r>   -1.3126    1.0000 </r>
       <r>   -1.2756    1.0000 </r>
       <r>   -1.2631    1.0000 </r>
       <r>   -1.2449    1.0000 </r>
       <r>   -1.2332    1.0000 </r>
       <r>   -1.1957    1.0000 </r>
       <r>   -1.1441    1.0000 </r>
       <r>   -1.0967    1.0000 </r>
       <r>   -1.0709    1.0000 </r>
       <r>   -1.0188    1.0000 </r>
       <r>   -0.9564    1.0000 </r>
       <r>   -0.8910    1.0000 </r>
       <r>   -0.8707    1.0000 </r>
       <r>   -0.8041    1.0000 </r>
       <r>   -0.6271    1.0000 </r>
       <r>   -0.6214    1.0000 </r>
       <r>   -0.5098    1.0000 </r>
       <r>   -0.2383    1.0000 </r>
       <r>   -0.0110    1.0000 </r>
       <r>    2.5023    0.0000 </r>
       <r>    2.5099    0.0000 </r>
       <r>    2.8090    0.0000 </r>
       <r>    2.9019    0.0000 </r>
       <r>    2.9308    0.0000 </r>
       <r>    2.9430    0.0000 </r>
       <r>    3.2336    0.0000 </r>
       <r>    3.3398    0.0000 </r>
       <r>    3.8596    0.0000 </r>
       <r>    4.1222    0.0000 </r>
       <r>    4.1813    0.0000 </r>
       <r>    4.1979    0.0000 </r>
       <r>    4.4386    0.0000 </r>
       <r>    4.4708    0.0000 </r>
       <r>    4.5157    0.0000 </r>
       <r>    4.7266    0.0000 </r>
       <r>    5.0016    0.0000 </r>
       <r>    5.2669    0.0000 </r>
       <r>    5.3321    0.0000 </r>
       <r>    5.5229    0.0000 </r>
       <r>    5.5487    0.0000 </r>
       <r>    5.5675    0.0000 </r>
       <r>    5.7081    0.0000 </r>
       <r>    5.8387    0.0000 </r>
       <r>    5.8871    0.0000 </r>
       <r>    5.9036    0.0000 </r>
       <r>    6.0582    0.0000 </r>
       <r>    6.1461    0.0000 </r>
       <r>    6.1779    0.0000 </r>
       <r>    6.2560    0.0000 </r>
       <r>    6.2621    0.0000 </r>
       <r>    6.2749    0.0000 </r>
       <r>    6.4097    0.0000 </r>
       <r>    6.4400    0.0000 </r>
       <r>    6.4661    0.0000 </r>
       <r>    6.5358    0.0000 </r>
      </set>
      <set comment="kpoint 6">
       <r>  -21.0507    1.0000 </r>
       <r>  -20.9993    1.0000 </r>
       <r>  -20.9919    1.0000 </r>
       <r>  -20.9776    1.0000 </r>
       <r>  -20.9596    1.0000 </r>
       <r>  -20.9348    1.0000 </r>
       <r>  -20.9228    1.0000 </r>
       <r>  -16.9604    1.0000 </r>
       <r>  -16.9203    1.0000 </r>
       <r>  -16.8894    1.0000 </r>
       <r>  -16.8736    1.0000 </r>
       <r>  -16.8709    1.0000 </r>
       <r>  -16.8388    1.0000 </r>
       <r>  -16.8223    1.0000 </r>
       <r>  -16.8200    1.0000 </r>
       <r>  -16.8180    1.0000 </r>
       <r>  -16.7999    1.0000 </r>
       <r>  -16.7992    1.0000 </r>
       <r>  -16.7949    1.0000 </r>
       <r>  -16.7796    1.0000 </r>
       <r>  -16.7790    1.0000 </r>
       <r>  -16.7396    1.0000 </r>
       <r>  -16.7384    1.0000 </r>
       <r>  -16.7143    1.0000 </r>
       <r>  -16.7142    1.0000 </r>
       <r>  -16.7100    1.0000 </r>
       <r>  -16.7091    1.0000 </r>
       <r>  -16.5685    1.0000 </r>
       <r>  -16.5417    1.0000 </r>
       <r>  -16.5396    1.0000 </r>
       <r>  -16.5135    1.0000 </r>
       <r>  -16.5090    1.0000 </r>
       <r>  -16.5001    1.0000 </r>
       <r>  -16.4983    1.0000 </r>
       <r>  -16.4578    1.0000 </r>
       <r>  -16.4313    1.0000 </r>
       <r>  -16.4309    1.0000 </r>
       <r>  -16.4299    1.0000 </r>
       <r>  -16.4291    1.0000 </r>
       <r>  -16.4181    1.0000 </r>
       <r>  -16.4171    1.0000 </r>
       <r>  -16.3943    1.0000 </r>
       <r>  -16.3942    1.0000 </r>
       <r>  -16.3827    1.0000 </r>
       <r>  -16.3814    1.0000 </r>
       <r>  -16.3754    1.0000 </r>
       <r>  -16.3741    1.0000 </r>
       <r>  -15.1149    1.0000 </r>
       <r>  -14.7657    1.0000 </r>
       <r>  -14.7218    1.0000 </r>
       <r>  -14.5510    1.0000 </r>
       <r>  -14.4372    1.0000 </r>
       <r>  -14.3428    1.0000 </r>
       <r>  -14.3300    1.0000 </r>
       <r>  -14.3122    1.0000 </r>
       <r>  -14.2747    1.0000 </r>
       <r>  -14.2131    1.0000 </r>
       <r>  -14.1774    1.0000 </r>
       <r>  -14.1659    1.0000 </r>
       <r>  -14.0901    1.0000 </r>
       <r>  -14.0738    1.0000 </r>
       <r>  -14.0571    1.0000 </r>
       <r>  -14.0452    1.0000 </r>
       <r>  -14.0335    1.0000 </r>
       <r>  -13.9715    1.0000 </r>
       <r>  -13.9642    1.0000 </r>
       <r>  -13.9638    1.0000 </r>
       <r>  -13.9080    1.0000 </r>
       <r>  -13.9039    1.0000 </r>
       <r>  -13.7903    1.0000 </r>
       <r>  -13.6079    1.0000 </r>
       <r>   -8.3323    1.0000 </r>
       <r>   -8.1676    1.0000 </r>
       <r>   -7.9202    1.0000 </r>
       <r>   -7.8292    1.0000 </r>
       <r>   -7.8044    1.0000 </r>
       <r>   -7.7675    1.0000 </r>
       <r>   -7.6184    1.0000 </r>
       <r>   -7.4758    1.0000 </r>
       <r>   -7.4553    1.0000 </r>
       <r>   -7.4396    1.0000 </r>
       <r>   -7.4335    1.0000 </r>
       <r>   -7.4108    1.0000 </r>
       <r>   -7.4009    1.0000 </r>
       <r>   -7.3923    1.0000 </r>
       <r>   -7.3818    1.0000 </r>
[...]
        <r>  0.0004  0.0003  0.0005 </r>
        <r>  0.0009  0.0012  0.0008 </r>
        <r>  0.0004  0.0016  0.0008 </r>
        <r>  0.0000  0.0014  0.0004 </r>
        <r>  0.0002  0.0012  0.0039 </r>
        <r>  0.0002  0.0010  0.0002 </r>
        <r>  0.0004  0.0014  0.0006 </r>
        <r>  0.0015  0.0016  0.0012 </r>
        <r>  0.0000  0.0000  0.0119 </r>
       </set>
       <set comment="band 199">
        <r>  0.0000  0.0000  0.0010 </r>
        <r>  0.0000  0.0000  0.0018 </r>
        <r>  0.0006  0.0007  0.0068 </r>
        <r>  0.0000  0.0000  0.0085 </r>
        <r>  0.0000  0.0000  0.0008 </r>
        <r>  0.0061  0.0012  0.0275 </r>
        <r>  0.0000  0.0029  0.0005 </r>
        <r>  0.0002  0.0005  0.0001 </r>
        <r>  0.0000  0.0011  0.0007 </r>
        <r>  0.0000  0.0046  0.0001 </r>
        <r>  0.0000  0.0011  0.0007 </r>
        <r>  0.0000  0.0046  0.0001 </r>
        <r>  0.0000  0.0029  0.0005 </r>
        <r>  0.0002  0.0005  0.0001 </r>
        <r>  0.0005  0.0024  0.0073 </r>
        <r>  0.0001  0.0049  0.0007 </r>
        <r>  0.0000  0.0008  0.0007 </r>
        <r>  0.0000  0.0004  0.0004 </r>
        <r>  0.0004  0.0052  0.0073 </r>
        <r>  0.0006  0.0012  0.0004 </r>
        <r>  0.0000  0.0003  0.0002 </r>
        <r>  0.0000  0.0002  0.0001 </r>
        <r>  0.0014  0.0015  0.0011 </r>
        <r>  0.0000  0.0001  0.0002 </r>
        <r>  0.0002  0.0028  0.0008 </r>
        <r>  0.0000  0.0013  0.0008 </r>
        <r>  0.0004  0.0004  0.0001 </r>
        <r>  0.0000  0.0037  0.0007 </r>
        <r>  0.0002  0.0009  0.0014 </r>
        <r>  0.0011  0.0023  0.0009 </r>
        <r>  0.0014  0.0015  0.0011 </r>
        <r>  0.0000  0.0001  0.0002 </r>
        <r>  0.0002  0.0028  0.0008 </r>
        <r>  0.0000  0.0013  0.0008 </r>
        <r>  0.0002  0.0009  0.0014 </r>
        <r>  0.0011  0.0023  0.0009 </r>
        <r>  0.0004  0.0004  0.0001 </r>
        <r>  0.0000  0.0037  0.0007 </r>
        <r>  0.0004  0.0005  0.0538 </r>
       </set>
       <set comment="band 200">
        <r>  0.0033  0.0023  0.0150 </r>
        <r>  0.0088  0.0018  0.0032 </r>
        <r>  0.0000  0.0011  0.0089 </r>
        <r>  0.0065  0.0026  0.0122 </r>
        <r>  0.0023  0.0008  0.0101 </r>
        <r>  0.0000  0.0001  0.0026 </r>
        <r>  0.0000  0.0076  0.0001 </r>
        <r>  0.0000  0.0010  0.0000 </r>
        <r>  0.0001  0.0052  0.0001 </r>
        <r>  0.0000  0.0016  0.0000 </r>
        <r>  0.0001  0.0052  0.0001 </r>
        <r>  0.0000  0.0016  0.0000 </r>
        <r>  0.0000  0.0076  0.0001 </r>
        <r>  0.0000  0.0010  0.0000 </r>
        <r>  0.0000  0.0001  0.0002 </r>
        <r>  0.0000  0.0004  0.0000 </r>
        <r>  0.0082  0.0015  0.0069 </r>
        <r>  0.0001  0.0017  0.0026 </r>
        <r>  0.0000  0.0097  0.0002 </r>
        <r>  0.0000  0.0000  0.0000 </r>
        <r>  0.0003  0.0056  0.0016 </r>
        <r>  0.0002  0.0055  0.0004 </r>
        <r>  0.0035  0.0050  0.0031 </r>
        <r>  0.0000  0.0006  0.0005 </r>
        <r>  0.0000  0.0010  0.0002 </r>
        <r>  0.0006  0.0014  0.0004 </r>
        <r>  0.0000  0.0015  0.0006 </r>
        <r>  0.0003  0.0015  0.0002 </r>
        <r>  0.0002  0.0020  0.0018 </r>
        <r>  0.0000  0.0002  0.0006 </r>
        <r>  0.0035  0.0050  0.0031 </r>
        <r>  0.0000  0.0006  0.0005 </r>
        <r>  0.0000  0.0010  0.0002 </r>
        <r>  0.0006  0.0014  0.0004 </r>
        <r>  0.0002  0.0020  0.0018 </r>
        <r>  0.0000  0.0002  0.0006 </r>
        <r>  0.0000  0.0015  0.0006 </r>
        <r>  0.0003  0.0015  0.0002 </r>
        <r>  0.0000  0.0002  0.0069 </r>
       </set>
       <set comment="band 201">
        <r>  0.0000  0.0003  0.0103 </r>
        <r>  0.0000  0.0009  0.0108 </r>
        <r>  0.0214  0.0004  0.0242 </r>
        <r>  0.0000  0.0007  0.0042 </r>
        <r>  0.0000  0.0000  0.0020 </r>
        <r>  0.0000  0.0007  0.0035 </r>
        <r>  0.0000  0.0055  0.0002 </r>
        <r>  0.0000  0.0034  0.0001 </r>
        <r>  0.0001  0.0033  0.0001 </r>
        <r>  0.0000  0.0053  0.0001 </r>
        <r>  0.0001  0.0033  0.0001 </r>
        <r>  0.0000  0.0053  0.0001 </r>
        <r>  0.0000  0.0055  0.0002 </r>
        <r>  0.0000  0.0034  0.0001 </r>
        <r>  0.0021  0.0029  0.0035 </r>
        <r>  0.0005  0.0005  0.0002 </r>
        <r>  0.0000  0.0016  0.0002 </r>
        <r>  0.0000  0.0002  0.0001 </r>
        <r>  0.0005  0.0019  0.0012 </r>
        <r>  0.0000  0.0048  0.0008 </r>
        <r>  0.0000  0.0023  0.0001 </r>
        <r>  0.0000  0.0025  0.0001 </r>
        <r>  0.0013  0.0020  0.0022 </r>
        <r>  0.0002  0.0023  0.0002 </r>
        <r>  0.0002  0.0011  0.0004 </r>
        <r>  0.0032  0.0020  0.0032 </r>
        <r>  0.0003  0.0006  0.0013 </r>
        <r>  0.0001  0.0046  0.0002 </r>
        <r>  0.0000  0.0012  0.0008 </r>
        <r>  0.0013  0.0030  0.0021 </r>
        <r>  0.0013  0.0020  0.0022 </r>
        <r>  0.0002  0.0023  0.0002 </r>
        <r>  0.0002  0.0011  0.0004 </r>
        <r>  0.0032  0.0020  0.0032 </r>
        <r>  0.0000  0.0012  0.0008 </r>
        <r>  0.0013  0.0030  0.0021 </r>
        <r>  0.0003  0.0006  0.0013 </r>
        <r>  0.0001  0.0046  0.0002 </r>
        <r>  0.0001  0.0020  0.0039 </r>
       </set>
       <set comment="band 202">
        <r>  0.0055  0.0014  0.0052 </r>
        <r>  0.0024  0.0014  0.0034 </r>
        <r>  0.0000  0.0007  0.0100 </r>
        <r>  0.0037  0.0021  0.0028 </r>
        <r>  0.0141  0.0010  0.0108 </r>
        <r>  0.0000  0.0000  0.0091 </r>
        <r>  0.0000  0.0053  0.0000 </r>
        <r>  0.0000  0.0125  0.0001 </r>
        <r>  0.0000  0.0088  0.0002 </r>
        <r>  0.0000  0.0029  0.0001 </r>
        <r>  0.0000  0.0088  0.0002 </r>
        <r>  0.0000  0.0029  0.0001 </r>
        <r>  0.0000  0.0053  0.0000 </r>
        <r>  0.0000  0.0124  0.0001 </r>
        <r>  0.0000  0.0104  0.0003 </r>
        <r>  0.0000  0.0002  0.0001 </r>
        <r>  0.0003  0.0036  0.0003 </r>
        <r>  0.0007  0.0039  0.0019 </r>
        <r>  0.0000  0.0002  0.0001 </r>
        <r>  0.0000  0.0027  0.0001 </r>
        <r>  0.0064  0.0029  0.0058 </r>
        <r>  0.0001  0.0001  0.0017 </r>
        <r>  0.0018  0.0026  0.0018 </r>
        <r>  0.0002  0.0020  0.0006 </r>
        <r>  0.0012  0.0017  0.0010 </r>
        <r>  0.0000  0.0005  0.0004 </r>
        <r>  0.0009  0.0033  0.0015 </r>
        <r>  0.0003  0.0016  0.0016 </r>
        <r>  0.0006  0.0021  0.0010 </r>
        <r>  0.0000  0.0011  0.0005 </r>
        <r>  0.0018  0.0026  0.0018 </r>
        <r>  0.0002  0.0020  0.0006 </r>
        <r>  0.0012  0.0017  0.0010 </r>
        <r>  0.0000  0.0005  0.0004 </r>
        <r>  0.0006  0.0021  0.0010 </r>
        <r>  0.0000  0.0011  0.0005 </r>
        <r>  0.0009  0.0033  0.0015 </r>
        <r>  0.0003  0.0016  0.0016 </r>
        <r>  0.0000  0.0008  0.0029 </r>
       </set>
       <set comment="band 203">
        <r>  0.0000  0.0009  0.0060 </r>
        <r>  0.0000  0.0000  0.0066 </r>
        <r>  0.0002  0.0011  0.0027 </r>
        <r>  0.0000  0.0002  0.0048 </r>
        <r>  0.0000  0.0001  0.0181 </r>
        <r>  0.0166  0.0007  0.0044 </r>
        <r>  0.0000  0.0065  0.0005 </r>
        <r>  0.0000  0.0083  0.0002 </r>
        <r>  0.0000  0.0065  0.0005 </r>
        <r>  0.0000  0.0052  0.0001 </r>
        <r>  0.0000  0.0065  0.0005 </r>
        <r>  0.0000  0.0052  0.0001 </r>
        <r>  0.0000  0.0064  0.0005 </r>
        <r>  0.0000  0.0083  0.0002 </r>
        <r>  0.0009  0.0035  0.0018 </r>
        <r>  0.0017  0.0041  0.0016 </r>
        <r>  0.0000  0.0045  0.0007 </r>
        <r>  0.0000  0.0004  0.0001 </r>
        <r>  0.0023  0.0057  0.0016 </r>
        <r>  0.0000  0.0003  0.0001 </r>
        <r>  0.0000  0.0025  0.0002 </r>
        <r>  0.0000  0.0049  0.0000 </r>
        <r>  0.0002  0.0005  0.0007 </r>
        <r>  0.0000  0.0037  0.0004 </r>
        <r>  0.0015  0.0022  0.0031 </r>
        <r>  0.0000  0.0028  0.0006 </r>
        <r>  0.0000  0.0022  0.0005 </r>
        <r>  0.0021  0.0009  0.0025 </r>
        <r>  0.0001  0.0013  0.0020 </r>
        <r>  0.0008  0.0011  0.0012 </r>
        <r>  0.0002  0.0005  0.0007 </r>
        <r>  0.0000  0.0037  0.0004 </r>
        <r>  0.0015  0.0022  0.0031 </r>
        <r>  0.0000  0.0028  0.0006 </r>
        <r>  0.0001  0.0013  0.0020 </r>
        <r>  0.0009  0.0011  0.0012 </r>
        <r>  0.0000  0.0022  0.0005 </r>
        <r>  0.0020  0.0010  0.0024 </r>
        <r>  0.0000  0.0019  0.0119 </r>
       </set>
       <set comment="band 204">
        <r>  0.0074  0.0016  0.0166 </r>
        <r>  0.0003  0.0016  0.0133 </r>
        <r>  0.0000  0.0000  0.0085 </r>
        <r>  0.0119  0.0017  0.0076 </r>
        <r>  0.0000  0.0007  0.0051 </r>
        <r>  0.0000  0.0004  0.0084 </r>
        <r>  0.0000  0.0013  0.0001 </r>
        <r>  0.0000  0.0039  0.0001 </r>
        <r>  0.0000  0.0020  0.0001 </r>
        <r>  0.0000  0.0124  0.0000 </r>
        <r>  0.0000  0.0019  0.0001 </r>
        <r>  0.0000  0.0123  0.0000 </r>
        <r>  0.0000  0.0013  0.0001 </r>
        <r>  0.0000  0.0040  0.0001 </r>
        <r>  0.0000  0.0001  0.0001 </r>
        <r>  0.0000  0.0070  0.0000 </r>
        <r>  0.0000  0.0024  0.0026 </r>
        <r>  0.0022  0.0039  0.0020 </r>
        <r>  0.0000  0.0002  0.0003 </r>
        <r>  0.0000  0.0031  0.0001 </r>
        <r>  0.0001  0.0037  0.0007 </r>
        <r>  0.0043  0.0033  0.0052 </r>
        <r>  0.0001  0.0021  0.0024 </r>
        <r>  0.0002  0.0031  0.0003 </r>
        <r>  0.0000  0.0021  0.0002 </r>
        <r>  0.0001  0.0025  0.0009 </r>
        <r>  0.0007  0.0006  0.0009 </r>
        <r>  0.0008  0.0040  0.0012 </r>
        <r>  0.0000  0.0004  0.0003 </r>
        <r>  0.0022  0.0007  0.0019 </r>
        <r>  0.0001  0.0022  0.0024 </r>
        <r>  0.0002  0.0031  0.0003 </r>
        <r>  0.0000  0.0021  0.0002 </r>
        <r>  0.0001  0.0025  0.0008 </r>
        <r>  0.0001  0.0004  0.0003 </r>
        <r>  0.0023  0.0006  0.0019 </r>
        <r>  0.0007  0.0006  0.0009 </r>
        <r>  0.0007  0.0040  0.0011 </r>
        <r>  0.0000  0.0000  0.0010 </r>
       </set>
       <set comment="band 205">
        <r>  0.0000  0.0001  0.0158 </r>
        <r>  0.0000  0.0006  0.0001 </r>
        <r>  0.0035  0.0011  0.0073 </r>
        <r>  0.0000  0.0006  0.0044 </r>
        <r>  0.0000  0.0000  0.0013 </r>
        <r>  0.0000  0.0012  0.0022 </r>
        <r>  0.0000  0.0013  0.0002 </r>
        <r>  0.0001  0.0071  0.0002 </r>
        <r>  0.0000  0.0101  0.0006 </r>
        <r>  0.0000  0.0052  0.0001 </r>
        <r>  0.0000  0.0102  0.0006 </r>
        <r>  0.0000  0.0053  0.0001 </r>
        <r>  0.0000  0.0013  0.0002 </r>
        <r>  0.0001  0.0071  0.0002 </r>
        <r>  0.0006  0.0053  0.0037 </r>
        <r>  0.0006  0.0014  0.0009 </r>
        <r>  0.0000  0.0002  0.0003 </r>
        <r>  0.0000  0.0119  0.0002 </r>
        <r>  0.0008  0.0009  0.0016 </r>
        <r>  0.0027  0.0019  0.0037 </r>
        <r>  0.0000  0.0013  0.0004 </r>
        <r>  0.0000  0.0012  0.0000 </r>
        <r>  0.0005  0.0008  0.0007 </r>
        <r>  0.0005  0.0016  0.0003 </r>
        <r>  0.0005  0.0047  0.0019 </r>
        <r>  0.0006  0.0014  0.0008 </r>
        <r>  0.0008  0.0024  0.0015 </r>
        <r>  0.0000  0.0003  0.0006 </r>
        <r>  0.0000  0.0014  0.0003 </r>
        <r>  0.0009  0.0022  0.0012 </r>
        <r>  0.0005  0.0008  0.0007 </r>
        <r>  0.0005  0.0017  0.0003 </r>
        <r>  0.0005  0.0047  0.0019 </r>
        <r>  0.0006  0.0014  0.0008 </r>
        <r>  0.0000  0.0014  0.0003 </r>
        <r>  0.0009  0.0022  0.0012 </r>
        <r>  0.0008  0.0024  0.0015 </r>
        <r>  0.0000  0.0003  0.0006 </r>
        <r>  0.0000  0.0096  0.0117 </r>
       </set>
       <set comment="band 206">
        <r>  0.0026  0.0006  0.0034 </r>
        <r>  0.0011  0.0005  0.0059 </r>
        <r>  0.0000  0.0002  0.0243 </r>
        <r>  0.0004  0.0001  0.0329 </r>
        <r>  0.0029  0.0008  0.0252 </r>
        <r>  0.0000  0.0005  0.0194 </r>
        <r>  0.0000  0.0083  0.0007 </r>
        <r>  0.0001  0.0021  0.0001 </r>
        <r>  0.0000  0.0027  0.0004 </r>
        <r>  0.0001  0.0074  0.0010 </r>
        <r>  0.0000  0.0026  0.0004 </r>
        <r>  0.0001  0.0076  0.0010 </r>
        <r>  0.0000  0.0083  0.0007 </r>
        <r>  0.0001  0.0020  0.0001 </r>
        <r>  0.0000  0.0001  0.0011 </r>
        <r>  0.0000  0.0026  0.0006 </r>
        <r>  0.0000  0.0002  0.0009 </r>
        <r>  0.0005  0.0001  0.0010 </r>
        <r>  0.0000  0.0004  0.0007 </r>
        <r>  0.0000  0.0002  0.0001 </r>
        <r>  0.0014  0.0015  0.0035 </r>
        <r>  0.0020  0.0002  0.0031 </r>
        <r>  0.0005  0.0018  0.0027 </r>
        <r>  0.0000  0.0003  0.0007 </r>
        <r>  0.0005  0.0027  0.0005 </r>
        <r>  0.0005  0.0027  0.0012 </r>
        <r>  0.0001  0.0007  0.0016 </r>
        <r>  0.0010  0.0017  0.0029 </r>
        <r>  0.0000  0.0005  0.0002 </r>
        <r>  0.0004  0.0031  0.0021 </r>
        <r>  0.0005  0.0017  0.0027 </r>
        <r>  0.0000  0.0003  0.0006 </r>
        <r>  0.0005  0.0028  0.0005 </r>
        <r>  0.0005  0.0027  0.0012 </r>
        <r>  0.0000  0.0005  0.0002 </r>
        <r>  0.0004  0.0030  0.0021 </r>
        <r>  0.0001  0.0007  0.0016 </r>
        <r>  0.0010  0.0017  0.0030 </r>
        <r>  0.0000  0.0003  0.0001 </r>
       </set>
       <set comment="band 207">
        <r>  0.0022  0.0001  0.0540 </r>
        <r>  0.0019  0.0002  0.0408 </r>
        <r>  0.0000  0.0001  0.0039 </r>
        <r>  0.0003  0.0006  0.0052 </r>
        <r>  0.0000  0.0011  0.0032 </r>
        <r>  0.0000  0.0000  0.0113 </r>
        <r>  0.0000  0.0025  0.0012 </r>
        <r>  0.0001  0.0032  0.0007 </r>
        <r>  0.0001  0.0009  0.0001 </r>
        <r>  0.0000  0.0022  0.0004 </r>
        <r>  0.0001  0.0010  0.0002 </r>
        <r>  0.0000  0.0016  0.0005 </r>
        <r>  0.0000  0.0026  0.0011 </r>
        <r>  0.0001  0.0034  0.0007 </r>
        <r>  0.0000  0.0002  0.0002 </r>
        <r>  0.0000  0.0001  0.0003 </r>
        <r>  0.0051  0.0027  0.0062 </r>
        <r>  0.0025  0.0014  0.0035 </r>
        <r>  0.0001  0.0001  0.0022 </r>
        <r>  0.0000  0.0022  0.0006 </r>
        <r>  0.0005  0.0008  0.0023 </r>
        <r>  0.0001  0.0010  0.0013 </r>
        <r>  0.0002  0.0010  0.0013 </r>
        <r>  0.0001  0.0009  0.0009 </r>
        <r>  0.0000  0.0023  0.0011 </r>
        <r>  0.0000  0.0005  0.0006 </r>
        <r>  0.0000  0.0021  0.0011 </r>
        <r>  0.0001  0.0038  0.0026 </r>
        <r>  0.0000  0.0008  0.0013 </r>
        <r>  0.0000  0.0006  0.0007 </r>
        <r>  0.0002  0.0009  0.0014 </r>
        <r>  0.0001  0.0010  0.0009 </r>
        <r>  0.0000  0.0024  0.0011 </r>
        <r>  0.0000  0.0006  0.0006 </r>
        <r>  0.0001  0.0008  0.0014 </r>
        <r>  0.0000  0.0007  0.0006 </r>
        <r>  0.0000  0.0018  0.0011 </r>
        <r>  0.0000  0.0038  0.0026 </r>
        <r>  0.0000  0.0001  0.0062 </r>
       </set>
       <set comment="band 208">
        <r>  0.0012  0.0003  0.0089 </r>
        <r>  0.0014  0.0002  0.0137 </r>
        <r>  0.0000  0.0001  0.0036 </r>
        <r>  0.0002  0.0001  0.0348 </r>
        <r>  0.0001  0.0003  0.0429 </r>
        <r>  0.0001  0.0001  0.0061 </r>
        <r>  0.0000  0.0016  0.0004 </r>
        <r>  0.0000  0.0009  0.0005 </r>
        <r>  0.0000  0.0041  0.0017 </r>
        <r>  0.0000  0.0018  0.0001 </r>
        <r>  0.0000  0.0036  0.0011 </r>
        <r>  0.0000  0.0023  0.0001 </r>
        <r>  0.0000  0.0022  0.0004 </r>
        <r>  0.0000  0.0007  0.0002 </r>
        <r>  0.0001  0.0004  0.0007 </r>
        <r>  0.0000  0.0010  0.0002 </r>
        <r>  0.0001  0.0002  0.0015 </r>
        <r>  0.0003  0.0005  0.0014 </r>
        <r>  0.0002  0.0003  0.0003 </r>
        <r>  0.0000  0.0008  0.0001 </r>
        <r>  0.0002  0.0009  0.0020 </r>
        <r>  0.0015  0.0022  0.0027 </r>
        <r>  0.0002  0.0016  0.0014 </r>
        <r>  0.0001  0.0024  0.0020 </r>
        <r>  0.0001  0.0010  0.0008 </r>
        <r>  0.0000  0.0026  0.0003 </r>
        <r>  0.0003  0.0006  0.0023 </r>
        <r>  0.0001  0.0010  0.0012 </r>
        <r>  0.0011  0.0045  0.0054 </r>
        <r>  0.0000  0.0004  0.0003 </r>
        <r>  0.0004  0.0018  0.0021 </r>
        <r>  0.0000  0.0023  0.0027 </r>
        <r>  0.0000  0.0006  0.0010 </r>
        <r>  0.0000  0.0016  0.0006 </r>
        <r>  0.0006  0.0042  0.0050 </r>
        <r>  0.0002  0.0002  0.0008 </r>
        <r>  0.0003  0.0008  0.0018 </r>
        <r>  0.0003  0.0010  0.0017 </r>
        <r>  0.0000  0.0007  0.0272 </r>
       </set>
      </set>
     </set>
    </set>
   </array>
  </projected>
 </calculation>
 <structure name="finalpos" >
  <crystal>
   <varray name="basis" >
    <v>       8.42001800       0.00000000       8.07798100 </v>
    <v>       0.00000000      11.76380800       0.00000000 </v>
    <v>      -8.42001800       0.00000000       8.07798100 </v>
   </varray>
   <i name="volume">   1600.27186790 </i>
   <varray name="rec_basis" >
    <v>       0.05938230      -0.00000000       0.06189665 </v>
    <v>       0.00000000       0.08500649      -0.00000000 </v>
    <v>      -0.05938230       0.00000000       0.06189665 </v>
   </varray>
  </crystal>
  <varray name="positions" >
   <v>       0.27088800       0.25000000       0.20230000 </v>
   <v>       0.77556500       0.25000100       0.71511300 </v>
   <v>       0.20661500       0.75000000       0.76772200 </v>
   <v>       0.29137000       0.24999900       0.72865100 </v>
   <v>       0.79122200       0.24999900       0.22493000 </v>
   <v>       0.23638600       0.75000100       0.29576200 </v>
   <v>       0.99913600       0.99682200       0.00008600 </v>
   <v>       0.50300300       0.00030800       0.49694500 </v>
   <v>       0.50336400       0.99771800       0.99729500 </v>
   <v>       0.99960400       0.99946400       0.50049300 </v>
   <v>       0.50336300       0.50227800       0.99729900 </v>
   <v>       0.99959900       0.50053400       0.50049700 </v>
   <v>       0.99914300       0.50316900       0.00008700 </v>
   <v>       0.50300300       0.49970100       0.49694300 </v>
   <v>       0.46093100       0.75000300       0.96376400 </v>
   <v>       0.97780700       0.74999900       0.46251100 </v>
   <v>       0.97005000       0.24999700       0.97129300 </v>
   <v>       0.45400800       0.25000100       0.46570100 </v>
   <v>       0.05026700       0.74999700       0.03454400 </v>
   <v>       0.52347000       0.75000200       0.52672100 </v>
   <v>       0.53037200       0.25000100       0.03449800 </v>
   <v>       0.03271900       0.24999900       0.54141500 </v>
   <v>       0.24899600       0.46476100       0.94877500 </v>
   <v>       0.74927900       0.45243700       0.45487900 </v>
   <v>       0.44345300       0.52490000       0.24572500 </v>
   <v>       0.94981200       0.53548100       0.74848200 </v>
   <v>       0.54485600       0.04563000       0.74941900 </v>
   <v>       0.05144300       0.03731500       0.25231600 </v>
   <v>       0.75346200       0.97171500       0.05613600 </v>
   <v>       0.25236200       0.96788100       0.55055300 </v>
   <v>       0.24899600       0.03524100       0.94877500 </v>
   <v>       0.74927900       0.04756400       0.45487900 </v>
   <v>       0.44345200       0.97510100       0.24572300 </v>
   <v>       0.94981300       0.96451800       0.74848200 </v>
   <v>       0.75346200       0.52828600       0.05613700 </v>
   <v>       0.25236300       0.53212000       0.55055200 </v>
   <v>       0.54485600       0.45437300       0.74942000 </v>
   <v>       0.05143900       0.46268200       0.25231700 </v>
   <v>       0.71273700       0.75000100       0.03091400 </v>
  </varray>
 </structure>
</modeling>
