 running on   64 total cores
 distrk:  each k-point on   64 cores,    1 groups
 distr:  one band on    8 cores,    8 groups
 using from now: INCAR     
 vasp.5.4.4.18Apr17-6-g9f103f2a35 (build Jun 22 2020 09:27:21) complex           
 POSCAR found type information on POSCAR  Cs Pb Br Cs
 POSCAR found :  4 types and      39 ions
 scaLAPACK will be used
 LDA part: xc-table for Pade appr. of Perdew
 POSCAR found type information on POSCAR  Cs Pb Br Cs
 POSCAR found :  4 types and      39 ions
 POSCAR, INCAR and KPOINTS ok, starting setup
 FFT: planning ...
 WAVECAR not read
 entering main loop
       N       E                     dE             d eps       ncg     rms          rms(c)
DAV:   1     0.136409988554E+04    0.13641E+04   -0.11069E+05  3488   0.971E+02
DAV:   2    -0.108761380019E+04   -0.24517E+04   -0.23696E+04  4112   0.300E+02
DAV:   3    -0.144986858235E+04   -0.36225E+03   -0.36017E+03  4400   0.137E+02
DAV:   4    -0.146239537152E+04   -0.12527E+02   -0.12488E+02  4016   0.336E+01
DAV:   5    -0.146291718173E+04   -0.52181E+00   -0.52152E+00  4424   0.528E+00BRMIX: very serious problems
 the old and the new charge density differ
 old charge density:   343.00000 new  344.00000
    0.115E+01
DAV:   6    -0.138364840491E+04    0.79269E+02   -0.23435E+01  4376   0.327E+01    0.786E+00
DAV:   7    -0.138325693946E+04    0.39147E+00   -0.97682E+00  4120   0.596E+00    0.382E+00
DAV:   8    -0.138344114544E+04   -0.18421E+00   -0.45152E-01  3904   0.208E+00    0.224E+00
DAV:   9    -0.138352428784E+04   -0.83142E-01   -0.14628E-01  3648   0.127E+00    0.393E-01
DAV:  10    -0.138352720782E+04   -0.29200E-02   -0.13364E-02  4736   0.382E-01    0.269E-01
DAV:  11    -0.138353010405E+04   -0.28962E-02   -0.23087E-03  3688   0.148E-01    0.108E-01
DAV:  12    -0.138353211028E+04   -0.20062E-02   -0.22645E-03  3640   0.116E-01    0.585E-02
DAV:  13    -0.138353195514E+04    0.15514E-03   -0.89075E-04  4584   0.848E-02    0.249E-02
DAV:  14    -0.138353195140E+04    0.37403E-05   -0.12319E-04  3864   0.224E-02    0.172E-02
DAV:  15    -0.138353193987E+04    0.11528E-04   -0.30961E-05  3616   0.145E-02    0.104E-02
DAV:  16    -0.138353199738E+04   -0.57508E-04   -0.13490E-05  3808   0.116E-02    0.441E-03
DAV:  17    -0.138353199999E+04   -0.26145E-05   -0.44009E-06  3264   0.553E-03    0.299E-03
DAV:  18    -0.138353199791E+04    0.20843E-05   -0.99697E-07  2248   0.250E-03    0.131E-03
DAV:  19    -0.138353199962E+04   -0.17087E-05   -0.38061E-07  2072   0.242E-03    0.895E-04
DAV:  20    -0.138353199815E+04    0.14611E-05   -0.19852E-07  2024   0.143E-03    0.894E-04
DAV:  21    -0.138353199776E+04    0.39341E-06   -0.70524E-08  2008   0.102E-03
   1 F= -.13835320E+04 E0= -.13835320E+04  d E =-.294490E-59
Application 1923481 resources: utime ~31482s, stime ~122s, Rss ~79228, inblocks ~1752, outblocks ~111112
