CsPbBr3 cubic bulk                      
           1
     8.420018    0.000000    8.077981
     0.000000   11.763808    0.000000
    -8.420018    0.000000    8.077981
   Cs   Pb   Br   Cs
   6   8  24   1
Direct configuration=     1
   0.27088800  0.25000000  0.20230000
   0.77556500  0.25000100  0.71511300
   0.20661500  0.75000000  0.76772200
   0.29137000  0.24999900  0.72865100
   0.79122200  0.24999900  0.22493000
   0.23638600  0.75000100  0.29576200
   0.99913600  0.99682200  0.00008600
   0.50300300  0.00030800  0.49694500
   0.50336400  0.99771800  0.99729500
   0.99960400  0.99946400  0.50049300
   0.50336300  0.50227800  0.99729900
   0.99959900  0.50053400  0.50049700
   0.99914300  0.50316900  0.00008700
   0.50300300  0.49970100  0.49694300
   0.46093100  0.75000300  0.96376400
   0.97780700  0.74999900  0.46251100
   0.97005000  0.24999700  0.97129300
   0.45400800  0.25000100  0.46570100
   0.05026700  0.74999700  0.03454400
   0.52347000  0.75000200  0.52672100
   0.53037200  0.25000100  0.03449800
   0.03271900  0.24999900  0.54141500
   0.24899600  0.46476100  0.94877500
   0.74927900  0.45243700  0.45487900
   0.44345300  0.52490000  0.24572500
   0.94981200  0.53548100  0.74848200
   0.54485600  0.04563000  0.74941900
   0.05144300  0.03731500  0.25231600
   0.75346200  0.97171500  0.05613600
   0.25236200  0.96788100  0.55055300
   0.24899600  0.03524100  0.94877500
   0.74927900  0.04756400  0.45487900
   0.44345200  0.97510100  0.24572300
   0.94981300  0.96451800  0.74848200
   0.75346200  0.52828600  0.05613700
   0.25236300  0.53212000  0.55055200
   0.54485600  0.45437300  0.74942000
   0.05143900  0.46268200  0.25231700
   0.71273700  0.75000100  0.03091400
