 vasp.5.4.4.18Apr17-6-g9f103f2a35 (build Jun 22 2020 09:27:21) complex           
 executed on tx2_gcc-7.3_libsci-1 date 2021.10.12  03:02:18
 running on   64 total cores
 distrk:  each k-point on   64 cores,    1 groups
 distr:  one band on NCORES_PER_BAND=   8 cores,    8 groups


--------------------------------------------------------------------------------------------------------


 INCAR:
 POTCAR:    PAW_PBE Cs_sv 08Apr2002               
 POTCAR:    PAW_PBE Pb_d 06Sep2000                
 POTCAR:    PAW_PBE Br 06Sep2000                  
 POTCAR:    PAW_PBE Cs_sv 08Apr2002               
   SHA256 =  c1463496f0f6037ed62c6012a8013a89ee9ad6ffb38599dcd6c079e7ed31779b Cs
   COPYR  = (c) Copyright 08Apr2002 Georg Kresse                                
   COPYR  = This file is part of the software VASP. Any use, copying, and all ot
   COPYR  = If you do not have a valid VASP license, you may not use, copy or di
   VRHFIN =Cs: 5s5p6s                                                           
   LEXCH  = PE                                                                  
   EATOM  =   555.6835 eV,   40.8416 Ry                                         
                                                                                
   TITEL  = PAW_PBE Cs_sv 08Apr2002                                             
   LULTRA =        F    use ultrasoft PP ?                                      
   IUNSCR =        1    unscreen: 0-lin 1-nonlin 2-no                           
   RPACOR =    2.200    partial core radius                                     
   POMASS =  132.900; ZVAL   =    9.000    mass and valenz                      
   RCORE  =    2.500    outmost cutoff radius                                   
   RWIGS  =    2.500; RWIGS  =    1.323    wigner-seitz radius (au A)           
   ENMAX  =  220.318; ENMIN  =  165.238 eV                                      
   RCLOC  =    2.207    cutoff for local pot                                    
   LCOR   =        T    correct aug charges                                     
   LPAW   =        T    paw PP                                                  
   EAUG   =  407.933                                                            
   DEXC   =    0.000                                                            
   RMAX   =    2.554    core radius for proj-oper                               
   RAUG   =    1.300    factor for augmentation sphere                          
   RDEP   =    2.590    radius for radial grids                                 
   RDEPT  =    2.117    core radius for aug-charge                              
                                                                                
   Atomic configuration                                                         
   13 entries                                                                   
     n  l   j            E        occ.                                          
     1  0  0.50    -35790.1377   2.0000                                         
     2  0  0.50     -5613.6201   2.0000                                         
     2  1  1.50     -5035.0101   6.0000                                         
     3  0  0.50     -1167.0767   2.0000                                         
     3  1  1.50      -980.9754   6.0000                                         
     3  2  2.50      -708.0703  10.0000                                         
     4  0  0.50      -220.2386   2.0000                                         
     4  1  1.50      -160.7596   6.0000                                         
     4  2  2.50       -74.2354  10.0000                                         
     5  0  0.50       -26.7287   2.0000                                         
     6  0  0.50        -2.0862   1.0000                                         
     5  1  1.50       -13.5159   6.0000                                         
     5  2  2.50        -0.4136   0.0000                                         
   Description                                                                  
     l       E           TYP  RCUT    TYP  RCUT                                 
     0    -26.7287425     23  1.900                                             
     0     -2.0862306     23  1.900                                             
     1    -13.5158719     23  2.500                                             
     1     -2.7211652     23  2.500                                             
     2     -0.4136171     23  2.500                                             
  local pseudopotential read in
  partial core-charges read in
  partial kinetic energy density read in
  atomic valenz-charges read in
  non local Contribution for L=           0  read in
    real space projection operators read in
  non local Contribution for L=           0  read in
    real space projection operators read in
  non local Contribution for L=           1  read in
    real space projection operators read in
  non local Contribution for L=           1  read in
    real space projection operators read in
  non local Contribution for L=           2  read in
    real space projection operators read in
    PAW grid and wavefunctions read in

   number of l-projection  operators is LMAX  =           5
   number of lm-projection operators is LMMAX =          13

 POTCAR:    PAW_PBE Pb_d 06Sep2000                
   SHA256 =  fb885b08f0fba73a15f6a6b0e39bd200c13ec96ef97cf3ecd8e63bade5137abd Pb
   COPYR  = (c) Copyright 06Sep2000 Georg Kresse                                
   COPYR  = This file is part of the software VASP. Any use, copying, and all ot
   COPYR  = If you do not have a valid VASP license, you may not use, copy or di
   VRHFIN =Pb:                                                                  
   LEXCH  = PE                                                                  
   EATOM  =  1661.6185 eV,  122.1255 Ry                                         
                                                                                
   TITEL  = PAW_PBE Pb_d 06Sep2000                                              
   LULTRA =        F    use ultrasoft PP ?                                      
   IUNSCR =        1    unscreen: 0-lin 1-nonlin 2-no                           
   RPACOR =    2.200    partial core radius                                     
   POMASS =  207.200; ZVAL   =   14.000    mass and valenz                      
   RCORE  =    2.500    outmost cutoff radius                                   
   RWIGS  =    3.260; RWIGS  =    1.725    wigner-seitz radius (au A)           
   ENMAX  =  237.835; ENMIN  =  178.376 eV                                      
   ICORE  =        3    local potential                                         
   LCOR   =        T    correct aug charges                                     
   LPAW   =        T    paw PP                                                  
   EAUG   =  391.914                                                            
   DEXC   =    0.000                                                            
   RMAX   =    2.565    core radius for proj-oper                               
   RAUG   =    1.300    factor for augmentation sphere                          
   RDEP   =    2.643    radius for radial grids                                 
   RDEPT  =    2.092    core radius for aug-charge                              
                                                                                
   Atomic configuration                                                         
   16 entries                                                                   
     n  l   j            E        occ.                                          
     1  0  0.50    -88091.8466   2.0000                                         
     2  0  0.50    -15753.4197   2.0000                                         
     2  1  1.50    -13508.1797   6.0000                                         
     3  0  0.50     -3781.7194   2.0000                                         
     3  1  1.50     -3138.2529   6.0000                                         
     3  2  2.50     -2483.2977  10.0000                                         
     4  0  0.50      -856.2895   2.0000                                         
     4  1  1.50      -645.4942   6.0000                                         
     4  2  2.50      -401.8768  10.0000                                         
     4  3  3.50      -132.9059  14.0000                                         
     5  0  0.50      -144.0950   2.0000                                         
     5  1  1.50       -85.7879   6.0000                                         
     5  2  2.50       -21.1769  10.0000                                         
     6  0  0.50       -12.0372   2.0000                                         
     6  1  1.50        -3.4971   2.0000                                         
     5  3  2.50        -2.7212   0.0000                                         
   Description                                                                  
     l       E           TYP  RCUT    TYP  RCUT                                 
     2    -21.1768523     23  2.500                                             
     2      1.3605826     23  2.500                                             
     0    -12.0371562     23  2.500                                             
     0     13.6058260     23  2.500                                             
     1     -3.4971339     23  2.500                                             
     1     13.6058260     23  2.500                                             
     3     -1.3605826      7  2.500                                             
  local pseudopotential read in
  partial core-charges read in
  partial kinetic energy density read in
  atomic valenz-charges read in
  non local Contribution for L=           2  read in
    real space projection operators read in
  non local Contribution for L=           2  read in
    real space projection operators read in
  non local Contribution for L=           0  read in
    real space projection operators read in
  non local Contribution for L=           0  read in
    real space projection operators read in
  non local Contribution for L=           1  read in
    real space projection operators read in
  non local Contribution for L=           1  read in
    real space projection operators read in
    PAW grid and wavefunctions read in

   number of l-projection  operators is LMAX  =           6
   number of lm-projection operators is LMMAX =          18

 POTCAR:    PAW_PBE Br 06Sep2000                  
   SHA256 =  96a73d2954943bbee26f4990d676cc6c3bf44b8dd2c75cd4b3b825d8403f0103 Br
   COPYR  = (c) Copyright 06Sep2000 Georg Kresse                                
   COPYR  = This file is part of the software VASP. Any use, copying, and all ot
   COPYR  = If you do not have a valid VASP license, you may not use, copy or di
   VRHFIN =Br: s2p5                                                             
   LEXCH  = PE                                                                  
   EATOM  =   368.4488 eV,   27.0802 Ry                                         
                                                                                
   TITEL  = PAW_PBE Br 06Sep2000                                                
   LULTRA =        F    use ultrasoft PP ?                                      
   IUNSCR =        1    unscreen: 0-lin 1-nonlin 2-no                           
   RPACOR =    1.900    partial core radius                                     
   POMASS =   79.904; ZVAL   =    7.000    mass and valenz                      
   RCORE  =    2.100    outmost cutoff radius                                   
   RWIGS  =    2.200; RWIGS  =    1.164    wigner-seitz radius (au A)           
   ENMAX  =  216.285; ENMIN  =  162.214 eV                                      
   ICORE  =        3    local potential                                         
   LCOR   =        T    correct aug charges                                     
   LPAW   =        T    paw PP                                                  
   EAUG   =  503.852                                                            
   DEXC   =    0.000                                                            
   RMAX   =    2.139    core radius for proj-oper                               
   RAUG   =    1.300    factor for augmentation sphere                          
   RDEP   =    2.186    radius for radial grids                                 
   RDEPT  =    1.890    core radius for aug-charge                              
                                                                                
   Atomic configuration                                                         
   10 entries                                                                   
     n  l   j            E        occ.                                          
     1  0  0.50    -13316.2796   2.0000                                         
     2  0  0.50     -1732.8239   2.0000                                         
     2  1  1.50     -1528.2193   6.0000                                         
     3  0  0.50      -238.0460   2.0000                                         
     3  1  1.50      -173.4609   6.0000                                         
     3  2  2.50       -66.7132  10.0000                                         
     4  0  0.50       -20.1334   2.0000                                         
     4  1  0.50        -7.8591   5.0000                                         
     4  2  2.50        -8.1635   0.0000                                         
     4  3  2.50        -8.1635   0.0000                                         
   Description                                                                  
     l       E           TYP  RCUT    TYP  RCUT                                 
     0    -20.1333652     23  2.100                                             
     0    -21.4939478     23  2.100                                             
     1     -7.8591052     23  2.100                                             
     1     -3.1608434     23  2.100                                             
     2     -8.1634956     23  2.100                                             
     3     -1.3605826      7  2.100                                             
  local pseudopotential read in
  partial core-charges read in
  partial kinetic energy density read in
  atomic valenz-charges read in
  non local Contribution for L=           0  read in
    real space projection operators read in
  non local Contribution for L=           0  read in
    real space projection operators read in
  non local Contribution for L=           1  read in
    real space projection operators read in
  non local Contribution for L=           1  read in
    real space projection operators read in
  non local Contribution for L=           2  read in
    real space projection operators read in
    PAW grid and wavefunctions read in

   number of l-projection  operators is LMAX  =           5
   number of lm-projection operators is LMMAX =          13

 Optimization of the real space projectors (new method)

 maximal supplied QI-value         = 15.12
 optimisation between [QCUT,QGAM] = [  8.77, 17.69] = [ 21.53, 87.61] Ry 
 Optimized for a Real-space Cutoff    1.85 Angstroem

   l    n(q)    QCUT    max X(q) W(low)/X(q) W(high)/X(q)  e(spline) 
   0     10     8.768    25.322    0.81E-04    0.51E-04    0.48E-06
   0     10     8.768    99.187    0.78E-04    0.50E-04    0.47E-06
   1      9     8.768    11.761    0.21E-03    0.20E-03    0.37E-06
   1      9     8.768     8.275    0.24E-03    0.22E-03    0.41E-06
   2      9     8.768     3.829    0.23E-04    0.15E-03    0.18E-06
 Optimization of the real space projectors (new method)

 maximal supplied QI-value         = 15.12
 optimisation between [QCUT,QGAM] = [  8.77, 17.69] = [ 21.53, 87.61] Ry 
 Optimized for a Real-space Cutoff    1.59 Angstroem

   l    n(q)    QCUT    max X(q) W(low)/X(q) W(high)/X(q)  e(spline) 
   2      7     8.768     3.846    0.48E-04    0.11E-03    0.11E-06
   2      7     8.768     8.593    0.20E-03    0.22E-04    0.24E-06
   0      8     8.768    20.082    0.68E-04    0.88E-04    0.41E-07
   0      8     8.768     8.597    0.89E-04    0.13E-03    0.59E-07
   1      8     8.768    33.223    0.15E-03    0.53E-04    0.87E-07
   1      8     8.768    15.899    0.14E-03    0.44E-04    0.78E-07
 Optimization of the real space projectors (new method)

 maximal supplied QI-value         = 17.95
 optimisation between [QCUT,QGAM] = [  8.80, 17.59] = [ 21.67, 86.68] Ry 
 Optimized for a Real-space Cutoff    1.59 Angstroem

   l    n(q)    QCUT    max X(q) W(low)/X(q) W(high)/X(q)  e(spline) 
   0      8     8.797   175.082    0.82E-04    0.14E-03    0.89E-07
   0      8     8.797   174.004    0.79E-04    0.14E-03    0.86E-07
   1      8     8.797    54.315    0.16E-03    0.14E-04    0.30E-06
   1      8     8.797    42.441    0.16E-03    0.14E-04    0.30E-06
   2      7     8.797     3.596    0.92E-04    0.15E-03    0.85E-07
  PAW_PBE Cs_sv 08Apr2002               :
 energy of atom  1       EATOM= -555.6835
 kinetic energy error for atom=    0.0069 (will be added to EATOM!!)
  PAW_PBE Pb_d 06Sep2000                :
 energy of atom  2       EATOM=-1661.6185
 kinetic energy error for atom=    0.0498 (will be added to EATOM!!)
  PAW_PBE Br 06Sep2000                  :
 energy of atom  3       EATOM= -368.4488
 kinetic energy error for atom=    0.0072 (will be added to EATOM!!)


 POSCAR: Cs8 Pb8 Br23                            
  positions in direct lattice
  No initial velocities read in

 METAGGA = SCAN     LMAXTAU =  6    LMIXTAU =  F

 exchange correlation table for  LEXCH =        8
   RHO(1)=    0.500       N(1)  =     2000
   RHO(2)=  100.500       N(2)  =     4000

 VTST: version 3.2, (02/03/18)

 CHAIN: initializing optimizer
 
 OPT: Using VASP Conjugate-Gradient optimizer
 CHAIN: Read ICHAIN            0

 POSCAR: Cs8 Pb8 Br23                            
  positions in direct lattice
  No initial velocities read in



--------------------------------------------------------------------------------------------------------


 ion  position               nearest neighbor table
   1  0.266  0.246  0.199-
   2  0.778  0.244  0.715-
   3  0.721  0.752  0.263-
   4  0.200  0.755  0.778-
   5  0.291  0.237  0.747-
   6  0.793  0.249  0.226-
   7  0.734  0.749  0.808-
   8  0.226  0.753  0.260-
   9  0.995  0.001  1.000-  19 2.96  21 2.97  32 2.98  30 2.99  35 3.00  29 3.01
  10  0.493  0.003  0.500-  20 2.88  34 2.97  28 2.98  31 2.99  33 2.99
  11  0.500  0.996  0.000-  30 2.96  17 2.97  22 2.98  32 3.00  34 3.02  28 3.02
  12  0.000  0.005  0.500-  31 2.96  18 2.98  29 2.99  35 3.02  23 3.03  33 3.07
  13  0.501  0.497  0.000-  22 2.97  17 2.98  26 2.98  36 2.99  24 3.00  37 3.07
  14  0.006  0.505  0.500-  25 2.86  23 2.96  18 2.98  27 2.99  38 3.00
  15  1.000  0.499  1.000-  19 2.96  21 2.96  24 3.00  36 3.01  27 3.02  38 3.03
  16  0.513  0.486  0.498-  39 2.70  37 2.94  20 2.99  26 3.01  25 3.05
  17  0.469  0.747  0.964-  11 2.97  13 2.98
  18  0.981  0.754  0.457-  14 2.98  12 2.98
  19  0.970  0.250  0.969-   9 2.96  15 2.96
  20  0.443  0.242  0.473-  10 2.88  16 2.99
  21  0.011  0.750  0.026-  15 2.96   9 2.97
  22  0.525  0.247  0.034-  13 2.97  11 2.98
  23  0.036  0.257  0.541-  14 2.96  12 3.03
  24  0.247  0.471  0.947-  15 3.00  13 3.00
  25  0.766  0.478  0.447-  14 2.86  16 3.05
  26  0.457  0.531  0.248-  13 2.98  16 3.01
  27  0.950  0.535  0.746-  14 2.99  15 3.02
  28  0.552  0.027  0.751-  10 2.98  11 3.02
  29  0.046  0.036  0.252-  12 2.99   9 3.01
  30  0.749  0.971  0.052-  11 2.96   9 2.99
  31  0.248  0.973  0.559-  12 2.96  10 2.99
  32  0.245  0.021  0.959-   9 2.98  11 3.00
  33  0.741  0.037  0.453-  10 2.99  12 3.07
  34  0.456  0.959  0.250-  10 2.97  11 3.02
  35  0.947  0.966  0.747-   9 3.00  12 3.02
  36  0.752  0.527  0.052-  13 2.99  15 3.01
  37  0.553  0.460  0.747-  16 2.94  13 3.07
  38  0.057  0.468  0.254-  14 3.00  15 3.03
  39  0.369  0.661  0.536-  16 2.70


IMPORTANT INFORMATION: All symmetrisations will be switched off!
NOSYMM: (Re-)initialisation of all symmetry stuff for point group C_1.



 KPOINTS: 1x1x1                                   

Automatic generation of k-mesh.
Space group operators:
 irot       det(A)        alpha          n_x          n_y          n_z        tau_x        tau_y        tau_z
    1     1.000000     0.000001     1.000000     0.000000     0.000000     0.000000     0.000000     0.000000
 
 Subroutine IBZKPT returns following result:
 ===========================================
 
 Found      8 irreducible k-points:
 
 Following reciprocal coordinates:
            Coordinates               Weight
  0.000000  0.000000  0.000000      1.000000
  0.500000  0.000000  0.000000      1.000000
  0.000000  0.500000  0.000000      1.000000
  0.500000  0.500000  0.000000      1.000000
  0.000000  0.000000  0.500000      1.000000
  0.500000  0.000000  0.500000      1.000000
  0.000000  0.500000  0.500000      1.000000
  0.500000  0.500000  0.500000      1.000000
 
 Following cartesian coordinates:
            Coordinates               Weight
 -0.000000  0.000000  0.000000      1.000000
  0.029563  0.000000  0.031093      1.000000
 -0.000000  0.042626  0.000000      1.000000
  0.029563  0.042626  0.031093      1.000000
 -0.029563  0.000000  0.031093      1.000000
  0.000000  0.000000  0.062187      1.000000
 -0.029563  0.042626  0.031093      1.000000
  0.000000  0.042626  0.062187      1.000000
 


--------------------------------------------------------------------------------------------------------




 Dimension of arrays:
   k-points           NKPTS =      8   k-points in BZ     NKDIM =      8   number of bands    NBANDS=    208
   number of dos      NEDOS =    301   number of ions     NIONS =     39
   non local maximal  LDIM  =      6   non local SUM 2l+1 LMDIM =     18
   total plane-waves  NPLWV = 343000
   max r-space proj   IRMAX =   5734   max aug-charges    IRDMAX=  91523
   dimension x,y,z NGX =    70 NGY =   70 NGZ =   70
   dimension x,y,z NGXF=   140 NGYF=  140 NGZF=  140
   support grid    NGXF=   280 NGYF=  280 NGZF=  280
   ions per type =               8   8  23
   NGX,Y,Z   is equivalent  to a cutoff of   9.97,  9.92,  9.97 a.u.
   NGXF,Y,Z  is equivalent  to a cutoff of  19.95, 19.84, 19.95 a.u.

 SYSTEM =  CsPbBr3 cubic bulk                      
 POSCAR =  Cs8 Pb8 Br23                            

 Startparameter for this run:
   NWRITE =      2    write-flag & timer
   PREC   = accura    normal or accurate (medium, high low for compatibility)
   ISTART =      0    job   : 0-new  1-cont  2-samecut
   ICHARG =      2    charge: 1-file 2-atom 10-const
   ISPIN  =      1    spin polarized calculation?
   LNONCOLLINEAR =      F non collinear calculations
   LSORBIT =      F    spin-orbit coupling
   INIWAV =      1    electr: 0-lowe 1-rand  2-diag
   LASPH  =      T    aspherical Exc in radial PAW
   METAGGA=      F    non-selfconsistent MetaGGA calc.

 Electronic Relaxation 1
   ENCUT  =  300.0 eV  22.05 Ry    4.70 a.u.  16.48 16.57 16.48*2*pi/ulx,y,z
   ENINI  =  300.0     initial cutoff
   ENAUG  =  503.9 eV  augmentation charge cutoff
   NELM   =    200;   NELMIN=  2; NELMDL= -5     # of ELM steps 
   EDIFF  = 0.1E-05   stopping-criterion for ELM
   LREAL  =      T    real-space projection
   NLSPLINE    = F    spline interpolate recip. space projectors
   LCOMPAT=      F    compatible to vasp.4.4
   GGA_COMPAT  = T    GGA compatible to vasp.4.4-vasp.4.6
   LMAXPAW     = -100 max onsite density
   LMAXMIX     =    2 max onsite mixed and CHGCAR
   VOSKOWN=      0    Vosko Wilk Nusair interpolation
   ROPT   =   -0.00025  -0.00025  -0.00025
 Ionic relaxation
   EDIFFG = -.1E-01   stopping-criterion for IOM
   NSW    =      0    number of steps for IOM
   NBLOCK =      1;   KBLOCK =      1    inner block; outer block 
   IBRION =     -1    ionic relax: 0-MD 1-quasi-New 2-CG
   NFREE  =      1    steps in history (QN), initial steepest desc. (CG)
   ISIF   =      2    stress and relaxation
   IWAVPR =     10    prediction:  0-non 1-charg 2-wave 3-comb
   ISYM   =      0    0-nonsym 1-usesym 2-fastsym
   LCORR  =      T    Harris-Foulkes like correction to forces

   POTIM  = 0.5000    time-step for ionic-motion
   TEIN   =    0.0    initial temperature
   TEBEG  =    0.0;   TEEND  =   0.0 temperature during run
   SMASS  =  -3.00    Nose mass-parameter (am)
   estimated Nose-frequenzy (Omega)   =  0.10E-29 period in steps =****** mass=  -0.311E-26a.u.
   SCALEE = 1.0000    scale energy and forces
   NPACO  =    256;   APACO  = 16.0  distance and # of slots for P.C.
   PSTRESS=    0.0 pullay stress

  Mass of Ions in am
   POMASS = 132.90207.20 79.90
  Ionic Valenz
   ZVAL   =   9.00 14.00  7.00
  Atomic Wigner-Seitz radii
   RWIGS  =  -1.00 -1.00 -1.00
  virtual crystal weights 
   VCA    =   1.00  1.00  1.00
   NELECT =     344.0000    total number of electrons
   NUPDOWN=       0.0000    fix difference up-down

 DOS related values:
   EMIN   =  10.00;   EMAX   =-10.00  energy-range for DOS
   EFERMI =   0.00
   ISMEAR =     0;   SIGMA  =   0.01  broadening in eV -4-tet -1-fermi 0-gaus

 Electronic relaxation 2 (details)
   IALGO  =     38    algorithm
   LDIAG  =      T    sub-space diagonalisation (order eigenvalues)
   LSUBROT=      F    optimize rotation matrix (better conditioning)
   TURBO    =      0    0=normal 1=particle mesh
   IRESTART =      0    0=no restart 2=restart with 2 vectors
   NREBOOT  =      0    no. of reboots
   NMIN     =      0    reboot dimension
   EREF     =   0.00    reference energy to select bands
   IMIX   =      4    mixing-type and parameters
     AMIX     =   0.40;   BMIX     =  1.00
     AMIX_MAG =   1.60;   BMIX_MAG =  1.00
     AMIN     =   0.10
     WC   =   100.;   INIMIX=   1;  MIXPRE=   1;  MAXMIX= -45

 Intra band minimization:
   WEIMIN = 0.0000     energy-eigenvalue tresh-hold
   EBREAK =  0.12E-08  absolut break condition
   DEPER  =   0.30     relativ break condition  

   TIME   =   0.40     timestep for ELM

  volume/ion in A,a.u.               =      40.90       276.00
  Fermi-wavevector in a.u.,A,eV,Ry     =   0.981747  1.855232 13.113654  0.963826
  Thomas-Fermi vector in A             =   2.112777

 Write flags
   LWAVE        =      F    write WAVECAR
   LDOWNSAMPLE  =      F    k-point downsampling of WAVECAR
   LCHARG       =      F    write CHGCAR
   LVTOT        =      F    write LOCPOT, total local potential
   LVHAR        =      T    write LOCPOT, Hartree potential only
   LELF         =      F    write electronic localiz. function (ELF)
   LORBIT       =     10    0 simple, 1 ext, 2 COOP (PROOUT), +10 PAW based schemes


 Dipole corrections
   LMONO  =      F    monopole corrections only (constant potential shift)
   LDIPOL =      F    correct potential (dipole corrections)
   IDIPOL =      0    1-x, 2-y, 3-z, 4-all directions 
   EPSILON=  1.0000000 bulk dielectric constant

 Exchange correlation treatment:
   GGA     =    --    GGA type
   LEXCH   =     8    internal setting for exchange type
   VOSKOWN=      0    Vosko Wilk Nusair interpolation
   LHFCALC =     F    Hartree Fock is set to
   LHFONE  =     F    Hartree Fock one center treatment
   AEXX    =    0.0000 exact exchange contribution

 Linear response parameters
   LEPSILON=     F    determine dielectric tensor
   LRPA    =     F    only Hartree local field effects (RPA)
   LNABLA  =     F    use nabla operator in PAW spheres
   LVEL    =     F    velocity operator in full k-point grid
   LINTERFAST=   F  fast interpolation
   KINTER  =     0    interpolate to denser k-point grid
   CSHIFT  =0.1000    complex shift for real part using Kramers Kronig
   OMEGAMAX=  -1.0    maximum frequency
   DEG_THRESHOLD= 0.2000000E-02 threshold for treating states as degnerate
   RTIME   =   -0.100 relaxation time in fs
  (WPLASMAI=    0.000 imaginary part of plasma frequency in eV, 0.658/RTIME)
   DFIELD  = 0.0000000 0.0000000 0.0000000 field for delta impulse in time

 Orbital magnetization related:
   ORBITALMAG=     F  switch on orbital magnetization
   LCHIMAG   =     F  perturbation theory with respect to B field
   DQ        =  0.001000  dq finite difference perturbation B field
   LLRAUG    =     F  two centre corrections for induced B field



--------------------------------------------------------------------------------------------------------


 Static calculation
 charge density and potential will be updated during run
 non-spin polarized calculation
 Variant of blocked Davidson
 Davidson routine will perform the subspace rotation
 perform sub-space diagonalisation
    after iterative eigenvector-optimisation
 modified Broyden-mixing scheme, WC =      100.0
 initial mixing is a Kerker type mixing with AMIX =  0.4000 and BMIX =      1.0000
 Hartree-type preconditioning will be used
 using additional bands           36
 real space projection scheme for non local part
 use partial core corrections
 calculate Harris-corrections to forces   (improved forces if not selfconsistent)
 use gradient corrections 
 use of overlap-Matrix (Vanderbilt PP)
 Gauss-broadening in eV      SIGMA  =   0.01


--------------------------------------------------------------------------------------------------------


  energy-cutoff  :      300.00
  volume of cell :     1595.09
      direct lattice vectors                 reciprocal lattice vectors
     8.456489000  0.000000000  8.040301000     0.059126193 -0.000000000  0.062186727
     0.000000000 11.729847000  0.000000000     0.000000000  0.085252604 -0.000000000
    -8.456489000  0.000000000  8.040301000    -0.059126193  0.000000000  0.062186727

  length of vectors
    11.668703715 11.729847000 11.668703715     0.085808482  0.085252604  0.085808482



 k-points in units of 2pi/SCALE and weight: 1x1x1                                   
  -0.00000000  0.00000000  0.00000000       0.125
   0.02956310  0.00000000  0.03109336       0.125
  -0.00000000  0.04262630  0.00000000       0.125
   0.02956310  0.04262630  0.03109336       0.125
  -0.02956310  0.00000000  0.03109336       0.125
   0.00000000  0.00000000  0.06218673       0.125
  -0.02956310  0.04262630  0.03109336       0.125
   0.00000000  0.04262630  0.06218673       0.125

 k-points in reciprocal lattice and weights: 1x1x1                                   
   0.00000000  0.00000000  0.00000000       0.125
   0.50000000  0.00000000  0.00000000       0.125
   0.00000000  0.50000000  0.00000000       0.125
   0.50000000  0.50000000  0.00000000       0.125
   0.00000000  0.00000000  0.50000000       0.125
   0.50000000  0.00000000  0.50000000       0.125
   0.00000000  0.50000000  0.50000000       0.125
   0.50000000  0.50000000  0.50000000       0.125

 position of ions in fractional coordinates (direct lattice) 
   0.26594600  0.24584900  0.19865800
   0.77756300  0.24418900  0.71453800
   0.72088400  0.75245100  0.26338200
   0.20021600  0.75519100  0.77769400
   0.29127900  0.23681300  0.74726000
   0.79278900  0.24917000  0.22572400
   0.73447100  0.74890600  0.80791400
   0.22611700  0.75265000  0.26016900
   0.99532900  0.00089200  0.99952700
   0.49333600  0.00258300  0.50049500
   0.49963100  0.99606500  0.00036000
   0.00023400  0.00469000  0.49982800
   0.50051200  0.49726100  0.00020300
   0.00627300  0.50528800  0.50049600
   0.99992300  0.49860500  0.99978100
   0.51301000  0.48633400  0.49820400
   0.46874000  0.74698100  0.96370700
   0.98114100  0.75441900  0.45734000
   0.97043700  0.24994600  0.96930300
   0.44327800  0.24177800  0.47300100
   0.01118100  0.74956100  0.02576100
   0.52514800  0.24691500  0.03387200
   0.03567000  0.25742700  0.54114300
   0.24720300  0.47143700  0.94727900
   0.76618500  0.47834100  0.44695300
   0.45699700  0.53091100  0.24759300
   0.95010500  0.53547000  0.74620900
   0.55222500  0.02702700  0.75118800
   0.04624700  0.03582700  0.25242500
   0.74891500  0.97139900  0.05228800
   0.24828900  0.97341300  0.55857900
   0.24487900  0.02056400  0.95901600
   0.74073000  0.03711700  0.45324600
   0.45620400  0.95888700  0.25041200
   0.94715200  0.96576000  0.74722100
   0.75207800  0.52670300  0.05249100
   0.55297200  0.45986600  0.74745700
   0.05691400  0.46847600  0.25391800
   0.36891200  0.66054900  0.53550400

 position of ions in cartesian coordinates  (Angst):
   0.56902023  2.88377116  3.73555601
   0.53297022  2.86429961 11.99694116
   3.86886063  8.82613510  7.91379490
  -4.88343635  8.85827489  7.86269075
  -3.85599831  2.77778026  8.35016616
   4.79537893  2.92272598  8.18915109
  -0.62106992  8.78455280 12.40123966
  -0.28796036  8.82846934  3.90988581
  -0.03550034  0.01046302 16.03924269
  -0.06054000  0.03029819  7.99070038
   4.22207972 11.68369005  4.02007814
  -4.22481117  0.05501298  4.02064900
   4.23085756  5.83279545  4.02589932
  -4.17939136  5.92695093  4.07457530
   0.00120082  5.84856036 16.07822207
   0.12520678  5.70462341  8.13046494
  -4.18568299  8.76197284 11.51730505
   4.42951739  8.84921944 11.56582022
   0.00958966  2.93182834 15.59609346
  -0.25135222  2.83601895  7.36715896
  -0.12329561  8.79223585  0.29702480
   4.15447009  2.89627517  4.49468907
  -4.27452686  3.01957932  4.63775014
  -5.92018499  5.52988388  9.60399482
   2.69958190  5.61086674  9.75399467
   1.77082262  6.22750480  5.66511568
   1.72424428  6.28098117 13.63887515
  -1.68252842  0.31702257 10.47983285
  -1.74354199  0.42024523  2.40141278
   5.89101856 11.39436165  6.44191328
  -2.62396397 11.41798556  6.48746159
  -6.03909168  0.24121257  9.67967817
   2.43110528  0.43537673  9.59992643
   1.74027778 11.24759780  5.68140533
   1.69071430 11.32821704 13.62326893
   5.91604977  6.17814560  6.46897694
  -1.64466026  5.39415782 10.45584059
  -1.66596216  5.49515180  2.49918284
  -1.40878342  7.74813871  7.27177687



--------------------------------------------------------------------------------------------------------


 k-point  1 :   0.0000 0.0000 0.0000  plane waves:   18809
 k-point  2 :   0.5000 0.0000 0.0000  plane waves:   18808
 k-point  3 :   0.0000 0.5000 0.0000  plane waves:   18794
 k-point  4 :   0.5000 0.5000 0.0000  plane waves:   18804
 k-point  5 :   0.0000 0.0000 0.5000  plane waves:   18808
 k-point  6 :   0.5000 0.0000 0.5000  plane waves:   18790
 k-point  7 :   0.0000 0.5000 0.5000  plane waves:   18804
 k-point  8 :   0.5000 0.5000 0.5000  plane waves:   18800

 maximum and minimum number of plane-waves per node :      2389     2304

 maximum number of plane-waves:     18809
 maximum index in each direction: 
   IXMAX=   16   IYMAX=   16   IZMAX=   16
   IXMIN=  -16   IYMIN=  -17   IZMIN=  -16


 real space projection operators:
  total allocation   :      16746.28 KBytes
  max/ min on nodes  :       2188.77       1823.82


 parallel 3D FFT for wavefunctions:
    minimum data exchange during FFTs selected (reduces bandwidth)
 parallel 3D FFT for charge:
    minimum data exchange during FFTs selected (reduces bandwidth)


 total amount of memory used by VASP MPI-rank0    60651. kBytes
=======================================================================

   base      :      30000. kBytes
   nonlr-proj:       6486. kBytes
   fftplans  :       8423. kBytes
   grid      :       7465. kBytes
   one-center:         77. kBytes
   wavefun   :       8200. kBytes

     INWAV:  cpu time    0.0000: real time    0.0000
 Broyden mixing: mesh for mixing (old mesh)
   NGX = 33   NGY = 33   NGZ = 33
  (NGX  =140   NGY  =140   NGZ  =140)
  gives a total of  35937 points

 initial charge density was supplied:
 charge density of overlapping atoms calculated
 number of electron     345.0000000 magnetization 
 keeping initial charge density in first step


--------------------------------------------------------------------------------------------------------


 Maximum index for non-local projection operator          738
 Maximum index for augmentation-charges         3184 (set IRDMAX)


--------------------------------------------------------------------------------------------------------


 First call to EWALD:  gamma=   0.152
 Maximum number of real-space cells 3x 3x 3
 Maximum number of reciprocal cells 3x 3x 3

    FEWALD:  cpu time    0.0037: real time    0.0037


--------------------------------------- Iteration      1(   1)  ---------------------------------------


    POTLOK:  cpu time    0.2639: real time    0.2838
    SETDIJ:  cpu time    1.2001: real time    1.2001
     EDDAV:  cpu time   16.6188: real time   16.6246
       DOS:  cpu time    0.0007: real time    0.0007
    --------------------------------------------
      LOOP:  cpu time   18.0835: real time   18.1093

 eigenvalue-minimisations  :  3464
 total energy-change (2. order) : 0.1329014E+04  (-0.1105960E+05)
 number of electron     345.0000000 magnetization 
 augmentation part      345.0000000 magnetization 

 Free energy of the ion-electron system (eV)
  ---------------------------------------------------
  alpha Z        PSCENC =       872.70583573
  Ewald energy   TEWEN  =    -17930.58000882
  -Hartree energ DENC   =     -7426.74519312
  -exchange      EXHF   =         0.00000000
  -V(xc)+E(xc)   XCENC  =       908.09542499
  PAW double counting   =     21345.28103884   -22405.85761495
  entropy T*S    EENTRO =        -0.00000237
  eigenvalues    EBANDS =      -246.00387611
  atomic energy  EATOM  =     26212.11861568
  Solvation  Ediel_sol  =         0.00000000
  ---------------------------------------------------
  free energy    TOTEN  =      1329.01421987 eV

  energy without entropy =     1329.01422224  energy(sigma->0) =     1329.01422106


--------------------------------------------------------------------------------------------------------




--------------------------------------- Iteration      1(   2)  ---------------------------------------


     EDDAV:  cpu time   18.3979: real time   18.4490
       DOS:  cpu time    0.0004: real time    0.0004
    --------------------------------------------
      LOOP:  cpu time   18.3983: real time   18.4493

 eigenvalue-minimisations  :  4056
 total energy-change (2. order) :-0.2444117E+04  (-0.2364016E+04)
 number of electron     345.0000000 magnetization 
 augmentation part      345.0000000 magnetization 

 Free energy of the ion-electron system (eV)
  ---------------------------------------------------
  alpha Z        PSCENC =       872.70583573
  Ewald energy   TEWEN  =    -17930.58000882
  -Hartree energ DENC   =     -7426.74519312
  -exchange      EXHF   =         0.00000000
  -V(xc)+E(xc)   XCENC  =       908.09542499
  PAW double counting   =     21345.28103884   -22405.85761495
  entropy T*S    EENTRO =        -0.00000000
  eigenvalues    EBANDS =     -2690.12071575
  atomic energy  EATOM  =     26212.11861568
  Solvation  Ediel_sol  =         0.00000000
  ---------------------------------------------------
  free energy    TOTEN  =     -1115.10261739 eV

  energy without entropy =    -1115.10261739  energy(sigma->0) =    -1115.10261739


--------------------------------------------------------------------------------------------------------




--------------------------------------- Iteration      1(   3)  ---------------------------------------


     EDDAV:  cpu time   19.4551: real time   19.4676
       DOS:  cpu time    0.0004: real time    0.0004
    --------------------------------------------
      LOOP:  cpu time   19.4555: real time   19.4680

 eigenvalue-minimisations  :  4424
 total energy-change (2. order) :-0.3595516E+03  (-0.3576059E+03)
 number of electron     345.0000000 magnetization 
 augmentation part      345.0000000 magnetization 

 Free energy of the ion-electron system (eV)
  ---------------------------------------------------
  alpha Z        PSCENC =       872.70583573
  Ewald energy   TEWEN  =    -17930.58000882
  -Hartree energ DENC   =     -7426.74519312
  -exchange      EXHF   =         0.00000000
  -V(xc)+E(xc)   XCENC  =       908.09542499
  PAW double counting   =     21345.28103884   -22405.85761495
  entropy T*S    EENTRO =        -0.00000000
  eigenvalues    EBANDS =     -3049.67234432
  atomic energy  EATOM  =     26212.11861568
  Solvation  Ediel_sol  =         0.00000000
  ---------------------------------------------------
  free energy    TOTEN  =     -1474.65424596 eV

  energy without entropy =    -1474.65424596  energy(sigma->0) =    -1474.65424596


--------------------------------------------------------------------------------------------------------




--------------------------------------- Iteration      1(   4)  ---------------------------------------


     EDDAV:  cpu time   17.9677: real time   18.0240
       DOS:  cpu time    0.0004: real time    0.0004
    --------------------------------------------
      LOOP:  cpu time   17.9680: real time   18.0244

 eigenvalue-minimisations  :  3920
 total energy-change (2. order) :-0.1219804E+02  (-0.1216118E+02)
 number of electron     345.0000000 magnetization 
 augmentation part      345.0000000 magnetization 

 Free energy of the ion-electron system (eV)
  ---------------------------------------------------
  alpha Z        PSCENC =       872.70583573
  Ewald energy   TEWEN  =    -17930.58000882
  -Hartree energ DENC   =     -7426.74519312
  -exchange      EXHF   =         0.00000000
  -V(xc)+E(xc)   XCENC  =       908.09542499
  PAW double counting   =     21345.28103884   -22405.85761495
  entropy T*S    EENTRO =        -0.00000000
  eigenvalues    EBANDS =     -3061.87038877
  atomic energy  EATOM  =     26212.11861568
  Solvation  Ediel_sol  =         0.00000000
  ---------------------------------------------------
  free energy    TOTEN  =     -1486.85229041 eV

  energy without entropy =    -1486.85229041  energy(sigma->0) =    -1486.85229041


--------------------------------------------------------------------------------------------------------




--------------------------------------- Iteration      1(   5)  ---------------------------------------


     EDDAV:  cpu time   19.4662: real time   19.5353
       DOS:  cpu time    0.0004: real time    0.0004
    CHARGE:  cpu time    2.7135: real time    2.7136
    MIXING:  cpu time    0.0015: real time    0.0015
    --------------------------------------------
      LOOP:  cpu time   22.1816: real time   22.2508

 eigenvalue-minimisations  :  4440
 total energy-change (2. order) :-0.5407496E+00  (-0.5404941E+00)
 number of electron     343.9999997 magnetization 
 augmentation part       -5.0432884 magnetization 

 Broyden mixing:
  rms(total) = 0.10097E+01    rms(broyden)= 0.10091E+01
  rms(prec ) = 0.13986E+01
  weight for this iteration     100.00

 Free energy of the ion-electron system (eV)
  ---------------------------------------------------
  alpha Z        PSCENC =       872.70583573
  Ewald energy   TEWEN  =    -17930.58000882
  -Hartree energ DENC   =     -7426.74519312
  -exchange      EXHF   =         0.00000000
  -V(xc)+E(xc)   XCENC  =       908.09542499
  PAW double counting   =     21345.28103884   -22405.85761495
  entropy T*S    EENTRO =        -0.00000000
  eigenvalues    EBANDS =     -3062.41113840
  atomic energy  EATOM  =     26212.11861568
  Solvation  Ediel_sol  =         0.00000000
  ---------------------------------------------------
  free energy    TOTEN  =     -1487.39304004 eV

  energy without entropy =    -1487.39304004  energy(sigma->0) =    -1487.39304004


--------------------------------------------------------------------------------------------------------




--------------------------------------- Iteration      1(   6)  ---------------------------------------


    POTLOK:  cpu time    0.2593: real time    0.3119
    SETDIJ:  cpu time    1.1990: real time    1.1991
     EDDAV:  cpu time   19.0819: real time   19.0828
       DOS:  cpu time    0.0005: real time    0.0005
    CHARGE:  cpu time    2.6905: real time    2.6907
    MIXING:  cpu time    0.0017: real time    0.0017
    --------------------------------------------
      LOOP:  cpu time   23.2328: real time   23.2866

 eigenvalue-minimisations  :  4304
 total energy-change (2. order) : 0.7767065E+02  (-0.2365171E+01)
 number of electron     343.9999997 magnetization 
 augmentation part       -3.6410935 magnetization 

 Broyden mixing:
  rms(total) = 0.72199E+00    rms(broyden)= 0.72190E+00
  rms(prec ) = 0.90295E+00
  weight for this iteration     100.00

 eigenvalues of (default mixing * dielectric matrix)
  average eigenvalue GAMMA=   1.1864
  1.1864

 Free energy of the ion-electron system (eV)
  ---------------------------------------------------
  alpha Z        PSCENC =       872.70583573
  Ewald energy   TEWEN  =    -17930.58000882
  -Hartree energ DENC   =     -7407.12870418
  -exchange      EXHF   =         0.00000000
  -V(xc)+E(xc)   XCENC  =       936.09850252
  PAW double counting   =     21627.77055702   -22686.49542665
  entropy T*S    EENTRO =        -0.00000000
  eigenvalues    EBANDS =     -3034.21176532
  atomic energy  EATOM  =     26212.11861568
  Solvation  Ediel_sol  =         0.00000000
  ---------------------------------------------------
  free energy    TOTEN  =     -1409.72239401 eV

  energy without entropy =    -1409.72239401  energy(sigma->0) =    -1409.72239401


--------------------------------------------------------------------------------------------------------




--------------------------------------- Iteration      1(   7)  ---------------------------------------


    POTLOK:  cpu time    0.2761: real time    0.3078
    SETDIJ:  cpu time    1.1990: real time    1.1990
     EDDAV:  cpu time   18.3350: real time   18.3359
       DOS:  cpu time    0.0005: real time    0.0005
    CHARGE:  cpu time    2.6961: real time    2.6962
    MIXING:  cpu time    0.0018: real time    0.0018
    --------------------------------------------
      LOOP:  cpu time   22.5085: real time   22.5412

 eigenvalue-minimisations  :  4048
 total energy-change (2. order) : 0.5191257E+00  (-0.8494719E+00)
 number of electron     343.9999998 magnetization 
 augmentation part       -3.0900263 magnetization 

 Broyden mixing:
  rms(total) = 0.37159E+00    rms(broyden)= 0.37157E+00
  rms(prec ) = 0.41452E+00
  weight for this iteration     100.00

 eigenvalues of (default mixing * dielectric matrix)
  average eigenvalue GAMMA=   1.3047
  1.3047  1.3047

 Free energy of the ion-electron system (eV)
  ---------------------------------------------------
  alpha Z        PSCENC =       872.70583573
  Ewald energy   TEWEN  =    -17930.58000882
  -Hartree energ DENC   =     -7448.88022564
  -exchange      EXHF   =         0.00000000
  -V(xc)+E(xc)   XCENC  =       941.11018381
  PAW double counting   =     22237.90769296   -23294.69053904
  entropy T*S    EENTRO =        -0.00000000
  eigenvalues    EBANDS =     -2998.89482298
  atomic energy  EATOM  =     26212.11861568
  Solvation  Ediel_sol  =         0.00000000
  ---------------------------------------------------
  free energy    TOTEN  =     -1409.20326829 eV

  energy without entropy =    -1409.20326829  energy(sigma->0) =    -1409.20326829


--------------------------------------------------------------------------------------------------------




--------------------------------------- Iteration      1(   8)  ---------------------------------------


    POTLOK:  cpu time    0.3142: real time    0.3201
    SETDIJ:  cpu time    1.2012: real time    1.2014
     EDDAV:  cpu time   18.1866: real time   18.1874
       DOS:  cpu time    0.0006: real time    0.0006
    CHARGE:  cpu time    2.6919: real time    2.6920
    MIXING:  cpu time    0.0018: real time    0.0018
    --------------------------------------------
      LOOP:  cpu time   22.3963: real time   22.4033

 eigenvalue-minimisations  :  4000
 total energy-change (2. order) :-0.1739229E+00  (-0.4436817E-01)
 number of electron     343.9999998 magnetization 
 augmentation part       -3.1800420 magnetization 

 Broyden mixing:
  rms(total) = 0.21485E+00    rms(broyden)= 0.21485E+00
  rms(prec ) = 0.24471E+00
  weight for this iteration     100.00

 eigenvalues of (default mixing * dielectric matrix)
  average eigenvalue GAMMA=   1.6872
  1.1369  1.2856  2.6390

 Free energy of the ion-electron system (eV)
  ---------------------------------------------------
  alpha Z        PSCENC =       872.70583573
  Ewald energy   TEWEN  =    -17930.58000882
  -Hartree energ DENC   =     -7454.95305530
  -exchange      EXHF   =         0.00000000
  -V(xc)+E(xc)   XCENC  =       941.83327316
  PAW double counting   =     22473.53620625   -23530.69288001
  entropy T*S    EENTRO =        -0.00000000
  eigenvalues    EBANDS =     -2993.34517789
  atomic energy  EATOM  =     26212.11861568
  Solvation  Ediel_sol  =         0.00000000
  ---------------------------------------------------
  free energy    TOTEN  =     -1409.37719120 eV

  energy without entropy =    -1409.37719120  energy(sigma->0) =    -1409.37719120


--------------------------------------------------------------------------------------------------------




--------------------------------------- Iteration      1(   9)  ---------------------------------------


    POTLOK:  cpu time    0.3095: real time    0.3195
    SETDIJ:  cpu time    1.2000: real time    1.2000
     EDDAV:  cpu time   17.3133: real time   17.3141
       DOS:  cpu time    0.0005: real time    0.0005
    CHARGE:  cpu time    2.6960: real time    2.6961
    MIXING:  cpu time    0.0019: real time    0.0019
    --------------------------------------------
      LOOP:  cpu time   21.5212: real time   21.5321

 eigenvalue-minimisations  :  3696
 total energy-change (2. order) :-0.6564031E-01  (-0.1803773E-01)
 number of electron     343.9999998 magnetization 
 augmentation part       -3.2161711 magnetization 

 Broyden mixing:
  rms(total) = 0.45514E-01    rms(broyden)= 0.45511E-01
  rms(prec ) = 0.55321E-01
  weight for this iteration     100.00

 eigenvalues of (default mixing * dielectric matrix)
  average eigenvalue GAMMA=   1.4665
  2.5326  1.2453  1.2453  0.8428

 Free energy of the ion-electron system (eV)
  ---------------------------------------------------
  alpha Z        PSCENC =       872.70583573
  Ewald energy   TEWEN  =    -17930.58000882
  -Hartree energ DENC   =     -7462.24477352
  -exchange      EXHF   =         0.00000000
  -V(xc)+E(xc)   XCENC  =       943.73372746
  PAW double counting   =     22806.43109839   -23864.42363928
  entropy T*S    EENTRO =        -0.00000000
  eigenvalues    EBANDS =     -2987.18368714
  atomic energy  EATOM  =     26212.11861568
  Solvation  Ediel_sol  =         0.00000000
  ---------------------------------------------------
  free energy    TOTEN  =     -1409.44283150 eV

  energy without entropy =    -1409.44283150  energy(sigma->0) =    -1409.44283150


--------------------------------------------------------------------------------------------------------




--------------------------------------- Iteration      1(  10)  ---------------------------------------


    POTLOK:  cpu time    0.2953: real time    0.3162
    SETDIJ:  cpu time    1.1985: real time    1.1986
     EDDAV:  cpu time   19.4224: real time   19.4232
       DOS:  cpu time    0.0004: real time    0.0004
    CHARGE:  cpu time    2.6946: real time    2.6947
    MIXING:  cpu time    0.0016: real time    0.0016
    --------------------------------------------
      LOOP:  cpu time   23.6129: real time   23.6347

 eigenvalue-minimisations  :  4416
 total energy-change (2. order) :-0.3710930E-02  (-0.2447621E-02)
 number of electron     343.9999998 magnetization 
 augmentation part       -3.2043521 magnetization 

 Broyden mixing:
  rms(total) = 0.32931E-01    rms(broyden)= 0.32930E-01
  rms(prec ) = 0.41697E-01
  weight for this iteration     100.00

 eigenvalues of (default mixing * dielectric matrix)
  average eigenvalue GAMMA=   1.3020
  2.4282  1.3132  1.3132  0.8287  0.6268

 Free energy of the ion-electron system (eV)
  ---------------------------------------------------
  alpha Z        PSCENC =       872.70583573
  Ewald energy   TEWEN  =    -17930.58000882
  -Hartree energ DENC   =     -7460.61120272
  -exchange      EXHF   =         0.00000000
  -V(xc)+E(xc)   XCENC  =       943.59056907
  PAW double counting   =     22777.92111686   -23835.97724142
  entropy T*S    EENTRO =        -0.00000000
  eigenvalues    EBANDS =     -2988.61422682
  atomic energy  EATOM  =     26212.11861568
  Solvation  Ediel_sol  =         0.00000000
  ---------------------------------------------------
  free energy    TOTEN  =     -1409.44654243 eV

  energy without entropy =    -1409.44654243  energy(sigma->0) =    -1409.44654243


--------------------------------------------------------------------------------------------------------




--------------------------------------- Iteration      1(  11)  ---------------------------------------


    POTLOK:  cpu time    0.2565: real time    0.3158
    SETDIJ:  cpu time    1.2041: real time    1.2041
     EDDAV:  cpu time   17.3393: real time   17.3401
       DOS:  cpu time    0.0006: real time    0.0006
    CHARGE:  cpu time    2.7035: real time    2.7036
    MIXING:  cpu time    0.0020: real time    0.0020
    --------------------------------------------
      LOOP:  cpu time   21.5060: real time   21.5662

 eigenvalue-minimisations  :  3704
 total energy-change (2. order) :-0.1818397E-02  (-0.2918411E-03)
 number of electron     343.9999998 magnetization 
 augmentation part       -3.2030494 magnetization 

 Broyden mixing:
  rms(total) = 0.15846E-01    rms(broyden)= 0.15845E-01
  rms(prec ) = 0.23900E-01
  weight for this iteration     100.00

 eigenvalues of (default mixing * dielectric matrix)
  average eigenvalue GAMMA=   1.6003
  2.7560  2.7560  1.2001  1.2001  0.8448  0.8448

 Free energy of the ion-electron system (eV)
  ---------------------------------------------------
  alpha Z        PSCENC =       872.70583573
  Ewald energy   TEWEN  =    -17930.58000882
  -Hartree energ DENC   =     -7459.32594573
  -exchange      EXHF   =         0.00000000
  -V(xc)+E(xc)   XCENC  =       943.52894067
  PAW double counting   =     22762.20608268   -23820.43697234
  entropy T*S    EENTRO =        -0.00000000
  eigenvalues    EBANDS =     -2989.66490871
  atomic energy  EATOM  =     26212.11861568
  Solvation  Ediel_sol  =         0.00000000
  ---------------------------------------------------
  free energy    TOTEN  =     -1409.44836083 eV

  energy without entropy =    -1409.44836083  energy(sigma->0) =    -1409.44836083


--------------------------------------------------------------------------------------------------------




--------------------------------------- Iteration      1(  12)  ---------------------------------------


    POTLOK:  cpu time    0.2677: real time    0.3182
    SETDIJ:  cpu time    1.2032: real time    1.2032
     EDDAV:  cpu time   17.0146: real time   17.0153
       DOS:  cpu time    0.0004: real time    0.0004
    CHARGE:  cpu time    2.7037: real time    2.7038
    MIXING:  cpu time    0.0017: real time    0.0017
    --------------------------------------------
      LOOP:  cpu time   21.1913: real time   21.2427

 eigenvalue-minimisations  :  3592
 total energy-change (2. order) :-0.2848191E-02  (-0.5525362E-03)
 number of electron     343.9999998 magnetization 
 augmentation part       -3.2063679 magnetization 

 Broyden mixing:
  rms(total) = 0.10513E-01    rms(broyden)= 0.10512E-01
  rms(prec ) = 0.13446E-01
  weight for this iteration     100.00

 eigenvalues of (default mixing * dielectric matrix)
  average eigenvalue GAMMA=   1.5711
  2.8253  2.8253  1.2812  1.2812  0.8802  0.9524  0.9524

 Free energy of the ion-electron system (eV)
  ---------------------------------------------------
  alpha Z        PSCENC =       872.70583573
  Ewald energy   TEWEN  =    -17930.58000882
  -Hartree energ DENC   =     -7458.53255818
  -exchange      EXHF   =         0.00000000
  -V(xc)+E(xc)   XCENC  =       943.55896714
  PAW double counting   =     22755.66802579   -23814.18705430
  entropy T*S    EENTRO =        -0.00000000
  eigenvalues    EBANDS =     -2990.20303208
  atomic energy  EATOM  =     26212.11861568
  Solvation  Ediel_sol  =         0.00000000
  ---------------------------------------------------
  free energy    TOTEN  =     -1409.45120902 eV

  energy without entropy =    -1409.45120902  energy(sigma->0) =    -1409.45120902


--------------------------------------------------------------------------------------------------------




--------------------------------------- Iteration      1(  13)  ---------------------------------------


    POTLOK:  cpu time    0.2817: real time    0.3104
    SETDIJ:  cpu time    1.2032: real time    1.2033
     EDDAV:  cpu time   19.5242: real time   19.5251
       DOS:  cpu time    0.0004: real time    0.0004
    CHARGE:  cpu time    2.7048: real time    2.7048
    MIXING:  cpu time    0.0019: real time    0.0019
    --------------------------------------------
      LOOP:  cpu time   23.7161: real time   23.7459

 eigenvalue-minimisations  :  4456
 total energy-change (2. order) : 0.3377060E-03  (-0.1395491E-03)
 number of electron     343.9999998 magnetization 
 augmentation part       -3.2071614 magnetization 

 Broyden mixing:
  rms(total) = 0.54829E-02    rms(broyden)= 0.54823E-02
  rms(prec ) = 0.65554E-02
  weight for this iteration     100.00

 eigenvalues of (default mixing * dielectric matrix)
  average eigenvalue GAMMA=   1.5398
  3.1378  2.5413  1.3767  1.3767  1.0798  1.0798  0.9488  0.7773

 Free energy of the ion-electron system (eV)
  ---------------------------------------------------
  alpha Z        PSCENC =       872.70583573
  Ewald energy   TEWEN  =    -17930.58000882
  -Hartree energ DENC   =     -7459.46723366
  -exchange      EXHF   =         0.00000000
  -V(xc)+E(xc)   XCENC  =       943.61617187
  PAW double counting   =     22755.32146551   -23813.79634576
  entropy T*S    EENTRO =        -0.00000000
  eigenvalues    EBANDS =     -2989.36937187
  atomic energy  EATOM  =     26212.11861568
  Solvation  Ediel_sol  =         0.00000000
  ---------------------------------------------------
  free energy    TOTEN  =     -1409.45087131 eV

  energy without entropy =    -1409.45087131  energy(sigma->0) =    -1409.45087131


--------------------------------------------------------------------------------------------------------




--------------------------------------- Iteration      1(  14)  ---------------------------------------


    POTLOK:  cpu time    0.2930: real time    0.3175
    SETDIJ:  cpu time    1.2054: real time    1.2054
     EDDAV:  cpu time   17.5457: real time   17.5465
       DOS:  cpu time    0.0005: real time    0.0005
    CHARGE:  cpu time    2.7019: real time    2.7020
    MIXING:  cpu time    0.0018: real time    0.0018
    --------------------------------------------
      LOOP:  cpu time   21.7483: real time   21.7738

 eigenvalue-minimisations  :  3776
 total energy-change (2. order) : 0.8303190E-04  (-0.4253434E-04)
 number of electron     343.9999998 magnetization 
 augmentation part       -3.2062123 magnetization 

 Broyden mixing:
  rms(total) = 0.24348E-02    rms(broyden)= 0.24337E-02
  rms(prec ) = 0.32719E-02
  weight for this iteration     100.00

 eigenvalues of (default mixing * dielectric matrix)
  average eigenvalue GAMMA=   1.5216
  3.2173  2.0800  2.0800  1.1620  1.1620  1.1349  1.1349  0.8615  0.8615

 Free energy of the ion-electron system (eV)
  ---------------------------------------------------
  alpha Z        PSCENC =       872.70583573
  Ewald energy   TEWEN  =    -17930.58000882
  -Hartree energ DENC   =     -7459.83460330
  -exchange      EXHF   =         0.00000000
  -V(xc)+E(xc)   XCENC  =       943.63812980
  PAW double counting   =     22756.90014543   -23815.35006900
  entropy T*S    EENTRO =        -0.00000000
  eigenvalues    EBANDS =     -2989.04883380
  atomic energy  EATOM  =     26212.11861568
  Solvation  Ediel_sol  =         0.00000000
  ---------------------------------------------------
  free energy    TOTEN  =     -1409.45078828 eV

  energy without entropy =    -1409.45078828  energy(sigma->0) =    -1409.45078828


--------------------------------------------------------------------------------------------------------




--------------------------------------- Iteration      1(  15)  ---------------------------------------


    POTLOK:  cpu time    0.2594: real time    0.3160
    SETDIJ:  cpu time    1.2045: real time    1.2046
     EDDAV:  cpu time   17.9406: real time   17.9414
       DOS:  cpu time    0.0004: real time    0.0004
    CHARGE:  cpu time    2.7048: real time    2.7049
    MIXING:  cpu time    0.0020: real time    0.0020
    --------------------------------------------
      LOOP:  cpu time   22.1117: real time   22.1692

 eigenvalue-minimisations  :  3904
 total energy-change (2. order) : 0.2169259E-05  (-0.2974595E-05)
 number of electron     343.9999998 magnetization 
 augmentation part       -3.2063856 magnetization 

 Broyden mixing:
  rms(total) = 0.13601E-02    rms(broyden)= 0.13589E-02
  rms(prec ) = 0.19736E-02
  weight for this iteration     100.00

 eigenvalues of (default mixing * dielectric matrix)
  average eigenvalue GAMMA=   1.6302
  3.7589  2.5351  2.5351  1.2403  1.2403  1.2150  1.2150  0.8925  0.8925  0.7769

 Free energy of the ion-electron system (eV)
  ---------------------------------------------------
  alpha Z        PSCENC =       872.70583573
  Ewald energy   TEWEN  =    -17930.58000882
  -Hartree energ DENC   =     -7459.93869769
  -exchange      EXHF   =         0.00000000
  -V(xc)+E(xc)   XCENC  =       943.63984947
  PAW double counting   =     22757.36371468   -23815.80712855
  entropy T*S    EENTRO =        -0.00000000
  eigenvalues    EBANDS =     -2988.95296662
  atomic energy  EATOM  =     26212.11861568
  Solvation  Ediel_sol  =         0.00000000
  ---------------------------------------------------
  free energy    TOTEN  =     -1409.45078611 eV

  energy without entropy =    -1409.45078611  energy(sigma->0) =    -1409.45078611


--------------------------------------------------------------------------------------------------------




--------------------------------------- Iteration      1(  16)  ---------------------------------------


    POTLOK:  cpu time    0.3038: real time    0.3067
    SETDIJ:  cpu time    1.2022: real time    1.2022
     EDDAV:  cpu time   17.1879: real time   17.1886
       DOS:  cpu time    0.0005: real time    0.0005
    CHARGE:  cpu time    2.7001: real time    2.7002
    MIXING:  cpu time    0.0019: real time    0.0019
    --------------------------------------------
      LOOP:  cpu time   21.3964: real time   21.4001

 eigenvalue-minimisations  :  3656
 total energy-change (2. order) :-0.2664905E-04  (-0.3319237E-05)
 number of electron     343.9999998 magnetization 
 augmentation part       -3.2060841 magnetization 

 Broyden mixing:
  rms(total) = 0.56405E-03    rms(broyden)= 0.56112E-03
  rms(prec ) = 0.73694E-03
  weight for this iteration     100.00

 eigenvalues of (default mixing * dielectric matrix)
  average eigenvalue GAMMA=   1.6768
  4.1718  2.7648  2.1629  2.1629  1.1303  1.1303  1.1565  1.1565  0.9033  0.9033
  0.8020

 Free energy of the ion-electron system (eV)
  ---------------------------------------------------
  alpha Z        PSCENC =       872.70583573
  Ewald energy   TEWEN  =    -17930.58000882
  -Hartree energ DENC   =     -7460.05154926
  -exchange      EXHF   =         0.00000000
  -V(xc)+E(xc)   XCENC  =       943.63769460
  PAW double counting   =     22756.89848642   -23815.33249355
  entropy T*S    EENTRO =        -0.00000000
  eigenvalues    EBANDS =     -2988.84739357
  atomic energy  EATOM  =     26212.11861568
  Solvation  Ediel_sol  =         0.00000000
  ---------------------------------------------------
  free energy    TOTEN  =     -1409.45081276 eV

  energy without entropy =    -1409.45081276  energy(sigma->0) =    -1409.45081276


--------------------------------------------------------------------------------------------------------




--------------------------------------- Iteration      1(  17)  ---------------------------------------


    POTLOK:  cpu time    0.3005: real time    0.3111
    SETDIJ:  cpu time    1.2008: real time    1.2008
     EDDAV:  cpu time   18.5492: real time   18.5501
       DOS:  cpu time    0.0004: real time    0.0004
    CHARGE:  cpu time    2.7019: real time    2.7020
    MIXING:  cpu time    0.0019: real time    0.0019
    --------------------------------------------
      LOOP:  cpu time   22.7547: real time   22.7663

 eigenvalue-minimisations  :  4120
 total energy-change (2. order) :-0.2146964E-04  (-0.1261829E-05)
 number of electron     343.9999998 magnetization 
 augmentation part       -3.2059607 magnetization 

 Broyden mixing:
  rms(total) = 0.36749E-03    rms(broyden)= 0.36301E-03
  rms(prec ) = 0.40085E-03
  weight for this iteration     100.00

 eigenvalues of (default mixing * dielectric matrix)
  average eigenvalue GAMMA=   1.6603
  4.3798  2.9992  2.1764  2.1764  1.1989  1.1989  1.1212  1.1212  0.9958  0.9958
  0.7799  0.7799

 Free energy of the ion-electron system (eV)
  ---------------------------------------------------
  alpha Z        PSCENC =       872.70583573
  Ewald energy   TEWEN  =    -17930.58000882
  -Hartree energ DENC   =     -7460.00963461
  -exchange      EXHF   =         0.00000000
  -V(xc)+E(xc)   XCENC  =       943.63219202
  PAW double counting   =     22756.68755302   -23815.12149980
  entropy T*S    EENTRO =        -0.00000000
  eigenvalues    EBANDS =     -2988.88388747
  atomic energy  EATOM  =     26212.11861568
  Solvation  Ediel_sol  =         0.00000000
  ---------------------------------------------------
  free energy    TOTEN  =     -1409.45083423 eV

  energy without entropy =    -1409.45083423  energy(sigma->0) =    -1409.45083423


--------------------------------------------------------------------------------------------------------




--------------------------------------- Iteration      1(  18)  ---------------------------------------


    POTLOK:  cpu time    0.2752: real time    0.3147
    SETDIJ:  cpu time    1.2025: real time    1.2025
     EDDAV:  cpu time   13.8023: real time   13.8028
       DOS:  cpu time    0.0004: real time    0.0004
    CHARGE:  cpu time    2.6958: real time    2.6959
    MIXING:  cpu time    0.0020: real time    0.0020
    --------------------------------------------
      LOOP:  cpu time   17.9782: real time   18.0184

 eigenvalue-minimisations  :  2456
 total energy-change (2. order) : 0.1177383E-04  (-0.2172449E-06)
 number of electron     343.9999998 magnetization 
 augmentation part       -3.2059917 magnetization 

 Broyden mixing:
  rms(total) = 0.20556E-03    rms(broyden)= 0.19748E-03
  rms(prec ) = 0.21897E-03
  weight for this iteration     100.00

 eigenvalues of (default mixing * dielectric matrix)
  average eigenvalue GAMMA=   1.6026
  4.4851  3.0208  2.3391  2.0154  1.2234  1.2234  1.0794  1.0794  1.0607  1.0607
  0.7483  0.7492  0.7492

 Free energy of the ion-electron system (eV)
  ---------------------------------------------------
  alpha Z        PSCENC =       872.70583573
  Ewald energy   TEWEN  =    -17930.58000882
  -Hartree energ DENC   =     -7460.02342837
  -exchange      EXHF   =         0.00000000
  -V(xc)+E(xc)   XCENC  =       943.63284983
  PAW double counting   =     22756.85827396   -23815.29329476
  entropy T*S    EENTRO =        -0.00000000
  eigenvalues    EBANDS =     -2988.86966571
  atomic energy  EATOM  =     26212.11861568
  Solvation  Ediel_sol  =         0.00000000
  ---------------------------------------------------
  free energy    TOTEN  =     -1409.45082246 eV

  energy without entropy =    -1409.45082246  energy(sigma->0) =    -1409.45082246


--------------------------------------------------------------------------------------------------------




--------------------------------------- Iteration      1(  19)  ---------------------------------------


    POTLOK:  cpu time    0.2920: real time    0.3100
    SETDIJ:  cpu time    1.2015: real time    1.2016
     EDDAV:  cpu time   13.4048: real time   13.4056
       DOS:  cpu time    0.0004: real time    0.0004
    CHARGE:  cpu time    2.6993: real time    2.6994
    MIXING:  cpu time    0.0024: real time    0.0024
    --------------------------------------------
      LOOP:  cpu time   17.6004: real time   17.6194

 eigenvalue-minimisations  :  2312
 total energy-change (2. order) : 0.3889901E-05  (-0.1469424E-06)
 number of electron     343.9999998 magnetization 
 augmentation part       -3.2059791 magnetization 

 Broyden mixing:
  rms(total) = 0.14926E-03    rms(broyden)= 0.13794E-03
  rms(prec ) = 0.15420E-03
  weight for this iteration     100.00

 eigenvalues of (default mixing * dielectric matrix)
  average eigenvalue GAMMA=   1.5954
  4.5994  2.9710  2.3604  2.1096  1.2222  1.2222  1.3432  1.3432  1.0588  1.0588
  0.8939  0.8939  0.8184  0.4413

 Free energy of the ion-electron system (eV)
  ---------------------------------------------------
  alpha Z        PSCENC =       872.70583573
  Ewald energy   TEWEN  =    -17930.58000882
  -Hartree energ DENC   =     -7460.02574798
  -exchange      EXHF   =         0.00000000
  -V(xc)+E(xc)   XCENC  =       943.63281550
  PAW double counting   =     22756.88962330   -23815.32129509
  entropy T*S    EENTRO =        -0.00000000
  eigenvalues    EBANDS =     -2988.87065689
  atomic energy  EATOM  =     26212.11861568
  Solvation  Ediel_sol  =         0.00000000
  ---------------------------------------------------
  free energy    TOTEN  =     -1409.45081857 eV

  energy without entropy =    -1409.45081857  energy(sigma->0) =    -1409.45081857


--------------------------------------------------------------------------------------------------------




--------------------------------------- Iteration      1(  20)  ---------------------------------------


    POTLOK:  cpu time    0.2695: real time    0.3187
    SETDIJ:  cpu time    1.2031: real time    1.2031
     EDDAV:  cpu time   12.6667: real time   12.6672
       DOS:  cpu time    0.0005: real time    0.0005
    CHARGE:  cpu time    2.7090: real time    2.7091
    MIXING:  cpu time    0.0021: real time    0.0021
    --------------------------------------------
      LOOP:  cpu time   16.8509: real time   16.9007

 eigenvalue-minimisations  :  2056
 total energy-change (2. order) : 0.1994994E-05  (-0.1614204E-07)
 number of electron     343.9999998 magnetization 
 augmentation part       -3.2060047 magnetization 

 Broyden mixing:
  rms(total) = 0.10869E-03    rms(broyden)= 0.92536E-04
  rms(prec ) = 0.10291E-03
  weight for this iteration     100.00
  WARNING: grid for Broyden might be to small

 eigenvalues of (default mixing * dielectric matrix)
  average eigenvalue GAMMA=   1.6222
  4.7332  3.0485  2.5198  2.0514  2.0514  1.2347  1.2347  1.1493  1.1493  1.0429
  1.0429  0.9437  0.7889  0.7889  0.5541

 Free energy of the ion-electron system (eV)
  ---------------------------------------------------
  alpha Z        PSCENC =       872.70583573
  Ewald energy   TEWEN  =    -17930.58000882
  -Hartree energ DENC   =     -7460.02621674
  -exchange      EXHF   =         0.00000000
  -V(xc)+E(xc)   XCENC  =       943.63279777
  PAW double counting   =     22756.92722813   -23815.35893185
  entropy T*S    EENTRO =        -0.00000000
  eigenvalues    EBANDS =     -2988.87013648
  atomic energy  EATOM  =     26212.11861568
  Solvation  Ediel_sol  =         0.00000000
  ---------------------------------------------------
  free energy    TOTEN  =     -1409.45081657 eV

  energy without entropy =    -1409.45081657  energy(sigma->0) =    -1409.45081657


--------------------------------------------------------------------------------------------------------




--------------------------------------- Iteration      1(  21)  ---------------------------------------


    POTLOK:  cpu time    0.2878: real time    0.3208
    SETDIJ:  cpu time    1.2027: real time    1.2028
     EDDAV:  cpu time   12.5018: real time   12.5023
       DOS:  cpu time    0.0007: real time    0.0007
    --------------------------------------------
      LOOP:  cpu time   13.9930: real time   14.0266

 eigenvalue-minimisations  :  2000
 total energy-change (2. order) : 0.5127208E-06  (-0.6313478E-08)
 number of electron     343.9999998 magnetization 
 augmentation part       -3.2060047 magnetization 

 Free energy of the ion-electron system (eV)
  ---------------------------------------------------
  alpha Z        PSCENC =       872.70583573
  Ewald energy   TEWEN  =    -17930.58000882
  -Hartree energ DENC   =     -7460.02692805
  -exchange      EXHF   =         0.00000000
  -V(xc)+E(xc)   XCENC  =       943.63289520
  PAW double counting   =     22756.95495715   -23815.38645540
  entropy T*S    EENTRO =        -0.00000000
  eigenvalues    EBANDS =     -2988.86972755
  atomic energy  EATOM  =     26212.11861568
  Solvation  Ediel_sol  =         0.00000000
  ---------------------------------------------------
  free energy    TOTEN  =     -1409.45081606 eV

  energy without entropy =    -1409.45081606  energy(sigma->0) =    -1409.45081606


--------------------------------------------------------------------------------------------------------




 average (electrostatic) potential at core
  the test charge radii are     1.1312  1.1541  1.0178
  (the norm of the test charge is              1.0000)
       1 -55.1901       2 -55.1947       3 -55.3899       4 -55.1763       5 -55.2944
       6 -55.2295       7 -55.3472       8 -55.1190       9-101.5996      10-101.9317
      11-101.6218      12-101.6453      13-101.5980      14-101.9005      15-101.6365
      16-101.8215      17 -68.9806      18 -69.0225      19 -69.0490      20 -69.4515
      21 -69.0453      22 -68.9708      23 -69.0054      24 -68.9796      25 -69.4160
      26 -68.9663      27 -69.0142      28 -69.0293      29 -68.9558      30 -69.0386
      31 -68.9740      32 -69.0191      33 -68.9636      34 -69.0282      35 -68.9463
      36 -68.9756      37 -68.9779      38 -69.0075      39 -69.0644



 E-fermi :   0.4969     XC(G=0):  -7.9583     alpha+bet : -6.9586


 k-point     1 :       0.0000    0.0000    0.0000
  band No.  band energies     occupation 
      1     -20.9144      2.00000
      2     -20.8757      2.00000
      3     -20.8245      2.00000
      4     -20.7560      2.00000
      5     -20.7251      2.00000
      6     -20.7224      2.00000
      7     -20.7090      2.00000
      8     -20.6529      2.00000
      9     -16.7147      2.00000
     10     -16.6852      2.00000
     11     -16.6653      2.00000
     12     -16.6483      2.00000
     13     -16.6187      2.00000
     14     -16.6003      2.00000
     15     -16.5967      2.00000
     16     -16.5907      2.00000
     17     -16.5632      2.00000
     18     -16.5599      2.00000
     19     -16.5591      2.00000
     20     -16.5470      2.00000
     21     -16.5324      2.00000
     22     -16.5254      2.00000
     23     -16.4568      2.00000
     24     -16.4352      2.00000
     25     -16.4231      2.00000
     26     -16.4194      2.00000
     27     -16.4161      2.00000
     28     -16.4087      2.00000
     29     -16.4070      2.00000
     30     -16.3685      2.00000
     31     -16.3579      2.00000
     32     -16.3518      2.00000
     33     -16.3430      2.00000
     34     -16.3057      2.00000
     35     -16.3041      2.00000
     36     -16.3014      2.00000
     37     -16.2974      2.00000
     38     -16.2955      2.00000
     39     -16.2923      2.00000
     40     -16.2892      2.00000
     41     -16.2838      2.00000
     42     -16.2751      2.00000
     43     -16.2685      2.00000
     44     -16.2662      2.00000
     45     -16.2636      2.00000
     46     -16.2568      2.00000
     47     -16.2566      2.00000
     48     -16.2515      2.00000
     49     -14.5145      2.00000
     50     -14.4150      2.00000
     51     -14.3070      2.00000
     52     -14.1849      2.00000
     53     -14.1293      2.00000
     54     -14.1157      2.00000
     55     -14.1009      2.00000
     56     -14.0798      2.00000
     57     -14.0509      2.00000
     58     -14.0392      2.00000
     59     -14.0330      2.00000
     60     -14.0260      2.00000
     61     -14.0162      2.00000
     62     -14.0045      2.00000
     63     -13.9868      2.00000
     64     -13.9830      2.00000
     65     -13.9728      2.00000
     66     -13.9209      2.00000
     67     -13.8843      2.00000
     68     -13.7626      2.00000
     69     -13.7521      2.00000
     70     -13.7339      2.00000
     71     -13.7309      2.00000
     72      -8.2021      2.00000
     73      -7.7835      2.00000
     74      -7.7522      2.00000
     75      -7.7155      2.00000
     76      -7.3548      2.00000
     77      -7.3403      2.00000
     78      -7.3132      2.00000
     79      -7.2915      2.00000
     80      -7.2704      2.00000
     81      -7.2638      2.00000
     82      -7.2519      2.00000
     83      -7.2394      2.00000
     84      -7.2289      2.00000
     85      -7.2246      2.00000
     86      -7.2076      2.00000
     87      -7.1733      2.00000
     88      -7.1603      2.00000
     89      -7.1509      2.00000
     90      -7.1474      2.00000
     91      -7.1451      2.00000
     92      -7.1399      2.00000
     93      -7.1252      2.00000
     94      -7.1224      2.00000
     95      -7.1151      2.00000
     96      -7.1109      2.00000
     97      -7.1056      2.00000
     98      -7.0981      2.00000
     99      -7.0832      2.00000
    100      -7.0657      2.00000
    101      -7.0536      2.00000
    102      -7.0115      2.00000
    103      -6.5829      2.00000
    104      -3.3941      2.00000
    105      -3.3052      2.00000
    106      -3.2787      2.00000
    107      -3.2598      2.00000
    108      -3.2213      2.00000
    109      -3.2005      2.00000
    110      -3.1705      2.00000
    111      -3.1577      2.00000
    112      -3.1151      2.00000
    113      -3.0420      2.00000
    114      -2.9957      2.00000
    115      -2.9074      2.00000
    116      -2.2330      2.00000
    117      -2.1863      2.00000
    118      -2.1542      2.00000
    119      -2.0638      2.00000
    120      -2.0396      2.00000
    121      -1.9934      2.00000
    122      -1.9160      2.00000
    123      -1.8877      2.00000
    124      -1.8812      2.00000
    125      -1.8206      2.00000
    126      -1.7577      2.00000
    127      -1.7466      2.00000
    128      -1.6857      2.00000
    129      -1.6643      2.00000
    130      -1.6344      2.00000
    131      -1.5912      2.00000
    132      -1.5857      2.00000
    133      -1.5620      2.00000
    134      -1.5431      2.00000
    135      -1.5320      2.00000
    136      -1.5116      2.00000
    137      -1.4804      2.00000
    138      -1.4770      2.00000
    139      -1.4638      2.00000
    140      -1.4549      2.00000
    141      -1.4239      2.00000
    142      -1.4180      2.00000
    143      -1.4005      2.00000
    144      -1.3941      2.00000
    145      -1.3791      2.00000
    146      -1.3700      2.00000
    147      -1.3474      2.00000
    148      -1.3406      2.00000
    149      -1.3257      2.00000
    150      -1.3194      2.00000
    151      -1.3177      2.00000
    152      -1.3026      2.00000
    153      -1.2833      2.00000
    154      -1.2704      2.00000
    155      -1.2490      2.00000
[...]


--------------------------------------------------------------------------------------------------------


 soft charge-density along one line, spin component           1
         0         1         2         3         4         5         6         7         8         9
 total charge-density along one line

 pseudopotential strength for first ion, spin component:           1
 17.932  -4.694   0.001   0.001  -0.000  -0.001  -0.001   0.000
 -4.694   1.237  -0.000  -0.000   0.000   0.000   0.000  -0.000
  0.001  -0.000   2.248  -0.000  -0.000  -2.685   0.000   0.000
  0.001  -0.000  -0.000   2.249  -0.001   0.000  -2.686   0.001
 -0.000   0.000  -0.000  -0.001   2.247   0.000   0.001  -2.685
 -0.001   0.000  -2.685   0.000   0.000   3.174  -0.000  -0.000
 -0.001   0.000   0.000  -2.686   0.001  -0.000   3.176  -0.002
  0.000  -0.000   0.000   0.001  -2.685  -0.000  -0.002   3.173
 -0.000   0.000   0.000  -0.000   0.000  -0.001   0.000  -0.000
 -0.000   0.000   0.001   0.000  -0.000  -0.002  -0.000   0.000
  0.001  -0.000  -0.000  -0.001   0.001   0.000   0.001  -0.001
 -0.001   0.000  -0.000   0.001   0.001   0.000  -0.001  -0.001
 -0.000   0.000  -0.000  -0.000  -0.001   0.000   0.000   0.001
 total augmentation occupancy for first ion, spin component:           1
  1.912  -0.137   0.000   0.000   0.000   0.000   0.000  -0.000  -0.000  -0.000   0.001  -0.001  -0.000
 -0.137   0.119   0.001   0.000  -0.000  -0.001  -0.001   0.001  -0.000   0.001  -0.003   0.004   0.002
  0.000   0.001   2.017  -0.000  -0.000   0.004  -0.000  -0.000   0.002   0.003  -0.000  -0.000  -0.000
  0.000   0.000  -0.000   2.021  -0.003  -0.000   0.006  -0.002  -0.000   0.001  -0.003  -0.000  -0.001
  0.000  -0.000  -0.000  -0.003   2.017  -0.000  -0.002   0.004   0.001  -0.000   0.000   0.002  -0.003
  0.000  -0.001   0.004  -0.000  -0.000   0.008   0.000  -0.000  -0.002  -0.003  -0.000   0.000  -0.000
  0.000  -0.001  -0.000   0.006  -0.002   0.000   0.007   0.001   0.000  -0.000   0.002  -0.001   0.001
 -0.000   0.001  -0.000  -0.002   0.004  -0.000   0.001   0.009  -0.000   0.000  -0.001  -0.001   0.003
 -0.000  -0.000   0.002  -0.000   0.001  -0.002   0.000  -0.000   0.007   0.002   0.000   0.000   0.000
 -0.000   0.001   0.003   0.001  -0.000  -0.003  -0.000   0.000   0.002   0.005  -0.000   0.000  -0.000
  0.001  -0.003  -0.000  -0.003   0.000  -0.000   0.002  -0.001   0.000  -0.000   0.005  -0.002  -0.001
 -0.001   0.004  -0.000  -0.000   0.002   0.000  -0.001  -0.001   0.000   0.000  -0.002   0.004   0.001
 -0.000   0.002  -0.000  -0.001  -0.003  -0.000   0.001   0.003   0.000  -0.000  -0.001   0.001   0.004


------------------------ aborting loop because EDIFF is reached ----------------------------------------





 total charge     

# of ion       s       p       d       tot
------------------------------------------
    1        1.786   4.717   0.019   6.521
    2        1.786   4.717   0.018   6.520
    3        1.785   4.716   0.017   6.518
    4        1.786   4.716   0.019   6.521
    5        1.786   4.717   0.018   6.520
    6        1.785   4.716   0.017   6.519
    7        1.785   4.716   0.018   6.520
    8        1.786   4.717   0.019   6.522
    9        1.554   0.423   9.835  11.813
   10        1.534   0.429   9.830  11.794
   11        1.554   0.419   9.834  11.807
   12        1.553   0.411   9.832  11.796
   13        1.553   0.416   9.833  11.802
   14        1.530   0.439   9.831  11.800
   15        1.554   0.418   9.834  11.806
   16        1.539   0.466   9.833  11.837
   17        1.614   3.283   0.007   4.904
   18        1.614   3.281   0.006   4.902
   19        1.615   3.286   0.007   4.908
   20        1.616   3.271   0.007   4.894
   21        1.615   3.288   0.007   4.910
   22        1.614   3.283   0.007   4.904
   23        1.614   3.279   0.006   4.899
   24        1.614   3.281   0.006   4.901
   25        1.616   3.269   0.007   4.893
   26        1.614   3.276   0.006   4.897
   27        1.614   3.280   0.006   4.900
   28        1.614   3.278   0.006   4.899
   29        1.614   3.282   0.006   4.902
   30        1.615   3.286   0.007   4.908
   31        1.615   3.278   0.006   4.899
   32        1.614   3.287   0.006   4.907
   33        1.613   3.277   0.005   4.896
   34        1.614   3.280   0.006   4.900
   35        1.614   3.282   0.006   4.902
   36        1.614   3.283   0.006   4.903
   37        1.614   3.278   0.006   4.898
   38        1.614   3.279   0.006   4.898
   39        1.617   3.278   0.008   4.903
--------------------------------------------------
tot         63.789 116.600  78.954 259.343

    CHARGE:  cpu time    0.3919: real time    0.3919
    FORLOC:  cpu time    0.0111: real time    0.0111
    FORNL :  cpu time    1.9091: real time    1.9092
    STRESS:  cpu time   49.7475: real time   49.7493
    FORCOR:  cpu time    0.2418: real time    0.2418
    FORHAR:  cpu time    0.0273: real time    0.0273
    MIXING:  cpu time    0.0021: real time    0.0021
    OFIELD:  cpu time    0.0000: real time    0.0000

  FORCE on cell =-STRESS in cart. coord.  units (eV):
  Direction    XX          YY          ZZ          XY          YZ          ZX
  --------------------------------------------------------------------------------------
  Alpha Z   872.70584   872.70584   872.70584
  Ewald   -5911.34734 -5901.04235 -6118.26947   -97.92603   -67.49942  -101.65681
  Hartree  2544.17368  2512.21427  2403.63949   -54.21135   -36.12520   -73.51571
  E(xc)   -1449.27948 -1449.22651 -1449.40805    -0.10458    -0.07666    -0.03684
  Local   -3024.54710 -3000.22180 -2677.98059   152.25956   103.73728   176.04844
  n-local  1748.61616  1749.24578  1746.94314    -2.09588    -1.41720    -0.35783
  augment   818.15551   817.31088   817.19638    -0.30521    -0.19852    -0.57659
  Kinetic  4395.18779  4394.79486  4399.18007     1.70951     0.85223     0.07917
  Fock        0.00000     0.00000     0.00000     0.00000     0.00000     0.00000
  -------------------------------------------------------------------------------------
  Total      -6.33494    -4.21904    -5.99319    -0.67400    -0.72748    -0.01617
  in kB      -6.36309    -4.23779    -6.01983    -0.67699    -0.73071    -0.01624
  external pressure =       -5.54 kB  Pullay stress =        0.00 kB


 VOLUME and BASIS-vectors are now :
 -----------------------------------------------------------------------------
  energy-cutoff  :      300.00
  volume of cell :     1595.09
      direct lattice vectors                 reciprocal lattice vectors
     8.456489000  0.000000000  8.040301000     0.059126193 -0.000000000  0.062186727
     0.000000000 11.729847000  0.000000000     0.000000000  0.085252604 -0.000000000
    -8.456489000  0.000000000  8.040301000    -0.059126193  0.000000000  0.062186727

  length of vectors
    11.668703715 11.729847000 11.668703715     0.085808482  0.085252604  0.085808482


 FORCES acting on ions
    electron-ion (+dipol)            ewald-force                    non-local-force                 convergence-correction
 -----------------------------------------------------------------------------------------------
   0.358E+02 -.154E+02 -.379E+02   -.358E+02 0.153E+02 0.379E+02   -.473E-01 0.436E-01 0.584E-01   0.808E-04 0.269E-04 0.550E-04
   0.199E+02 -.130E+02 0.138E+02   -.198E+02 0.129E+02 -.136E+02   -.565E-01 0.108E+00 -.234E+00   -.270E-04 0.757E-04 -.129E-03
   0.420E+02 0.449E+01 -.290E+02   -.415E+02 -.443E+01 0.289E+02   -.502E+00 -.567E-01 0.944E-01   0.625E-05 -.115E-03 -.627E-04
   -.564E+02 0.332E+02 0.159E+01   0.564E+02 -.329E+02 -.142E+01   0.496E-01 -.256E+00 -.175E+00   -.716E-05 0.360E-04 0.828E-04
   -.407E+00 -.433E+02 0.341E+02   0.344E+00 0.429E+02 -.341E+02   0.663E-01 0.327E+00 -.273E-01   0.878E-04 0.111E-03 0.942E-04
   0.489E+02 -.718E+01 0.113E+01   -.487E+02 0.709E+01 -.127E+01   -.217E+00 0.970E-01 0.131E+00   -.672E-04 0.855E-04 -.569E-05
   -.463E+02 0.818E+01 0.840E+02   0.461E+02 -.815E+01 -.835E+02   0.188E+00 -.390E-01 -.539E+00   -.489E-04 -.109E-03 -.347E-04
   -.946E+01 0.152E+02 -.276E+02   0.934E+01 -.152E+02 0.276E+02   0.117E+00 0.645E-02 -.917E-01   0.816E-04 -.882E-05 -.683E-06
   -.167E+01 -.612E+01 0.270E+01   0.153E+01 0.607E+01 -.264E+01   0.125E+00 0.517E-01 -.845E-01   0.513E-04 -.149E-03 0.298E-05
   -.189E+02 0.112E+03 -.297E+02   0.190E+02 -.117E+03 0.305E+02   -.804E-01 0.554E+01 -.855E+00   -.782E-04 0.703E-03 -.877E-04
   -.355E+01 0.370E+01 0.472E+01   0.331E+01 -.343E+01 -.528E+01   0.229E+00 -.261E+00 0.567E+00   0.653E-05 -.124E-03 -.281E-04
   0.136E+02 0.282E+01 0.155E+02   -.145E+02 -.212E+01 -.163E+02   0.975E+00 -.659E+00 0.869E+00   -.139E-04 -.105E-03 0.642E-04
   -.916E+01 -.505E+01 0.175E+02   0.100E+02 0.497E+01 -.183E+02   -.846E+00 0.869E-01 0.792E+00   0.610E-04 0.113E-03 -.153E-04
   -.572E+02 -.159E+02 -.994E+02   0.606E+02 0.169E+02 0.104E+03   -.348E+01 -.102E+01 -.520E+01   -.498E-03 0.161E-04 -.710E-03
   -.126E+02 0.660E+01 -.283E+01   0.126E+02 -.661E+01 0.301E+01   0.651E-01 0.680E-02 -.168E+00   -.222E-04 0.151E-03 -.342E-04
   0.286E+01 -.258E+02 -.714E+01   0.108E+01 0.226E+02 0.872E+01   -.367E+01 0.276E+01 -.139E+01   0.990E-04 -.783E-04 0.211E-03
   -.227E+01 0.902E+01 0.445E+02   0.217E+01 -.904E+01 -.449E+02   0.938E-01 0.264E-01 0.327E+00   0.296E-04 -.582E-04 -.122E-04
   0.122E+02 0.127E+02 0.251E+02   -.122E+02 -.127E+02 -.254E+02   -.724E-01 0.828E-02 0.252E+00   -.420E-04 0.985E-05 -.985E-06
   -.159E+02 -.768E+01 0.351E+02   0.160E+02 0.769E+01 -.354E+02   -.117E+00 -.864E-02 0.246E+00   -.183E-05 0.263E-04 -.314E-05
   0.101E+02 -.356E+02 0.458E+02   -.102E+02 0.360E+02 -.463E+02   0.185E-01 -.502E+00 0.431E+00   0.495E-04 -.221E-04 0.920E-04
   0.150E+02 0.632E+01 -.279E+02   -.152E+02 -.631E+01 0.280E+02   0.200E+00 -.677E-02 -.119E+00   0.341E-04 -.226E-04 -.663E-05
   -.653E+01 -.516E+01 -.355E+02   0.662E+01 0.516E+01 0.358E+02   -.851E-01 -.760E-03 -.274E+00   -.729E-05 0.631E-04 -.488E-04
   -.194E+02 -.143E+02 -.444E+02   0.195E+02 0.143E+02 0.447E+02   -.606E-01 0.758E-01 -.295E+00   -.618E-04 -.491E-04 -.795E-04
   -.391E+02 0.749E+01 0.333E+02   0.393E+02 -.761E+01 -.335E+02   -.223E+00 0.112E+00 0.213E+00   0.278E-04 0.846E-04 0.971E-04
   0.144E+02 -.343E+01 0.445E+02   -.145E+02 0.324E+01 -.452E+02   0.237E+00 0.220E+00 0.786E+00   -.771E-04 0.386E-04 0.298E-04
   0.432E+02 -.246E+02 0.134E+01   -.436E+02 0.249E+02 -.152E+01   0.374E+00 -.286E+00 0.127E+00   0.415E-04 0.315E-04 -.310E-04
   -.856E+00 -.171E+02 0.371E+02   0.618E+00 0.172E+02 -.374E+02   0.228E+00 -.144E+00 0.226E+00   -.130E-03 0.622E-04 -.971E-04
   -.390E+02 0.454E+01 -.131E+02   0.393E+02 -.440E+01 0.135E+02   -.226E+00 -.136E+00 -.301E+00   -.145E-05 0.691E-05 0.102E-04
   -.105E+02 -.179E+02 -.362E+02   0.107E+02 0.181E+02 0.364E+02   -.218E+00 -.158E+00 -.190E+00   0.320E-04 -.657E-04 0.379E-04
   0.278E+02 0.100E+02 -.245E+02   -.280E+02 -.101E+02 0.249E+02   0.188E+00 0.118E+00 -.306E+00   0.118E-04 -.627E-04 -.667E-04
   0.488E+01 0.282E+02 -.323E+02   -.507E+01 -.285E+02 0.326E+02   0.180E+00 0.249E+00 -.332E+00   0.826E-05 -.367E-04 -.195E-04
   -.243E+02 -.829E+01 0.156E+02   0.244E+02 0.836E+01 -.158E+02   -.159E+00 -.692E-01 0.132E+00   -.244E-05 -.972E-04 0.426E-04
   -.751E+01 0.145E+01 0.214E+02   0.779E+01 -.131E+01 -.215E+02   -.260E+00 -.135E+00 0.133E+00   -.547E-04 0.363E-04 0.394E-04
   0.279E+02 0.324E+02 -.293E+01   -.280E+02 -.326E+02 0.272E+01   0.122E+00 0.199E+00 0.190E+00   -.378E-05 -.228E-04 -.751E-04
   0.110E+02 0.252E+02 0.468E+02   -.112E+02 -.254E+02 -.470E+02   0.157E+00 0.191E+00 0.252E+00   -.569E-05 -.674E-04 -.182E-04
   0.275E+02 -.957E+01 -.209E+02   -.277E+02 0.970E+01 0.212E+02   0.203E+00 -.132E+00 -.251E+00   -.964E-05 0.402E-04 -.814E-04
   -.186E+02 0.553E+00 -.782E+01   0.186E+02 -.706E+00 0.817E+01   -.331E-01 0.130E+00 -.274E+00   0.241E-04 0.575E-04 0.401E-04
   -.139E+02 0.158E+02 -.539E+02   0.141E+02 -.160E+02 0.541E+02   -.204E+00 0.173E+00 -.200E+00   0.326E-04 0.699E-04 -.572E-04
   0.628E+02 -.703E+02 0.125E+02   -.635E+02 0.713E+02 -.129E+02   0.269E+00 -.454E+00 0.131E+00   0.323E-04 0.251E-04 0.824E-04
 -----------------------------------------------------------------------------------------------
   0.643E+01 -.620E+01 0.534E+01   -.284E-13 0.128E-12 -.426E-13   -.647E+01 0.621E+01 -.535E+01   -.363E-03 0.676E-03 -.723E-03


 POSITION                                       TOTAL-FORCE (eV/Angst)
 -----------------------------------------------------------------------------------
      0.56902      2.88377      3.73556         0.001820      0.002268      0.006975
      0.53297      2.86430     11.99694        -0.000239      0.005712     -0.005808
      3.86886      8.82614      7.91379         0.006841     -0.010695     -0.000423
     -4.88344      8.85827      7.86269         0.006507     -0.000068      0.001066
     -3.85600      2.77778      8.35017         0.007715     -0.018530      0.010265
      4.79538      2.92273      8.18915        -0.003249      0.009857     -0.001709
     -0.62107      8.78455     12.40124        -0.005967     -0.004768      0.004682
     -0.28796      8.82847      3.90989         0.007506      0.003718      0.002865
     -0.03550      0.01046     16.03924        -0.003583      0.004222     -0.011145
     -0.06054      0.03030      7.99070        -0.030925      0.084484     -0.052927
      4.22208     11.68369      4.02008        -0.005360      0.006574      0.006770
     -4.22481      0.05501      4.02065         0.001832      0.022915      0.013054
      4.23086      5.83280      4.02590        -0.007733      0.005799      0.003402
     -4.17939      5.92695      4.07458        -0.059712     -0.014471     -0.128054
      0.00120      5.84856     16.07822        -0.002149     -0.007247      0.004097
      0.12521      5.70462      8.13046         0.277678     -0.376547      0.168882
     -4.18568      8.76197     11.51731         0.003313      0.006579      0.000655
      4.42952      8.84922     11.56582         0.002020     -0.001323      0.002759
      0.00959      2.93183     15.59609         0.001008      0.000838      0.002385
     -0.25135      2.83602      7.36716        -0.024982     -0.209799     -0.008740
     -0.12330      8.79224      0.29702        -0.000104      0.000694     -0.001111
      4.15447      2.89628      4.49469        -0.000145     -0.011023      0.001177
     -4.27453      3.01958      4.63775         0.001623      0.004389      0.001960
     -5.92018      5.52988      9.60399        -0.005942      0.000753     -0.005028
      2.69958      5.61087      9.75399         0.172799      0.038917      0.181877
      1.77082      6.22750      5.66512         0.052874     -0.009849     -0.048629
      1.72424      6.28098     13.63888         0.005836      0.005026     -0.001615
     -1.68253      0.31702     10.47983         0.005440     -0.001049     -0.003321
     -1.74354      0.42025      2.40141        -0.002867     -0.003679      0.004002
      5.89102     11.39436      6.44191         0.003545      0.000140     -0.001264
     -2.62396     11.41799      6.48746        -0.014289      0.002466     -0.010723
     -6.03909      0.24121      9.67968         0.001398      0.002608      0.003198
      2.43111      0.43538      9.59993        -0.013675     -0.002662     -0.005912
      1.74028     11.24760      5.68141        -0.004936     -0.004332      0.006701
      1.69071     11.32822     13.62327         0.001069     -0.002409     -0.002903
      5.91605      6.17815      6.46898         0.007191      0.004610      0.007415
     -1.64466      5.39416     10.45584        -0.016358     -0.019171      0.046670
     -1.66596      5.49515      2.49918        -0.008134      0.003431      0.008171
     -1.40878      7.74814      7.27178        -0.357668      0.481621     -0.199717
 -----------------------------------------------------------------------------------
    total drift:                               -0.048195      0.010150     -0.009843


--------------------------------------------------------------------------------------------------------



  FREE ENERGIE OF THE ION-ELECTRON SYSTEM (eV)
  ---------------------------------------------------
  free  energy   TOTEN  =     -1409.45081606 eV

  energy  without entropy=    -1409.45081606  energy(sigma->0) =    -1409.45081606



--------------------------------------------------------------------------------------------------------


    POTLOK:  cpu time    1.4378: real time    1.4378


--------------------------------------------------------------------------------------------------------


 stress matrix after NEB project (eV)
     -6.33494     -0.67417     -0.01617
     -0.67400     -4.21904     -0.72749
     -0.01618     -0.72748     -5.99319
  FORCES: max atom, RMS     0.632275    0.143146
  FORCE total and by dimension    0.893947    0.481621
  Stress total and by dimension    9.788660    6.334937
     LOOP+:  cpu time  485.3107: real time  486.0678
    4ORBIT:  cpu time    0.0000: real time    0.0000



 total charge     

# of ion       s       p       d       tot
------------------------------------------
    1        1.786   4.717   0.019   6.521
    2        1.786   4.717   0.018   6.520
    3        1.785   4.716   0.017   6.518
    4        1.786   4.716   0.019   6.521
    5        1.786   4.717   0.018   6.520
    6        1.785   4.716   0.017   6.519
    7        1.785   4.716   0.018   6.520
    8        1.786   4.717   0.019   6.522
    9        1.554   0.423   9.835  11.813
   10        1.534   0.429   9.830  11.794
   11        1.554   0.419   9.834  11.807
   12        1.553   0.411   9.832  11.796
   13        1.553   0.416   9.833  11.802
   14        1.530   0.439   9.831  11.800
   15        1.554   0.418   9.834  11.806
   16        1.539   0.466   9.833  11.837
   17        1.614   3.283   0.007   4.904
   18        1.614   3.281   0.006   4.902
   19        1.615   3.286   0.007   4.908
   20        1.616   3.271   0.007   4.894
   21        1.615   3.288   0.007   4.910
   22        1.614   3.283   0.007   4.904
   23        1.614   3.279   0.006   4.899
   24        1.614   3.281   0.006   4.901
   25        1.616   3.269   0.007   4.893
   26        1.614   3.276   0.006   4.897
   27        1.614   3.280   0.006   4.900
   28        1.614   3.278   0.006   4.899
   29        1.614   3.282   0.006   4.902
   30        1.615   3.286   0.007   4.908
   31        1.615   3.278   0.006   4.899
   32        1.614   3.287   0.006   4.907
   33        1.613   3.277   0.005   4.896
   34        1.614   3.280   0.006   4.900
   35        1.614   3.282   0.006   4.902
   36        1.614   3.283   0.006   4.903
   37        1.614   3.278   0.006   4.898
   38        1.614   3.279   0.006   4.898
   39        1.617   3.278   0.008   4.903
--------------------------------------------------
tot         63.789 116.600  78.954 259.343


 total amount of memory used by VASP MPI-rank0    60651. kBytes
=======================================================================

   base      :      30000. kBytes
   nonlr-proj:       6486. kBytes
   fftplans  :       8423. kBytes
   grid      :       7465. kBytes
   one-center:         77. kBytes
   wavefun   :       8200. kBytes

  
  
 General timing and accounting informations for this job:
 ========================================================
  
                  Total CPU time used (sec):      497.665
                            User time (sec):      496.057
                          System time (sec):        1.608
                         Elapsed time (sec):      499.147
  
                   Maximum memory used (kb):       78224.
                   Average memory used (kb):           0.
  
                          Minor page faults:        20950
                          Major page faults:            1
                 Voluntary context switches:         1788
