<?xml version="1.0" encoding="ISO-8859-1"?>
<modeling>
 <generator>
  <i name="program" type="string">vasp </i>
  <i name="version" type="string">5.4.4.18Apr17-6-g9f103f2a35  </i>
  <i name="subversion" type="string">(build Jun 22 2020 09:27:21) complex            parallel </i>
  <i name="platform" type="string">tx2_gcc-7.3_libsci-18.07_cray-fftw-3.3.8 </i>
  <i name="date" type="string">2021 10 12 </i>
  <i name="time" type="string">03:02:18 </i>
 </generator>
 <incar>
  <i type="string" name="SYSTEM"> CsPbBr3 cubic bulk</i>
  <i type="string" name="PREC">accurate</i>
  <i type="string" name="ALGO"> NORMAL   ! Electronic minimisation algo</i>
  <i type="logical" name="ADDGRID"> T  </i>
  <i type="int" name="ISPIN">     1</i>
  <i type="int" name="NELM">   200</i>
  <i type="int" name="IBRION">     2</i>
  <i name="EDIFF">      0.00000100</i>
  <i name="EDIFFG">     -0.01000000</i>
  <i type="int" name="NSW">     0</i>
  <i type="int" name="ISIF">     2</i>
  <i type="int" name="ISYM">     0</i>
  <i name="ENCUT">    300.00000000</i>
  <i name="POTIM">      0.50000000</i>
  <i name="NUPDOWN">      0.00000000</i>
  <i name="NELECT">    344.00000000</i>
  <i type="string" name="LREAL"> AUTO</i>
  <i type="int" name="ISMEAR">     0</i>
  <i name="SIGMA">      0.01000000</i>
  <i type="logical" name="LWAVE"> F  </i>
  <i type="logical" name="LCHARG"> F  </i>
  <i type="logical" name="LVHAR"> T  </i>
  <i type="int" name="LORBIT">    10</i>
  <i type="logical" name="LASPH"> T  </i>
  <v type="int" name="KPOINT_BSE">    -1     0     0     0</v>
  <i type="int" name="NELM">   200</i>
  <i type="string" name="METAGGA"> SCAN       ! PBE exchange-correlation</i>
  <i type="logical" name="LASPH"> T  </i>
 </incar>
 <structure name="primitive_cell" >
  <crystal>
   <varray name="basis" >
    <v>       8.45648900       0.00000000       8.04030100 </v>
    <v>       0.00000000      11.72984700       0.00000000 </v>
    <v>      -8.45648900       0.00000000       8.04030100 </v>
   </varray>
   <i name="volume">   1595.08833419 </i>
   <varray name="rec_basis" >
    <v>       0.05912619      -0.00000000       0.06218673 </v>
    <v>       0.00000000       0.08525260      -0.00000000 </v>
    <v>      -0.05912619       0.00000000       0.06218673 </v>
   </varray>
  </crystal>
  <varray name="positions" >
   <v>       0.26594600       0.24584900       0.19865800 </v>
   <v>       0.04624700       0.03582700       0.25242500 </v>
   <v>       0.05691400       0.46847600       0.25391800 </v>
   <v>      -0.47485200       0.24691500       0.03387200 </v>
   <v>       0.44327800       0.24177800       0.47300100 </v>
   <v>       0.24487900       0.02056400      -0.04098400 </v>
   <v>       0.24720300       0.47143700      -0.05272100 </v>
   <v>       0.45699700      -0.46908900       0.24759300 </v>
   <v>       0.45620400      -0.04111300       0.25041200 </v>
   <v>      -0.02956300       0.24994600      -0.03069700 </v>
   <v>       0.49963100      -0.00393500       0.00036000 </v>
   <v>      -0.49948800       0.49726100       0.00020300 </v>
   <v>      -0.00467100       0.00089200      -0.00047300 </v>
   <v>      -0.00007700       0.49860500      -0.00021900 </v>
   <v>       0.03567000       0.25742700      -0.45885700 </v>
   <v>       0.49333600       0.00258300      -0.49950500 </v>
   <v>      -0.48699000       0.48633400       0.49820400 </v>
   <v>       0.24828900      -0.02658700      -0.44142100 </v>
   <v>       0.29127900       0.23681300      -0.25274000 </v>
   <v>      -0.20721100       0.24917000       0.22572400 </v>
   <v>       0.00023400       0.00469000       0.49982800 </v>
   <v>       0.00627300      -0.49471200      -0.49950400 </v>
   <v>       0.22611700      -0.24735000       0.26016900 </v>
   <v>       0.36891200      -0.33945100      -0.46449600 </v>
   <v>      -0.25927000       0.03711700       0.45324600 </v>
   <v>      -0.25108500      -0.02860100       0.05228800 </v>
   <v>       0.01118100      -0.25043900       0.02576100 </v>
   <v>      -0.44777500       0.02702700      -0.24881200 </v>
   <v>      -0.24792200      -0.47329700       0.05249100 </v>
   <v>      -0.44702800       0.45986600      -0.25254300 </v>
   <v>       0.46874000      -0.25301900      -0.03629300 </v>
   <v>      -0.23381500       0.47834100       0.44695300 </v>
   <v>      -0.05284800      -0.03424000      -0.25277900 </v>
   <v>      -0.04989500      -0.46453000      -0.25379100 </v>
   <v>      -0.01885900      -0.24558100       0.45734000 </v>
   <v>       0.20021600      -0.24480900      -0.22230600 </v>
   <v>      -0.22243700       0.24418900      -0.28546200 </v>
   <v>      -0.27911600      -0.24754900       0.26338200 </v>
   <v>      -0.26552900      -0.25109400      -0.19208600 </v>
  </varray>
 </structure>
 <varray name="primitive_index" >
  <v type="int" >        1 </v>
  <v type="int" >       29 </v>
  <v type="int" >       38 </v>
  <v type="int" >       22 </v>
  <v type="int" >       20 </v>
  <v type="int" >       32 </v>
  <v type="int" >       24 </v>
  <v type="int" >       26 </v>
  <v type="int" >       34 </v>
  <v type="int" >       19 </v>
  <v type="int" >       11 </v>
  <v type="int" >       13 </v>
  <v type="int" >        9 </v>
  <v type="int" >       15 </v>
  <v type="int" >       23 </v>
  <v type="int" >       10 </v>
  <v type="int" >       16 </v>
  <v type="int" >       31 </v>
  <v type="int" >        5 </v>
  <v type="int" >        6 </v>
  <v type="int" >       12 </v>
  <v type="int" >       14 </v>
  <v type="int" >        8 </v>
  <v type="int" >       39 </v>
  <v type="int" >       33 </v>
  <v type="int" >       30 </v>
  <v type="int" >       21 </v>
  <v type="int" >       28 </v>
  <v type="int" >       36 </v>
  <v type="int" >       37 </v>
  <v type="int" >       17 </v>
  <v type="int" >       25 </v>
  <v type="int" >       35 </v>
  <v type="int" >       27 </v>
  <v type="int" >       18 </v>
  <v type="int" >        4 </v>
  <v type="int" >        2 </v>
  <v type="int" >        3 </v>
  <v type="int" >        7 </v>
 </varray>
 <kpoints>
  <generation param="Gamma">
   <v type="int" name="divisions">       2        2        2 </v>
   <v name="usershift">      0.00000000       0.00000000       0.00000000 </v>
   <v name="genvec1">      0.50000000       0.00000000       0.00000000 </v>
   <v name="genvec2">      0.00000000       0.50000000       0.00000000 </v>
   <v name="genvec3">      0.00000000       0.00000000       0.50000000 </v>
   <v name="shift">      0.00000000       0.00000000       0.00000000 </v>
  </generation>
  <varray name="kpointlist" >
   <v>       0.00000000       0.00000000       0.00000000 </v>
   <v>       0.50000000       0.00000000       0.00000000 </v>
   <v>       0.00000000       0.50000000       0.00000000 </v>
   <v>       0.50000000       0.50000000       0.00000000 </v>
   <v>       0.00000000       0.00000000       0.50000000 </v>
   <v>       0.50000000       0.00000000       0.50000000 </v>
   <v>       0.00000000       0.50000000       0.50000000 </v>
   <v>       0.50000000       0.50000000       0.50000000 </v>
  </varray>
  <varray name="weights" >
   <v>       0.12500000 </v>
   <v>       0.12500000 </v>
   <v>       0.12500000 </v>
   <v>       0.12500000 </v>
   <v>       0.12500000 </v>
   <v>       0.12500000 </v>
   <v>       0.12500000 </v>
   <v>       0.12500000 </v>
  </varray>
 </kpoints>
 <parameters>
  <separator name="general" >
   <i type="string" name="SYSTEM">CsPbBr3 cubic bulk</i>
   <i type="logical" name="LCOMPAT"> F  </i>
  </separator>
  <separator name="electronic" >
   <i type="string" name="PREC">accura</i>
   <i name="ENMAX">    300.00000000</i>
   <i name="ENAUG">    503.85200000</i>
   <i name="EDIFF">      0.00000100</i>
   <i type="int" name="IALGO">    38</i>
   <i type="int" name="IWAVPR">    10</i>
   <i type="int" name="NBANDS">   208</i>
   <i name="NELECT">    344.00000000</i>
   <i type="int" name="TURBO">     0</i>
   <i type="int" name="IRESTART">     0</i>
   <i type="int" name="NREBOOT">     0</i>
   <i type="int" name="NMIN">     0</i>
   <i name="EREF">      0.00000000</i>
   <separator name="electronic smearing" >
    <i type="int" name="ISMEAR">     0</i>
    <i name="SIGMA">      0.01000000</i>
    <i name="KSPACING">      0.50000000</i>
    <i type="logical" name="KGAMMA"> T  </i>
   </separator>
   <separator name="electronic projectors" >
    <i type="logical" name="LREAL"> T  </i>
    <v name="ROPT">     -0.00025000     -0.00025000     -0.00025000</v>
    <i type="int" name="LMAXPAW">  -100</i>
    <i type="int" name="LMAXMIX">     2</i>
    <i type="logical" name="NLSPLINE"> F  </i>
   </separator>
   <separator name="electronic startup" >
    <i type="int" name="ISTART">     0</i>
    <i type="int" name="ICHARG">     2</i>
    <i type="int" name="INIWAV">     1</i>
   </separator>
   <separator name="electronic spin" >
    <i type="int" name="ISPIN">     1</i>
    <i type="logical" name="LNONCOLLINEAR"> F  </i>
    <v name="MAGMOM">      0.00000000      0.00000000      0.00000000      0.00000000      0.00000000      0.00000000      0.00000000      0.00000000      0.00000000      0.00000000      0.00000000      0.00000000      0.00000000      0.00000000      0.00000000      0.00000000      0.00000000      0.00000000      0.00000000      0.00000000
      0.00000000      0.00000000      0.00000000      0.00000000      0.00000000      0.00000000      0.00000000      0.00000000      0.00000000      0.00000000      0.00000000      0.00000000      0.00000000      0.00000000      0.00000000      0.00000000      0.00000000      0.00000000      0.00000000</v>
    <i name="NUPDOWN">      0.00000000</i>
    <i type="logical" name="LSORBIT"> F  </i>
    <v name="SAXIS">      0.00000000      0.00000000      1.00000000</v>
    <i type="logical" name="LSPIRAL"> F  </i>
    <v name="QSPIRAL">      0.00000000      0.00000000      0.00000000</v>
    <i type="logical" name="LZEROZ"> F  </i>
   </separator>
   <separator name="electronic exchange-correlation" >
    <i type="logical" name="LASPH"> T  </i>
    <i type="logical" name="LMETAGGA"> F  </i>
   </separator>
   <separator name="electronic convergence" >
    <i type="int" name="NELM">   200</i>
    <i type="int" name="NELMDL">    -5</i>
    <i type="int" name="NELMIN">     2</i>
    <i name="ENINI">    300.00000000</i>
    <separator name="electronic convergence detail" >
     <i type="logical" name="LDIAG"> T  </i>
     <i type="logical" name="LSUBROT"> F  </i>
     <i name="WEIMIN">      0.00000000</i>
     <i name="EBREAK">      0.00000000</i>
     <i name="DEPER">      0.30000000</i>
     <i type="int" name="NRMM">     4</i>
     <i name="TIME">      0.40000000</i>
    </separator>
   </separator>
   <separator name="electronic mixer" >
    <i name="AMIX">      0.40000000</i>
    <i name="BMIX">      1.00000000</i>
    <i name="AMIN">      0.10000000</i>
    <i name="AMIX_MAG">      1.60000000</i>
    <i name="BMIX_MAG">      1.00000000</i>
    <separator name="electronic mixer details" >
     <i type="int" name="IMIX">     4</i>
     <i type="logical" name="MIXFIRST"> F  </i>
     <i type="int" name="MAXMIX">   -45</i>
     <i name="WC">    100.00000000</i>
     <i type="int" name="INIMIX">     1</i>
     <i type="int" name="MIXPRE">     1</i>
     <i type="int" name="MREMOVE">     5</i>
    </separator>
   </separator>
   <separator name="electronic dipolcorrection" >
    <i type="logical" name="LDIPOL"> F  </i>
    <i type="logical" name="LMONO"> F  </i>
    <i type="int" name="IDIPOL">     0</i>
    <i name="EPSILON">      1.00000000</i>
    <v name="DIPOL">   -100.00000000   -100.00000000   -100.00000000</v>
    <i name="EFIELD">      0.00000000</i>
   </separator>
  </separator>
  <separator name="grids" >
   <i type="int" name="NGX">    70</i>
   <i type="int" name="NGY">    70</i>
   <i type="int" name="NGZ">    70</i>
   <i type="int" name="NGXF">   140</i>
   <i type="int" name="NGYF">   140</i>
   <i type="int" name="NGZF">   140</i>
   <i type="logical" name="ADDGRID"> T  </i>
  </separator>
  <separator name="ionic" >
   <i type="int" name="NSW">     0</i>
   <i type="int" name="IBRION">    -1</i>
   <i type="int" name="MDALGO">     0</i>
   <i type="int" name="ISIF">     2</i>
   <i name="PSTRESS">      0.00000000</i>
   <i name="EDIFFG">     -0.01000000</i>
   <i type="int" name="NFREE">     1</i>
   <i name="POTIM">      0.50000000</i>
   <i name="SMASS">     -3.00000000</i>
   <i name="SCALEE">      1.00000000</i>
  </separator>
  <separator name="ionic md" >
   <i name="TEBEG">      0.00010000</i>
   <i name="TEEND">      0.00010000</i>
   <i type="int" name="NBLOCK">     1</i>
   <i type="int" name="KBLOCK">     1</i>
   <i type="int" name="NPACO">   256</i>
   <i name="APACO">     16.00000000</i>
  </separator>
  <separator name="symmetry" >
   <i type="int" name="ISYM">     0</i>
   <i name="SYMPREC">      0.00001000</i>
  </separator>
  <separator name="dos" >
   <i type="int" name="LORBIT">    10</i>
   <v name="RWIGS">     -1.00000000     -1.00000000     -1.00000000</v>
   <i type="int" name="NEDOS">   301</i>
   <i name="EMIN">     10.00000000</i>
   <i name="EMAX">    -10.00000000</i>
   <i name="EFERMI">      0.00000000</i>
  </separator>
  <separator name="writing" >
   <i type="int" name="NWRITE">     2</i>
   <i type="logical" name="LWAVE"> F  </i>
   <i type="logical" name="LDOWNSAMPLE"> F  </i>
   <i type="logical" name="LCHARG"> F  </i>
   <i type="logical" name="LPARD"> F  </i>
   <i type="logical" name="LVTOT"> F  </i>
   <i type="logical" name="LVHAR"> T  </i>
   <i type="logical" name="LELF"> F  </i>
   <i type="logical" name="LOPTICS"> F  </i>
   <v name="STM">      0.00000000      0.00000000      0.00000000      0.00000000      0.00000000      0.00000000      0.00000000</v>
  </separator>
  <separator name="performance" >
   <i type="int" name="NPAR">     8</i>
   <i type="int" name="NSIM">     4</i>
   <i type="int" name="NBLK">    -1</i>
   <i type="logical" name="LPLANE"> T  </i>
   <i type="logical" name="LSCALAPACK"> T  </i>
   <i type="logical" name="LSCAAWARE"> F  </i>
   <i type="logical" name="LSCALU"> F  </i>
   <i type="logical" name="LASYNC"> F  </i>
   <i type="logical" name="LORBITALREAL"> F  </i>
  </separator>
  <separator name="miscellaneous" >
   <i type="int" name="IDIOT">     3</i>
   <i type="int" name="ISPECIAL">     0</i>
   <i type="logical" name="LMUSIC"> F  </i>
   <v name="POMASS">    132.90000000    207.20000000     79.90400000</v>
   <v name="DARWINR">      0.00000000      0.00000000      0.00000000</v>
   <v name="DARWINV">      1.00000000      1.00000000      1.00000000</v>
   <i type="logical" name="LCORR"> T  </i>
  </separator>
  <i type="logical" name="GGA_COMPAT"> T  </i>
  <i type="logical" name="LBERRY"> F  </i>
  <i type="int" name="ICORELEVEL">     0</i>
  <i type="logical" name="LDAU"> F  </i>
  <i type="int" name="I_CONSTRAINED_M">     0</i>
  <separator name="electronic exchange-correlation" >
   <i type="string" name="GGA">--</i>
   <i type="int" name="VOSKOWN">     0</i>
   <i type="logical" name="LHFCALC"> F  </i>
   <i type="string" name="PRECFOCK"></i>
   <i type="logical" name="LSYMGRAD"> F  </i>
   <i type="logical" name="LHFONE"> F  </i>
   <i type="logical" name="LRHFCALC"> F  </i>
   <i type="logical" name="LTHOMAS"> F  </i>
   <i type="logical" name="LMODELHF"> F  </i>
   <i name="ENCUT4O">     -1.00000000</i>
   <i type="int" name="EXXOEP">     0</i>
   <i type="int" name="FOURORBIT">     0</i>
   <i name="AEXX">      0.00000000</i>
   <i name="HFALPHA">      0.00000000</i>
   <i name="MCALPHA">      0.00000000</i>
   <i name="ALDAX">      1.00000000</i>
   <i name="AGGAX">      1.00000000</i>
   <i name="ALDAC">      1.00000000</i>
   <i name="AGGAC">      1.00000000</i>
   <i type="int" name="NKREDX">     1</i>
   <i type="int" name="NKREDY">     1</i>
   <i type="int" name="NKREDZ">     1</i>
   <i type="logical" name="SHIFTRED"> F  </i>
   <i type="logical" name="ODDONLY"> F  </i>
   <i type="logical" name="EVENONLY"> F  </i>
   <i type="int" name="LMAXFOCK">     0</i>
   <i type="int" name="NMAXFOCKAE">     0</i>
   <i type="logical" name="LFOCKAEDFT"> F  </i>
   <i name="HFSCREEN">      0.00000000</i>
   <i name="HFSCREENC">      0.00000000</i>
   <i type="int" name="NBANDSGWLOW">     0</i>
  </separator>
  <separator name="vdW DFT" >
   <i type="logical" name="LUSE_VDW"> F  </i>
   <i name="Zab_VDW">     -0.84910000</i>
   <i name="PARAM1">      0.12340000</i>
   <i name="PARAM2">      1.00000000</i>
   <i name="PARAM3">      0.00000000</i>
  </separator>
  <separator name="model GW" >
   <i type="int" name="MODEL_GW">     0</i>
   <i name="MODEL_EPS0">     24.53982053</i>
   <i name="MODEL_ALPHA">      1.00000000</i>
  </separator>
  <separator name="linear response parameters" >
   <i type="logical" name="LEPSILON"> F  </i>
   <i type="logical" name="LRPA"> F  </i>
   <i type="logical" name="LNABLA"> F  </i>
   <i type="logical" name="LVEL"> F  </i>
   <i type="int" name="KINTER">     0</i>
   <i name="CSHIFT">      0.10000000</i>
   <i name="OMEGAMAX">     -1.00000000</i>
   <i name="DEG_THRESHOLD">      0.00200000</i>
   <i name="RTIME">     -0.10000000</i>
   <i name="WPLASMAI">      0.00000000</i>
   <v name="DFIELD">      0.00000000      0.00000000      0.00000000</v>
   <v name="WPLASMA">      0.00000000      0.00000000      0.00000000      0.00000000      0.00000000      0.00000000      0.00000000      0.00000000      0.00000000</v>
  </separator>
  <separator name="orbital magnetization" >
   <i type="logical" name="NUCIND"> F  </i>
   <v name="MAGPOS">      0.00000000      0.00000000      0.00000000</v>
   <i type="logical" name="LNICSALL"> T  </i>
   <i type="logical" name="ORBITALMAG"> F  </i>
   <i type="logical" name="LMAGBLOCH"> F  </i>
   <i type="logical" name="LCHIMAG"> F  </i>
   <i type="logical" name="LGAUGE"> T  </i>
   <i type="int" name="MAGATOM">     0</i>
   <v name="MAGDIPOL">      0.00000000      0.00000000      0.00000000</v>
   <v name="AVECCONST">      0.00000000      0.00000000      0.00000000</v>
  </separator>
  <separator name="response functions" >
   <i type="logical" name="LADDER"> F  </i>
   <i type="logical" name="LRPAFORCE"> F  </i>
   <i type="logical" name="LFXC"> F  </i>
   <i type="logical" name="LHARTREE"> T  </i>
   <i type="int" name="IBSE">     0</i>
   <v type="int" name="KPOINT">    -1     0     0     0</v>
   <i type="logical" name="LTCTE"> F  </i>
   <i type="logical" name="LTETE"> F  </i>
   <i type="logical" name="LTRIPLET"> F  </i>
   <i type="logical" name="LFXCEPS"> F  </i>
   <i type="logical" name="LFXHEG"> F  </i>
   <i type="int" name="NATURALO">     2</i>
   <i type="logical" name="L2ORDER"> F  </i>
   <i type="logical" name="LMP2LT"> F  </i>
   <i type="logical" name="LUSEW"> F  </i>
   <i name="ENCUTGW">     -2.00000000</i>
   <i name="ENCUTGWSOFT">     -2.00000000</i>
   <i name="ENCUTLF">     -1.00000000</i>
   <i type="int" name="LMAXMP2">    -1</i>
   <i name="SCISSOR">      0.00000000</i>
   <i type="int" name="NOMEGA">     0</i>
   <i type="int" name="NOMEGAR">     0</i>
   <i type="int" name="NBANDSGW">    -1</i>
   <i type="int" name="NBANDSO">    -1</i>
   <i type="int" name="NBANDSV">    -1</i>
   <i type="int" name="NELM">   200</i>
   <i type="int" name="NELMHF">     1</i>
   <i type="int" name="DIM">     3</i>
   <i type="int" name="ANTIRES">     0</i>
   <i name="OMEGAMAX">    -30.00000000</i>
   <i name="OMEGAMIN">    -30.00000000</i>
   <i name="OMEGATL">   -200.00000000</i>
   <i type="int" name="OMEGAGRID">   140</i>
   <i name="CSHIFT">     -0.10000000</i>
   <i type="logical" name="SELFENERGY"> F  </i>
   <i type="logical" name="LSPECTRAL"> F  </i>
   <i type="logical" name="LSPECTRALGW"> F  </i>
   <i type="logical" name="LSINGLES"> F  </i>
   <i type="logical" name="LFERMIGW"> F  </i>
   <i type="logical" name="ODDONLYGW"> F  </i>
   <i type="logical" name="EVENONLYGW"> F  </i>
   <i type="int" name="NKREDLFX">     1</i>
   <i type="int" name="NKREDLFY">     1</i>
   <i type="int" name="NKREDLFZ">     1</i>
   <i type="int" name="MAXMEM">  2800</i>
   <i type="int" name="TELESCOPE">     0</i>
   <i type="int" name="TAUPAR">     1</i>
   <i type="int" name="OMEGAPAR">    -1</i>
   <i name="LAMBDA">      1.00000000</i>
  </separator>
  <separator name="External order field" >
   <i name="OFIELD_KAPPA">      0.00000000</i>
   <v name="OFIELD_K">      0.00000000      0.00000000      0.00000000</v>
   <i name="OFIELD_Q6_NEAR">      0.00000000</i>
   <i name="OFIELD_Q6_FAR">      0.00000000</i>
   <i name="OFIELD_A">      0.00000000</i>
  </separator>
 </parameters>
 <atominfo>
  <atoms>      39 </atoms>
  <types>       3 </types>
  <array name="atoms" >
   <dimension dim="1">ion</dimension>
   <field type="string">element</field>
   <field type="int">atomtype</field>
   <set>
    <rc><c>Cs</c><c>   1</c></rc>
    <rc><c>Cs</c><c>   1</c></rc>
    <rc><c>Cs</c><c>   1</c></rc>
    <rc><c>Cs</c><c>   1</c></rc>
    <rc><c>Cs</c><c>   1</c></rc>
    <rc><c>Cs</c><c>   1</c></rc>
    <rc><c>Cs</c><c>   1</c></rc>
    <rc><c>Cs</c><c>   1</c></rc>
    <rc><c>Pb</c><c>   2</c></rc>
    <rc><c>Pb</c><c>   2</c></rc>
    <rc><c>Pb</c><c>   2</c></rc>
    <rc><c>Pb</c><c>   2</c></rc>
    <rc><c>Pb</c><c>   2</c></rc>
    <rc><c>Pb</c><c>   2</c></rc>
    <rc><c>Pb</c><c>   2</c></rc>
    <rc><c>Pb</c><c>   2</c></rc>
    <rc><c>Br</c><c>   3</c></rc>
    <rc><c>Br</c><c>   3</c></rc>
    <rc><c>Br</c><c>   3</c></rc>
    <rc><c>Br</c><c>   3</c></rc>
    <rc><c>Br</c><c>   3</c></rc>
    <rc><c>Br</c><c>   3</c></rc>
    <rc><c>Br</c><c>   3</c></rc>
    <rc><c>Br</c><c>   3</c></rc>
    <rc><c>Br</c><c>   3</c></rc>
    <rc><c>Br</c><c>   3</c></rc>
    <rc><c>Br</c><c>   3</c></rc>
    <rc><c>Br</c><c>   3</c></rc>
    <rc><c>Br</c><c>   3</c></rc>
    <rc><c>Br</c><c>   3</c></rc>
    <rc><c>Br</c><c>   3</c></rc>
    <rc><c>Br</c><c>   3</c></rc>
    <rc><c>Br</c><c>   3</c></rc>
    <rc><c>Br</c><c>   3</c></rc>
    <rc><c>Br</c><c>   3</c></rc>
    <rc><c>Br</c><c>   3</c></rc>
    <rc><c>Br</c><c>   3</c></rc>
    <rc><c>Br</c><c>   3</c></rc>
    <rc><c>Br</c><c>   3</c></rc>
   </set>
  </array>
  <array name="atomtypes" >
   <dimension dim="1">type</dimension>
   <field type="int">atomspertype</field>
   <field type="string">element</field>
   <field>mass</field>
   <field>valence</field>
   <field type="string">pseudopotential</field>
   <set>
    <rc><c>   8</c><c>Cs</c><c>    132.90000000</c><c>      9.00000000</c><c>  PAW_PBE Cs_sv 08Apr2002               </c></rc>
    <rc><c>   8</c><c>Pb</c><c>    207.20000000</c><c>     14.00000000</c><c>  PAW_PBE Pb_d 06Sep2000                </c></rc>
    <rc><c>  23</c><c>Br</c><c>     79.90400000</c><c>      7.00000000</c><c>  PAW_PBE Br 06Sep2000                  </c></rc>
   </set>
  </array>
 </atominfo>
 <structure name="initialpos" >
  <crystal>
   <varray name="basis" >
    <v>       8.45648900       0.00000000       8.04030100 </v>
    <v>       0.00000000      11.72984700       0.00000000 </v>
    <v>      -8.45648900       0.00000000       8.04030100 </v>
   </varray>
   <i name="volume">   1595.08833419 </i>
   <varray name="rec_basis" >
    <v>       0.05912619      -0.00000000       0.06218673 </v>
    <v>       0.00000000       0.08525260      -0.00000000 </v>
    <v>      -0.05912619       0.00000000       0.06218673 </v>
   </varray>
  </crystal>
  <varray name="positions" >
   <v>       0.26594600       0.24584900       0.19865800 </v>
   <v>       0.77756300       0.24418900       0.71453800 </v>
   <v>       0.72088400       0.75245100       0.26338200 </v>
   <v>       0.20021600       0.75519100       0.77769400 </v>
   <v>       0.29127900       0.23681300       0.74726000 </v>
   <v>       0.79278900       0.24917000       0.22572400 </v>
   <v>       0.73447100       0.74890600       0.80791400 </v>
   <v>       0.22611700       0.75265000       0.26016900 </v>
   <v>       0.99532900       0.00089200       0.99952700 </v>
   <v>       0.49333600       0.00258300       0.50049500 </v>
   <v>       0.49963100       0.99606500       0.00036000 </v>
   <v>       0.00023400       0.00469000       0.49982800 </v>
   <v>       0.50051200       0.49726100       0.00020300 </v>
   <v>       0.00627300       0.50528800       0.50049600 </v>
   <v>       0.99992300       0.49860500       0.99978100 </v>
   <v>       0.51301000       0.48633400       0.49820400 </v>
   <v>       0.46874000       0.74698100       0.96370700 </v>
   <v>       0.98114100       0.75441900       0.45734000 </v>
   <v>       0.97043700       0.24994600       0.96930300 </v>
   <v>       0.44327800       0.24177800       0.47300100 </v>
   <v>       0.01118100       0.74956100       0.02576100 </v>
   <v>       0.52514800       0.24691500       0.03387200 </v>
   <v>       0.03567000       0.25742700       0.54114300 </v>
   <v>       0.24720300       0.47143700       0.94727900 </v>
   <v>       0.76618500       0.47834100       0.44695300 </v>
   <v>       0.45699700       0.53091100       0.24759300 </v>
   <v>       0.95010500       0.53547000       0.74620900 </v>
   <v>       0.55222500       0.02702700       0.75118800 </v>
   <v>       0.04624700       0.03582700       0.25242500 </v>
   <v>       0.74891500       0.97139900       0.05228800 </v>
   <v>       0.24828900       0.97341300       0.55857900 </v>
   <v>       0.24487900       0.02056400       0.95901600 </v>
   <v>       0.74073000       0.03711700       0.45324600 </v>
   <v>       0.45620400       0.95888700       0.25041200 </v>
   <v>       0.94715200       0.96576000       0.74722100 </v>
   <v>       0.75207800       0.52670300       0.05249100 </v>
   <v>       0.55297200       0.45986600       0.74745700 </v>
   <v>       0.05691400       0.46847600       0.25391800 </v>
   <v>       0.36891200       0.66054900       0.53550400 </v>
  </varray>
 </structure>
 <calculation>
  <scstep>
   <time name="dav">   16.62   16.62</time>
   <time name="total">   18.08   18.11</time>
   <energy>
    <i name="alphaZ">    872.70583573 </i>
    <i name="ewald"> -17930.58000882 </i>
    <i name="hartreedc">  -7426.74519312 </i>
    <i name="XCdc">    908.09542499 </i>
    <i name="pawpsdc">  21345.28103884 </i>
    <i name="pawaedc"> -22405.85761495 </i>
    <i name="eentropy">     -0.00000237 </i>
    <i name="bandstr">   -246.00387611 </i>
    <i name="atom">  26212.11861568 </i>
    <i name="e_fr_energy">   1329.01421987 </i>
    <i name="e_wo_entrp">   1329.01422224 </i>
    <i name="e_0_energy">   1329.01422106 </i>
   </energy>
  </scstep>
  <scstep>
   <time name="dav">   18.40   18.45</time>
   <time name="total">   18.40   18.45</time>
   <energy>
    <i name="e_fr_energy">  -1115.10261739 </i>
    <i name="e_wo_entrp">  -1115.10261739 </i>
    <i name="e_0_energy">  -1115.10261739 </i>
   </energy>
  </scstep>
  <scstep>
   <time name="dav">   19.46   19.47</time>
   <time name="total">   19.46   19.47</time>
   <energy>
    <i name="e_fr_energy">  -1474.65424596 </i>
    <i name="e_wo_entrp">  -1474.65424596 </i>
    <i name="e_0_energy">  -1474.65424596 </i>
   </energy>
  </scstep>
  <scstep>
   <time name="dav">   17.97   18.02</time>
   <time name="total">   17.97   18.02</time>
   <energy>
    <i name="e_fr_energy">  -1486.85229041 </i>
    <i name="e_wo_entrp">  -1486.85229041 </i>
    <i name="e_0_energy">  -1486.85229041 </i>
   </energy>
  </scstep>
  <scstep>
   <time name="dav">   19.47   19.54</time>
   <time name="total">   22.18   22.25</time>
   <energy>
    <i name="e_fr_energy">  -1487.39304004 </i>
    <i name="e_wo_entrp">  -1487.39304004 </i>
    <i name="e_0_energy">  -1487.39304004 </i>
   </energy>
  </scstep>
  <scstep>
   <time name="dav">   19.08   19.08</time>
   <time name="total">   23.23   23.29</time>
   <energy>
    <i name="e_fr_energy">  -1409.72239401 </i>
    <i name="e_wo_entrp">  -1409.72239401 </i>
    <i name="e_0_energy">  -1409.72239401 </i>
   </energy>
  </scstep>
  <scstep>
   <time name="dav">   18.33   18.34</time>
   <time name="total">   22.51   22.54</time>
   <energy>
    <i name="e_fr_energy">  -1409.20326829 </i>
    <i name="e_wo_entrp">  -1409.20326829 </i>
    <i name="e_0_energy">  -1409.20326829 </i>
   </energy>
  </scstep>
  <scstep>
   <time name="dav">   18.19   18.19</time>
   <time name="total">   22.40   22.40</time>
   <energy>
    <i name="e_fr_energy">  -1409.37719120 </i>
    <i name="e_wo_entrp">  -1409.37719120 </i>
    <i name="e_0_energy">  -1409.37719120 </i>
   </energy>
  </scstep>
  <scstep>
   <time name="dav">   17.31   17.31</time>
   <time name="total">   21.52   21.53</time>
   <energy>
    <i name="e_fr_energy">  -1409.44283150 </i>
    <i name="e_wo_entrp">  -1409.44283150 </i>
    <i name="e_0_energy">  -1409.44283150 </i>
   </energy>
  </scstep>
  <scstep>
   <time name="dav">   19.42   19.42</time>
   <time name="total">   23.61   23.63</time>
   <energy>
    <i name="e_fr_energy">  -1409.44654243 </i>
    <i name="e_wo_entrp">  -1409.44654243 </i>
    <i name="e_0_energy">  -1409.44654243 </i>
   </energy>
  </scstep>
  <scstep>
   <time name="dav">   17.34   17.34</time>
   <time name="total">   21.51   21.57</time>
   <energy>
    <i name="e_fr_energy">  -1409.44836083 </i>
    <i name="e_wo_entrp">  -1409.44836083 </i>
    <i name="e_0_energy">  -1409.44836083 </i>
   </energy>
  </scstep>
  <scstep>
   <time name="dav">   17.01   17.02</time>
   <time name="total">   21.19   21.24</time>
   <energy>
    <i name="e_fr_energy">  -1409.45120902 </i>
    <i name="e_wo_entrp">  -1409.45120902 </i>
    <i name="e_0_energy">  -1409.45120902 </i>
   </energy>
  </scstep>
  <scstep>
   <time name="dav">   19.52   19.53</time>
   <time name="total">   23.72   23.75</time>
   <energy>
    <i name="e_fr_energy">  -1409.45087131 </i>
    <i name="e_wo_entrp">  -1409.45087131 </i>
    <i name="e_0_energy">  -1409.45087131 </i>
   </energy>
  </scstep>
  <scstep>
   <time name="dav">   17.55   17.55</time>
   <time name="total">   21.75   21.77</time>
   <energy>
    <i name="e_fr_energy">  -1409.45078828 </i>
    <i name="e_wo_entrp">  -1409.45078828 </i>
    <i name="e_0_energy">  -1409.45078828 </i>
   </energy>
  </scstep>
  <scstep>
   <time name="dav">   17.94   17.94</time>
   <time name="total">   22.11   22.17</time>
   <energy>
    <i name="e_fr_energy">  -1409.45078611 </i>
    <i name="e_wo_entrp">  -1409.45078611 </i>
    <i name="e_0_energy">  -1409.45078611 </i>
   </energy>
  </scstep>
  <scstep>
   <time name="dav">   17.19   17.19</time>
   <time name="total">   21.40   21.40</time>
   <energy>
    <i name="e_fr_energy">  -1409.45081276 </i>
    <i name="e_wo_entrp">  -1409.45081276 </i>
    <i name="e_0_energy">  -1409.45081276 </i>
   </energy>
  </scstep>
  <scstep>
   <time name="dav">   18.55   18.55</time>
   <time name="total">   22.75   22.77</time>
   <energy>
    <i name="e_fr_energy">  -1409.45083423 </i>
    <i name="e_wo_entrp">  -1409.45083423 </i>
    <i name="e_0_energy">  -1409.45083423 </i>
   </energy>
  </scstep>
  <scstep>
   <time name="dav">   13.80   13.80</time>
   <time name="total">   17.98   18.02</time>
   <energy>
    <i name="e_fr_energy">  -1409.45082246 </i>
    <i name="e_wo_entrp">  -1409.45082246 </i>
    <i name="e_0_energy">  -1409.45082246 </i>
   </energy>
  </scstep>
  <scstep>
   <time name="dav">   13.40   13.41</time>
   <time name="total">   17.60   17.62</time>
   <energy>
    <i name="e_fr_energy">  -1409.45081857 </i>
    <i name="e_wo_entrp">  -1409.45081857 </i>
    <i name="e_0_energy">  -1409.45081857 </i>
   </energy>
  </scstep>
  <scstep>
   <time name="dav">   12.67   12.67</time>
   <time name="total">   16.85   16.90</time>
   <energy>
    <i name="e_fr_energy">  -1409.45081657 </i>
    <i name="e_wo_entrp">  -1409.45081657 </i>
    <i name="e_0_energy">  -1409.45081657 </i>
   </energy>
  </scstep>
  <scstep>
   <time name="dav">   12.50   12.50</time>
   <time name="total">   13.99   14.03</time>
   <energy>
    <i name="alphaZ">    872.70583573 </i>
    <i name="ewald"> -17930.58000882 </i>
    <i name="hartreedc">  -7460.02692805 </i>
    <i name="XCdc">    943.63289520 </i>
    <i name="pawpsdc">  22756.95495715 </i>
    <i name="pawaedc"> -23815.38645540 </i>
    <i name="eentropy">     -0.00000000 </i>
    <i name="bandstr">  -2988.86972755 </i>
    <i name="atom">  26212.11861568 </i>
    <i name="e_fr_energy">  -1409.45081606 </i>
    <i name="e_wo_entrp">  -1409.45081606 </i>
    <i name="e_0_energy">  -1409.45081606 </i>
   </energy>
  </scstep>
  <structure>
   <crystal>
    <varray name="basis" >
     <v>       8.45648900       0.00000000       8.04030100 </v>
     <v>       0.00000000      11.72984700       0.00000000 </v>
     <v>      -8.45648900       0.00000000       8.04030100 </v>
    </varray>
    <i name="volume">   1595.08833419 </i>
    <varray name="rec_basis" >
     <v>       0.05912619      -0.00000000       0.06218673 </v>
     <v>       0.00000000       0.08525260      -0.00000000 </v>
     <v>      -0.05912619       0.00000000       0.06218673 </v>
    </varray>
   </crystal>
   <varray name="positions" >
    <v>       0.26594600       0.24584900       0.19865800 </v>
    <v>       0.77756300       0.24418900       0.71453800 </v>
    <v>       0.72088400       0.75245100       0.26338200 </v>
    <v>       0.20021600       0.75519100       0.77769400 </v>
    <v>       0.29127900       0.23681300       0.74726000 </v>
    <v>       0.79278900       0.24917000       0.22572400 </v>
    <v>       0.73447100       0.74890600       0.80791400 </v>
    <v>       0.22611700       0.75265000       0.26016900 </v>
    <v>       0.99532900       0.00089200       0.99952700 </v>
    <v>       0.49333600       0.00258300       0.50049500 </v>
    <v>       0.49963100       0.99606500       0.00036000 </v>
    <v>       0.00023400       0.00469000       0.49982800 </v>
    <v>       0.50051200       0.49726100       0.00020300 </v>
    <v>       0.00627300       0.50528800       0.50049600 </v>
    <v>       0.99992300       0.49860500       0.99978100 </v>
    <v>       0.51301000       0.48633400       0.49820400 </v>
    <v>       0.46874000       0.74698100       0.96370700 </v>
    <v>       0.98114100       0.75441900       0.45734000 </v>
    <v>       0.97043700       0.24994600       0.96930300 </v>
    <v>       0.44327800       0.24177800       0.47300100 </v>
    <v>       0.01118100       0.74956100       0.02576100 </v>
    <v>       0.52514800       0.24691500       0.03387200 </v>
    <v>       0.03567000       0.25742700       0.54114300 </v>
    <v>       0.24720300       0.47143700       0.94727900 </v>
    <v>       0.76618500       0.47834100       0.44695300 </v>
    <v>       0.45699700       0.53091100       0.24759300 </v>
    <v>       0.95010500       0.53547000       0.74620900 </v>
    <v>       0.55222500       0.02702700       0.75118800 </v>
    <v>       0.04624700       0.03582700       0.25242500 </v>
    <v>       0.74891500       0.97139900       0.05228800 </v>
    <v>       0.24828900       0.97341300       0.55857900 </v>
    <v>       0.24487900       0.02056400       0.95901600 </v>
    <v>       0.74073000       0.03711700       0.45324600 </v>
    <v>       0.45620400       0.95888700       0.25041200 </v>
    <v>       0.94715200       0.96576000       0.74722100 </v>
    <v>       0.75207800       0.52670300       0.05249100 </v>
    <v>       0.55297200       0.45986600       0.74745700 </v>
    <v>       0.05691400       0.46847600       0.25391800 </v>
    <v>       0.36891200       0.66054900       0.53550400 </v>
   </varray>
  </structure>
  <varray name="forces" >
   <v>       0.00181989       0.00226804       0.00697525 </v>
   <v>      -0.00023900       0.00571183      -0.00580842 </v>
   <v>       0.00684099      -0.01069475      -0.00042335 </v>
   <v>       0.00650746      -0.00006829       0.00106586 </v>
   <v>       0.00771547      -0.01853016       0.01026532 </v>
   <v>      -0.00324899       0.00985659      -0.00170945 </v>
   <v>      -0.00596743      -0.00476770       0.00468215 </v>
   <v>       0.00750609       0.00371822       0.00286531 </v>
   <v>      -0.00358266       0.00422234      -0.01114532 </v>
   <v>      -0.03092463       0.08448409      -0.05292660 </v>
   <v>      -0.00535963       0.00657432       0.00676954 </v>
   <v>       0.00183191       0.02291497       0.01305355 </v>
   <v>      -0.00773291       0.00579878       0.00340242 </v>
   <v>      -0.05971222      -0.01447100      -0.12805375 </v>
   <v>      -0.00214901      -0.00724671       0.00409692 </v>
   <v>       0.27767771      -0.37654657       0.16888200 </v>
   <v>       0.00331281       0.00657902       0.00065522 </v>
   <v>       0.00202026      -0.00132293       0.00275907 </v>
   <v>       0.00100776       0.00083800       0.00238537 </v>
   <v>      -0.02498159      -0.20979934      -0.00873974 </v>
   <v>      -0.00010394       0.00069400      -0.00111114 </v>
   <v>      -0.00014465      -0.01102288       0.00117732 </v>
   <v>       0.00162270       0.00438859       0.00196011 </v>
   <v>      -0.00594179       0.00075304      -0.00502799 </v>
   <v>       0.17279850       0.03891745       0.18187667 </v>
   <v>       0.05287367      -0.00984886      -0.04862946 </v>
   <v>       0.00583628       0.00502635      -0.00161464 </v>
   <v>       0.00544037      -0.00104914      -0.00332093 </v>
   <v>      -0.00286659      -0.00367934       0.00400221 </v>
   <v>       0.00354465       0.00013956      -0.00126393 </v>
   <v>      -0.01428918       0.00246598      -0.01072266 </v>
   <v>       0.00139795       0.00260774       0.00319833 </v>
   <v>      -0.01367468      -0.00266156      -0.00591164 </v>
   <v>      -0.00493638      -0.00433191       0.00670123 </v>
   <v>       0.00106908      -0.00240896      -0.00290310 </v>
   <v>       0.00719138       0.00461001       0.00741477 </v>
   <v>      -0.01635810      -0.01917071       0.04666992 </v>
   <v>      -0.00813382       0.00343129       0.00817064 </v>
   <v>      -0.35766773       0.48162059      -0.19971710 </v>
  </varray>
  <varray name="stress" >
   <v>      -6.36309126      -0.67716968      -0.01623752 </v>
   <v>      -0.67699227      -4.23779456      -0.73072687 </v>
   <v>      -0.01625650      -0.73071244      -6.01982549 </v>
  </varray>
  <energy>
   <i name="e_fr_energy">  -1409.45081606 </i>
   <i name="e_wo_entrp">  -1409.45081606 </i>
   <i name="e_0_energy">     -0.00000000 </i>
  </energy>
  <time name="totalsc">  485.31  486.07</time>
  <eigenvalues>
   <array>
    <dimension dim="1">band</dimension>
    <dimension dim="2">kpoint</dimension>
    <dimension dim="3">spin</dimension>
    <field>eigene</field>
    <field>occ</field>
    <set>
     <set comment="spin 1">
      <set comment="kpoint 1">
       <r>  -20.9144    1.0000 </r>
       <r>  -20.8757    1.0000 </r>
       <r>  -20.8245    1.0000 </r>
       <r>  -20.7560    1.0000 </r>
       <r>  -20.7251    1.0000 </r>
       <r>  -20.7224    1.0000 </r>
       <r>  -20.7090    1.0000 </r>
       <r>  -20.6529    1.0000 </r>
       <r>  -16.7147    1.0000 </r>
       <r>  -16.6852    1.0000 </r>
       <r>  -16.6653    1.0000 </r>
       <r>  -16.6483    1.0000 </r>
       <r>  -16.6187    1.0000 </r>
       <r>  -16.6003    1.0000 </r>
       <r>  -16.5967    1.0000 </r>
       <r>  -16.5907    1.0000 </r>
       <r>  -16.5632    1.0000 </r>
       <r>  -16.5599    1.0000 </r>
       <r>  -16.5591    1.0000 </r>
       <r>  -16.5470    1.0000 </r>
       <r>  -16.5324    1.0000 </r>
       <r>  -16.5254    1.0000 </r>
       <r>  -16.4568    1.0000 </r>
       <r>  -16.4352    1.0000 </r>
       <r>  -16.4231    1.0000 </r>
       <r>  -16.4194    1.0000 </r>
       <r>  -16.4161    1.0000 </r>
       <r>  -16.4087    1.0000 </r>
       <r>  -16.4070    1.0000 </r>
       <r>  -16.3685    1.0000 </r>
       <r>  -16.3579    1.0000 </r>
       <r>  -16.3518    1.0000 </r>
       <r>  -16.3430    1.0000 </r>
       <r>  -16.3057    1.0000 </r>
       <r>  -16.3041    1.0000 </r>
       <r>  -16.3014    1.0000 </r>
       <r>  -16.2974    1.0000 </r>
       <r>  -16.2955    1.0000 </r>
       <r>  -16.2923    1.0000 </r>
       <r>  -16.2892    1.0000 </r>
       <r>  -16.2838    1.0000 </r>
       <r>  -16.2751    1.0000 </r>
       <r>  -16.2685    1.0000 </r>
       <r>  -16.2662    1.0000 </r>
       <r>  -16.2636    1.0000 </r>
       <r>  -16.2568    1.0000 </r>
       <r>  -16.2566    1.0000 </r>
       <r>  -16.2515    1.0000 </r>
       <r>  -14.5145    1.0000 </r>
       <r>  -14.4150    1.0000 </r>
       <r>  -14.3070    1.0000 </r>
       <r>  -14.1849    1.0000 </r>
       <r>  -14.1293    1.0000 </r>
       <r>  -14.1157    1.0000 </r>
       <r>  -14.1009    1.0000 </r>
       <r>  -14.0798    1.0000 </r>
       <r>  -14.0509    1.0000 </r>
       <r>  -14.0392    1.0000 </r>
       <r>  -14.0330    1.0000 </r>
       <r>  -14.0260    1.0000 </r>
       <r>  -14.0162    1.0000 </r>
       <r>  -14.0045    1.0000 </r>
       <r>  -13.9868    1.0000 </r>
       <r>  -13.9830    1.0000 </r>
       <r>  -13.9728    1.0000 </r>
       <r>  -13.9209    1.0000 </r>
       <r>  -13.8843    1.0000 </r>
       <r>  -13.7626    1.0000 </r>
       <r>  -13.7521    1.0000 </r>
       <r>  -13.7339    1.0000 </r>
       <r>  -13.7309    1.0000 </r>
       <r>   -8.2021    1.0000 </r>
       <r>   -7.7835    1.0000 </r>
       <r>   -7.7522    1.0000 </r>
       <r>   -7.7155    1.0000 </r>
       <r>   -7.3548    1.0000 </r>
       <r>   -7.3403    1.0000 </r>
       <r>   -7.3132    1.0000 </r>
       <r>   -7.2915    1.0000 </r>
       <r>   -7.2704    1.0000 </r>
       <r>   -7.2638    1.0000 </r>
       <r>   -7.2519    1.0000 </r>
       <r>   -7.2394    1.0000 </r>
       <r>   -7.2289    1.0000 </r>
       <r>   -7.2246    1.0000 </r>
       <r>   -7.2076    1.0000 </r>
       <r>   -7.1733    1.0000 </r>
       <r>   -7.1603    1.0000 </r>
       <r>   -7.1509    1.0000 </r>
       <r>   -7.1474    1.0000 </r>
       <r>   -7.1451    1.0000 </r>
       <r>   -7.1399    1.0000 </r>
       <r>   -7.1252    1.0000 </r>
       <r>   -7.1224    1.0000 </r>
       <r>   -7.1151    1.0000 </r>
       <r>   -7.1109    1.0000 </r>
       <r>   -7.1056    1.0000 </r>
       <r>   -7.0981    1.0000 </r>
       <r>   -7.0832    1.0000 </r>
       <r>   -7.0657    1.0000 </r>
       <r>   -7.0536    1.0000 </r>
       <r>   -7.0115    1.0000 </r>
       <r>   -6.5829    1.0000 </r>
       <r>   -3.3941    1.0000 </r>
       <r>   -3.3052    1.0000 </r>
       <r>   -3.2787    1.0000 </r>
       <r>   -3.2598    1.0000 </r>
       <r>   -3.2213    1.0000 </r>
       <r>   -3.2005    1.0000 </r>
       <r>   -3.1705    1.0000 </r>
       <r>   -3.1577    1.0000 </r>
       <r>   -3.1151    1.0000 </r>
       <r>   -3.0420    1.0000 </r>
       <r>   -2.9957    1.0000 </r>
       <r>   -2.9074    1.0000 </r>
       <r>   -2.2330    1.0000 </r>
       <r>   -2.1863    1.0000 </r>
       <r>   -2.1542    1.0000 </r>
       <r>   -2.0638    1.0000 </r>
       <r>   -2.0396    1.0000 </r>
       <r>   -1.9934    1.0000 </r>
       <r>   -1.9160    1.0000 </r>
       <r>   -1.8877    1.0000 </r>
       <r>   -1.8812    1.0000 </r>
       <r>   -1.8206    1.0000 </r>
       <r>   -1.7577    1.0000 </r>
       <r>   -1.7466    1.0000 </r>
       <r>   -1.6857    1.0000 </r>
       <r>   -1.6643    1.0000 </r>
       <r>   -1.6344    1.0000 </r>
       <r>   -1.5912    1.0000 </r>
       <r>   -1.5857    1.0000 </r>
       <r>   -1.5620    1.0000 </r>
       <r>   -1.5431    1.0000 </r>
       <r>   -1.5320    1.0000 </r>
       <r>   -1.5116    1.0000 </r>
       <r>   -1.4804    1.0000 </r>
       <r>   -1.4770    1.0000 </r>
       <r>   -1.4638    1.0000 </r>
       <r>   -1.4549    1.0000 </r>
       <r>   -1.4239    1.0000 </r>
       <r>   -1.4180    1.0000 </r>
       <r>   -1.4005    1.0000 </r>
       <r>   -1.3941    1.0000 </r>
       <r>   -1.3791    1.0000 </r>
       <r>   -1.3700    1.0000 </r>
       <r>   -1.3474    1.0000 </r>
       <r>   -1.3406    1.0000 </r>
       <r>   -1.3257    1.0000 </r>
       <r>   -1.3194    1.0000 </r>
       <r>   -1.3177    1.0000 </r>
       <r>   -1.3026    1.0000 </r>
       <r>   -1.2833    1.0000 </r>
       <r>   -1.2704    1.0000 </r>
       <r>   -1.2490    1.0000 </r>
       <r>   -1.1864    1.0000 </r>
       <r>   -1.1799    1.0000 </r>
       <r>   -1.1520    1.0000 </r>
       <r>   -1.1174    1.0000 </r>
       <r>   -1.1061    1.0000 </r>
       <r>   -1.0922    1.0000 </r>
       <r>   -1.0195    1.0000 </r>
       <r>   -0.9947    1.0000 </r>
       <r>   -0.9597    1.0000 </r>
       <r>   -0.8547    1.0000 </r>
       <r>   -0.7813    1.0000 </r>
       <r>   -0.7623    1.0000 </r>
       <r>   -0.6796    1.0000 </r>
       <r>   -0.3487    1.0000 </r>
       <r>   -0.2309    1.0000 </r>
       <r>   -0.1155    1.0000 </r>
       <r>    0.3821    1.0000 </r>
       <r>    2.5947    0.0000 </r>
       <r>    2.7729    0.0000 </r>
       <r>    2.8095    0.0000 </r>
       <r>    2.9261    0.0000 </r>
       <r>    3.0709    0.0000 </r>
       <r>    3.1181    0.0000 </r>
       <r>    3.1402    0.0000 </r>
       <r>    3.2205    0.0000 </r>
       <r>    3.2627    0.0000 </r>
       <r>    3.4674    0.0000 </r>
       <r>    3.4978    0.0000 </r>
       <r>    3.5517    0.0000 </r>
       <r>    4.1750    0.0000 </r>
       <r>    4.8163    0.0000 </r>
       <r>    4.9513    0.0000 </r>
       <r>    5.4761    0.0000 </r>
       <r>    5.6569    0.0000 </r>
       <r>    5.7286    0.0000 </r>
       <r>    5.8240    0.0000 </r>
       <r>    5.8615    0.0000 </r>
       <r>    5.9004    0.0000 </r>
       <r>    5.9184    0.0000 </r>
       <r>    6.0164    0.0000 </r>
       <r>    6.0541    0.0000 </r>
       <r>    6.1264    0.0000 </r>
       <r>    6.1824    0.0000 </r>
       <r>    6.1957    0.0000 </r>
       <r>    6.2296    0.0000 </r>
       <r>    6.3161    0.0000 </r>
       <r>    6.3809    0.0000 </r>
       <r>    6.3994    0.0000 </r>
       <r>    6.4430    0.0000 </r>
       <r>    6.5061    0.0000 </r>
       <r>    6.5446    0.0000 </r>
       <r>    6.5892    0.0000 </r>
       <r>    6.6804    0.0000 </r>
      </set>
      <set comment="kpoint 2">
       <r>  -20.9144    1.0000 </r>
       <r>  -20.8757    1.0000 </r>
       <r>  -20.8244    1.0000 </r>
       <r>  -20.7560    1.0000 </r>
       <r>  -20.7251    1.0000 </r>
       <r>  -20.7224    1.0000 </r>
       <r>  -20.7090    1.0000 </r>
       <r>  -20.6529    1.0000 </r>
       <r>  -16.7143    1.0000 </r>
       <r>  -16.6849    1.0000 </r>
       <r>  -16.6633    1.0000 </r>
       <r>  -16.6483    1.0000 </r>
       <r>  -16.6185    1.0000 </r>
       <r>  -16.6003    1.0000 </r>
       <r>  -16.5969    1.0000 </r>
       <r>  -16.5907    1.0000 </r>
       <r>  -16.5631    1.0000 </r>
       <r>  -16.5599    1.0000 </r>
       <r>  -16.5592    1.0000 </r>
       <r>  -16.5470    1.0000 </r>
       <r>  -16.5324    1.0000 </r>
       <r>  -16.5254    1.0000 </r>
       <r>  -16.4522    1.0000 </r>
       <r>  -16.4245    1.0000 </r>
       <r>  -16.4231    1.0000 </r>
       <r>  -16.4194    1.0000 </r>
       <r>  -16.4106    1.0000 </r>
       <r>  -16.4048    1.0000 </r>
       <r>  -16.4026    1.0000 </r>
       <r>  -16.3781    1.0000 </r>
       <r>  -16.3676    1.0000 </r>
       <r>  -16.3583    1.0000 </r>
       <r>  -16.3507    1.0000 </r>
       <r>  -16.3058    1.0000 </r>
       <r>  -16.3041    1.0000 </r>
       <r>  -16.3014    1.0000 </r>
       <r>  -16.2975    1.0000 </r>
       <r>  -16.2955    1.0000 </r>
       <r>  -16.2924    1.0000 </r>
       <r>  -16.2892    1.0000 </r>
       <r>  -16.2838    1.0000 </r>
       <r>  -16.2751    1.0000 </r>
       <r>  -16.2685    1.0000 </r>
       <r>  -16.2663    1.0000 </r>
       <r>  -16.2636    1.0000 </r>
       <r>  -16.2568    1.0000 </r>
       <r>  -16.2566    1.0000 </r>
       <r>  -16.2515    1.0000 </r>
       <r>  -14.5054    1.0000 </r>
       <r>  -14.4277    1.0000 </r>
       <r>  -14.2815    1.0000 </r>
       <r>  -14.2353    1.0000 </r>
       <r>  -14.1614    1.0000 </r>
       <r>  -14.1185    1.0000 </r>
       <r>  -14.1092    1.0000 </r>
       <r>  -14.0737    1.0000 </r>
       <r>  -14.0489    1.0000 </r>
       <r>  -14.0396    1.0000 </r>
       <r>  -14.0387    1.0000 </r>
       <r>  -14.0288    1.0000 </r>
       <r>  -14.0179    1.0000 </r>
       <r>  -13.9897    1.0000 </r>
       <r>  -13.9832    1.0000 </r>
       <r>  -13.9687    1.0000 </r>
       <r>  -13.9029    1.0000 </r>
       <r>  -13.8604    1.0000 </r>
       <r>  -13.8481    1.0000 </r>
       <r>  -13.8124    1.0000 </r>
       <r>  -13.7968    1.0000 </r>
       <r>  -13.7481    1.0000 </r>
       <r>  -13.7436    1.0000 </r>
       <r>   -8.0478    1.0000 </r>
       <r>   -7.9668    1.0000 </r>
       <r>   -7.6455    1.0000 </r>
       <r>   -7.5194    1.0000 </r>
       <r>   -7.4836    1.0000 </r>
       <r>   -7.4345    1.0000 </r>
       <r>   -7.3509    1.0000 </r>
       <r>   -7.3135    1.0000 </r>
       <r>   -7.2846    1.0000 </r>
       <r>   -7.2796    1.0000 </r>
       <r>   -7.2601    1.0000 </r>
       <r>   -7.2486    1.0000 </r>
       <r>   -7.2379    1.0000 </r>
       <r>   -7.2254    1.0000 </r>
       <r>   -7.2039    1.0000 </r>
       <r>   -7.1792    1.0000 </r>
       <r>   -7.1630    1.0000 </r>
       <r>   -7.1526    1.0000 </r>
       <r>   -7.1475    1.0000 </r>
       <r>   -7.1405    1.0000 </r>
       <r>   -7.1270    1.0000 </r>
       <r>   -7.1222    1.0000 </r>
       <r>   -7.1153    1.0000 </r>
       <r>   -7.1114    1.0000 </r>
       <r>   -7.1087    1.0000 </r>
       <r>   -7.1038    1.0000 </r>
       <r>   -7.0883    1.0000 </r>
       <r>   -7.0702    1.0000 </r>
       <r>   -7.0578    1.0000 </r>
       <r>   -7.0447    1.0000 </r>
       <r>   -6.9313    1.0000 </r>
       <r>   -6.8470    1.0000 </r>
       <r>   -3.3600    1.0000 </r>
       <r>   -3.2638    1.0000 </r>
       <r>   -3.2501    1.0000 </r>
       <r>   -3.2294    1.0000 </r>
       <r>   -3.2210    1.0000 </r>
       <r>   -3.1413    1.0000 </r>
       <r>   -3.0915    1.0000 </r>
       <r>   -3.0355    1.0000 </r>
       <r>   -2.9562    1.0000 </r>
       <r>   -2.5267    1.0000 </r>
       <r>   -2.5230    1.0000 </r>
       <r>   -2.4849    1.0000 </r>
       <r>   -2.4044    1.0000 </r>
       <r>   -2.3897    1.0000 </r>
       <r>   -2.3320    1.0000 </r>
       <r>   -2.1871    1.0000 </r>
       <r>   -2.1321    1.0000 </r>
       <r>   -2.0753    1.0000 </r>
       <r>   -2.0178    1.0000 </r>
       <r>   -2.0138    1.0000 </r>
       <r>   -1.9725    1.0000 </r>
       <r>   -1.9322    1.0000 </r>
       <r>   -1.8787    1.0000 </r>
       <r>   -1.8299    1.0000 </r>
       <r>   -1.7662    1.0000 </r>
       <r>   -1.7262    1.0000 </r>
       <r>   -1.7075    1.0000 </r>
       <r>   -1.6423    1.0000 </r>
       <r>   -1.6130    1.0000 </r>
       <r>   -1.6051    1.0000 </r>
       <r>   -1.5661    1.0000 </r>
       <r>   -1.5271    1.0000 </r>
       <r>   -1.5084    1.0000 </r>
       <r>   -1.4760    1.0000 </r>
       <r>   -1.4641    1.0000 </r>
       <r>   -1.4614    1.0000 </r>
       <r>   -1.4410    1.0000 </r>
       <r>   -1.4337    1.0000 </r>
       <r>   -1.4156    1.0000 </r>
       <r>   -1.4065    1.0000 </r>
       <r>   -1.3919    1.0000 </r>
       <r>   -1.3852    1.0000 </r>
       <r>   -1.3748    1.0000 </r>
       <r>   -1.3562    1.0000 </r>
       <r>   -1.3427    1.0000 </r>
       <r>   -1.3333    1.0000 </r>
       <r>   -1.2980    1.0000 </r>
       <r>   -1.2857    1.0000 </r>
       <r>   -1.2686    1.0000 </r>
       <r>   -1.2465    1.0000 </r>
       <r>   -1.2364    1.0000 </r>
       <r>   -1.2288    1.0000 </r>
       <r>   -1.2170    1.0000 </r>
       <r>   -1.1887    1.0000 </r>
       <r>   -1.1615    1.0000 </r>
       <r>   -1.1234    1.0000 </r>
       <r>   -1.1157    1.0000 </r>
       <r>   -1.0969    1.0000 </r>
       <r>   -1.0823    1.0000 </r>
       <r>   -1.0327    1.0000 </r>
       <r>   -1.0179    1.0000 </r>
       <r>   -0.8644    1.0000 </r>
       <r>   -0.8558    1.0000 </r>
       <r>   -0.7277    1.0000 </r>
       <r>   -0.6269    1.0000 </r>
       <r>   -0.5416    1.0000 </r>
       <r>   -0.4794    1.0000 </r>
       <r>   -0.0577    1.0000 </r>
       <r>    0.0392    1.0000 </r>
       <r>    2.5889    0.0000 </r>
       <r>    2.9067    0.0000 </r>
       <r>    2.9316    0.0000 </r>
       <r>    2.9774    0.0000 </r>
       <r>    3.1575    0.0000 </r>
       <r>    3.2557    0.0000 </r>
       <r>    3.2915    0.0000 </r>
       <r>    3.3656    0.0000 </r>
       <r>    3.4539    0.0000 </r>
       <r>    4.0358    0.0000 </r>
       <r>    4.3512    0.0000 </r>
       <r>    4.3826    0.0000 </r>
       <r>    4.5637    0.0000 </r>
       <r>    4.5786    0.0000 </r>
       <r>    4.7225    0.0000 </r>
       <r>    4.8077    0.0000 </r>
       <r>    4.8655    0.0000 </r>
       <r>    5.3163    0.0000 </r>
       <r>    5.5984    0.0000 </r>
       <r>    5.6347    0.0000 </r>
       <r>    5.6721    0.0000 </r>
       <r>    5.8996    0.0000 </r>
       <r>    5.9307    0.0000 </r>
       <r>    6.0053    0.0000 </r>
       <r>    6.1050    0.0000 </r>
       <r>    6.1364    0.0000 </r>
       <r>    6.1753    0.0000 </r>
       <r>    6.2431    0.0000 </r>
       <r>    6.2794    0.0000 </r>
       <r>    6.3021    0.0000 </r>
       <r>    6.3496    0.0000 </r>
       <r>    6.4169    0.0000 </r>
       <r>    6.4578    0.0000 </r>
       <r>    6.5295    0.0000 </r>
       <r>    6.5845    0.0000 </r>
       <r>    6.6377    0.0000 </r>
      </set>
      <set comment="kpoint 3">
       <r>  -20.9143    1.0000 </r>
       <r>  -20.8757    1.0000 </r>
       <r>  -20.8244    1.0000 </r>
       <r>  -20.7560    1.0000 </r>
       <r>  -20.7251    1.0000 </r>
       <r>  -20.7224    1.0000 </r>
       <r>  -20.7090    1.0000 </r>
       <r>  -20.6529    1.0000 </r>
       <r>  -16.7145    1.0000 </r>
       <r>  -16.6844    1.0000 </r>
       <r>  -16.6653    1.0000 </r>
       <r>  -16.6459    1.0000 </r>
       <r>  -16.6184    1.0000 </r>
       <r>  -16.6002    1.0000 </r>
       <r>  -16.5968    1.0000 </r>
       <r>  -16.5907    1.0000 </r>
       <r>  -16.5632    1.0000 </r>
       <r>  -16.5599    1.0000 </r>
       <r>  -16.5590    1.0000 </r>
       <r>  -16.5470    1.0000 </r>
       <r>  -16.5324    1.0000 </r>
       <r>  -16.5254    1.0000 </r>
       <r>  -16.4347    1.0000 </r>
       <r>  -16.4322    1.0000 </r>
       <r>  -16.4257    1.0000 </r>
       <r>  -16.4194    1.0000 </r>
       <r>  -16.4151    1.0000 </r>
       <r>  -16.4104    1.0000 </r>
       <r>  -16.3969    1.0000 </r>
       <r>  -16.3813    1.0000 </r>
       <r>  -16.3710    1.0000 </r>
       <r>  -16.3540    1.0000 </r>
       <r>  -16.3528    1.0000 </r>
       <r>  -16.3057    1.0000 </r>
       <r>  -16.3041    1.0000 </r>
       <r>  -16.3013    1.0000 </r>
       <r>  -16.2974    1.0000 </r>
       <r>  -16.2955    1.0000 </r>
       <r>  -16.2924    1.0000 </r>
       <r>  -16.2892    1.0000 </r>
       <r>  -16.2837    1.0000 </r>
       <r>  -16.2751    1.0000 </r>
       <r>  -16.2685    1.0000 </r>
       <r>  -16.2663    1.0000 </r>
       <r>  -16.2636    1.0000 </r>
       <r>  -16.2568    1.0000 </r>
       <r>  -16.2566    1.0000 </r>
       <r>  -16.2515    1.0000 </r>
       <r>  -14.5047    1.0000 </r>
       <r>  -14.4255    1.0000 </r>
       <r>  -14.2890    1.0000 </r>
       <r>  -14.2324    1.0000 </r>
       <r>  -14.1740    1.0000 </r>
       <r>  -14.1334    1.0000 </r>
       <r>  -14.0895    1.0000 </r>
       <r>  -14.0812    1.0000 </r>
       <r>  -14.0506    1.0000 </r>
       <r>  -14.0385    1.0000 </r>
       <r>  -14.0325    1.0000 </r>
       <r>  -14.0113    1.0000 </r>
       <r>  -13.9988    1.0000 </r>
       <r>  -13.9874    1.0000 </r>
       <r>  -13.9840    1.0000 </r>
       <r>  -13.9730    1.0000 </r>
       <r>  -13.9125    1.0000 </r>
       <r>  -13.8590    1.0000 </r>
       <r>  -13.8577    1.0000 </r>
       <r>  -13.8148    1.0000 </r>
       <r>  -13.7993    1.0000 </r>
       <r>  -13.7501    1.0000 </r>
       <r>  -13.7405    1.0000 </r>
       <r>   -8.0385    1.0000 </r>
       <r>   -7.9472    1.0000 </r>
       <r>   -7.6479    1.0000 </r>
       <r>   -7.5167    1.0000 </r>
       <r>   -7.4620    1.0000 </r>
       <r>   -7.4443    1.0000 </r>
       <r>   -7.3531    1.0000 </r>
       <r>   -7.3152    1.0000 </r>
       <r>   -7.2888    1.0000 </r>
       <r>   -7.2784    1.0000 </r>
       <r>   -7.2576    1.0000 </r>
       <r>   -7.2464    1.0000 </r>
       <r>   -7.2454    1.0000 </r>
       <r>   -7.2218    1.0000 </r>
       <r>   -7.2079    1.0000 </r>
       <r>   -7.1763    1.0000 </r>
       <r>   -7.1631    1.0000 </r>
       <r>   -7.1468    1.0000 </r>
       <r>   -7.1452    1.0000 </r>
       <r>   -7.1415    1.0000 </r>
       <r>   -7.1314    1.0000 </r>
       <r>   -7.1257    1.0000 </r>
       <r>   -7.1171    1.0000 </r>
       <r>   -7.1114    1.0000 </r>
       <r>   -7.1104    1.0000 </r>
       <r>   -7.1018    1.0000 </r>
       <r>   -7.0945    1.0000 </r>
       <r>   -7.0702    1.0000 </r>
       <r>   -7.0555    1.0000 </r>
       <r>   -7.0375    1.0000 </r>
       <r>   -6.9720    1.0000 </r>
       <r>   -6.8859    1.0000 </r>
       <r>   -3.2940    1.0000 </r>
       <r>   -3.2475    1.0000 </r>
       <r>   -3.2287    1.0000 </r>
       <r>   -3.1902    1.0000 </r>
       <r>   -3.1555    1.0000 </r>
       <r>   -3.1400    1.0000 </r>
       <r>   -3.1050    1.0000 </r>
       <r>   -2.9761    1.0000 </r>
       <r>   -2.9433    1.0000 </r>
       <r>   -2.5528    1.0000 </r>
       <r>   -2.4833    1.0000 </r>
       <r>   -2.4650    1.0000 </r>
       <r>   -2.4414    1.0000 </r>
       <r>   -2.3900    1.0000 </r>
       <r>   -2.3649    1.0000 </r>
       <r>   -2.1507    1.0000 </r>
       <r>   -2.1008    1.0000 </r>
       <r>   -2.0998    1.0000 </r>
       <r>   -2.0196    1.0000 </r>
       <r>   -1.9990    1.0000 </r>
       <r>   -1.9906    1.0000 </r>
       <r>   -1.9089    1.0000 </r>
       <r>   -1.8957    1.0000 </r>
       <r>   -1.8419    1.0000 </r>
       <r>   -1.7981    1.0000 </r>
       <r>   -1.7584    1.0000 </r>
       <r>   -1.7327    1.0000 </r>
       <r>   -1.6811    1.0000 </r>
       <r>   -1.6623    1.0000 </r>
       <r>   -1.6457    1.0000 </r>
       <r>   -1.5625    1.0000 </r>
       <r>   -1.5336    1.0000 </r>
       <r>   -1.5151    1.0000 </r>
       <r>   -1.4905    1.0000 </r>
       <r>   -1.4891    1.0000 </r>
       <r>   -1.4573    1.0000 </r>
       <r>   -1.4320    1.0000 </r>
       <r>   -1.4224    1.0000 </r>
       <r>   -1.4044    1.0000 </r>
       <r>   -1.3956    1.0000 </r>
       <r>   -1.3842    1.0000 </r>
       <r>   -1.3650    1.0000 </r>
       <r>   -1.3618    1.0000 </r>
       <r>   -1.3512    1.0000 </r>
       <r>   -1.3406    1.0000 </r>
       <r>   -1.3290    1.0000 </r>
       <r>   -1.3072    1.0000 </r>
       <r>   -1.2986    1.0000 </r>
       <r>   -1.2950    1.0000 </r>
       <r>   -1.2580    1.0000 </r>
       <r>   -1.2309    1.0000 </r>
       <r>   -1.2175    1.0000 </r>
       <r>   -1.1794    1.0000 </r>
       <r>   -1.1562    1.0000 </r>
       <r>   -1.1423    1.0000 </r>
       <r>   -1.1281    1.0000 </r>
       <r>   -1.1198    1.0000 </r>
       <r>   -1.0994    1.0000 </r>
       <r>   -1.0947    1.0000 </r>
       <r>   -1.0653    1.0000 </r>
       <r>   -0.9954    1.0000 </r>
       <r>   -0.9025    1.0000 </r>
       <r>   -0.8492    1.0000 </r>
       <r>   -0.7415    1.0000 </r>
       <r>   -0.6371    1.0000 </r>
       <r>   -0.6034    1.0000 </r>
       <r>   -0.5002    1.0000 </r>
       <r>   -0.1233    1.0000 </r>
       <r>    0.0191    1.0000 </r>
       <r>    2.5070    0.0000 </r>
       <r>    2.8885    0.0000 </r>
       <r>    2.9840    0.0000 </r>
       <r>    3.0734    0.0000 </r>
       <r>    3.1938    0.0000 </r>
       <r>    3.2688    0.0000 </r>
       <r>    3.3298    0.0000 </r>
       <r>    3.3548    0.0000 </r>
       <r>    3.4279    0.0000 </r>
       <r>    3.8942    0.0000 </r>
       <r>    4.4232    0.0000 </r>
       <r>    4.4687    0.0000 </r>
       <r>    4.6483    0.0000 </r>
       <r>    4.6568    0.0000 </r>
       <r>    4.8536    0.0000 </r>
       <r>    4.8979    0.0000 </r>
       <r>    4.9287    0.0000 </r>
       <r>    5.4646    0.0000 </r>
       <r>    5.6359    0.0000 </r>
       <r>    5.6489    0.0000 </r>
       <r>    5.6929    0.0000 </r>
       <r>    5.7525    0.0000 </r>
       <r>    5.8934    0.0000 </r>
       <r>    5.9678    0.0000 </r>
       <r>    6.0269    0.0000 </r>
       <r>    6.0963    0.0000 </r>
       <r>    6.1506    0.0000 </r>
       <r>    6.2396    0.0000 </r>
       <r>    6.2631    0.0000 </r>
       <r>    6.3641    0.0000 </r>
       <r>    6.3838    0.0000 </r>
       <r>    6.4132    0.0000 </r>
       <r>    6.5164    0.0000 </r>
       <r>    6.5694    0.0000 </r>
       <r>    6.5988    0.0000 </r>
       <r>    6.6402    0.0000 </r>
      </set>
      <set comment="kpoint 4">
       <r>  -20.9143    1.0000 </r>
       <r>  -20.8757    1.0000 </r>
       <r>  -20.8244    1.0000 </r>
       <r>  -20.7560    1.0000 </r>
       <r>  -20.7251    1.0000 </r>
       <r>  -20.7224    1.0000 </r>
       <r>  -20.7090    1.0000 </r>
       <r>  -20.6529    1.0000 </r>
       <r>  -16.7142    1.0000 </r>
       <r>  -16.6842    1.0000 </r>
       <r>  -16.6634    1.0000 </r>
       <r>  -16.6459    1.0000 </r>
       <r>  -16.6184    1.0000 </r>
       <r>  -16.6003    1.0000 </r>
       <r>  -16.5970    1.0000 </r>
       <r>  -16.5907    1.0000 </r>
       <r>  -16.5631    1.0000 </r>
       <r>  -16.5600    1.0000 </r>
       <r>  -16.5592    1.0000 </r>
       <r>  -16.5470    1.0000 </r>
       <r>  -16.5324    1.0000 </r>
       <r>  -16.5254    1.0000 </r>
       <r>  -16.4284    1.0000 </r>
       <r>  -16.4256    1.0000 </r>
       <r>  -16.4194    1.0000 </r>
       <r>  -16.4126    1.0000 </r>
       <r>  -16.4063    1.0000 </r>
       <r>  -16.4055    1.0000 </r>
       <r>  -16.3984    1.0000 </r>
       <r>  -16.3971    1.0000 </r>
       <r>  -16.3762    1.0000 </r>
       <r>  -16.3657    1.0000 </r>
       <r>  -16.3630    1.0000 </r>
       <r>  -16.3057    1.0000 </r>
       <r>  -16.3041    1.0000 </r>
       <r>  -16.3014    1.0000 </r>
       <r>  -16.2975    1.0000 </r>
       <r>  -16.2955    1.0000 </r>
       <r>  -16.2924    1.0000 </r>
       <r>  -16.2892    1.0000 </r>
       <r>  -16.2837    1.0000 </r>
       <r>  -16.2751    1.0000 </r>
       <r>  -16.2685    1.0000 </r>
       <r>  -16.2663    1.0000 </r>
       <r>  -16.2636    1.0000 </r>
       <r>  -16.2568    1.0000 </r>
       <r>  -16.2566    1.0000 </r>
       <r>  -16.2515    1.0000 </r>
       <r>  -14.5024    1.0000 </r>
       <r>  -14.4235    1.0000 </r>
       <r>  -14.2686    1.0000 </r>
       <r>  -14.2342    1.0000 </r>
       <r>  -14.2148    1.0000 </r>
       <r>  -14.1924    1.0000 </r>
       <r>  -14.1231    1.0000 </r>
       <r>  -14.0742    1.0000 </r>
       <r>  -14.0502    1.0000 </r>
       <r>  -14.0303    1.0000 </r>
       <r>  -14.0078    1.0000 </r>
       <r>  -13.9870    1.0000 </r>
       <r>  -13.9867    1.0000 </r>
       <r>  -13.9711    1.0000 </r>
       <r>  -13.9378    1.0000 </r>
       <r>  -13.9034    1.0000 </r>
       <r>  -13.8941    1.0000 </r>
       <r>  -13.8775    1.0000 </r>
       <r>  -13.8658    1.0000 </r>
       <r>  -13.8247    1.0000 </r>
       <r>  -13.8200    1.0000 </r>
       <r>  -13.7838    1.0000 </r>
       <r>  -13.7626    1.0000 </r>
       <r>   -7.9520    1.0000 </r>
       <r>   -7.7990    1.0000 </r>
       <r>   -7.7145    1.0000 </r>
       <r>   -7.6833    1.0000 </r>
       <r>   -7.3625    1.0000 </r>
       <r>   -7.3378    1.0000 </r>
       <r>   -7.3196    1.0000 </r>
       <r>   -7.2992    1.0000 </r>
       <r>   -7.2891    1.0000 </r>
       <r>   -7.2775    1.0000 </r>
       <r>   -7.2620    1.0000 </r>
       <r>   -7.2591    1.0000 </r>
       <r>   -7.2431    1.0000 </r>
       <r>   -7.2208    1.0000 </r>
       <r>   -7.2119    1.0000 </r>
       <r>   -7.2055    1.0000 </r>
       <r>   -7.1877    1.0000 </r>
       <r>   -7.1715    1.0000 </r>
       <r>   -7.1624    1.0000 </r>
       <r>   -7.1507    1.0000 </r>
       <r>   -7.1401    1.0000 </r>
       <r>   -7.1326    1.0000 </r>
       <r>   -7.1304    1.0000 </r>
       <r>   -7.1225    1.0000 </r>
       <r>   -7.1084    1.0000 </r>
       <r>   -7.1031    1.0000 </r>
       <r>   -7.0982    1.0000 </r>
       <r>   -7.0964    1.0000 </r>
       <r>   -7.0776    1.0000 </r>
       <r>   -7.0621    1.0000 </r>
       <r>   -7.0463    1.0000 </r>
       <r>   -7.0023    1.0000 </r>
       <r>   -3.2274    1.0000 </r>
       <r>   -3.2077    1.0000 </r>
       <r>   -3.1692    1.0000 </r>
       <r>   -3.1407    1.0000 </r>
       <r>   -3.0377    1.0000 </r>
       <r>   -2.9758    1.0000 </r>
       <r>   -2.6857    1.0000 </r>
       <r>   -2.6116    1.0000 </r>
       <r>   -2.5884    1.0000 </r>
       <r>   -2.5766    1.0000 </r>
       <r>   -2.5440    1.0000 </r>
       <r>   -2.4577    1.0000 </r>
       <r>   -2.3481    1.0000 </r>
       <r>   -2.3366    1.0000 </r>
       <r>   -2.3329    1.0000 </r>
       <r>   -2.3125    1.0000 </r>
       <r>   -2.3045    1.0000 </r>
       <r>   -2.2867    1.0000 </r>
       <r>   -2.1537    1.0000 </r>
       <r>   -2.0843    1.0000 </r>
       <r>   -2.0507    1.0000 </r>
       <r>   -2.0035    1.0000 </r>
       <r>   -1.9426    1.0000 </r>
       <r>   -1.8995    1.0000 </r>
       <r>   -1.8014    1.0000 </r>
       <r>   -1.7904    1.0000 </r>
       <r>   -1.7529    1.0000 </r>
       <r>   -1.7285    1.0000 </r>
       <r>   -1.6708    1.0000 </r>
       <r>   -1.6565    1.0000 </r>
       <r>   -1.6120    1.0000 </r>
       <r>   -1.5999    1.0000 </r>
       <r>   -1.5812    1.0000 </r>
       <r>   -1.5664    1.0000 </r>
       <r>   -1.5489    1.0000 </r>
       <r>   -1.5245    1.0000 </r>
       <r>   -1.4860    1.0000 </r>
       <r>   -1.4591    1.0000 </r>
       <r>   -1.4368    1.0000 </r>
       <r>   -1.4033    1.0000 </r>
       <r>   -1.3781    1.0000 </r>
       <r>   -1.3747    1.0000 </r>
       <r>   -1.3620    1.0000 </r>
       <r>   -1.3397    1.0000 </r>
       <r>   -1.3312    1.0000 </r>
       <r>   -1.3039    1.0000 </r>
       <r>   -1.2859    1.0000 </r>
       <r>   -1.2465    1.0000 </r>
       <r>   -1.2437    1.0000 </r>
       <r>   -1.2326    1.0000 </r>
       <r>   -1.2041    1.0000 </r>
       <r>   -1.2002    1.0000 </r>
       <r>   -1.1751    1.0000 </r>
       <r>   -1.1499    1.0000 </r>
       <r>   -1.1457    1.0000 </r>
       <r>   -1.1375    1.0000 </r>
       <r>   -1.1265    1.0000 </r>
       <r>   -1.1110    1.0000 </r>
       <r>   -1.1024    1.0000 </r>
       <r>   -1.0717    1.0000 </r>
       <r>   -1.0104    1.0000 </r>
       <r>   -0.9256    1.0000 </r>
       <r>   -0.8898    1.0000 </r>
       <r>   -0.8536    1.0000 </r>
       <r>   -0.7776    1.0000 </r>
       <r>   -0.5392    1.0000 </r>
       <r>   -0.5152    1.0000 </r>
       <r>   -0.4464    1.0000 </r>
       <r>   -0.2864    1.0000 </r>
       <r>    2.6129    0.0000 </r>
       <r>    3.0138    0.0000 </r>
       <r>    3.0783    0.0000 </r>
       <r>    3.1937    0.0000 </r>
       <r>    3.2126    0.0000 </r>
       <r>    3.3599    0.0000 </r>
       <r>    3.9901    0.0000 </r>
       <r>    4.2809    0.0000 </r>
       <r>    4.3471    0.0000 </r>
       <r>    4.3960    0.0000 </r>
       <r>    4.4927    0.0000 </r>
       <r>    4.5356    0.0000 </r>
       <r>    4.5889    0.0000 </r>
       <r>    4.6062    0.0000 </r>
       <r>    4.6560    0.0000 </r>
       <r>    4.7184    0.0000 </r>
       <r>    4.7819    0.0000 </r>
       <r>    4.8496    0.0000 </r>
       <r>    4.9063    0.0000 </r>
       <r>    4.9468    0.0000 </r>
       <r>    5.6804    0.0000 </r>
       <r>    5.7445    0.0000 </r>
       <r>    5.7951    0.0000 </r>
       <r>    5.8780    0.0000 </r>
       <r>    5.9076    0.0000 </r>
       <r>    5.9431    0.0000 </r>
       <r>    6.0548    0.0000 </r>
       <r>    6.1214    0.0000 </r>
       <r>    6.1970    0.0000 </r>
       <r>    6.2759    0.0000 </r>
       <r>    6.3098    0.0000 </r>
       <r>    6.3295    0.0000 </r>
       <r>    6.3975    0.0000 </r>
       <r>    6.4878    0.0000 </r>
       <r>    6.5598    0.0000 </r>
       <r>    6.5777    0.0000 </r>
      </set>
      <set comment="kpoint 5">
       <r>  -20.9144    1.0000 </r>
       <r>  -20.8757    1.0000 </r>
       <r>  -20.8244    1.0000 </r>
       <r>  -20.7560    1.0000 </r>
       <r>  -20.7251    1.0000 </r>
       <r>  -20.7224    1.0000 </r>
       <r>  -20.7090    1.0000 </r>
       <r>  -20.6529    1.0000 </r>
       <r>  -16.7141    1.0000 </r>
       <r>  -16.6847    1.0000 </r>
       <r>  -16.6634    1.0000 </r>
       <r>  -16.6461    1.0000 </r>
       <r>  -16.6180    1.0000 </r>
       <r>  -16.6002    1.0000 </r>
       <r>  -16.5946    1.0000 </r>
       <r>  -16.5907    1.0000 </r>
       <r>  -16.5632    1.0000 </r>
       <r>  -16.5599    1.0000 </r>
       <r>  -16.5590    1.0000 </r>
       <r>  -16.5470    1.0000 </r>
       <r>  -16.5324    1.0000 </r>
       <r>  -16.5254    1.0000 </r>
       <r>  -16.4567    1.0000 </r>
       <r>  -16.4299    1.0000 </r>
       <r>  -16.4236    1.0000 </r>
       <r>  -16.4195    1.0000 </r>
       <r>  -16.4120    1.0000 </r>
       <r>  -16.4105    1.0000 </r>
       <r>  -16.4055    1.0000 </r>
       <r>  -16.3738    1.0000 </r>
       <r>  -16.3660    1.0000 </r>
       <r>  -16.3571    1.0000 </r>
       <r>  -16.3434    1.0000 </r>
       <r>  -16.3058    1.0000 </r>
       <r>  -16.3041    1.0000 </r>
       <r>  -16.3014    1.0000 </r>
       <r>  -16.2975    1.0000 </r>
       <r>  -16.2955    1.0000 </r>
       <r>  -16.2923    1.0000 </r>
       <r>  -16.2892    1.0000 </r>
       <r>  -16.2838    1.0000 </r>
       <r>  -16.2751    1.0000 </r>
       <r>  -16.2685    1.0000 </r>
       <r>  -16.2663    1.0000 </r>
       <r>  -16.2636    1.0000 </r>
       <r>  -16.2568    1.0000 </r>
       <r>  -16.2566    1.0000 </r>
       <r>  -16.2515    1.0000 </r>
       <r>  -14.5091    1.0000 </r>
       <r>  -14.4127    1.0000 </r>
       <r>  -14.3231    1.0000 </r>
       <r>  -14.1704    1.0000 </r>
       <r>  -14.1554    1.0000 </r>
       <r>  -14.1349    1.0000 </r>
       <r>  -14.1205    1.0000 </r>
       <r>  -14.1131    1.0000 </r>
       <r>  -14.0784    1.0000 </r>
       <r>  -14.0408    1.0000 </r>
       <r>  -14.0287    1.0000 </r>
       <r>  -14.0183    1.0000 </r>
       <r>  -14.0076    1.0000 </r>
       <r>  -13.9877    1.0000 </r>
       <r>  -13.9764    1.0000 </r>
       <r>  -13.9667    1.0000 </r>
       <r>  -13.8591    1.0000 </r>
       <r>  -13.8486    1.0000 </r>
       <r>  -13.8386    1.0000 </r>
       <r>  -13.8199    1.0000 </r>
       <r>  -13.8064    1.0000 </r>
       <r>  -13.7816    1.0000 </r>
       <r>  -13.7420    1.0000 </r>
       <r>   -7.9896    1.0000 </r>
       <r>   -7.9809    1.0000 </r>
       <r>   -7.6191    1.0000 </r>
       <r>   -7.5875    1.0000 </r>
       <r>   -7.4743    1.0000 </r>
       <r>   -7.4266    1.0000 </r>
       <r>   -7.3455    1.0000 </r>
       <r>   -7.3198    1.0000 </r>
       <r>   -7.2887    1.0000 </r>
       <r>   -7.2729    1.0000 </r>
       <r>   -7.2587    1.0000 </r>
       <r>   -7.2508    1.0000 </r>
       <r>   -7.2426    1.0000 </r>
       <r>   -7.2256    1.0000 </r>
       <r>   -7.2102    1.0000 </r>
       <r>   -7.1745    1.0000 </r>
       <r>   -7.1583    1.0000 </r>
       <r>   -7.1527    1.0000 </r>
       <r>   -7.1473    1.0000 </r>
       <r>   -7.1411    1.0000 </r>
       <r>   -7.1334    1.0000 </r>
       <r>   -7.1301    1.0000 </r>
       <r>   -7.1216    1.0000 </r>
       <r>   -7.1104    1.0000 </r>
       <r>   -7.1084    1.0000 </r>
       <r>   -7.1034    1.0000 </r>
       <r>   -7.0894    1.0000 </r>
       <r>   -7.0679    1.0000 </r>
       <r>   -7.0564    1.0000 </r>
       <r>   -7.0320    1.0000 </r>
       <r>   -7.0184    1.0000 </r>
       <r>   -6.8145    1.0000 </r>
       <r>   -3.3748    1.0000 </r>
       <r>   -3.2790    1.0000 </r>
       <r>   -3.2570    1.0000 </r>
       <r>   -3.2089    1.0000 </r>
       <r>   -3.1724    1.0000 </r>
       <r>   -3.1183    1.0000 </r>
       <r>   -3.0492    1.0000 </r>
       <r>   -2.9635    1.0000 </r>
       <r>   -2.5914    1.0000 </r>
       <r>   -2.5543    1.0000 </r>
       <r>   -2.5095    1.0000 </r>
       <r>   -2.5001    1.0000 </r>
       <r>   -2.4489    1.0000 </r>
       <r>   -2.3874    1.0000 </r>
       <r>   -2.3583    1.0000 </r>
       <r>   -2.3062    1.0000 </r>
       <r>   -2.1582    1.0000 </r>
       <r>   -2.1086    1.0000 </r>
       <r>   -2.0517    1.0000 </r>
       <r>   -2.0329    1.0000 </r>
       <r>   -2.0038    1.0000 </r>
       <r>   -1.9145    1.0000 </r>
       <r>   -1.8689    1.0000 </r>
       <r>   -1.8518    1.0000 </r>
       <r>   -1.8147    1.0000 </r>
       <r>   -1.7789    1.0000 </r>
       <r>   -1.7253    1.0000 </r>
       <r>   -1.6858    1.0000 </r>
       <r>   -1.6185    1.0000 </r>
       <r>   -1.6076    1.0000 </r>
       <r>   -1.5864    1.0000 </r>
       <r>   -1.5442    1.0000 </r>
       <r>   -1.5201    1.0000 </r>
       <r>   -1.4833    1.0000 </r>
       <r>   -1.4632    1.0000 </r>
       <r>   -1.4469    1.0000 </r>
       <r>   -1.4426    1.0000 </r>
       <r>   -1.4162    1.0000 </r>
       <r>   -1.4147    1.0000 </r>
       <r>   -1.3886    1.0000 </r>
       <r>   -1.3859    1.0000 </r>
       <r>   -1.3744    1.0000 </r>
       <r>   -1.3608    1.0000 </r>
       <r>   -1.3412    1.0000 </r>
       <r>   -1.3130    1.0000 </r>
       <r>   -1.3023    1.0000 </r>
       <r>   -1.2973    1.0000 </r>
       <r>   -1.2878    1.0000 </r>
       <r>   -1.2747    1.0000 </r>
       <r>   -1.2424    1.0000 </r>
       <r>   -1.2387    1.0000 </r>
       <r>   -1.2268    1.0000 </r>
       <r>   -1.2114    1.0000 </r>
       <r>   -1.1916    1.0000 </r>
       <r>   -1.1651    1.0000 </r>
       <r>   -1.1445    1.0000 </r>
       <r>   -1.1096    1.0000 </r>
       <r>   -1.0814    1.0000 </r>
       <r>   -1.0583    1.0000 </r>
       <r>   -1.0439    1.0000 </r>
       <r>   -1.0213    1.0000 </r>
       <r>   -0.9222    1.0000 </r>
       <r>   -0.8928    1.0000 </r>
       <r>   -0.7709    1.0000 </r>
       <r>   -0.6649    1.0000 </r>
       <r>   -0.5413    1.0000 </r>
       <r>   -0.4519    1.0000 </r>
       <r>   -0.2546    1.0000 </r>
       <r>    0.0761    1.0000 </r>
       <r>    2.6674    0.0000 </r>
       <r>    2.9614    0.0000 </r>
       <r>    2.9716    0.0000 </r>
       <r>    2.9741    0.0000 </r>
       <r>    3.0938    0.0000 </r>
       <r>    3.3084    0.0000 </r>
       <r>    3.3412    0.0000 </r>
       <r>    3.4103    0.0000 </r>
       <r>    4.1233    0.0000 </r>
       <r>    4.1714    0.0000 </r>
       <r>    4.2572    0.0000 </r>
       <r>    4.4534    0.0000 </r>
       <r>    4.5199    0.0000 </r>
       <r>    4.5774    0.0000 </r>
       <r>    4.6161    0.0000 </r>
       <r>    4.7558    0.0000 </r>
       <r>    4.8544    0.0000 </r>
       <r>    4.9595    0.0000 </r>
       <r>    5.3442    0.0000 </r>
       <r>    5.5849    0.0000 </r>
       <r>    5.6783    0.0000 </r>
       <r>    5.8214    0.0000 </r>
       <r>    5.9459    0.0000 </r>
       <r>    5.9840    0.0000 </r>
       <r>    6.0561    0.0000 </r>
       <r>    6.1028    0.0000 </r>
       <r>    6.1300    0.0000 </r>
       <r>    6.1881    0.0000 </r>
       <r>    6.2806    0.0000 </r>
       <r>    6.3254    0.0000 </r>
       <r>    6.3919    0.0000 </r>
       <r>    6.4188    0.0000 </r>
       <r>    6.4840    0.0000 </r>
       <r>    6.5149    0.0000 </r>
       <r>    6.6181    0.0000 </r>
       <r>    6.6572    0.0000 </r>
      </set>
      <set comment="kpoint 6">
       <r>  -20.9143    1.0000 </r>
       <r>  -20.8757    1.0000 </r>
       <r>  -20.8244    1.0000 </r>
       <r>  -20.7559    1.0000 </r>
       <r>  -20.7251    1.0000 </r>
       <r>  -20.7224    1.0000 </r>
       <r>  -20.7090    1.0000 </r>
       <r>  -20.6529    1.0000 </r>
       <r>  -16.7137    1.0000 </r>
       <r>  -16.6845    1.0000 </r>
       <r>  -16.6614    1.0000 </r>
       <r>  -16.6461    1.0000 </r>
       <r>  -16.6179    1.0000 </r>
       <r>  -16.6002    1.0000 </r>
       <r>  -16.5947    1.0000 </r>
       <r>  -16.5907    1.0000 </r>
       <r>  -16.5631    1.0000 </r>
       <r>  -16.5599    1.0000 </r>
       <r>  -16.5591    1.0000 </r>
       <r>  -16.5470    1.0000 </r>
       <r>  -16.5324    1.0000 </r>
       <r>  -16.5254    1.0000 </r>
       <r>  -16.4517    1.0000 </r>
       <r>  -16.4237    1.0000 </r>
       <r>  -16.4194    1.0000 </r>
       <r>  -16.4108    1.0000 </r>
       <r>  -16.4082    1.0000 </r>
       <r>  -16.4079    1.0000 </r>
       <r>  -16.4052    1.0000 </r>
       <r>  -16.3827    1.0000 </r>
       <r>  -16.3710    1.0000 </r>
       <r>  -16.3698    1.0000 </r>
       <r>  -16.3520    1.0000 </r>
       <r>  -16.3057    1.0000 </r>
       <r>  -16.3041    1.0000 </r>
       <r>  -16.3014    1.0000 </r>
       <r>  -16.2975    1.0000 </r>
       <r>  -16.2955    1.0000 </r>
       <r>  -16.2924    1.0000 </r>
       <r>  -16.2892    1.0000 </r>
       <r>  -16.2838    1.0000 </r>
       <r>  -16.2751    1.0000 </r>
       <r>  -16.2685    1.0000 </r>
       <r>  -16.2663    1.0000 </r>
       <r>  -16.2636    1.0000 </r>
       <r>  -16.2568    1.0000 </r>
       <r>  -16.2566    1.0000 </r>
       <r>  -16.2515    1.0000 </r>
       <r>  -14.5024    1.0000 </r>
       <r>  -14.4233    1.0000 </r>
       <r>  -14.2862    1.0000 </r>
       <r>  -14.2525    1.0000 </r>
       <r>  -14.1758    1.0000 </r>
       <r>  -14.1270    1.0000 </r>
       <r>  -14.1107    1.0000 </r>
       <r>  -14.1074    1.0000 </r>
       <r>  -14.0985    1.0000 </r>
       <r>  -14.0594    1.0000 </r>
       <r>  -14.0411    1.0000 </r>
       <r>  -14.0177    1.0000 </r>
       <r>  -13.9947    1.0000 </r>
       <r>  -13.9252    1.0000 </r>
       <r>  -13.8911    1.0000 </r>
       <r>  -13.8877    1.0000 </r>
       <r>  -13.8738    1.0000 </r>
       <r>  -13.8654    1.0000 </r>
       <r>  -13.8507    1.0000 </r>
       <r>  -13.8242    1.0000 </r>
       <r>  -13.8209    1.0000 </r>
       <r>  -13.8131    1.0000 </r>
       <r>  -13.7877    1.0000 </r>
       <r>   -7.8927    1.0000 </r>
       <r>   -7.7719    1.0000 </r>
       <r>   -7.7526    1.0000 </r>
       <r>   -7.7232    1.0000 </r>
       <r>   -7.4740    1.0000 </r>
       <r>   -7.3498    1.0000 </r>
       <r>   -7.3262    1.0000 </r>
       <r>   -7.3099    1.0000 </r>
       <r>   -7.2858    1.0000 </r>
       <r>   -7.2767    1.0000 </r>
       <r>   -7.2664    1.0000 </r>
       <r>   -7.2475    1.0000 </r>
       <r>   -7.2334    1.0000 </r>
       <r>   -7.2293    1.0000 </r>
       <r>   -7.2060    1.0000 </r>
       <r>   -7.1854    1.0000 </r>
       <r>   -7.1700    1.0000 </r>
       <r>   -7.1567    1.0000 </r>
       <r>   -7.1458    1.0000 </r>
       <r>   -7.1440    1.0000 </r>
[...]
        <r>  0.0000  0.0023  0.0006 </r>
        <r>  0.0002  0.0010  0.0002 </r>
        <r>  0.0022  0.0014  0.0025 </r>
        <r>  0.0001  0.0064  0.0008 </r>
        <r>  0.0002  0.0028  0.0008 </r>
        <r>  0.0002  0.0015  0.0013 </r>
        <r>  0.0007  0.0019  0.0006 </r>
        <r>  0.0001  0.0002  0.0005 </r>
        <r>  0.0007  0.0004  0.0012 </r>
       </set>
       <set comment="band 199">
        <r>  0.0000  0.0002  0.0029 </r>
        <r>  0.0000  0.0001  0.0065 </r>
        <r>  0.0096  0.0001  0.0103 </r>
        <r>  0.0005  0.0015  0.0183 </r>
        <r>  0.0001  0.0000  0.0053 </r>
        <r>  0.0009  0.0006  0.0049 </r>
        <r>  0.0009  0.0006  0.0134 </r>
        <r>  0.0054  0.0005  0.0131 </r>
        <r>  0.0000  0.0061  0.0001 </r>
        <r>  0.0000  0.0073  0.0005 </r>
        <r>  0.0000  0.0014  0.0003 </r>
        <r>  0.0000  0.0010  0.0003 </r>
        <r>  0.0000  0.0008  0.0000 </r>
        <r>  0.0000  0.0028  0.0003 </r>
        <r>  0.0000  0.0057  0.0001 </r>
        <r>  0.0001  0.0034  0.0005 </r>
        <r>  0.0003  0.0038  0.0029 </r>
        <r>  0.0016  0.0005  0.0013 </r>
        <r>  0.0002  0.0030  0.0003 </r>
        <r>  0.0005  0.0009  0.0010 </r>
        <r>  0.0015  0.0009  0.0040 </r>
        <r>  0.0000  0.0015  0.0004 </r>
        <r>  0.0000  0.0020  0.0004 </r>
        <r>  0.0001  0.0023  0.0004 </r>
        <r>  0.0001  0.0021  0.0004 </r>
        <r>  0.0001  0.0028  0.0010 </r>
        <r>  0.0006  0.0018  0.0008 </r>
        <r>  0.0004  0.0016  0.0016 </r>
        <r>  0.0006  0.0005  0.0005 </r>
        <r>  0.0008  0.0023  0.0015 </r>
        <r>  0.0005  0.0010  0.0012 </r>
        <r>  0.0008  0.0048  0.0016 </r>
        <r>  0.0004  0.0003  0.0011 </r>
        <r>  0.0002  0.0020  0.0013 </r>
        <r>  0.0001  0.0018  0.0004 </r>
        <r>  0.0009  0.0025  0.0016 </r>
        <r>  0.0005  0.0008  0.0007 </r>
        <r>  0.0000  0.0009  0.0004 </r>
        <r>  0.0012  0.0007  0.0019 </r>
       </set>
       <set comment="band 200">
        <r>  0.0013  0.0006  0.0087 </r>
        <r>  0.0004  0.0002  0.0057 </r>
        <r>  0.0072  0.0001  0.0068 </r>
        <r>  0.0013  0.0003  0.0166 </r>
        <r>  0.0010  0.0002  0.0113 </r>
        <r>  0.0006  0.0001  0.0064 </r>
        <r>  0.0004  0.0002  0.0073 </r>
        <r>  0.0067  0.0023  0.0087 </r>
        <r>  0.0000  0.0009  0.0003 </r>
        <r>  0.0000  0.0061  0.0002 </r>
        <r>  0.0000  0.0025  0.0001 </r>
        <r>  0.0000  0.0012  0.0001 </r>
        <r>  0.0001  0.0030  0.0003 </r>
        <r>  0.0000  0.0050  0.0006 </r>
        <r>  0.0000  0.0023  0.0001 </r>
        <r>  0.0002  0.0062  0.0001 </r>
        <r>  0.0031  0.0029  0.0029 </r>
        <r>  0.0001  0.0014  0.0023 </r>
        <r>  0.0004  0.0015  0.0008 </r>
        <r>  0.0001  0.0059  0.0013 </r>
        <r>  0.0000  0.0060  0.0023 </r>
        <r>  0.0003  0.0037  0.0009 </r>
        <r>  0.0001  0.0015  0.0013 </r>
        <r>  0.0025  0.0004  0.0016 </r>
        <r>  0.0000  0.0012  0.0005 </r>
        <r>  0.0014  0.0038  0.0015 </r>
        <r>  0.0000  0.0016  0.0003 </r>
        <r>  0.0005  0.0013  0.0006 </r>
        <r>  0.0005  0.0008  0.0010 </r>
        <r>  0.0001  0.0027  0.0002 </r>
        <r>  0.0000  0.0017  0.0010 </r>
        <r>  0.0002  0.0039  0.0007 </r>
        <r>  0.0004  0.0012  0.0005 </r>
        <r>  0.0022  0.0010  0.0013 </r>
        <r>  0.0004  0.0002  0.0007 </r>
        <r>  0.0006  0.0014  0.0006 </r>
        <r>  0.0001  0.0035  0.0002 </r>
        <r>  0.0002  0.0023  0.0012 </r>
        <r>  0.0002  0.0008  0.0012 </r>
       </set>
       <set comment="band 201">
        <r>  0.0094  0.0015  0.0104 </r>
        <r>  0.0000  0.0009  0.0082 </r>
        <r>  0.0040  0.0001  0.0055 </r>
        <r>  0.0001  0.0000  0.0076 </r>
        <r>  0.0041  0.0011  0.0070 </r>
        <r>  0.0041  0.0007  0.0073 </r>
        <r>  0.0002  0.0004  0.0020 </r>
        <r>  0.0004  0.0009  0.0053 </r>
        <r>  0.0000  0.0037  0.0002 </r>
        <r>  0.0001  0.0007  0.0004 </r>
        <r>  0.0000  0.0067  0.0000 </r>
        <r>  0.0000  0.0109  0.0001 </r>
        <r>  0.0000  0.0022  0.0001 </r>
        <r>  0.0001  0.0101  0.0001 </r>
        <r>  0.0000  0.0040  0.0000 </r>
        <r>  0.0000  0.0136  0.0004 </r>
        <r>  0.0003  0.0001  0.0001 </r>
        <r>  0.0002  0.0085  0.0006 </r>
        <r>  0.0006  0.0011  0.0005 </r>
        <r>  0.0021  0.0029  0.0023 </r>
        <r>  0.0002  0.0013  0.0006 </r>
        <r>  0.0000  0.0026  0.0017 </r>
        <r>  0.0022  0.0014  0.0030 </r>
        <r>  0.0000  0.0034  0.0012 </r>
        <r>  0.0018  0.0072  0.0006 </r>
        <r>  0.0003  0.0035  0.0006 </r>
        <r>  0.0001  0.0029  0.0001 </r>
        <r>  0.0002  0.0042  0.0007 </r>
        <r>  0.0013  0.0042  0.0020 </r>
        <r>  0.0001  0.0004  0.0003 </r>
        <r>  0.0019  0.0001  0.0010 </r>
        <r>  0.0004  0.0009  0.0012 </r>
        <r>  0.0000  0.0014  0.0005 </r>
        <r>  0.0003  0.0015  0.0022 </r>
        <r>  0.0000  0.0015  0.0003 </r>
        <r>  0.0006  0.0021  0.0007 </r>
        <r>  0.0005  0.0007  0.0019 </r>
        <r>  0.0031  0.0026  0.0021 </r>
        <r>  0.0000  0.0006  0.0009 </r>
       </set>
       <set comment="band 202">
        <r>  0.0062  0.0002  0.0133 </r>
        <r>  0.0025  0.0004  0.0063 </r>
        <r>  0.0009  0.0006  0.0037 </r>
        <r>  0.0012  0.0015  0.0098 </r>
        <r>  0.0108  0.0019  0.0021 </r>
        <r>  0.0026  0.0013  0.0048 </r>
        <r>  0.0000  0.0001  0.0052 </r>
        <r>  0.0001  0.0003  0.0016 </r>
        <r>  0.0000  0.0049  0.0000 </r>
        <r>  0.0002  0.0078  0.0002 </r>
        <r>  0.0000  0.0027  0.0001 </r>
        <r>  0.0000  0.0030  0.0001 </r>
        <r>  0.0000  0.0065  0.0001 </r>
        <r>  0.0000  0.0116  0.0002 </r>
        <r>  0.0000  0.0072  0.0001 </r>
        <r>  0.0001  0.0170  0.0002 </r>
        <r>  0.0000  0.0039  0.0003 </r>
        <r>  0.0000  0.0032  0.0005 </r>
        <r>  0.0011  0.0030  0.0015 </r>
        <r>  0.0008  0.0048  0.0018 </r>
        <r>  0.0000  0.0025  0.0002 </r>
        <r>  0.0013  0.0006  0.0019 </r>
        <r>  0.0010  0.0015  0.0029 </r>
        <r>  0.0035  0.0052  0.0036 </r>
        <r>  0.0012  0.0045  0.0007 </r>
        <r>  0.0001  0.0010  0.0004 </r>
        <r>  0.0012  0.0006  0.0009 </r>
        <r>  0.0000  0.0016  0.0004 </r>
        <r>  0.0000  0.0011  0.0004 </r>
        <r>  0.0001  0.0026  0.0004 </r>
        <r>  0.0000  0.0021  0.0011 </r>
        <r>  0.0013  0.0045  0.0019 </r>
        <r>  0.0009  0.0012  0.0020 </r>
        <r>  0.0008  0.0005  0.0007 </r>
        <r>  0.0000  0.0005  0.0003 </r>
        <r>  0.0000  0.0045  0.0004 </r>
        <r>  0.0004  0.0017  0.0003 </r>
        <r>  0.0001  0.0030  0.0009 </r>
        <r>  0.0000  0.0022  0.0027 </r>
       </set>
       <set comment="band 203">
        <r>  0.0019  0.0023  0.0046 </r>
        <r>  0.0110  0.0014  0.0123 </r>
        <r>  0.0000  0.0001  0.0092 </r>
        <r>  0.0000  0.0002  0.0045 </r>
        <r>  0.0005  0.0006  0.0138 </r>
        <r>  0.0061  0.0010  0.0034 </r>
        <r>  0.0002  0.0003  0.0027 </r>
        <r>  0.0012  0.0001  0.0062 </r>
        <r>  0.0000  0.0055  0.0003 </r>
        <r>  0.0001  0.0041  0.0001 </r>
        <r>  0.0000  0.0066  0.0001 </r>
        <r>  0.0000  0.0006  0.0002 </r>
        <r>  0.0000  0.0075  0.0002 </r>
        <r>  0.0000  0.0012  0.0003 </r>
        <r>  0.0000  0.0014  0.0005 </r>
        <r>  0.0000  0.0089  0.0001 </r>
        <r>  0.0000  0.0054  0.0004 </r>
        <r>  0.0000  0.0018  0.0002 </r>
        <r>  0.0021  0.0049  0.0029 </r>
        <r>  0.0017  0.0010  0.0021 </r>
        <r>  0.0003  0.0039  0.0010 </r>
        <r>  0.0034  0.0037  0.0042 </r>
        <r>  0.0004  0.0006  0.0022 </r>
        <r>  0.0002  0.0023  0.0016 </r>
        <r>  0.0003  0.0007  0.0012 </r>
        <r>  0.0002  0.0021  0.0007 </r>
        <r>  0.0002  0.0009  0.0005 </r>
        <r>  0.0007  0.0056  0.0009 </r>
        <r>  0.0000  0.0009  0.0006 </r>
        <r>  0.0008  0.0020  0.0009 </r>
        <r>  0.0002  0.0011  0.0003 </r>
        <r>  0.0001  0.0015  0.0006 </r>
        <r>  0.0000  0.0022  0.0011 </r>
        <r>  0.0010  0.0008  0.0009 </r>
        <r>  0.0001  0.0003  0.0007 </r>
        <r>  0.0016  0.0006  0.0016 </r>
        <r>  0.0009  0.0037  0.0016 </r>
        <r>  0.0000  0.0012  0.0011 </r>
        <r>  0.0001  0.0008  0.0003 </r>
       </set>
       <set comment="band 204">
        <r>  0.0000  0.0008  0.0043 </r>
        <r>  0.0001  0.0010  0.0103 </r>
        <r>  0.0001  0.0001  0.0050 </r>
        <r>  0.0099  0.0001  0.0079 </r>
        <r>  0.0035  0.0014  0.0224 </r>
        <r>  0.0011  0.0002  0.0055 </r>
        <r>  0.0002  0.0013  0.0148 </r>
        <r>  0.0003  0.0007  0.0063 </r>
        <r>  0.0000  0.0081  0.0004 </r>
        <r>  0.0002  0.0071  0.0002 </r>
        <r>  0.0000  0.0031  0.0001 </r>
        <r>  0.0000  0.0012  0.0002 </r>
        <r>  0.0000  0.0090  0.0001 </r>
        <r>  0.0000  0.0151  0.0001 </r>
        <r>  0.0000  0.0004  0.0002 </r>
        <r>  0.0000  0.0023  0.0003 </r>
        <r>  0.0011  0.0045  0.0022 </r>
        <r>  0.0004  0.0019  0.0008 </r>
        <r>  0.0004  0.0022  0.0011 </r>
        <r>  0.0008  0.0017  0.0009 </r>
        <r>  0.0001  0.0018  0.0004 </r>
        <r>  0.0009  0.0026  0.0009 </r>
        <r>  0.0003  0.0025  0.0009 </r>
        <r>  0.0004  0.0043  0.0017 </r>
        <r>  0.0000  0.0019  0.0004 </r>
        <r>  0.0002  0.0003  0.0006 </r>
        <r>  0.0003  0.0009  0.0011 </r>
        <r>  0.0009  0.0011  0.0026 </r>
        <r>  0.0001  0.0031  0.0007 </r>
        <r>  0.0000  0.0025  0.0003 </r>
        <r>  0.0001  0.0034  0.0005 </r>
        <r>  0.0022  0.0012  0.0020 </r>
        <r>  0.0001  0.0022  0.0005 </r>
        <r>  0.0001  0.0014  0.0002 </r>
        <r>  0.0035  0.0007  0.0031 </r>
        <r>  0.0003  0.0006  0.0008 </r>
        <r>  0.0000  0.0022  0.0021 </r>
        <r>  0.0000  0.0011  0.0009 </r>
        <r>  0.0013  0.0034  0.0017 </r>
       </set>
       <set comment="band 205">
        <r>  0.0007  0.0001  0.0019 </r>
        <r>  0.0000  0.0009  0.0256 </r>
        <r>  0.0033  0.0006  0.0121 </r>
        <r>  0.0058  0.0000  0.0136 </r>
        <r>  0.0000  0.0006  0.0163 </r>
        <r>  0.0007  0.0002  0.0128 </r>
        <r>  0.0001  0.0011  0.0080 </r>
        <r>  0.0002  0.0008  0.0047 </r>
        <r>  0.0000  0.0027  0.0005 </r>
        <r>  0.0000  0.0046  0.0002 </r>
        <r>  0.0000  0.0107  0.0006 </r>
        <r>  0.0000  0.0016  0.0003 </r>
        <r>  0.0000  0.0025  0.0001 </r>
        <r>  0.0000  0.0004  0.0007 </r>
        <r>  0.0000  0.0073  0.0004 </r>
        <r>  0.0000  0.0043  0.0007 </r>
        <r>  0.0010  0.0014  0.0019 </r>
        <r>  0.0001  0.0045  0.0005 </r>
        <r>  0.0000  0.0041  0.0010 </r>
        <r>  0.0001  0.0027  0.0011 </r>
        <r>  0.0015  0.0009  0.0022 </r>
        <r>  0.0002  0.0006  0.0003 </r>
        <r>  0.0000  0.0007  0.0012 </r>
        <r>  0.0000  0.0012  0.0006 </r>
        <r>  0.0001  0.0004  0.0022 </r>
        <r>  0.0000  0.0007  0.0007 </r>
        <r>  0.0020  0.0013  0.0022 </r>
        <r>  0.0002  0.0022  0.0012 </r>
        <r>  0.0008  0.0002  0.0005 </r>
        <r>  0.0014  0.0021  0.0030 </r>
        <r>  0.0002  0.0038  0.0006 </r>
        <r>  0.0003  0.0004  0.0018 </r>
        <r>  0.0001  0.0013  0.0025 </r>
        <r>  0.0001  0.0007  0.0005 </r>
        <r>  0.0000  0.0021  0.0011 </r>
        <r>  0.0005  0.0006  0.0010 </r>
        <r>  0.0000  0.0018  0.0018 </r>
        <r>  0.0000  0.0022  0.0010 </r>
        <r>  0.0008  0.0006  0.0012 </r>
       </set>
       <set comment="band 206">
        <r>  0.0001  0.0002  0.0065 </r>
        <r>  0.0002  0.0001  0.0111 </r>
        <r>  0.0000  0.0004  0.0474 </r>
        <r>  0.0000  0.0001  0.0119 </r>
        <r>  0.0002  0.0000  0.0090 </r>
        <r>  0.0002  0.0003  0.0137 </r>
        <r>  0.0002  0.0012  0.0280 </r>
        <r>  0.0012  0.0000  0.0046 </r>
        <r>  0.0000  0.0033  0.0004 </r>
        <r>  0.0001  0.0075  0.0005 </r>
        <r>  0.0000  0.0001  0.0004 </r>
        <r>  0.0001  0.0043  0.0004 </r>
        <r>  0.0000  0.0025  0.0001 </r>
        <r>  0.0001  0.0048  0.0005 </r>
        <r>  0.0001  0.0038  0.0010 </r>
        <r>  0.0001  0.0029  0.0001 </r>
        <r>  0.0003  0.0027  0.0023 </r>
        <r>  0.0000  0.0006  0.0002 </r>
        <r>  0.0002  0.0004  0.0014 </r>
        <r>  0.0000  0.0008  0.0003 </r>
        <r>  0.0008  0.0008  0.0008 </r>
        <r>  0.0005  0.0001  0.0008 </r>
        <r>  0.0000  0.0001  0.0003 </r>
        <r>  0.0003  0.0014  0.0007 </r>
        <r>  0.0005  0.0023  0.0022 </r>
        <r>  0.0007  0.0005  0.0010 </r>
        <r>  0.0001  0.0007  0.0016 </r>
        <r>  0.0012  0.0022  0.0025 </r>
        <r>  0.0000  0.0006  0.0007 </r>
        <r>  0.0000  0.0025  0.0055 </r>
        <r>  0.0000  0.0009  0.0011 </r>
        <r>  0.0001  0.0002  0.0003 </r>
        <r>  0.0005  0.0019  0.0015 </r>
        <r>  0.0005  0.0001  0.0016 </r>
        <r>  0.0000  0.0008  0.0021 </r>
        <r>  0.0001  0.0020  0.0037 </r>
        <r>  0.0005  0.0024  0.0007 </r>
        <r>  0.0005  0.0006  0.0009 </r>
        <r>  0.0000  0.0004  0.0006 </r>
       </set>
       <set comment="band 207">
        <r>  0.0026  0.0001  0.0147 </r>
        <r>  0.0005  0.0007  0.0049 </r>
        <r>  0.0000  0.0012  0.0168 </r>
        <r>  0.0001  0.0000  0.0145 </r>
        <r>  0.0013  0.0003  0.0109 </r>
        <r>  0.0015  0.0001  0.0180 </r>
        <r>  0.0000  0.0002  0.0120 </r>
        <r>  0.0008  0.0003  0.0156 </r>
        <r>  0.0001  0.0021  0.0004 </r>
        <r>  0.0000  0.0017  0.0005 </r>
        <r>  0.0000  0.0088  0.0001 </r>
        <r>  0.0000  0.0075  0.0004 </r>
        <r>  0.0000  0.0039  0.0006 </r>
        <r>  0.0000  0.0008  0.0008 </r>
        <r>  0.0000  0.0046  0.0002 </r>
        <r>  0.0000  0.0118  0.0005 </r>
        <r>  0.0001  0.0001  0.0004 </r>
        <r>  0.0000  0.0021  0.0009 </r>
        <r>  0.0001  0.0011  0.0012 </r>
        <r>  0.0001  0.0018  0.0004 </r>
        <r>  0.0002  0.0013  0.0009 </r>
        <r>  0.0001  0.0012  0.0013 </r>
        <r>  0.0001  0.0004  0.0003 </r>
        <r>  0.0001  0.0002  0.0011 </r>
        <r>  0.0013  0.0035  0.0014 </r>
        <r>  0.0017  0.0018  0.0026 </r>
        <r>  0.0002  0.0033  0.0012 </r>
        <r>  0.0003  0.0006  0.0004 </r>
        <r>  0.0001  0.0011  0.0015 </r>
        <r>  0.0006  0.0027  0.0014 </r>
        <r>  0.0003  0.0008  0.0022 </r>
        <r>  0.0019  0.0011  0.0037 </r>
        <r>  0.0002  0.0001  0.0013 </r>
        <r>  0.0004  0.0022  0.0013 </r>
        <r>  0.0002  0.0020  0.0005 </r>
        <r>  0.0009  0.0042  0.0012 </r>
        <r>  0.0006  0.0004  0.0023 </r>
        <r>  0.0015  0.0002  0.0036 </r>
        <r>  0.0001  0.0003  0.0010 </r>
       </set>
       <set comment="band 208">
        <r>  0.0002  0.0008  0.0105 </r>
        <r>  0.0009  0.0002  0.0053 </r>
        <r>  0.0001  0.0013  0.0158 </r>
        <r>  0.0003  0.0006  0.0044 </r>
        <r>  0.0001  0.0005  0.0258 </r>
        <r>  0.0021  0.0007  0.0280 </r>
        <r>  0.0002  0.0003  0.0100 </r>
        <r>  0.0044  0.0004  0.0068 </r>
        <r>  0.0000  0.0020  0.0003 </r>
        <r>  0.0001  0.0030  0.0005 </r>
        <r>  0.0000  0.0045  0.0006 </r>
        <r>  0.0000  0.0072  0.0008 </r>
        <r>  0.0000  0.0020  0.0004 </r>
        <r>  0.0000  0.0040  0.0003 </r>
        <r>  0.0000  0.0086  0.0001 </r>
        <r>  0.0000  0.0023  0.0003 </r>
        <r>  0.0003  0.0007  0.0006 </r>
        <r>  0.0012  0.0017  0.0023 </r>
        <r>  0.0012  0.0017  0.0020 </r>
        <r>  0.0006  0.0006  0.0011 </r>
        <r>  0.0006  0.0028  0.0019 </r>
        <r>  0.0005  0.0020  0.0032 </r>
        <r>  0.0005  0.0035  0.0021 </r>
        <r>  0.0002  0.0012  0.0008 </r>
        <r>  0.0000  0.0014  0.0010 </r>
        <r>  0.0001  0.0016  0.0011 </r>
        <r>  0.0002  0.0009  0.0003 </r>
        <r>  0.0000  0.0007  0.0004 </r>
        <r>  0.0021  0.0015  0.0034 </r>
        <r>  0.0000  0.0011  0.0014 </r>
        <r>  0.0001  0.0010  0.0008 </r>
        <r>  0.0001  0.0017  0.0014 </r>
        <r>  0.0001  0.0014  0.0016 </r>
        <r>  0.0005  0.0007  0.0017 </r>
        <r>  0.0004  0.0041  0.0007 </r>
        <r>  0.0005  0.0014  0.0021 </r>
        <r>  0.0001  0.0007  0.0006 </r>
        <r>  0.0005  0.0023  0.0009 </r>
        <r>  0.0001  0.0009  0.0005 </r>
       </set>
      </set>
     </set>
    </set>
   </array>
  </projected>
 </calculation>
 <structure name="finalpos" >
  <crystal>
   <varray name="basis" >
    <v>       8.45648900       0.00000000       8.04030100 </v>
    <v>       0.00000000      11.72984700       0.00000000 </v>
    <v>      -8.45648900       0.00000000       8.04030100 </v>
   </varray>
   <i name="volume">   1595.08833419 </i>
   <varray name="rec_basis" >
    <v>       0.05912619      -0.00000000       0.06218673 </v>
    <v>       0.00000000       0.08525260      -0.00000000 </v>
    <v>      -0.05912619       0.00000000       0.06218673 </v>
   </varray>
  </crystal>
  <varray name="positions" >
   <v>       0.26594600       0.24584900       0.19865800 </v>
   <v>       0.77756300       0.24418900       0.71453800 </v>
   <v>       0.72088400       0.75245100       0.26338200 </v>
   <v>       0.20021600       0.75519100       0.77769400 </v>
   <v>       0.29127900       0.23681300       0.74726000 </v>
   <v>       0.79278900       0.24917000       0.22572400 </v>
   <v>       0.73447100       0.74890600       0.80791400 </v>
   <v>       0.22611700       0.75265000       0.26016900 </v>
   <v>       0.99532900       0.00089200       0.99952700 </v>
   <v>       0.49333600       0.00258300       0.50049500 </v>
   <v>       0.49963100       0.99606500       0.00036000 </v>
   <v>       0.00023400       0.00469000       0.49982800 </v>
   <v>       0.50051200       0.49726100       0.00020300 </v>
   <v>       0.00627300       0.50528800       0.50049600 </v>
   <v>       0.99992300       0.49860500       0.99978100 </v>
   <v>       0.51301000       0.48633400       0.49820400 </v>
   <v>       0.46874000       0.74698100       0.96370700 </v>
   <v>       0.98114100       0.75441900       0.45734000 </v>
   <v>       0.97043700       0.24994600       0.96930300 </v>
   <v>       0.44327800       0.24177800       0.47300100 </v>
   <v>       0.01118100       0.74956100       0.02576100 </v>
   <v>       0.52514800       0.24691500       0.03387200 </v>
   <v>       0.03567000       0.25742700       0.54114300 </v>
   <v>       0.24720300       0.47143700       0.94727900 </v>
   <v>       0.76618500       0.47834100       0.44695300 </v>
   <v>       0.45699700       0.53091100       0.24759300 </v>
   <v>       0.95010500       0.53547000       0.74620900 </v>
   <v>       0.55222500       0.02702700       0.75118800 </v>
   <v>       0.04624700       0.03582700       0.25242500 </v>
   <v>       0.74891500       0.97139900       0.05228800 </v>
   <v>       0.24828900       0.97341300       0.55857900 </v>
   <v>       0.24487900       0.02056400       0.95901600 </v>
   <v>       0.74073000       0.03711700       0.45324600 </v>
   <v>       0.45620400       0.95888700       0.25041200 </v>
   <v>       0.94715200       0.96576000       0.74722100 </v>
   <v>       0.75207800       0.52670300       0.05249100 </v>
   <v>       0.55297200       0.45986600       0.74745700 </v>
   <v>       0.05691400       0.46847600       0.25391800 </v>
   <v>       0.36891200       0.66054900       0.53550400 </v>
  </varray>
 </structure>
</modeling>
