  10  10   1   0
  0.4043882E+02  0.8175452E-09  0.8425461E-09  0.8432497E-09  0.5000000E-15
   1.0000000000000000E-004
  CAR 
 CsPbBr3 cubic bulk                      
      8.53658936    -22.31394410  301      0.64399455      1.00000000
    -22.314  0.0000E+00  0.0000E+00
    -22.211  0.0000E+00  0.0000E+00
    -22.108  0.0000E+00  0.0000E+00
    -22.005  0.0000E+00  0.0000E+00
    -21.903  0.0000E+00  0.0000E+00
    -21.800  0.0000E+00  0.0000E+00
    -21.697  0.0000E+00  0.0000E+00
    -21.594  0.0000E+00  0.0000E+00
    -21.491  0.0000E+00  0.0000E+00
    -21.388  0.0000E+00  0.0000E+00
    -21.286  0.0000E+00  0.0000E+00
    -21.183  0.0000E+00  0.0000E+00
    -21.080  0.0000E+00  0.0000E+00
    -20.977  0.0000E+00  0.0000E+00
    -20.874  0.3890E+02  0.4000E+01
    -20.771  0.0000E+00  0.4000E+01
    -20.669  0.0000E+00  0.4000E+01
    -20.566  0.0000E+00  0.4000E+01
    -20.463  0.0000E+00  0.4000E+01
    -20.360  0.0000E+00  0.4000E+01
    -20.257  0.0000E+00  0.4000E+01
    -20.154  0.0000E+00  0.4000E+01
    -20.052  0.0000E+00  0.4000E+01
    -19.949  0.0000E+00  0.4000E+01
    -19.846  0.0000E+00  0.4000E+01
    -19.743  0.0000E+00  0.4000E+01
    -19.640  0.0000E+00  0.4000E+01
    -19.537  0.0000E+00  0.4000E+01
    -19.435  0.0000E+00  0.4000E+01
    -19.332  0.0000E+00  0.4000E+01
    -19.229  0.0000E+00  0.4000E+01
    -19.126  0.0000E+00  0.4000E+01
    -19.023  0.0000E+00  0.4000E+01
    -18.920  0.0000E+00  0.4000E+01
    -18.818  0.0000E+00  0.4000E+01
    -18.715  0.0000E+00  0.4000E+01
    -18.612  0.0000E+00  0.4000E+01
    -18.509  0.0000E+00  0.4000E+01
    -18.406  0.0000E+00  0.4000E+01
    -18.303  0.0000E+00  0.4000E+01
    -18.201  0.0000E+00  0.4000E+01
    -18.098  0.0000E+00  0.4000E+01
    -17.995  0.0000E+00  0.4000E+01
    -17.892  0.0000E+00  0.4000E+01
    -17.789  0.0000E+00  0.4000E+01
    -17.686  0.0000E+00  0.4000E+01
    -17.584  0.0000E+00  0.4000E+01
    -17.481  0.0000E+00  0.4000E+01
    -17.378  0.0000E+00  0.4000E+01
    -17.275  0.0000E+00  0.4000E+01
    -17.172  0.0000E+00  0.4000E+01
    -17.069  0.0000E+00  0.4000E+01
    -16.967  0.0000E+00  0.4000E+01
    -16.864  0.0000E+00  0.4000E+01
    -16.761  0.0000E+00  0.4000E+01
    -16.658  0.0000E+00  0.4000E+01
    -16.555  0.0000E+00  0.4000E+01
    -16.452  0.3825E-03  0.4000E+01
    -16.350  0.6625E+02  0.1081E+02
    -16.247  0.9036E+02  0.2129E+02
    -16.144  0.0000E+00  0.2400E+02
    -16.041  0.0000E+00  0.2400E+02
    -15.938  0.0000E+00  0.2400E+02
    -15.835  0.0000E+00  0.2400E+02
    -15.732  0.0000E+00  0.2400E+02
    -15.630  0.0000E+00  0.2400E+02
    -15.527  0.0000E+00  0.2400E+02
    -15.424  0.0000E+00  0.2400E+02
    -15.321  0.0000E+00  0.2400E+02
    -15.218  0.0000E+00  0.2400E+02
    -15.115  0.0000E+00  0.2400E+02
    -15.013  0.0000E+00  0.2400E+02
    -14.910  0.0000E+00  0.2400E+02
    -14.807  0.0000E+00  0.2400E+02
    -14.704  0.0000E+00  0.2400E+02
    -14.601  0.0000E+00  0.2400E+02
    -14.498  0.0000E+00  0.2400E+02
    -14.396  0.4246E-07  0.2400E+02
    -14.293  0.1214E+01  0.2412E+02
    -14.190  0.4358E+01  0.2511E+02
    -14.087  0.1741E+02  0.2735E+02
    -13.984  0.1862E+02  0.2940E+02
    -13.881  0.2881E+02  0.3244E+02
    -13.779  0.2627E+02  0.3515E+02
    -13.676  0.5763E+01  0.3600E+02
    -13.573  0.0000E+00  0.3600E+02
    -13.470  0.0000E+00  0.3600E+02
    -13.367  0.0000E+00  0.3600E+02
    -13.264  0.0000E+00  0.3600E+02
    -13.162  0.0000E+00  0.3600E+02
    -13.059  0.0000E+00  0.3600E+02
    -12.956  0.0000E+00  0.3600E+02
    -12.853  0.0000E+00  0.3600E+02
    -12.750  0.0000E+00  0.3600E+02
    -12.647  0.0000E+00  0.3600E+02
    -12.545  0.0000E+00  0.3600E+02
    -12.442  0.0000E+00  0.3600E+02
    -12.339  0.0000E+00  0.3600E+02
    -12.236  0.0000E+00  0.3600E+02
    -12.133  0.0000E+00  0.3600E+02
    -12.030  0.0000E+00  0.3600E+02
    -11.928  0.0000E+00  0.3600E+02
    -11.825  0.0000E+00  0.3600E+02
    -11.722  0.0000E+00  0.3600E+02
    -11.619  0.0000E+00  0.3600E+02
    -11.516  0.0000E+00  0.3600E+02
    -11.413  0.0000E+00  0.3600E+02
    -11.311  0.0000E+00  0.3600E+02
    -11.208  0.0000E+00  0.3600E+02
    -11.105  0.0000E+00  0.3600E+02
    -11.002  0.0000E+00  0.3600E+02
    -10.899  0.0000E+00  0.3600E+02
    -10.796  0.0000E+00  0.3600E+02
    -10.694  0.0000E+00  0.3600E+02
    -10.591  0.0000E+00  0.3600E+02
    -10.488  0.0000E+00  0.3600E+02
    -10.385  0.0000E+00  0.3600E+02
    -10.282  0.0000E+00  0.3600E+02
    -10.179  0.0000E+00  0.3600E+02
    -10.077  0.0000E+00  0.3600E+02
     -9.974  0.0000E+00  0.3600E+02
     -9.871  0.0000E+00  0.3600E+02
     -9.768  0.0000E+00  0.3600E+02
     -9.665  0.0000E+00  0.3600E+02
     -9.562  0.0000E+00  0.3600E+02
     -9.460  0.0000E+00  0.3600E+02
     -9.357  0.0000E+00  0.3600E+02
     -9.254  0.0000E+00  0.3600E+02
     -9.151  0.0000E+00  0.3600E+02
     -9.048  0.0000E+00  0.3600E+02
     -8.945  0.0000E+00  0.3600E+02
     -8.843  0.0000E+00  0.3600E+02
     -8.740  0.0000E+00  0.3600E+02
     -8.637  0.0000E+00  0.3600E+02
     -8.534  0.0000E+00  0.3600E+02
     -8.431  0.0000E+00  0.3600E+02
     -8.328  0.0000E+00  0.3600E+02
     -8.226  0.1247E-05  0.3600E+02
     -8.123  0.7203E+00  0.3607E+02
     -8.020  0.0000E+00  0.3607E+02
     -7.917  0.0000E+00  0.3607E+02
     -7.814  0.9620E+01  0.3706E+02
     -7.711  0.0000E+00  0.3711E+02
     -7.609  0.0000E+00  0.3711E+02
     -7.506  0.2326E-07  0.3711E+02
     -7.403  0.1729E+02  0.3889E+02
     -7.300  0.2515E+02  0.4148E+02
     -7.197  0.3745E+02  0.5089E+02
     -7.094  0.0000E+00  0.5089E+02
     -6.992  0.5775E+01  0.5148E+02
     -6.889  0.1440E+01  0.5193E+02
     -6.786  0.0000E+00  0.5193E+02
     -6.683  0.0000E+00  0.5193E+02
     -6.580  0.0000E+00  0.5193E+02
     -6.477  0.2726E-01  0.5193E+02
     -6.375  0.0000E+00  0.5200E+02
     -6.272  0.0000E+00  0.5200E+02
     -6.169  0.0000E+00  0.5200E+02
     -6.066  0.0000E+00  0.5200E+02
     -5.963  0.0000E+00  0.5200E+02
     -5.860  0.0000E+00  0.5200E+02
     -5.757  0.0000E+00  0.5200E+02
     -5.655  0.0000E+00  0.5200E+02
     -5.552  0.0000E+00  0.5200E+02
     -5.449  0.0000E+00  0.5200E+02
     -5.346  0.0000E+00  0.5200E+02
     -5.243  0.0000E+00  0.5200E+02
     -5.140  0.0000E+00  0.5200E+02
     -5.038  0.0000E+00  0.5200E+02
     -4.935  0.0000E+00  0.5200E+02
     -4.832  0.0000E+00  0.5200E+02
     -4.729  0.0000E+00  0.5200E+02
     -4.626  0.0000E+00  0.5200E+02
     -4.523  0.0000E+00  0.5200E+02
     -4.421  0.0000E+00  0.5200E+02
     -4.318  0.0000E+00  0.5200E+02
     -4.215  0.0000E+00  0.5200E+02
     -4.112  0.0000E+00  0.5200E+02
     -4.009  0.0000E+00  0.5200E+02
     -3.906  0.0000E+00  0.5200E+02
     -3.804  0.0000E+00  0.5200E+02
     -3.701  0.0000E+00  0.5200E+02
     -3.598  0.0000E+00  0.5200E+02
     -3.495  0.0000E+00  0.5200E+02
     -3.392  0.1546E+00  0.5202E+02
     -3.289  0.4998E+01  0.5259E+02
     -3.187  0.2551E+01  0.5285E+02
     -3.084  0.5762E+01  0.5400E+02
     -2.981  0.7181E+01  0.5474E+02
     -2.878  0.8632E+01  0.5563E+02
     -2.775  0.3089E+01  0.5610E+02
     -2.672  0.8556E+01  0.5740E+02
     -2.570  0.2017E-03  0.5785E+02
     -2.467  0.1440E+01  0.5800E+02
     -2.364  0.0000E+00  0.5800E+02
     -2.261  0.2673E-05  0.5800E+02
     -2.158  0.8825E+01  0.5891E+02
     -2.055  0.2029E+02  0.6186E+02
     -1.953  0.6899E+01  0.6301E+02
     -1.850  0.2161E+01  0.6356E+02
     -1.747  0.1317E+02  0.6491E+02
     -1.644  0.5904E+01  0.6653E+02
     -1.541  0.6412E+01  0.6747E+02
     -1.438  0.2754E+02  0.7031E+02
     -1.336  0.3080E+02  0.7361E+02
     -1.233  0.3078E+02  0.7746E+02
     -1.130  0.2054E+02  0.8011E+02
     -1.027  0.1861E+02  0.8243E+02
     -0.924  0.8689E+01  0.8386E+02
     -0.821  0.7203E+01  0.8467E+02
     -0.719  0.4322E+01  0.8511E+02
     -0.616  0.8594E+01  0.8599E+02
     -0.513  0.7464E+01  0.8677E+02
     -0.410  0.3757E+01  0.8728E+02
     -0.307  0.1441E+01  0.8748E+02
     -0.204  0.0000E+00  0.8748E+02
     -0.102  0.0000E+00  0.8748E+02
      0.001  0.2757E+01  0.8776E+02
      0.104  0.0000E+00  0.8793E+02
      0.207  0.0000E+00  0.8793E+02
      0.310  0.0000E+00  0.8793E+02
      0.413  0.0000E+00  0.8793E+02
      0.515  0.3802E-11  0.8793E+02
      0.618  0.7203E+00  0.8800E+02
      0.721  0.0000E+00  0.8800E+02
      0.824  0.0000E+00  0.8800E+02
      0.927  0.0000E+00  0.8800E+02
      1.030  0.0000E+00  0.8800E+02
      1.132  0.0000E+00  0.8800E+02
      1.235  0.0000E+00  0.8800E+02
      1.338  0.0000E+00  0.8800E+02
      1.441  0.0000E+00  0.8800E+02
      1.544  0.0000E+00  0.8800E+02
      1.647  0.0000E+00  0.8800E+02
      1.749  0.0000E+00  0.8800E+02
      1.852  0.0000E+00  0.8800E+02
      1.955  0.0000E+00  0.8800E+02
      2.058  0.0000E+00  0.8800E+02
      2.161  0.0000E+00  0.8800E+02
      2.264  0.0000E+00  0.8800E+02
      2.366  0.0000E+00  0.8800E+02
      2.469  0.0000E+00  0.8800E+02
      2.572  0.0000E+00  0.8800E+02
      2.675  0.4678E-14  0.8800E+02
      2.778  0.7203E+00  0.8807E+02
      2.881  0.1441E+01  0.8822E+02
      2.983  0.0000E+00  0.8822E+02
      3.086  0.3960E+01  0.8863E+02
      3.189  0.1441E+01  0.8911E+02
      3.292  0.7997E-16  0.8911E+02
      3.395  0.7837E+01  0.8992E+02
      3.498  0.0000E+00  0.9000E+02
      3.601  0.3902E+01  0.9040E+02
      3.703  0.0000E+00  0.9044E+02
      3.806  0.4052E+01  0.9086E+02
      3.909  0.2881E+01  0.9133E+02
      4.012  0.8644E+01  0.9222E+02
      4.115  0.8643E+01  0.9311E+02
      4.218  0.4322E+01  0.9356E+02
      4.320  0.1335E+01  0.9369E+02
      4.423  0.0000E+00  0.9400E+02
      4.526  0.0000E+00  0.9400E+02
      4.629  0.0000E+00  0.9400E+02
      4.732  0.6413E+00  0.9407E+02
      4.835  0.0000E+00  0.9407E+02
      4.937  0.0000E+00  0.9407E+02
      5.040  0.4296E+01  0.9452E+02
      5.143  0.1006E+02  0.9555E+02
      5.246  0.4322E+01  0.9600E+02
      5.349  0.1190E-08  0.9600E+02
      5.452  0.1296E+02  0.9733E+02
      5.554  0.1276E-04  0.9733E+02
      5.657  0.5758E+01  0.9793E+02
      5.760  0.2881E+01  0.9852E+02
      5.863  0.7203E+00  0.9859E+02
      5.966  0.1402E+02  0.1000E+03
      6.069  0.6981E+00  0.1002E+03
      6.171  0.4268E+01  0.1009E+03
      6.274  0.8760E+01  0.1019E+03
      6.377  0.1008E+02  0.1032E+03
      6.480  0.1069E+02  0.1043E+03
      6.583  0.1008E+02  0.1056E+03
      6.686  0.9877E+01  0.1066E+03
      6.788  0.1401E+02  0.1087E+03
      6.891  0.1202E+02  0.1104E+03
      6.994  0.8510E+00  0.1108E+03
      7.097  0.5731E+01  0.1117E+03
      7.200  0.1441E+01  0.1120E+03
      7.303  0.0000E+00  0.1120E+03
      7.405  0.0000E+00  0.1120E+03
      7.508  0.0000E+00  0.1120E+03
      7.611  0.0000E+00  0.1120E+03
      7.714  0.0000E+00  0.1120E+03
      7.817  0.0000E+00  0.1120E+03
      7.920  0.0000E+00  0.1120E+03
      8.022  0.0000E+00  0.1120E+03
      8.125  0.0000E+00  0.1120E+03
      8.228  0.0000E+00  0.1120E+03
      8.331  0.0000E+00  0.1120E+03
      8.434  0.0000E+00  0.1120E+03
      8.537  0.0000E+00  0.1120E+03
      8.53658936    -22.31394410  301      0.64399455      1.00000000
    -22.314  0.0000E+00  0.0000E+00  0.0000E+00
    -22.211  0.0000E+00  0.0000E+00  0.0000E+00
    -22.108  0.0000E+00  0.0000E+00  0.0000E+00
    -22.005  0.0000E+00  0.0000E+00  0.0000E+00
    -21.903  0.0000E+00  0.0000E+00  0.0000E+00
    -21.800  0.0000E+00  0.0000E+00  0.0000E+00
    -21.697  0.0000E+00  0.0000E+00  0.0000E+00
    -21.594  0.0000E+00  0.0000E+00  0.0000E+00
    -21.491  0.0000E+00  0.0000E+00  0.0000E+00
    -21.388  0.0000E+00  0.0000E+00  0.0000E+00
    -21.286  0.0000E+00  0.0000E+00  0.0000E+00
    -21.183  0.0000E+00  0.0000E+00  0.0000E+00
    -21.080  0.0000E+00  0.0000E+00  0.0000E+00
    -20.977  0.0000E+00  0.0000E+00  0.0000E+00
    -20.874  0.1726E+02  0.1464E-05  0.2864E-05
    -20.771  0.0000E+00  0.0000E+00  0.0000E+00
    -20.669  0.0000E+00  0.0000E+00  0.0000E+00
    -20.566  0.0000E+00  0.0000E+00  0.0000E+00
    -20.463  0.0000E+00  0.0000E+00  0.0000E+00
    -20.360  0.0000E+00  0.0000E+00  0.0000E+00
    -20.257  0.0000E+00  0.0000E+00  0.0000E+00
    -20.154  0.0000E+00  0.0000E+00  0.0000E+00
    -20.052  0.0000E+00  0.0000E+00  0.0000E+00
    -19.949  0.0000E+00  0.0000E+00  0.0000E+00
    -19.846  0.0000E+00  0.0000E+00  0.0000E+00
    -19.743  0.0000E+00  0.0000E+00  0.0000E+00
    -19.640  0.0000E+00  0.0000E+00  0.0000E+00
    -19.537  0.0000E+00  0.0000E+00  0.0000E+00
    -19.435  0.0000E+00  0.0000E+00  0.0000E+00
    -19.332  0.0000E+00  0.0000E+00  0.0000E+00
    -19.229  0.0000E+00  0.0000E+00  0.0000E+00
    -19.126  0.0000E+00  0.0000E+00  0.0000E+00
    -19.023  0.0000E+00  0.0000E+00  0.0000E+00
    -18.920  0.0000E+00  0.0000E+00  0.0000E+00
    -18.818  0.0000E+00  0.0000E+00  0.0000E+00
    -18.715  0.0000E+00  0.0000E+00  0.0000E+00
    -18.612  0.0000E+00  0.0000E+00  0.0000E+00
    -18.509  0.0000E+00  0.0000E+00  0.0000E+00
    -18.406  0.0000E+00  0.0000E+00  0.0000E+00
    -18.303  0.0000E+00  0.0000E+00  0.0000E+00
    -18.201  0.0000E+00  0.0000E+00  0.0000E+00
    -18.098  0.0000E+00  0.0000E+00  0.0000E+00
    -17.995  0.0000E+00  0.0000E+00  0.0000E+00
    -17.892  0.0000E+00  0.0000E+00  0.0000E+00
    -17.789  0.0000E+00  0.0000E+00  0.0000E+00
    -17.686  0.0000E+00  0.0000E+00  0.0000E+00
    -17.584  0.0000E+00  0.0000E+00  0.0000E+00
    -17.481  0.0000E+00  0.0000E+00  0.0000E+00
    -17.378  0.0000E+00  0.0000E+00  0.0000E+00
    -17.275  0.0000E+00  0.0000E+00  0.0000E+00
    -17.172  0.0000E+00  0.0000E+00  0.0000E+00
    -17.069  0.0000E+00  0.0000E+00  0.0000E+00
    -16.967  0.0000E+00  0.0000E+00  0.0000E+00
    -16.864  0.0000E+00  0.0000E+00  0.0000E+00
    -16.761  0.0000E+00  0.0000E+00  0.0000E+00
    -16.658  0.0000E+00  0.0000E+00  0.0000E+00
    -16.555  0.0000E+00  0.0000E+00  0.0000E+00
    -16.452  0.1378E-08  0.6541E-09  0.1293E-09
    -16.350  0.1131E-03  0.9828E-04  0.1649E-04
    -16.247  0.2751E-04  0.1728E-04  0.1962E-05
    -16.144  0.0000E+00  0.0000E+00  0.0000E+00
    -16.041  0.0000E+00  0.0000E+00  0.0000E+00
    -15.938  0.0000E+00  0.0000E+00  0.0000E+00
    -15.835  0.0000E+00  0.0000E+00  0.0000E+00
    -15.732  0.0000E+00  0.0000E+00  0.0000E+00
    -15.630  0.0000E+00  0.0000E+00  0.0000E+00
    -15.527  0.0000E+00  0.0000E+00  0.0000E+00
    -15.424  0.0000E+00  0.0000E+00  0.0000E+00
    -15.321  0.0000E+00  0.0000E+00  0.0000E+00
    -15.218  0.0000E+00  0.0000E+00  0.0000E+00
    -15.115  0.0000E+00  0.0000E+00  0.0000E+00
    -15.013  0.0000E+00  0.0000E+00  0.0000E+00
    -14.910  0.0000E+00  0.0000E+00  0.0000E+00
    -14.807  0.0000E+00  0.0000E+00  0.0000E+00
    -14.704  0.0000E+00  0.0000E+00  0.0000E+00
    -14.601  0.0000E+00  0.0000E+00  0.0000E+00
    -14.498  0.0000E+00  0.0000E+00  0.0000E+00
    -14.396  0.2661E-10  0.2074E-13  0.5320E-13
    -14.293  0.6209E-03  0.8930E-04  0.3618E-05
    -14.190  0.1138E-02  0.1041E-02  0.2343E-04
    -14.087  0.7331E-03  0.5285E-02  0.2364E-03
    -13.984  0.1584E-02  0.3642E-02  0.2595E-03
    -13.881  0.1065E-02  0.4995E-02  0.4907E-03
    -13.779  0.1399E-02  0.2908E-02  0.4073E-03
    -13.676  0.3352E-03  0.6525E-03  0.7321E-04
    -13.573  0.0000E+00  0.0000E+00  0.0000E+00
    -13.470  0.0000E+00  0.0000E+00  0.0000E+00
    -13.367  0.0000E+00  0.0000E+00  0.0000E+00
    -13.264  0.0000E+00  0.0000E+00  0.0000E+00
    -13.162  0.0000E+00  0.0000E+00  0.0000E+00
    -13.059  0.0000E+00  0.0000E+00  0.0000E+00
    -12.956  0.0000E+00  0.0000E+00  0.0000E+00
    -12.853  0.0000E+00  0.0000E+00  0.0000E+00
    -12.750  0.0000E+00  0.0000E+00  0.0000E+00
    -12.647  0.0000E+00  0.0000E+00  0.0000E+00
    -12.545  0.0000E+00  0.0000E+00  0.0000E+00
    -12.442  0.0000E+00  0.0000E+00  0.0000E+00
    -12.339  0.0000E+00  0.0000E+00  0.0000E+00
    -12.236  0.0000E+00  0.0000E+00  0.0000E+00
    -12.133  0.0000E+00  0.0000E+00  0.0000E+00
    -12.030  0.0000E+00  0.0000E+00  0.0000E+00
    -11.928  0.0000E+00  0.0000E+00  0.0000E+00
    -11.825  0.0000E+00  0.0000E+00  0.0000E+00
    -11.722  0.0000E+00  0.0000E+00  0.0000E+00
    -11.619  0.0000E+00  0.0000E+00  0.0000E+00
    -11.516  0.0000E+00  0.0000E+00  0.0000E+00
    -11.413  0.0000E+00  0.0000E+00  0.0000E+00
    -11.311  0.0000E+00  0.0000E+00  0.0000E+00
    -11.208  0.0000E+00  0.0000E+00  0.0000E+00
    -11.105  0.0000E+00  0.0000E+00  0.0000E+00
    -11.002  0.0000E+00  0.0000E+00  0.0000E+00
    -10.899  0.0000E+00  0.0000E+00  0.0000E+00
    -10.796  0.0000E+00  0.0000E+00  0.0000E+00
    -10.694  0.0000E+00  0.0000E+00  0.0000E+00
    -10.591  0.0000E+00  0.0000E+00  0.0000E+00
    -10.488  0.0000E+00  0.0000E+00  0.0000E+00
    -10.385  0.0000E+00  0.0000E+00  0.0000E+00
    -10.282  0.0000E+00  0.0000E+00  0.0000E+00
    -10.179  0.0000E+00  0.0000E+00  0.0000E+00
    -10.077  0.0000E+00  0.0000E+00  0.0000E+00
     -9.974  0.0000E+00  0.0000E+00  0.0000E+00
     -9.871  0.0000E+00  0.0000E+00  0.0000E+00
     -9.768  0.0000E+00  0.0000E+00  0.0000E+00
     -9.665  0.0000E+00  0.0000E+00  0.0000E+00
     -9.562  0.0000E+00  0.0000E+00  0.0000E+00
     -9.460  0.0000E+00  0.0000E+00  0.0000E+00
     -9.357  0.0000E+00  0.0000E+00  0.0000E+00
     -9.254  0.0000E+00  0.0000E+00  0.0000E+00
     -9.151  0.0000E+00  0.0000E+00  0.0000E+00
     -9.048  0.0000E+00  0.0000E+00  0.0000E+00
     -8.945  0.0000E+00  0.0000E+00  0.0000E+00
     -8.843  0.0000E+00  0.0000E+00  0.0000E+00
     -8.740  0.0000E+00  0.0000E+00  0.0000E+00
     -8.637  0.0000E+00  0.0000E+00  0.0000E+00
     -8.534  0.0000E+00  0.0000E+00  0.0000E+00
     -8.431  0.0000E+00  0.0000E+00  0.0000E+00
     -8.328  0.0000E+00  0.0000E+00  0.0000E+00
     -8.226  0.1330E-17  0.2661E-09  0.2279E-13
     -8.123  0.7681E-12  0.1537E-03  0.1317E-07
     -8.020  0.0000E+00  0.0000E+00  0.0000E+00
     -7.917  0.0000E+00  0.0000E+00  0.0000E+00
     -7.814  0.2192E-04  0.3110E-01  0.2039E-04
     -7.711  0.0000E+00  0.0000E+00  0.0000E+00
     -7.609  0.0000E+00  0.0000E+00  0.0000E+00
     -7.506  0.1332E-15  0.1169E-08  0.1395E-12
     -7.403  0.4935E-04  0.7131E+00  0.1135E-03
     -7.300  0.3771E-05  0.9602E+01  0.1293E-04
     -7.197  0.9676E-05  0.1374E+02  0.1966E-04
     -7.094  0.0000E+00  0.0000E+00  0.0000E+00
     -6.992  0.8384E-04  0.5161E-01  0.5357E-04
     -6.889  0.1183E-04  0.1181E-01  0.1718E-04
     -6.786  0.0000E+00  0.0000E+00  0.0000E+00
     -6.683  0.0000E+00  0.0000E+00  0.0000E+00
     -6.580  0.0000E+00  0.0000E+00  0.0000E+00
     -6.477  0.6910E-06  0.1547E-06  0.1987E-06
     -6.375  0.0000E+00  0.0000E+00  0.0000E+00
     -6.272  0.0000E+00  0.0000E+00  0.0000E+00
     -6.169  0.0000E+00  0.0000E+00  0.0000E+00
     -6.066  0.0000E+00  0.0000E+00  0.0000E+00
     -5.963  0.0000E+00  0.0000E+00  0.0000E+00
     -5.860  0.0000E+00  0.0000E+00  0.0000E+00
     -5.757  0.0000E+00  0.0000E+00  0.0000E+00
     -5.655  0.0000E+00  0.0000E+00  0.0000E+00
     -5.552  0.0000E+00  0.0000E+00  0.0000E+00
     -5.449  0.0000E+00  0.0000E+00  0.0000E+00
     -5.346  0.0000E+00  0.0000E+00  0.0000E+00
     -5.243  0.0000E+00  0.0000E+00  0.0000E+00
     -5.140  0.0000E+00  0.0000E+00  0.0000E+00
     -5.038  0.0000E+00  0.0000E+00  0.0000E+00
     -4.935  0.0000E+00  0.0000E+00  0.0000E+00
     -4.832  0.0000E+00  0.0000E+00  0.0000E+00
     -4.729  0.0000E+00  0.0000E+00  0.0000E+00
     -4.626  0.0000E+00  0.0000E+00  0.0000E+00
     -4.523  0.0000E+00  0.0000E+00  0.0000E+00
     -4.421  0.0000E+00  0.0000E+00  0.0000E+00
     -4.318  0.0000E+00  0.0000E+00  0.0000E+00
     -4.215  0.0000E+00  0.0000E+00  0.0000E+00
     -4.112  0.0000E+00  0.0000E+00  0.0000E+00
     -4.009  0.0000E+00  0.0000E+00  0.0000E+00
     -3.906  0.0000E+00  0.0000E+00  0.0000E+00
     -3.804  0.0000E+00  0.0000E+00  0.0000E+00
     -3.701  0.0000E+00  0.0000E+00  0.0000E+00
     -3.598  0.0000E+00  0.0000E+00  0.0000E+00
     -3.495  0.0000E+00  0.0000E+00  0.0000E+00
     -3.392  0.1165E-07  0.6574E-03  0.3622E-05
     -3.289  0.3814E-06  0.8668E-02  0.7125E-03
     -3.187  0.3247E-06  0.3499E-02  0.5203E-03
     -3.084  0.2933E-06  0.2775E-02  0.7719E-03
     -2.981  0.9751E-04  0.2053E-01  0.4600E-03
     -2.878  0.9061E-04  0.1798E-01  0.1021E-02
     -2.775  0.8314E-04  0.8690E-03  0.8785E-03
     -2.672  0.1176E-03  0.5364E-02  0.1361E-02
     -2.570  0.3960E-07  0.1531E-06  0.6548E-07
     -2.467  0.2828E-03  0.1093E-02  0.4675E-03
     -2.364  0.0000E+00  0.0000E+00  0.0000E+00
     -2.261  0.1076E-10  0.1174E-07  0.4292E-09
     -2.158  0.9560E-03  0.2926E-01  0.9890E-03
     -2.055  0.2052E-01  0.3487E-01  0.6394E-02
     -1.953  0.1155E-01  0.8115E-02  0.1477E-02
     -1.850  0.1531E-05  0.3313E-01  0.4268E-03
     -1.747  0.4506E-03  0.1106E+00  0.7060E-02
     -1.644  0.1280E-02  0.3236E-01  0.5480E-02
     -1.541  0.7609E-03  0.3481E-01  0.3854E-02
     -1.438  0.4101E-02  0.9042E-01  0.1657E-01
     -1.336  0.7568E-02  0.5097E-01  0.1979E-01
     -1.233  0.2892E-02  0.8186E-01  0.1685E-01
     -1.130  0.2682E-02  0.5767E-01  0.1090E-01
     -1.027  0.1484E-02  0.3352E-01  0.8675E-02
     -0.924  0.1139E-03  0.1978E-01  0.3919E-02
     -0.821  0.9360E-03  0.9634E-02  0.5203E-02
     -0.719  0.2658E-05  0.9458E-02  0.2343E-02
     -0.616  0.9654E-03  0.8400E-02  0.1801E-02
     -0.513  0.1652E-03  0.3245E-02  0.6526E-03
     -0.410  0.1834E-03  0.2390E-02  0.2575E-03
     -0.307  0.7202E-04  0.2506E-03  0.2024E-04
     -0.204  0.0000E+00  0.0000E+00  0.0000E+00
     -0.102  0.0000E+00  0.0000E+00  0.0000E+00
      0.001  0.2714E-04  0.4595E-03  0.5317E-03
      0.104  0.0000E+00  0.0000E+00  0.0000E+00
      0.207  0.0000E+00  0.0000E+00  0.0000E+00
      0.310  0.0000E+00  0.0000E+00  0.0000E+00
      0.413  0.0000E+00  0.0000E+00  0.0000E+00
      0.515  0.4488E-21  0.3877E-16  0.4046E-18
      0.618  0.8503E-10  0.7345E-05  0.7665E-07
      0.721  0.0000E+00  0.0000E+00  0.0000E+00
      0.824  0.0000E+00  0.0000E+00  0.0000E+00
      0.927  0.0000E+00  0.0000E+00  0.0000E+00
      1.030  0.0000E+00  0.0000E+00  0.0000E+00
      1.132  0.0000E+00  0.0000E+00  0.0000E+00
      1.235  0.0000E+00  0.0000E+00  0.0000E+00
      1.338  0.0000E+00  0.0000E+00  0.0000E+00
      1.441  0.0000E+00  0.0000E+00  0.0000E+00
      1.544  0.0000E+00  0.0000E+00  0.0000E+00
      1.647  0.0000E+00  0.0000E+00  0.0000E+00
      1.749  0.0000E+00  0.0000E+00  0.0000E+00
      1.852  0.0000E+00  0.0000E+00  0.0000E+00
      1.955  0.0000E+00  0.0000E+00  0.0000E+00
      2.058  0.0000E+00  0.0000E+00  0.0000E+00
      2.161  0.0000E+00  0.0000E+00  0.0000E+00
      2.264  0.0000E+00  0.0000E+00  0.0000E+00
      2.366  0.0000E+00  0.0000E+00  0.0000E+00
      2.469  0.0000E+00  0.0000E+00  0.0000E+00
      2.572  0.0000E+00  0.0000E+00  0.0000E+00
      2.675  0.1242E-18  0.3302E-20  0.1183E-16
      2.778  0.1912E-04  0.5085E-06  0.1821E-02
      2.881  0.2748E-05  0.4930E-06  0.1630E-02
      2.983  0.0000E+00  0.0000E+00  0.0000E+00
      3.086  0.1037E-03  0.9092E-03  0.3463E-02
      3.189  0.3000E-03  0.7663E-04  0.1093E-02
      3.292  0.6540E-20  0.5816E-19  0.3602E-19
      3.395  0.4441E-03  0.5918E-02  0.3089E-02
      3.498  0.0000E+00  0.0000E+00  0.0000E+00
      3.601  0.6475E-04  0.8985E-03  0.8830E-02
      3.703  0.0000E+00  0.0000E+00  0.0000E+00
      3.806  0.1204E-02  0.1944E-02  0.6067E-02
      3.909  0.1209E-04  0.5266E-04  0.3492E-02
      4.012  0.1302E-03  0.5315E-02  0.1046E-01
      4.115  0.1470E-02  0.4426E-02  0.6039E-02
      4.218  0.6336E-03  0.1837E-02  0.3044E-02
      4.320  0.2361E-03  0.1107E-02  0.3103E-03
      4.423  0.0000E+00  0.0000E+00  0.0000E+00
      4.526  0.0000E+00  0.0000E+00  0.0000E+00
      4.629  0.0000E+00  0.0000E+00  0.0000E+00
      4.732  0.1437E-01  0.2528E-05  0.4757E-03
      4.835  0.0000E+00  0.0000E+00  0.0000E+00
      4.937  0.0000E+00  0.0000E+00  0.0000E+00
      5.040  0.1548E-04  0.3725E-03  0.2060E-01
      5.143  0.4016E-01  0.1286E-01  0.2720E-01
      5.246  0.5324E-03  0.7538E-02  0.7341E-02
      5.349  0.4950E-12  0.3163E-12  0.1732E-11
      5.452  0.2953E-01  0.2177E-01  0.2325E-01
      5.554  0.1216E-07  0.6335E-08  0.5823E-07
      5.657  0.3960E-02  0.2060E-02  0.2612E-01
      5.760  0.4734E-01  0.1384E-01  0.1633E-01
      5.863  0.8977E-05  0.9342E-05  0.4352E-01
      5.966  0.3623E-01  0.4460E-02  0.8096E-01
      6.069  0.1279E-02  0.1508E-02  0.1620E-02
      6.171  0.1673E-01  0.5143E-02  0.1390E+00
      6.274  0.6789E-01  0.2814E-01  0.3392E+00
      6.377  0.6604E-02  0.3504E-01  0.4945E+00
      6.480  0.9603E-01  0.3320E-01  0.3598E+00
      6.583  0.8064E-01  0.1468E-01  0.4613E+00
      6.686  0.3395E-01  0.4144E-01  0.5296E+00
      6.788  0.1338E-01  0.4556E-01  0.8807E+00
      6.891  0.3129E-02  0.6105E-01  0.7725E+00
      6.994  0.2066E-02  0.8910E-02  0.3736E-01
      7.097  0.2124E-01  0.1357E-01  0.3839E+00
      7.200  0.1535E-01  0.1873E-02  0.9195E-01
      7.303  0.0000E+00  0.0000E+00  0.0000E+00
      7.405  0.0000E+00  0.0000E+00  0.0000E+00
      7.508  0.0000E+00  0.0000E+00  0.0000E+00
      7.611  0.0000E+00  0.0000E+00  0.0000E+00
      7.714  0.0000E+00  0.0000E+00  0.0000E+00
      7.817  0.0000E+00  0.0000E+00  0.0000E+00
      7.920  0.0000E+00  0.0000E+00  0.0000E+00
      8.022  0.0000E+00  0.0000E+00  0.0000E+00
      8.125  0.0000E+00  0.0000E+00  0.0000E+00
      8.228  0.0000E+00  0.0000E+00  0.0000E+00
      8.331  0.0000E+00  0.0000E+00  0.0000E+00
      8.434  0.0000E+00  0.0000E+00  0.0000E+00
      8.537  0.0000E+00  0.0000E+00  0.0000E+00
      8.53658936    -22.31394410  301      0.64399455      1.00000000
    -22.314  0.0000E+00  0.0000E+00  0.0000E+00
    -22.211  0.0000E+00  0.0000E+00  0.0000E+00
    -22.108  0.0000E+00  0.0000E+00  0.0000E+00
    -22.005  0.0000E+00  0.0000E+00  0.0000E+00
    -21.903  0.0000E+00  0.0000E+00  0.0000E+00
    -21.800  0.0000E+00  0.0000E+00  0.0000E+00
    -21.697  0.0000E+00  0.0000E+00  0.0000E+00
    -21.594  0.0000E+00  0.0000E+00  0.0000E+00
    -21.491  0.0000E+00  0.0000E+00  0.0000E+00
    -21.388  0.0000E+00  0.0000E+00  0.0000E+00
    -21.286  0.0000E+00  0.0000E+00  0.0000E+00
    -21.183  0.0000E+00  0.0000E+00  0.0000E+00
    -21.080  0.0000E+00  0.0000E+00  0.0000E+00
    -20.977  0.0000E+00  0.0000E+00  0.0000E+00
    -20.874  0.1726E+02  0.1464E-05  0.2864E-05
    -20.771  0.0000E+00  0.0000E+00  0.0000E+00
    -20.669  0.0000E+00  0.0000E+00  0.0000E+00
    -20.566  0.0000E+00  0.0000E+00  0.0000E+00
    -20.463  0.0000E+00  0.0000E+00  0.0000E+00
    -20.360  0.0000E+00  0.0000E+00  0.0000E+00
    -20.257  0.0000E+00  0.0000E+00  0.0000E+00
    -20.154  0.0000E+00  0.0000E+00  0.0000E+00
    -20.052  0.0000E+00  0.0000E+00  0.0000E+00
    -19.949  0.0000E+00  0.0000E+00  0.0000E+00
    -19.846  0.0000E+00  0.0000E+00  0.0000E+00
    -19.743  0.0000E+00  0.0000E+00  0.0000E+00
    -19.640  0.0000E+00  0.0000E+00  0.0000E+00
    -19.537  0.0000E+00  0.0000E+00  0.0000E+00
    -19.435  0.0000E+00  0.0000E+00  0.0000E+00
    -19.332  0.0000E+00  0.0000E+00  0.0000E+00
    -19.229  0.0000E+00  0.0000E+00  0.0000E+00
    -19.126  0.0000E+00  0.0000E+00  0.0000E+00
    -19.023  0.0000E+00  0.0000E+00  0.0000E+00
    -18.920  0.0000E+00  0.0000E+00  0.0000E+00
    -18.818  0.0000E+00  0.0000E+00  0.0000E+00
    -18.715  0.0000E+00  0.0000E+00  0.0000E+00
    -18.612  0.0000E+00  0.0000E+00  0.0000E+00
    -18.509  0.0000E+00  0.0000E+00  0.0000E+00
    -18.406  0.0000E+00  0.0000E+00  0.0000E+00
    -18.303  0.0000E+00  0.0000E+00  0.0000E+00
    -18.201  0.0000E+00  0.0000E+00  0.0000E+00
    -18.098  0.0000E+00  0.0000E+00  0.0000E+00
    -17.995  0.0000E+00  0.0000E+00  0.0000E+00
    -17.892  0.0000E+00  0.0000E+00  0.0000E+00
    -17.789  0.0000E+00  0.0000E+00  0.0000E+00
    -17.686  0.0000E+00  0.0000E+00  0.0000E+00
    -17.584  0.0000E+00  0.0000E+00  0.0000E+00
    -17.481  0.0000E+00  0.0000E+00  0.0000E+00
    -17.378  0.0000E+00  0.0000E+00  0.0000E+00
    -17.275  0.0000E+00  0.0000E+00  0.0000E+00
    -17.172  0.0000E+00  0.0000E+00  0.0000E+00
    -17.069  0.0000E+00  0.0000E+00  0.0000E+00
    -16.967  0.0000E+00  0.0000E+00  0.0000E+00
    -16.864  0.0000E+00  0.0000E+00  0.0000E+00
    -16.761  0.0000E+00  0.0000E+00  0.0000E+00
    -16.658  0.0000E+00  0.0000E+00  0.0000E+00
    -16.555  0.0000E+00  0.0000E+00  0.0000E+00
    -16.452  0.1378E-08  0.6541E-09  0.1293E-09
    -16.350  0.1131E-03  0.9828E-04  0.1649E-04
    -16.247  0.2751E-04  0.1728E-04  0.1962E-05
    -16.144  0.0000E+00  0.0000E+00  0.0000E+00
    -16.041  0.0000E+00  0.0000E+00  0.0000E+00
    -15.938  0.0000E+00  0.0000E+00  0.0000E+00
    -15.835  0.0000E+00  0.0000E+00  0.0000E+00
    -15.732  0.0000E+00  0.0000E+00  0.0000E+00
    -15.630  0.0000E+00  0.0000E+00  0.0000E+00
    -15.527  0.0000E+00  0.0000E+00  0.0000E+00
    -15.424  0.0000E+00  0.0000E+00  0.0000E+00
    -15.321  0.0000E+00  0.0000E+00  0.0000E+00
    -15.218  0.0000E+00  0.0000E+00  0.0000E+00
    -15.115  0.0000E+00  0.0000E+00  0.0000E+00
    -15.013  0.0000E+00  0.0000E+00  0.0000E+00
    -14.910  0.0000E+00  0.0000E+00  0.0000E+00
    -14.807  0.0000E+00  0.0000E+00  0.0000E+00
    -14.704  0.0000E+00  0.0000E+00  0.0000E+00
    -14.601  0.0000E+00  0.0000E+00  0.0000E+00
    -14.498  0.0000E+00  0.0000E+00  0.0000E+00
    -14.396  0.2660E-10  0.2074E-13  0.5320E-13
    -14.293  0.6208E-03  0.8930E-04  0.3618E-05
    -14.190  0.1138E-02  0.1041E-02  0.2343E-04
    -14.087  0.7331E-03  0.5285E-02  0.2364E-03
    -13.984  0.1584E-02  0.3642E-02  0.2595E-03
    -13.881  0.1065E-02  0.4995E-02  0.4907E-03
    -13.779  0.1399E-02  0.2908E-02  0.4073E-03
    -13.676  0.3352E-03  0.6525E-03  0.7321E-04
    -13.573  0.0000E+00  0.0000E+00  0.0000E+00
    -13.470  0.0000E+00  0.0000E+00  0.0000E+00
    -13.367  0.0000E+00  0.0000E+00  0.0000E+00
    -13.264  0.0000E+00  0.0000E+00  0.0000E+00
    -13.162  0.0000E+00  0.0000E+00  0.0000E+00