PROCAR new format
# of k-points:   14         # of bands:   56         # of ions:   10

 k-point     1 :    0.00000000 0.00000000 0.00000000     weight = 0.03703704

band     1 # energy  -20.91164713 # occ.  2.00000000

ion      s      p      d    tot
    1  0.440  0.000  0.000  0.440
    2  0.447  0.000  0.000  0.447
    3  0.000  0.000  0.000  0.000
    4  0.000  0.000  0.000  0.000
    5  0.000  0.000  0.000  0.000
    6  0.000  0.000  0.000  0.000
    7  0.000  0.000  0.000  0.000
    8  0.000  0.000  0.000  0.000
    9  0.000  0.000  0.000  0.000
   10  0.000  0.000  0.000  0.000
tot    0.887  0.000  0.000  0.887

band     2 # energy  -20.90766281 # occ.  2.00000000

ion      s      p      d    tot
    1  0.448  0.000  0.000  0.448
    2  0.440  0.000  0.000  0.440
    3  0.000  0.000  0.000  0.000
    4  0.000  0.000  0.000  0.000
    5  0.000  0.000  0.000  0.000
    6  0.000  0.000  0.000  0.000
    7  0.000  0.000  0.000  0.000
    8  0.000  0.000  0.000  0.000
    9  0.000  0.000  0.000  0.000
   10  0.000  0.000  0.000  0.000
tot    0.888  0.000  0.000  0.888

band     3 # energy  -16.42624750 # occ.  2.00000000

ion      s      p      d    tot
    1  0.000  0.000  0.000  0.000
    2  0.000  0.000  0.000  0.000
    3  0.000  0.000  0.461  0.461
    4  0.000  0.000  0.459  0.459
    5  0.005  0.000  0.000  0.005
    6  0.005  0.000  0.000  0.005
    7  0.013  0.000  0.000  0.013
    8  0.013  0.000  0.000  0.013
    9  0.002  0.000  0.000  0.002
   10  0.002  0.000  0.000  0.002
tot    0.040  0.000  0.920  0.960

band     4 # energy  -16.42463389 # occ.  2.00000000

ion      s      p      d    tot
    1  0.000  0.000  0.000  0.000
    2  0.000  0.000  0.000  0.000
    3  0.000  0.000  0.460  0.460
    4  0.000  0.000  0.460  0.460
    5  0.008  0.000  0.000  0.008
    6  0.008  0.000  0.000  0.008
    7  0.000  0.000  0.000  0.000
    8  0.000  0.000  0.000  0.000
    9  0.011  0.000  0.000  0.012
   10  0.011  0.000  0.000  0.012
tot    0.039  0.000  0.921  0.960

band     5 # energy  -16.33025735 # occ.  2.00000000

ion      s      p      d    tot
    1  0.000  0.000  0.000  0.000
    2  0.000  0.000  0.000  0.000
    3  0.000  0.000  0.485  0.485
    4  0.000  0.000  0.487  0.487
    5  0.000  0.000  0.000  0.000
    6  0.000  0.000  0.000  0.000
    7  0.000  0.001  0.000  0.001
    8  0.000  0.001  0.000  0.001
    9  0.000  0.000  0.000  0.000
   10  0.000  0.000  0.000  0.000
tot    0.000  0.003  0.972  0.974

band     6 # energy  -16.32915268 # occ.  2.00000000

ion      s      p      d    tot
    1  0.000  0.000  0.000  0.000
    2  0.000  0.000  0.000  0.000
    3  0.000  0.000  0.486  0.486
    4  0.000  0.000  0.486  0.486
    5  0.000  0.000  0.000  0.000
    6  0.000  0.000  0.000  0.000
    7  0.000  0.000  0.000  0.000
    8  0.000  0.000  0.000  0.000
    9  0.000  0.001  0.000  0.001
   10  0.000  0.001  0.000  0.001
tot    0.000  0.003  0.972  0.974

band     7 # energy  -16.26649511 # occ.  2.00000000

ion      s      p      d    tot
    1  0.000  0.000  0.000  0.000
    2  0.000  0.000  0.000  0.000
    3  0.000  0.000  0.568  0.568
    4  0.000  0.000  0.409  0.409
    5  0.000  0.000  0.000  0.000
    6  0.000  0.000  0.000  0.000
    7  0.000  0.000  0.000  0.000
    8  0.000  0.000  0.000  0.000
    9  0.000  0.000  0.000  0.000
   10  0.000  0.000  0.000  0.000
tot    0.000  0.000  0.977  0.978

band     8 # energy  -16.26524940 # occ.  2.00000000

ion      s      p      d    tot
    1  0.000  0.000  0.000  0.000
    2  0.000  0.000  0.000  0.000
    3  0.000  0.000  0.409  0.409
    4  0.000  0.000  0.568  0.568
    5  0.000  0.000  0.000  0.000
    6  0.000  0.000  0.000  0.000
    7  0.000  0.000  0.000  0.000
    8  0.000  0.000  0.000  0.000
    9  0.000  0.000  0.000  0.000
   10  0.000  0.000  0.000  0.000
tot    0.000  0.000  0.978  0.978

band     9 # energy  -16.25084444 # occ.  2.00000000

ion      s      p      d    tot
    1  0.000  0.000  0.000  0.000
    2  0.000  0.000  0.000  0.000
    3  0.000  0.000  0.402  0.402
    4  0.000  0.000  0.576  0.576
    5  0.000  0.000  0.000  0.000
    6  0.000  0.000  0.000  0.000
    7  0.000  0.000  0.000  0.000
    8  0.000  0.000  0.000  0.000
    9  0.000  0.000  0.000  0.000
   10  0.000  0.000  0.000  0.000
tot    0.000  0.000  0.977  0.977

band    10 # energy  -16.24999221 # occ.  2.00000000

ion      s      p      d    tot
    1  0.000  0.000  0.000  0.000
    2  0.000  0.000  0.000  0.000
    3  0.000  0.000  0.597  0.597
    4  0.000  0.000  0.380  0.380
    5  0.000  0.000  0.000  0.000
    6  0.000  0.000  0.000  0.000
    7  0.000  0.000  0.000  0.000
    8  0.000  0.000  0.000  0.000
    9  0.000  0.000  0.000  0.000
   10  0.000  0.000  0.000  0.000
tot    0.000  0.000  0.977  0.977

band    11 # energy  -16.24942562 # occ.  2.00000000

ion      s      p      d    tot
    1  0.000  0.000  0.000  0.000
    2  0.000  0.000  0.000  0.000
    3  0.000  0.000  0.574  0.574
    4  0.000  0.000  0.404  0.404
    5  0.000  0.000  0.000  0.000
    6  0.000  0.000  0.000  0.000
    7  0.000  0.000  0.000  0.000
    8  0.000  0.000  0.000  0.000
    9  0.000  0.000  0.000  0.000
   10  0.000  0.000  0.000  0.000
tot    0.000  0.000  0.978  0.978

band    12 # energy  -16.24840850 # occ.  2.00000000

ion      s      p      d    tot
    1  0.000  0.000  0.000  0.000
    2  0.000  0.000  0.000  0.000
    3  0.000  0.000  0.383  0.383
    4  0.000  0.000  0.595  0.595
    5  0.000  0.000  0.000  0.000
    6  0.000  0.000  0.000  0.000
    7  0.000  0.000  0.000  0.000
    8  0.000  0.000  0.000  0.000
    9  0.000  0.000  0.000  0.000
   10  0.000  0.000  0.000  0.000
tot    0.000  0.000  0.978  0.978

band    13 # energy  -14.35818699 # occ.  2.00000000

ion      s      p      d    tot
    1  0.001  0.000  0.000  0.001
    2  0.001  0.000  0.000  0.001
    3  0.016  0.000  0.000  0.016
    4  0.016  0.000  0.000  0.016
    5  0.123  0.000  0.000  0.123
    6  0.123  0.000  0.000  0.123
    7  0.125  0.000  0.000  0.125
    8  0.125  0.000  0.000  0.125
    9  0.121  0.000  0.000  0.121
   10  0.121  0.000  0.000  0.121
tot    0.770  0.000  0.001  0.771

band    14 # energy  -14.03232696 # occ.  2.00000000

ion      s      p      d    tot
    1  0.000  0.000  0.000  0.000
    2  0.000  0.000  0.000  0.000
    3  0.000  0.002  0.000  0.002
    4  0.000  0.002  0.000  0.002
    5  0.103  0.000  0.000  0.103
    6  0.103  0.000  0.000  0.103
    7  0.274  0.000  0.000  0.274
    8  0.274  0.000  0.000  0.274
    9  0.019  0.000  0.000  0.019
   10  0.019  0.000  0.000  0.019
tot    0.793  0.005  0.000  0.797

band    15 # energy  -14.02093228 # occ.  2.00000000

ion      s      p      d    tot
    1  0.000  0.000  0.000  0.000
    2  0.000  0.000  0.000  0.000
    3  0.000  0.002  0.000  0.002
    4  0.000  0.002  0.000  0.002
    5  0.160  0.000  0.000  0.160
    6  0.160  0.000  0.000  0.160
    7  0.014  0.000  0.000  0.014
    8  0.014  0.000  0.000  0.014
    9  0.222  0.000  0.000  0.222
   10  0.222  0.000  0.000  0.222
tot    0.793  0.005  0.000  0.798

band    16 # energy  -13.96782930 # occ.  2.00000000

ion      s      p      d    tot
    1  0.000  0.000  0.000  0.000
    2  0.000  0.000  0.000  0.000
    3  0.000  0.002  0.000  0.002
    4  0.000  0.002  0.000  0.002
    5  0.134  0.000  0.000  0.134
    6  0.134  0.000  0.000  0.134
    7  0.109  0.000  0.000  0.109
    8  0.109  0.000  0.000  0.109
    9  0.156  0.000  0.000  0.156
   10  0.156  0.000  0.000  0.156
tot    0.798  0.004  0.000  0.802

band    17 # energy  -13.72456201 # occ.  2.00000000

ion      s      p      d    tot
    1  0.000  0.000  0.000  0.000
    2  0.000  0.000  0.000  0.000
    3  0.000  0.000  0.030  0.030
    4  0.000  0.000  0.030  0.030
    5  0.132  0.000  0.000  0.132
    6  0.132  0.000  0.000  0.132
    7  0.236  0.000  0.000  0.236
    8  0.236  0.000  0.000  0.236
    9  0.017  0.000  0.000  0.017
   10  0.017  0.000  0.000  0.017
tot    0.770  0.000  0.060  0.830

band    18 # energy  -13.72048681 # occ.  2.00000000

ion      s      p      d    tot
    1  0.000  0.000  0.000  0.000
    2  0.000  0.000  0.000  0.000
    3  0.000  0.000  0.030  0.030
    4  0.000  0.000  0.030  0.030
    5  0.125  0.000  0.000  0.125
    6  0.125  0.000  0.000  0.125
    7  0.018  0.000  0.000  0.018
    8  0.018  0.000  0.000  0.018
    9  0.242  0.000  0.000  0.242
   10  0.242  0.000  0.000  0.242
tot    0.770  0.001  0.059  0.830

band    19 # energy   -8.19271476 # occ.  2.00000000

ion      s      p      d    tot
    1  0.000  0.000  0.000  0.000
    2  0.000  0.000  0.000  0.000
    3  0.283  0.000  0.000  0.283
    4  0.283  0.000  0.000  0.283
    5  0.000  0.017  0.000  0.017
    6  0.000  0.017  0.000  0.017
    7  0.000  0.017  0.000  0.017
    8  0.000  0.017  0.000  0.017
    9  0.000  0.017  0.000  0.017
   10  0.000  0.017  0.000  0.017
tot    0.567  0.101  0.000  0.668

band    20 # energy   -7.33843190 # occ.  2.00000000

ion      s      p      d    tot
    1  0.000  0.381  0.000  0.381
    2  0.000  0.380  0.000  0.380
    3  0.000  0.000  0.000  0.000
    4  0.000  0.000  0.000  0.000
    5  0.000  0.001  0.000  0.001
    6  0.000  0.001  0.000  0.001
    7  0.000  0.001  0.000  0.001
    8  0.000  0.001  0.000  0.001
    9  0.000  0.000  0.000  0.000
   10  0.000  0.000  0.000  0.000
tot    0.000  0.766  0.000  0.767

band    21 # energy   -7.32002188 # occ.  2.00000000

ion      s      p      d    tot
    1  0.000  0.380  0.000  0.380
    2  0.000  0.379  0.000  0.379
    3  0.000  0.000  0.000  0.000
    4  0.000  0.000  0.000  0.000
    5  0.000  0.001  0.000  0.001
    6  0.000  0.001  0.000  0.001
    7  0.000  0.002  0.000  0.002
    8  0.000  0.002  0.000  0.002
    9  0.000  0.001  0.000  0.001
   10  0.000  0.001  0.000  0.001
tot    0.001  0.765  0.000  0.767

band    22 # energy   -7.30984000 # occ.  2.00000000

ion      s      p      d    tot
    1  0.000  0.380  0.000  0.380
    2  0.000  0.379  0.000  0.379
    3  0.000  0.000  0.000  0.000
    4  0.000  0.000  0.000  0.000
    5  0.000  0.001  0.000  0.002
    6  0.000  0.001  0.000  0.002
    7  0.000  0.000  0.000  0.000
    8  0.000  0.000  0.000  0.000
    9  0.001  0.001  0.000  0.002
   10  0.001  0.001  0.000  0.002
tot    0.002  0.765  0.000  0.767

band    23 # energy   -7.29907098 # occ.  2.00000000

ion      s      p      d    tot
    1  0.000  0.385  0.000  0.385
    2  0.000  0.386  0.000  0.386
    3  0.000  0.000  0.000  0.000
    4  0.000  0.000  0.000  0.000
    5  0.000  0.000  0.000  0.000
    6  0.000  0.000  0.000  0.000
    7  0.000  0.000  0.000  0.000
    8  0.000  0.000  0.000  0.000
    9  0.000  0.000  0.000  0.000
   10  0.000  0.000  0.000  0.000
tot    0.000  0.774  0.000  0.774

band    24 # energy   -7.28330535 # occ.  2.00000000

ion      s      p      d    tot
    1  0.000  0.383  0.000  0.383
    2  0.000  0.384  0.000  0.384
    3  0.000  0.000  0.000  0.000
    4  0.000  0.000  0.000  0.000
    5  0.000  0.000  0.000  0.000
    6  0.000  0.000  0.000  0.000
    7  0.000  0.001  0.000  0.001
    8  0.000  0.001  0.000  0.001
    9  0.000  0.001  0.000  0.001
   10  0.000  0.001  0.000  0.001
tot    0.001  0.772  0.000  0.773

band    25 # energy   -7.28268618 # occ.  2.00000000

ion      s      p      d    tot
    1  0.000  0.384  0.000  0.384
    2  0.000  0.385  0.000  0.385
    3  0.000  0.000  0.000  0.000
    4  0.000  0.000  0.000  0.000
    5  0.000  0.001  0.000  0.001
    6  0.000  0.001  0.000  0.001
    7  0.000  0.001  0.000  0.001
    8  0.000  0.001  0.000  0.001
    9  0.000  0.000  0.000  0.000
   10  0.000  0.000  0.000  0.000
tot    0.001  0.773  0.000  0.774

band    26 # energy   -6.46477697 # occ.  2.00000000

ion      s      p      d    tot
    1  0.000  0.000  0.000  0.000
    2  0.000  0.000  0.000  0.000
    3  0.355  0.000  0.000  0.355
    4  0.356  0.000  0.000  0.356
    5  0.012  0.001  0.001  0.014
    6  0.012  0.001  0.001  0.014
    7  0.012  0.001  0.001  0.014
    8  0.012  0.001  0.001  0.014
    9  0.012  0.001  0.001  0.014
   10  0.012  0.001  0.001  0.014
tot    0.784  0.007  0.006  0.796

band    27 # energy   -3.38669457 # occ.  2.00000000

ion      s      p      d    tot
    1  0.000  0.004  0.000  0.004
    2  0.000  0.004  0.000  0.004
    3  0.000  0.047  0.000  0.047
    4  0.000  0.047  0.000  0.047
    5  0.000  0.067  0.000  0.067
    6  0.000  0.067  0.000  0.067
    7  0.000  0.122  0.000  0.122
    8  0.000  0.122  0.000  0.122
    9  0.000  0.023  0.000  0.023
   10  0.000  0.023  0.000  0.023
tot    0.000  0.527  0.000  0.527

band    28 # energy   -3.36035392 # occ.  2.00000000

ion      s      p      d    tot
    1  0.000  0.004  0.000  0.004
    2  0.000  0.004  0.000  0.004
    3  0.000  0.047  0.000  0.047
    4  0.000  0.047  0.000  0.047
    5  0.000  0.073  0.000  0.074
    6  0.000  0.073  0.000  0.074
    7  0.000  0.022  0.000  0.022
    8  0.000  0.022  0.000  0.022
    9  0.000  0.117  0.000  0.117
   10  0.000  0.117  0.000  0.117
tot    0.000  0.527  0.000  0.527

band    29 # energy   -3.17791705 # occ.  2.00000000

ion      s      p      d    tot
    1  0.000  0.004  0.000  0.004
    2  0.000  0.004  0.000  0.004
    3  0.000  0.046  0.000  0.046
    4  0.000  0.046  0.000  0.046
    5  0.000  0.073  0.000  0.073
    6  0.000  0.073  0.000  0.073
    7  0.000  0.069  0.000  0.070
    8  0.000  0.069  0.000  0.070
    9  0.000  0.073  0.000  0.073
   10  0.000  0.073  0.000  0.073
tot    0.000  0.531  0.000  0.532

band    30 # energy   -1.92322289 # occ.  2.00000000

ion      s      p      d    tot
    1  0.000  0.016  0.000  0.016
    2  0.000  0.016  0.000  0.016
    3  0.000  0.000  0.003  0.003
    4  0.000  0.000  0.003  0.003
    5  0.000  0.076  0.000  0.076
    6  0.000  0.076  0.000  0.076
    7  0.000  0.062  0.000  0.062
    8  0.000  0.062  0.000  0.062
    9  0.000  0.117  0.000  0.117
   10  0.000  0.117  0.000  0.117
tot    0.000  0.542  0.006  0.548

band    31 # energy   -1.92211644 # occ.  2.00000000

ion      s      p      d    tot
    1  0.000  0.016  0.000  0.016
    2  0.000  0.016  0.000  0.016
    3  0.000  0.000  0.003  0.003
    4  0.000  0.000  0.003  0.003
    5  0.000  0.094  0.000  0.094
    6  0.000  0.094  0.000  0.094
    7  0.000  0.115  0.000  0.115
    8  0.000  0.115  0.000  0.115
    9  0.000  0.047  0.000  0.047
   10  0.000  0.047  0.000  0.047
tot    0.000  0.543  0.006  0.549

band    32 # energy   -1.89223828 # occ.  2.00000000

ion      s      p      d    tot
    1  0.000  0.014  0.000  0.014
    2  0.000  0.014  0.000  0.014
    3  0.000  0.000  0.002  0.002
    4  0.000  0.000  0.002  0.002
    5  0.000  0.087  0.000  0.087
    6  0.000  0.087  0.000  0.087
    7  0.000  0.081  0.000  0.081
    8  0.000  0.081  0.000  0.081
    9  0.000  0.090  0.000  0.090
   10  0.000  0.090  0.000  0.090
tot    0.000  0.543  0.005  0.548

band    33 # energy   -1.55044091 # occ.  2.00000000

ion      s      p      d    tot
    1  0.001  0.000  0.000  0.001
    2  0.001  0.000  0.000  0.001
    3  0.000  0.006  0.000  0.006
    4  0.000  0.006  0.000  0.006
    5  0.000  0.093  0.000  0.093
    6  0.000  0.093  0.000  0.093
    7  0.000  0.095  0.000  0.095
    8  0.000  0.095  0.000  0.095
    9  0.000  0.092  0.000  0.093
   10  0.000  0.092  0.000  0.093
tot    0.003  0.572  0.001  0.576

band    34 # energy   -1.43856338 # occ.  2.00000000

ion      s      p      d    tot
    1  0.000  0.000  0.000  0.000
    2  0.000  0.000  0.000  0.000
    3  0.000  0.000  0.013  0.013
    4  0.000  0.000  0.013  0.013
    5  0.000  0.081  0.000  0.081
    6  0.000  0.081  0.000  0.081
    7  0.000  0.028  0.000  0.028
    8  0.000  0.028  0.000  0.028
    9  0.000  0.199  0.000  0.199
   10  0.000  0.199  0.000  0.199
tot    0.000  0.615  0.026  0.641

band    35 # energy   -1.43771613 # occ.  2.00000000

ion      s      p      d    tot
    1  0.000  0.000  0.000  0.000
    2  0.000  0.000  0.000  0.000
    3  0.000  0.000  0.013  0.013
    4  0.000  0.000  0.013  0.013
    5  0.000  0.124  0.000  0.124
    6  0.000  0.124  0.000  0.124
    7  0.000  0.178  0.000  0.178
    8  0.000  0.178  0.000  0.178
    9  0.000  0.006  0.000  0.006
   10  0.000  0.006  0.000  0.006
tot    0.000  0.616  0.026  0.642

band    36 # energy   -1.29791989 # occ.  2.00000000

ion      s      p      d    tot
    1  0.000  0.002  0.000  0.002
    2  0.000  0.002  0.000  0.002
    3  0.000  0.001  0.000  0.001
    4  0.000  0.001  0.000  0.001
    5  0.000  0.096  0.000  0.096
    6  0.000  0.096  0.000  0.096
    7  0.000  0.188  0.000  0.188
    8  0.000  0.188  0.000  0.188
    9  0.000  0.013  0.000  0.013
   10  0.000  0.013  0.000  0.013
tot    0.000  0.598  0.000  0.598

band    37 # energy   -1.26680055 # occ.  2.00000000

ion      s      p      d    tot
    1  0.000  0.002  0.000  0.002
    2  0.000  0.002  0.000  0.002
    3  0.000  0.001  0.000  0.001
    4  0.000  0.001  0.000  0.001
    5  0.000  0.103  0.000  0.103
    6  0.000  0.103  0.000  0.103
    7  0.000  0.014  0.000  0.014
    8  0.000  0.014  0.000  0.014
    9  0.000  0.181  0.000  0.181
   10  0.000  0.181  0.000  0.181
tot    0.000  0.601  0.000  0.601

band    38 # energy   -1.18115413 # occ.  2.00000000

ion      s      p      d    tot
    1  0.000  0.005  0.000  0.006
    2  0.000  0.005  0.000  0.006
    3  0.000  0.005  0.000  0.005
    4  0.000  0.005  0.000  0.005
    5  0.000  0.090  0.000  0.090
    6  0.000  0.090  0.000  0.090
    7  0.000  0.040  0.000  0.040
    8  0.000  0.040  0.000  0.040
    9  0.000  0.169  0.000  0.169
   10  0.000  0.169  0.000  0.169
tot    0.000  0.618  0.001  0.620

band    39 # energy   -1.17255357 # occ.  2.00000000

ion      s      p      d    tot
    1  0.000  0.005  0.000  0.005
    2  0.000  0.005  0.000  0.005
    3  0.000  0.004  0.000  0.004
    4  0.000  0.004  0.000  0.004
    5  0.000  0.110  0.000  0.110
    6  0.000  0.110  0.000  0.110
    7  0.000  0.158  0.000  0.158
    8  0.000  0.158  0.000  0.158
    9  0.000  0.032  0.000  0.032
   10  0.000  0.032  0.000  0.032
tot    0.000  0.617  0.001  0.619

band    40 # energy   -1.03786349 # occ.  2.00000000

ion      s      p      d    tot
    1  0.000  0.004  0.000  0.004
    2  0.000  0.004  0.000  0.004
    3  0.000  0.002  0.000  0.002
    4  0.000  0.002  0.000  0.002
    5  0.000  0.102  0.000  0.102
    6  0.000  0.102  0.000  0.102
    7  0.000  0.099  0.000  0.099
    8  0.000  0.099  0.000  0.099
    9  0.000  0.108  0.000  0.108
   10  0.000  0.108  0.000  0.108
tot    0.000  0.629  0.000  0.629

band    41 # energy   -0.91340524 # occ.  2.00000000

ion      s      p      d    tot
    1  0.000  0.000  0.001  0.001
    2  0.000  0.000  0.001  0.001
    3  0.000  0.000  0.001  0.001
    4  0.000  0.000  0.001  0.001
    5  0.000  0.107  0.000  0.107
    6  0.000  0.107  0.000  0.107
    7  0.000  0.064  0.000  0.064
    8  0.000  0.064  0.000  0.064
    9  0.000  0.141  0.000  0.141
   10  0.000  0.141  0.000  0.141
tot    0.000  0.625  0.003  0.628

band    42 # energy   -0.89904631 # occ.  2.00000000

ion      s      p      d    tot
    1  0.000  0.000  0.001  0.001
    2  0.000  0.000  0.001  0.001
    3  0.000  0.000  0.001  0.001
    4  0.000  0.000  0.001  0.001
    5  0.000  0.103  0.000  0.103
    6  0.000  0.103  0.000  0.103
    7  0.000  0.145  0.000  0.145
    8  0.000  0.145  0.000  0.145
    9  0.000  0.065  0.000  0.065
   10  0.000  0.065  0.000  0.065
tot    0.000  0.628  0.003  0.631

band    43 # energy   -0.85525963 # occ.  2.00000000

ion      s      p      d    tot
    1  0.001  0.000  0.001  0.001
    2  0.001  0.000  0.001  0.001
    3  0.007  0.000  0.000  0.007
    4  0.007  0.000  0.000  0.007
    5  0.000  0.101  0.000  0.101
    6  0.000  0.101  0.000  0.101
    7  0.000  0.101  0.000  0.102
    8  0.000  0.101  0.000  0.102
    9  0.000  0.107  0.000  0.107
   10  0.000  0.107  0.000  0.107
tot    0.017  0.619  0.002  0.637

band    44 # energy    0.56352481 # occ.  2.00000000

ion      s      p      d    tot
    1  0.000  0.000  0.000  0.000
    2  0.000  0.000  0.000  0.000
    3  0.129  0.000  0.000  0.129
    4  0.129  0.000  0.000  0.129
    5  0.000  0.086  0.000  0.086
    6  0.000  0.086  0.000  0.086
    7  0.000  0.086  0.000  0.086
    8  0.000  0.086  0.000  0.086
    9  0.000  0.087  0.000  0.087
   10  0.000  0.087  0.000  0.087
tot    0.259  0.519  0.001  0.779

band    45 # energy    2.72947376 # occ.  0.00000000

ion      s      p      d    tot
    1  0.000  0.000  0.003  0.003
    2  0.000  0.000  0.003  0.003
    3  0.000  0.175  0.000  0.175
    4  0.000  0.175  0.000  0.175
    5  0.006  0.004  0.004  0.014
    6  0.006  0.004  0.004  0.014
    7  0.009  0.005  0.005  0.019
    8  0.009  0.005  0.005  0.019
    9  0.006  0.003  0.004  0.013
   10  0.006  0.003  0.004  0.013
tot    0.043  0.374  0.030  0.447

band    46 # energy    2.81614678 # occ.  0.00000000

ion      s      p      d    tot
    1  0.000  0.000  0.001  0.001
    2  0.000  0.000  0.001  0.001
    3  0.000  0.188  0.000  0.188
    4  0.000  0.188  0.000  0.188
    5  0.009  0.002  0.005  0.017
    6  0.009  0.002  0.005  0.017
    7  0.013  0.002  0.006  0.020
    8  0.013  0.002  0.006  0.020
    9  0.001  0.001  0.003  0.006
   10  0.001  0.001  0.003  0.006
tot    0.047  0.386  0.032  0.465

band    47 # energy    2.84826890 # occ.  0.00000000

ion      s      p      d    tot
    1  0.000  0.000  0.001  0.001
    2  0.000  0.000  0.001  0.001
    3  0.000  0.186  0.000  0.186
    4  0.000  0.187  0.000  0.187
    5  0.007  0.002  0.005  0.014
    6  0.007  0.002  0.005  0.014
    7  0.001  0.001  0.003  0.006
    8  0.001  0.001  0.003  0.006
    9  0.015  0.004  0.007  0.026
   10  0.015  0.004  0.007  0.026
tot    0.046  0.388  0.032  0.466

band    48 # energy    4.72300819 # occ.  0.00000000

ion      s      p      d    tot
    1  0.022  0.000  0.001  0.023
    2  0.022  0.000  0.001  0.023
    3  0.004  0.000  0.000  0.004
    4  0.004  0.000  0.000  0.004
    5  0.010  0.000  0.002  0.012
    6  0.010  0.000  0.002  0.012
    7  0.010  0.000  0.002  0.012
    8  0.010  0.000  0.002  0.012
    9  0.009  0.001  0.002  0.011
   10  0.009  0.001  0.002  0.011
tot    0.111  0.003  0.013  0.126

band    49 # energy    5.79943256 # occ.  0.00000000

ion      s      p      d    tot
    1  0.000  0.000  0.060  0.060
    2  0.000  0.000  0.060  0.060
    3  0.000  0.000  0.000  0.000
    4  0.000  0.000  0.000  0.000
    5  0.002  0.003  0.004  0.009
    6  0.002  0.003  0.004  0.009
    7  0.000  0.005  0.007  0.013
    8  0.000  0.005  0.007  0.013
    9  0.005  0.001  0.002  0.008
   10  0.005  0.001  0.002  0.008
tot    0.015  0.018  0.148  0.180

band    50 # energy    5.91493450 # occ.  0.00000000

ion      s      p      d    tot
    1  0.000  0.000  0.060  0.060
    2  0.000  0.000  0.060  0.060
    3  0.000  0.000  0.000  0.000
    4  0.000  0.000  0.000  0.000
    5  0.003  0.004  0.005  0.012
    6  0.003  0.004  0.005  0.012
    7  0.004  0.000  0.001  0.006
    8  0.004  0.000  0.001  0.006
    9  0.001  0.007  0.007  0.015
   10  0.001  0.007  0.007  0.015
tot    0.016  0.022  0.148  0.187

band    51 # energy    6.19275118 # occ.  0.00000000

ion      s      p      d    tot
    1  0.000  0.000  0.000  0.000
    2  0.000  0.000  0.000  0.000
    3  0.000  0.189  0.000  0.189
    4  0.000  0.190  0.000  0.190
    5  0.000  0.042  0.002  0.043
    6  0.000  0.042  0.002  0.043
    7  0.000  0.040  0.002  0.042
    8  0.000  0.040  0.002  0.042
    9  0.000  0.040  0.002  0.042
   10  0.000  0.040  0.002  0.042
tot    0.000  0.624  0.011  0.635

band    52 # energy    6.49427756 # occ.  0.00000000

ion      s      p      d    tot
    1  0.032  0.000  0.000  0.032
    2  0.032  0.000  0.000  0.032
    3  0.000  0.000  0.000  0.000
    4  0.000  0.000  0.000  0.000
    5  0.000  0.002  0.008  0.009
    6  0.000  0.002  0.008  0.009
    7  0.000  0.001  0.008  0.009
    8  0.000  0.001  0.008  0.009
    9  0.000  0.002  0.008  0.010
   10  0.000  0.002  0.008  0.010
tot    0.063  0.010  0.047  0.120

band    53 # energy    6.53840973 # occ.  0.00000000

ion      s      p      d    tot
    1  0.000  0.002  0.064  0.066
    2  0.000  0.002  0.066  0.067
    3  0.000  0.000  0.008  0.008
    4  0.000  0.000  0.008  0.008
    5  0.000  0.002  0.008  0.010
    6  0.000  0.002  0.008  0.010
    7  0.000  0.001  0.009  0.010
    8  0.000  0.001  0.009  0.010
    9  0.000  0.002  0.008  0.010
   10  0.000  0.002  0.008  0.010
tot    0.001  0.013  0.194  0.209

band    54 # energy    6.55296155 # occ.  0.00000000

ion      s      p      d    tot
    1  0.000  0.002  0.064  0.066
    2  0.000  0.002  0.064  0.066
    3  0.000  0.000  0.008  0.008
    4  0.000  0.000  0.008  0.008
    5  0.000  0.001  0.009  0.010
    6  0.000  0.001  0.009  0.010
    7  0.000  0.004  0.008  0.011
    8  0.000  0.004  0.008  0.011
    9  0.000  0.001  0.009  0.009
   10  0.000  0.001  0.009  0.009
tot    0.001  0.013  0.195  0.208

band    55 # energy    6.67140813 # occ.  0.00000000

ion      s      p      d    tot
    1  0.000  0.000  0.047  0.047
    2  0.000  0.000  0.052  0.052
    3  0.000  0.067  0.002  0.069
    4  0.000  0.060  0.002  0.061
    5  0.002  0.017  0.006  0.025
    6  0.001  0.018  0.004  0.023
    7  0.002  0.013  0.005  0.019
    8  0.002  0.011  0.005  0.018
    9  0.000  0.034  0.002  0.036
   10  0.001  0.034  0.003  0.038
tot    0.007  0.254  0.128  0.389

band    56 # energy    6.67942350 # occ.  0.00000000

ion      s      p      d    tot
    1  0.000  0.000  0.072  0.073
    2  0.000  0.000  0.058  0.058
    3  0.000  0.015  0.008  0.022
    4  0.000  0.012  0.007  0.020
    5  0.000  0.005  0.005  0.011
    6  0.001  0.004  0.009  0.014
    7  0.000  0.006  0.007  0.013
    8  0.000  0.007  0.008  0.015
    9  0.001  0.006  0.008  0.015
   10  0.000  0.007  0.005  0.012
tot    0.004  0.063  0.187  0.253


 k-point     2 :    0.33333333 0.00000000 0.00000000     weight = 0.07407407

band     1 # energy  -20.91027557 # occ.  2.00000000

ion      s      p      d    tot
    1  0.436  0.000  0.000  0.436
    2  0.452  0.000  0.000  0.452
    3  0.000  0.000  0.000  0.000
    4  0.000  0.000  0.000  0.000
    5  0.000  0.000  0.000  0.000
    6  0.000  0.000  0.000  0.000
    7  0.000  0.000  0.000  0.000
    8  0.000  0.000  0.000  0.000
    9  0.000  0.000  0.000  0.000
   10  0.000  0.000  0.000  0.000
tot    0.888  0.000  0.000  0.888

band     2 # energy  -20.90848576 # occ.  2.00000000

ion      s      p      d    tot
    1  0.452  0.000  0.000  0.452
    2  0.436  0.000  0.000  0.436
    3  0.000  0.000  0.000  0.000
    4  0.000  0.000  0.000  0.000
    5  0.000  0.000  0.000  0.000
    6  0.000  0.000  0.000  0.000
    7  0.000  0.000  0.000  0.000
    8  0.000  0.000  0.000  0.000
    9  0.000  0.000  0.000  0.000
   10  0.000  0.000  0.000  0.000
tot    0.888  0.000  0.000  0.888

band     3 # energy  -16.40362706 # occ.  2.00000000

ion      s      p      d    tot
    1  0.000  0.000  0.000  0.000
    2  0.000  0.000  0.000  0.000
    3  0.000  0.000  0.467  0.467
    4  0.000  0.000  0.464  0.464
    5  0.004  0.000  0.000  0.004
    6  0.004  0.000  0.000  0.004
    7  0.010  0.000  0.000  0.011
    8  0.010  0.000  0.000  0.011
    9  0.001  0.000  0.000  0.001
   10  0.001  0.000  0.000  0.001
tot    0.031  0.001  0.931  0.963

band     4 # energy  -16.40203269 # occ.  2.00000000

ion      s      p      d    tot
    1  0.000  0.000  0.000  0.000
    2  0.000  0.000  0.000  0.000
    3  0.000  0.000  0.466  0.466
    4  0.000  0.000  0.465  0.465
    5  0.006  0.000  0.000  0.007
    6  0.006  0.000  0.000  0.007
    7  0.000  0.000  0.000  0.000
    8  0.000  0.000  0.000  0.000
    9  0.009  0.000  0.000  0.009
   10  0.009  0.000  0.000  0.009
tot    0.031  0.001  0.932  0.963

band     5 # energy  -16.35582390 # occ.  2.00000000

ion      s      p      d    tot
    1  0.000  0.000  0.000  0.000
    2  0.000  0.000  0.000  0.000
    3  0.000  0.000  0.476  0.476
    4  0.000  0.000  0.480  0.480
    5  0.002  0.000  0.000  0.002
    6  0.002  0.000  0.000  0.002
    7  0.004  0.001  0.000  0.004
    8  0.004  0.001  0.000  0.004
    9  0.000  0.000  0.000  0.000
   10  0.000  0.000  0.000  0.000
tot    0.012  0.002  0.957  0.970

band     6 # energy  -16.35455811 # occ.  2.00000000

ion      s      p      d    tot
    1  0.000  0.000  0.000  0.000
    2  0.000  0.000  0.000  0.000
    3  0.000  0.000  0.478  0.478
    4  0.000  0.000  0.478  0.478
    5  0.002  0.000  0.000  0.003
    6  0.002  0.000  0.000  0.003
    7  0.000  0.000  0.000  0.000
    8  0.000  0.000  0.000  0.000
    9  0.003  0.001  0.000  0.004
   10  0.003  0.001  0.000  0.004
tot    0.011  0.002  0.957  0.970

band     7 # energy  -16.26606791 # occ.  2.00000000

ion      s      p      d    tot
    1  0.000  0.000  0.000  0.000
    2  0.000  0.000  0.000  0.000
    3  0.000  0.000  0.618  0.618
    4  0.000  0.000  0.359  0.359
    5  0.000  0.000  0.000  0.000
    6  0.000  0.000  0.000  0.000
    7  0.000  0.000  0.000  0.000
    8  0.000  0.000  0.000  0.000
    9  0.000  0.000  0.000  0.000
   10  0.000  0.000  0.000  0.000
tot    0.000  0.000  0.977  0.978

band     8 # energy  -16.26530600 # occ.  2.00000000

ion      s      p      d    tot
    1  0.000  0.000  0.000  0.000
    2  0.000  0.000  0.000  0.000
    3  0.000  0.000  0.359  0.359
    4  0.000  0.000  0.618  0.618
    5  0.000  0.000  0.000  0.000
    6  0.000  0.000  0.000  0.000
    7  0.000  0.000  0.000  0.000
    8  0.000  0.000  0.000  0.000
    9  0.000  0.000  0.000  0.000
   10  0.000  0.000  0.000  0.000
tot    0.000  0.000  0.977  0.978

band     9 # energy  -16.25053012 # occ.  2.00000000

ion      s      p      d    tot
    1  0.000  0.000  0.000  0.000
    2  0.000  0.000  0.000  0.000
    3  0.000  0.000  0.366  0.366
    4  0.000  0.000  0.611  0.611