<?xml version="1.0" encoding="ISO-8859-1"?>
<modeling>
 <generator>
  <i name="program" type="string">vasp </i>
  <i name="version" type="string">5.4.4.18Apr17-6-g9f103f2a35  </i>
  <i name="subversion" type="string">(build Jun 22 2020 09:27:21) complex            parallel </i>
  <i name="platform" type="string">tx2_gcc-7.3_libsci-18.07_cray-fftw-3.3.8 </i>
  <i name="date" type="string">2021 09 20 </i>
  <i name="time" type="string">15:16:00 </i>
 </generator>
 <incar>
  <i type="string" name="SYSTEM"> CsPbBr3 cubic bulk</i>
  <i type="string" name="PREC">accurate</i>
  <i type="string" name="ALGO"> NORMAL   ! Electronic minimisation algo</i>
  <i type="logical" name="ADDGRID"> T  </i>
  <i type="int" name="NELM">   200</i>
  <i type="int" name="IBRION">     2</i>
  <i name="EDIFF">      0.00000100</i>
  <i name="EDIFFG">     -0.01000000</i>
  <i type="int" name="NSW">     0</i>
  <i type="int" name="ISIF">     3</i>
  <i type="int" name="ISYM">     2</i>
  <i name="ENCUT">    300.00000000</i>
  <i name="POTIM">      0.50000000</i>
  <i type="string" name="LREAL"> AUTO</i>
  <i type="int" name="ISMEAR">     0</i>
  <i name="SIGMA">      0.01000000</i>
  <i type="logical" name="LWAVE"> F  </i>
  <i type="logical" name="LCHARG"> F  </i>
  <i type="logical" name="LVHAR"> T  </i>
  <i type="int" name="LORBIT">    10</i>
  <i type="logical" name="LASPH"> T  </i>
  <v type="int" name="KPOINT_BSE">    -1     0     0     0</v>
  <i type="int" name="NELM">   200</i>
  <i type="string" name="METAGGA"> SCAN       ! PBE exchange-correlation</i>
  <i type="logical" name="LASPH"> T  </i>
 </incar>
 <structure name="primitive_cell" >
  <crystal>
   <varray name="basis" >
    <v>       5.77386941       5.78541730      -0.17143644 </v>
    <v>       5.94730118       0.00246264      -5.96808111 </v>
    <v>       0.00235933       5.95718888      -5.96815658 </v>
   </varray>
   <i name="volume">    404.38818080 </i>
   <varray name="rec_basis" >
    <v>       0.08788162       0.08773833       0.08761184 </v>
    <v>       0.08285850      -0.08521256      -0.08502321 </v>
    <v>      -0.08538187       0.08269118      -0.08505046 </v>
   </varray>
  </crystal>
  <varray name="positions" >
   <v>      -0.25006533      -0.24829795      -0.25319943 </v>
   <v>      -0.25548657      -0.24485200       0.18212734 </v>
   <v>      -0.23889355       0.31391608      -0.26041336 </v>
   <v>      -0.25530259       0.19035508       0.30997190 </v>
   <v>       0.23889355      -0.31391608       0.26041336 </v>
   <v>       0.25530259      -0.19035508      -0.30997190 </v>
   <v>       0.25548657       0.24485200      -0.18212734 </v>
   <v>       0.00000000       0.00000000       0.00000000 </v>
   <v>      -0.50000000      -0.50000000      -0.50000000 </v>
   <v>       0.25006533       0.24829795       0.25319943 </v>
  </varray>
 </structure>
 <varray name="primitive_index" >
  <v type="int" >        1 </v>
  <v type="int" >       10 </v>
  <v type="int" >        6 </v>
  <v type="int" >        8 </v>
  <v type="int" >        5 </v>
  <v type="int" >        7 </v>
  <v type="int" >        9 </v>
  <v type="int" >        3 </v>
  <v type="int" >        4 </v>
  <v type="int" >        2 </v>
 </varray>
 <kpoints>
  <generation param="Gamma">
   <v type="int" name="divisions">       3        3        3 </v>
   <v name="usershift">      0.00000000       0.00000000       0.00000000 </v>
   <v name="genvec1">      0.33333333      -0.00000000      -0.00000000 </v>
   <v name="genvec2">      0.00000000       0.33333333       0.00000000 </v>
   <v name="genvec3">      0.00000000       0.00000000       0.33333333 </v>
   <v name="shift">      0.00000000       0.00000000       0.00000000 </v>
  </generation>
  <varray name="kpointlist" >
   <v>       0.00000000       0.00000000       0.00000000 </v>
   <v>       0.33333333       0.00000000       0.00000000 </v>
   <v>       0.00000000       0.33333333       0.00000000 </v>
   <v>       0.33333333       0.33333333       0.00000000 </v>
   <v>      -0.33333333       0.33333333       0.00000000 </v>
   <v>       0.00000000       0.00000000       0.33333333 </v>
   <v>       0.33333333       0.00000000       0.33333333 </v>
   <v>      -0.33333333       0.00000000       0.33333333 </v>
   <v>       0.00000000       0.33333333       0.33333333 </v>
   <v>       0.33333333       0.33333333       0.33333333 </v>
   <v>      -0.33333333       0.33333333       0.33333333 </v>
   <v>       0.00000000      -0.33333333       0.33333333 </v>
   <v>       0.33333333      -0.33333333       0.33333333 </v>
   <v>      -0.33333333      -0.33333333       0.33333333 </v>
  </varray>
  <varray name="weights" >
   <v>       0.03703704 </v>
   <v>       0.07407407 </v>
   <v>       0.07407407 </v>
   <v>       0.07407407 </v>
   <v>       0.07407407 </v>
   <v>       0.07407407 </v>
   <v>       0.07407407 </v>
   <v>       0.07407407 </v>
   <v>       0.07407407 </v>
   <v>       0.07407407 </v>
   <v>       0.07407407 </v>
   <v>       0.07407407 </v>
   <v>       0.07407407 </v>
   <v>       0.07407407 </v>
  </varray>
 </kpoints>
 <parameters>
  <separator name="general" >
   <i type="string" name="SYSTEM">CsPbBr3 cubic bulk</i>
   <i type="logical" name="LCOMPAT"> F  </i>
  </separator>
  <separator name="electronic" >
   <i type="string" name="PREC">accura</i>
   <i name="ENMAX">    300.00000000</i>
   <i name="ENAUG">    503.85200000</i>
   <i name="EDIFF">      0.00000100</i>
   <i type="int" name="IALGO">    38</i>
   <i type="int" name="IWAVPR">    10</i>
   <i type="int" name="NBANDS">    56</i>
   <i name="NELECT">     88.00000000</i>
   <i type="int" name="TURBO">     0</i>
   <i type="int" name="IRESTART">     0</i>
   <i type="int" name="NREBOOT">     0</i>
   <i type="int" name="NMIN">     0</i>
   <i name="EREF">      0.00000000</i>
   <separator name="electronic smearing" >
    <i type="int" name="ISMEAR">     0</i>
    <i name="SIGMA">      0.01000000</i>
    <i name="KSPACING">      0.50000000</i>
    <i type="logical" name="KGAMMA"> T  </i>
   </separator>
   <separator name="electronic projectors" >
    <i type="logical" name="LREAL"> T  </i>
    <v name="ROPT">     -0.00025000     -0.00025000     -0.00025000</v>
    <i type="int" name="LMAXPAW">  -100</i>
    <i type="int" name="LMAXMIX">     2</i>
    <i type="logical" name="NLSPLINE"> F  </i>
   </separator>
   <separator name="electronic startup" >
    <i type="int" name="ISTART">     0</i>
    <i type="int" name="ICHARG">     2</i>
    <i type="int" name="INIWAV">     1</i>
   </separator>
   <separator name="electronic spin" >
    <i type="int" name="ISPIN">     1</i>
    <i type="logical" name="LNONCOLLINEAR"> F  </i>
    <v name="MAGMOM">      1.00000000      1.00000000      1.00000000      1.00000000      1.00000000      1.00000000      1.00000000      1.00000000      1.00000000      1.00000000</v>
    <i name="NUPDOWN">     -1.00000000</i>
    <i type="logical" name="LSORBIT"> F  </i>
    <v name="SAXIS">      0.00000000      0.00000000      1.00000000</v>
    <i type="logical" name="LSPIRAL"> F  </i>
    <v name="QSPIRAL">      0.00000000      0.00000000      0.00000000</v>
    <i type="logical" name="LZEROZ"> F  </i>
   </separator>
   <separator name="electronic exchange-correlation" >
    <i type="logical" name="LASPH"> T  </i>
    <i type="logical" name="LMETAGGA"> F  </i>
   </separator>
   <separator name="electronic convergence" >
    <i type="int" name="NELM">   200</i>
    <i type="int" name="NELMDL">     0</i>
    <i type="int" name="NELMIN">     2</i>
    <i name="ENINI">    300.00000000</i>
    <separator name="electronic convergence detail" >
     <i type="logical" name="LDIAG"> T  </i>
     <i type="logical" name="LSUBROT"> F  </i>
     <i name="WEIMIN">      0.00000000</i>
     <i name="EBREAK">      0.00000000</i>
     <i name="DEPER">      0.30000000</i>
     <i type="int" name="NRMM">     4</i>
     <i name="TIME">      0.40000000</i>
    </separator>
   </separator>
   <separator name="electronic mixer" >
    <i name="AMIX">      0.40000000</i>
    <i name="BMIX">      1.00000000</i>
    <i name="AMIN">      0.10000000</i>
    <i name="AMIX_MAG">      1.60000000</i>
    <i name="BMIX_MAG">      1.00000000</i>
    <separator name="electronic mixer details" >
     <i type="int" name="IMIX">     4</i>
     <i type="logical" name="MIXFIRST"> F  </i>
     <i type="int" name="MAXMIX">   -45</i>
     <i name="WC">    100.00000000</i>
     <i type="int" name="INIMIX">     1</i>
     <i type="int" name="MIXPRE">     1</i>
     <i type="int" name="MREMOVE">     5</i>
    </separator>
   </separator>
   <separator name="electronic dipolcorrection" >
    <i type="logical" name="LDIPOL"> F  </i>
    <i type="logical" name="LMONO"> F  </i>
    <i type="int" name="IDIPOL">     0</i>
    <i name="EPSILON">      1.00000000</i>
    <v name="DIPOL">   -100.00000000   -100.00000000   -100.00000000</v>
    <i name="EFIELD">      0.00000000</i>
   </separator>
  </separator>
  <separator name="grids" >
   <i type="int" name="NGX">    48</i>
   <i type="int" name="NGY">    48</i>
   <i type="int" name="NGZ">    48</i>
   <i type="int" name="NGXF">    96</i>
   <i type="int" name="NGYF">    96</i>
   <i type="int" name="NGZF">    96</i>
   <i type="logical" name="ADDGRID"> T  </i>
  </separator>
  <separator name="ionic" >
   <i type="int" name="NSW">     0</i>
   <i type="int" name="IBRION">    -1</i>
   <i type="int" name="MDALGO">     0</i>
   <i type="int" name="ISIF">     3</i>
   <i name="PSTRESS">      0.00000000</i>
   <i name="EDIFFG">     -0.01000000</i>
   <i type="int" name="NFREE">     1</i>
   <i name="POTIM">      0.50000000</i>
   <i name="SMASS">     -3.00000000</i>
   <i name="SCALEE">      1.00000000</i>
  </separator>
  <separator name="ionic md" >
   <i name="TEBEG">      0.00010000</i>
   <i name="TEEND">      0.00010000</i>
   <i type="int" name="NBLOCK">     1</i>
   <i type="int" name="KBLOCK">     1</i>
   <i type="int" name="NPACO">   256</i>
   <i name="APACO">     16.00000000</i>
  </separator>
  <separator name="symmetry" >
   <i type="int" name="ISYM">     2</i>
   <i name="SYMPREC">      0.00001000</i>
  </separator>
  <separator name="dos" >
   <i type="int" name="LORBIT">    10</i>
   <v name="RWIGS">     -1.00000000     -1.00000000     -1.00000000</v>
   <i type="int" name="NEDOS">   301</i>
   <i name="EMIN">     10.00000000</i>
   <i name="EMAX">    -10.00000000</i>
   <i name="EFERMI">      0.00000000</i>
  </separator>
  <separator name="writing" >
   <i type="int" name="NWRITE">     2</i>
   <i type="logical" name="LWAVE"> F  </i>
   <i type="logical" name="LDOWNSAMPLE"> F  </i>
   <i type="logical" name="LCHARG"> F  </i>
   <i type="logical" name="LPARD"> F  </i>
   <i type="logical" name="LVTOT"> F  </i>
   <i type="logical" name="LVHAR"> T  </i>
   <i type="logical" name="LELF"> F  </i>
   <i type="logical" name="LOPTICS"> F  </i>
   <v name="STM">      0.00000000      0.00000000      0.00000000      0.00000000      0.00000000      0.00000000      0.00000000</v>
  </separator>
  <separator name="performance" >
   <i type="int" name="NPAR">     8</i>
   <i type="int" name="NSIM">     4</i>
   <i type="int" name="NBLK">    -1</i>
   <i type="logical" name="LPLANE"> T  </i>
   <i type="logical" name="LSCALAPACK"> T  </i>
   <i type="logical" name="LSCAAWARE"> F  </i>
   <i type="logical" name="LSCALU"> F  </i>
   <i type="logical" name="LASYNC"> F  </i>
   <i type="logical" name="LORBITALREAL"> F  </i>
  </separator>
  <separator name="miscellaneous" >
   <i type="int" name="IDIOT">     3</i>
   <i type="int" name="ISPECIAL">     0</i>
   <i type="logical" name="LMUSIC"> F  </i>
   <v name="POMASS">    132.90000000    207.20000000     79.90400000</v>
   <v name="DARWINR">      0.00000000      0.00000000      0.00000000</v>
   <v name="DARWINV">      1.00000000      1.00000000      1.00000000</v>
   <i type="logical" name="LCORR"> T  </i>
  </separator>
  <i type="logical" name="GGA_COMPAT"> T  </i>
  <i type="logical" name="LBERRY"> F  </i>
  <i type="int" name="ICORELEVEL">     0</i>
  <i type="logical" name="LDAU"> F  </i>
  <i type="int" name="I_CONSTRAINED_M">     0</i>
  <separator name="electronic exchange-correlation" >
   <i type="string" name="GGA">--</i>
   <i type="int" name="VOSKOWN">     0</i>
   <i type="logical" name="LHFCALC"> F  </i>
   <i type="string" name="PRECFOCK"></i>
   <i type="logical" name="LSYMGRAD"> F  </i>
   <i type="logical" name="LHFONE"> F  </i>
   <i type="logical" name="LRHFCALC"> F  </i>
   <i type="logical" name="LTHOMAS"> F  </i>
   <i type="logical" name="LMODELHF"> F  </i>
   <i name="ENCUT4O">     -1.00000000</i>
   <i type="int" name="EXXOEP">     0</i>
   <i type="int" name="FOURORBIT">     0</i>
   <i name="AEXX">      0.00000000</i>
   <i name="HFALPHA">      0.00000000</i>
   <i name="MCALPHA">      0.00000000</i>
   <i name="ALDAX">      1.00000000</i>
   <i name="AGGAX">      1.00000000</i>
   <i name="ALDAC">      1.00000000</i>
   <i name="AGGAC">      1.00000000</i>
   <i type="int" name="NKREDX">     1</i>
   <i type="int" name="NKREDY">     1</i>
   <i type="int" name="NKREDZ">     1</i>
   <i type="logical" name="SHIFTRED"> F  </i>
   <i type="logical" name="ODDONLY"> F  </i>
   <i type="logical" name="EVENONLY"> F  </i>
   <i type="int" name="LMAXFOCK">     0</i>
   <i type="int" name="NMAXFOCKAE">     0</i>
   <i type="logical" name="LFOCKAEDFT"> F  </i>
   <i name="HFSCREEN">      0.00000000</i>
   <i name="HFSCREENC">      0.00000000</i>
   <i type="int" name="NBANDSGWLOW">     0</i>
  </separator>
  <separator name="vdW DFT" >
   <i type="logical" name="LUSE_VDW"> F  </i>
   <i name="Zab_VDW">     -0.84910000</i>
   <i name="PARAM1">      0.12340000</i>
   <i name="PARAM2">      1.00000000</i>
   <i name="PARAM3">      0.00000000</i>
  </separator>
  <separator name="model GW" >
   <i type="int" name="MODEL_GW">     0</i>
   <i name="MODEL_EPS0">     24.26329085</i>
   <i name="MODEL_ALPHA">      1.00000000</i>
  </separator>
  <separator name="linear response parameters" >
   <i type="logical" name="LEPSILON"> F  </i>
   <i type="logical" name="LRPA"> F  </i>
   <i type="logical" name="LNABLA"> F  </i>
   <i type="logical" name="LVEL"> F  </i>
   <i type="int" name="KINTER">     0</i>
   <i name="CSHIFT">      0.10000000</i>
   <i name="OMEGAMAX">     -1.00000000</i>
   <i name="DEG_THRESHOLD">      0.00200000</i>
   <i name="RTIME">     -0.10000000</i>
   <i name="WPLASMAI">      0.00000000</i>
   <v name="DFIELD">      0.00000000      0.00000000      0.00000000</v>
   <v name="WPLASMA">      0.00000000      0.00000000      0.00000000      0.00000000      0.00000000      0.00000000      0.00000000      0.00000000      0.00000000</v>
  </separator>
  <separator name="orbital magnetization" >
   <i type="logical" name="NUCIND"> F  </i>
   <v name="MAGPOS">      0.00000000      0.00000000      0.00000000</v>
   <i type="logical" name="LNICSALL"> T  </i>
   <i type="logical" name="ORBITALMAG"> F  </i>
   <i type="logical" name="LMAGBLOCH"> F  </i>
   <i type="logical" name="LCHIMAG"> F  </i>
   <i type="logical" name="LGAUGE"> T  </i>
   <i type="int" name="MAGATOM">     0</i>
   <v name="MAGDIPOL">      0.00000000      0.00000000      0.00000000</v>
   <v name="AVECCONST">      0.00000000      0.00000000      0.00000000</v>
  </separator>
  <separator name="response functions" >
   <i type="logical" name="LADDER"> F  </i>
   <i type="logical" name="LRPAFORCE"> F  </i>
   <i type="logical" name="LFXC"> F  </i>
   <i type="logical" name="LHARTREE"> T  </i>
   <i type="int" name="IBSE">     0</i>
   <v type="int" name="KPOINT">    -1     0     0     0</v>
   <i type="logical" name="LTCTE"> F  </i>
   <i type="logical" name="LTETE"> F  </i>
   <i type="logical" name="LTRIPLET"> F  </i>
   <i type="logical" name="LFXCEPS"> F  </i>
   <i type="logical" name="LFXHEG"> F  </i>
   <i type="int" name="NATURALO">     2</i>
   <i type="logical" name="L2ORDER"> F  </i>
   <i type="logical" name="LMP2LT"> F  </i>
   <i type="logical" name="LUSEW"> F  </i>
   <i name="ENCUTGW">     -2.00000000</i>
   <i name="ENCUTGWSOFT">     -2.00000000</i>
   <i name="ENCUTLF">     -1.00000000</i>
   <i type="int" name="LMAXMP2">    -1</i>
   <i name="SCISSOR">      0.00000000</i>
   <i type="int" name="NOMEGA">     0</i>
   <i type="int" name="NOMEGAR">     0</i>
   <i type="int" name="NBANDSGW">    -1</i>
   <i type="int" name="NBANDSO">    -1</i>
   <i type="int" name="NBANDSV">    -1</i>
   <i type="int" name="NELM">   200</i>
   <i type="int" name="NELMHF">     1</i>
   <i type="int" name="DIM">     3</i>
   <i type="int" name="ANTIRES">     0</i>
   <i name="OMEGAMAX">    -30.00000000</i>
   <i name="OMEGAMIN">    -30.00000000</i>
   <i name="OMEGATL">   -200.00000000</i>
   <i type="int" name="OMEGAGRID">   140</i>
   <i name="CSHIFT">     -0.10000000</i>
   <i type="logical" name="SELFENERGY"> F  </i>
   <i type="logical" name="LSPECTRAL"> F  </i>
   <i type="logical" name="LSPECTRALGW"> F  </i>
   <i type="logical" name="LSINGLES"> F  </i>
   <i type="logical" name="LFERMIGW"> F  </i>
   <i type="logical" name="ODDONLYGW"> F  </i>
   <i type="logical" name="EVENONLYGW"> F  </i>
   <i type="int" name="NKREDLFX">     1</i>
   <i type="int" name="NKREDLFY">     1</i>
   <i type="int" name="NKREDLFZ">     1</i>
   <i type="int" name="MAXMEM">  2800</i>
   <i type="int" name="TELESCOPE">     0</i>
   <i type="int" name="TAUPAR">     1</i>
   <i type="int" name="OMEGAPAR">    -1</i>
   <i name="LAMBDA">      1.00000000</i>
  </separator>
  <separator name="External order field" >
   <i name="OFIELD_KAPPA">      0.00000000</i>
   <v name="OFIELD_K">      0.00000000      0.00000000      0.00000000</v>
   <i name="OFIELD_Q6_NEAR">      0.00000000</i>
   <i name="OFIELD_Q6_FAR">      0.00000000</i>
   <i name="OFIELD_A">      0.00000000</i>
  </separator>
 </parameters>
 <atominfo>
  <atoms>      10 </atoms>
  <types>       3 </types>
  <array name="atoms" >
   <dimension dim="1">ion</dimension>
   <field type="string">element</field>
   <field type="int">atomtype</field>
   <set>
    <rc><c>Cs</c><c>   1</c></rc>
    <rc><c>Cs</c><c>   1</c></rc>
    <rc><c>Pb</c><c>   2</c></rc>
    <rc><c>Pb</c><c>   2</c></rc>
    <rc><c>Br</c><c>   3</c></rc>
    <rc><c>Br</c><c>   3</c></rc>
    <rc><c>Br</c><c>   3</c></rc>
    <rc><c>Br</c><c>   3</c></rc>
    <rc><c>Br</c><c>   3</c></rc>
    <rc><c>Br</c><c>   3</c></rc>
   </set>
  </array>
  <array name="atomtypes" >
   <dimension dim="1">type</dimension>
   <field type="int">atomspertype</field>
   <field type="string">element</field>
   <field>mass</field>
   <field>valence</field>
   <field type="string">pseudopotential</field>
   <set>
    <rc><c>   2</c><c>Cs</c><c>    132.90000000</c><c>      9.00000000</c><c>  PAW_PBE Cs_sv 08Apr2002               </c></rc>
    <rc><c>   2</c><c>Pb</c><c>    207.20000000</c><c>     14.00000000</c><c>  PAW_PBE Pb_d 06Sep2000                </c></rc>
    <rc><c>   6</c><c>Br</c><c>     79.90400000</c><c>      7.00000000</c><c>  PAW_PBE Br 06Sep2000                  </c></rc>
   </set>
  </array>
 </atominfo>
 <structure name="initialpos" >
  <crystal>
   <varray name="basis" >
    <v>       5.77386941       5.78541730      -0.17143644 </v>
    <v>       5.94730118       0.00246264      -5.96808111 </v>
    <v>       0.00235933       5.95718888      -5.96815658 </v>
   </varray>
   <i name="volume">    404.38818080 </i>
   <varray name="rec_basis" >
    <v>       0.08788162       0.08773833       0.08761184 </v>
    <v>       0.08285850      -0.08521256      -0.08502321 </v>
    <v>      -0.08538187       0.08269118      -0.08505046 </v>
   </varray>
  </crystal>
  <varray name="positions" >
   <v>       0.74993467       0.75170205       0.74680057 </v>
   <v>       0.25006533       0.24829795       0.25319943 </v>
   <v>       0.00000000       0.00000000       0.00000000 </v>
   <v>       0.50000000       0.50000000       0.50000000 </v>
   <v>       0.23889355       0.68608392       0.26041336 </v>
   <v>       0.76110645       0.31391608       0.73958664 </v>
   <v>       0.25530259       0.80964492       0.69002810 </v>
   <v>       0.74469741       0.19035508       0.30997190 </v>
   <v>       0.25548657       0.24485200       0.81787266 </v>
   <v>       0.74451343       0.75514800       0.18212734 </v>
  </varray>
 </structure>
 <calculation>
  <scstep>
   <time name="dav">    2.28    2.29</time>
   <time name="total">    3.52    3.54</time>
   <energy>
    <i name="alphaZ">    223.05853069 </i>
    <i name="ewald">  -4595.07383442 </i>
    <i name="hartreedc">  -1841.88184811 </i>
    <i name="XCdc">    231.00747170 </i>
    <i name="pawpsdc">   5408.49043633 </i>
    <i name="pawaedc">  -5676.98046350 </i>
    <i name="eentropy">     -0.00046631 </i>
    <i name="bandstr">    -73.55727448 </i>
    <i name="atom">   6645.14004964 </i>
    <i name="e_fr_energy">    320.20260155 </i>
    <i name="e_wo_entrp">    320.20306787 </i>
    <i name="e_0_energy">    320.20283471 </i>
   </energy>
  </scstep>
  <scstep>
   <time name="dav">    2.56    2.58</time>
   <time name="total">    2.56    2.58</time>
   <energy>
    <i name="e_fr_energy">   -295.81786900 </i>
    <i name="e_wo_entrp">   -295.81786900 </i>
    <i name="e_0_energy">   -295.81786900 </i>
   </energy>
  </scstep>
  <scstep>
   <time name="dav">    2.64    2.65</time>
   <time name="total">    2.64    2.65</time>
   <energy>
    <i name="e_fr_energy">   -374.47766801 </i>
    <i name="e_wo_entrp">   -374.47766801 </i>
    <i name="e_0_energy">   -374.47766801 </i>
   </energy>
  </scstep>
  <scstep>
   <time name="dav">    2.65    2.66</time>
   <time name="total">    2.65    2.66</time>
   <energy>
    <i name="e_fr_energy">   -377.14333725 </i>
    <i name="e_wo_entrp">   -377.14333725 </i>
    <i name="e_0_energy">   -377.14333725 </i>
   </energy>
  </scstep>
  <scstep>
   <time name="dav">    2.64    2.67</time>
   <time name="total">    3.11    3.15</time>
   <energy>
    <i name="e_fr_energy">   -377.25303986 </i>
    <i name="e_wo_entrp">   -377.25303986 </i>
    <i name="e_0_energy">   -377.25303986 </i>
   </energy>
  </scstep>
  <scstep>
   <time name="dav">    2.56    2.56</time>
   <time name="total">    4.26    4.29</time>
   <energy>
    <i name="e_fr_energy">   -357.45419779 </i>
    <i name="e_wo_entrp">   -357.45419779 </i>
    <i name="e_0_energy">   -357.45419779 </i>
   </energy>
  </scstep>
  <scstep>
   <time name="dav">    2.64    2.64</time>
   <time name="total">    4.32    4.37</time>
   <energy>
    <i name="e_fr_energy">   -357.33795334 </i>
    <i name="e_wo_entrp">   -357.33795334 </i>
    <i name="e_0_energy">   -357.33795334 </i>
   </energy>
  </scstep>
  <scstep>
   <time name="dav">    2.48    2.48</time>
   <time name="total">    4.18    4.21</time>
   <energy>
    <i name="e_fr_energy">   -357.38094105 </i>
    <i name="e_wo_entrp">   -357.38094105 </i>
    <i name="e_0_energy">   -357.38094105 </i>
   </energy>
  </scstep>
  <scstep>
   <time name="dav">    2.37    2.37</time>
   <time name="total">    4.09    4.11</time>
   <energy>
    <i name="e_fr_energy">   -357.40172425 </i>
    <i name="e_wo_entrp">   -357.40172425 </i>
    <i name="e_0_energy">   -357.40172425 </i>
   </energy>
  </scstep>
  <scstep>
   <time name="dav">    2.73    2.73</time>
   <time name="total">    4.44    4.45</time>
   <energy>
    <i name="e_fr_energy">   -357.40202940 </i>
    <i name="e_wo_entrp">   -357.40202940 </i>
    <i name="e_0_energy">   -357.40202940 </i>
   </energy>
  </scstep>
  <scstep>
   <time name="dav">    2.43    2.43</time>
   <time name="total">    4.13    4.17</time>
   <energy>
    <i name="e_fr_energy">   -357.40299580 </i>
    <i name="e_wo_entrp">   -357.40299580 </i>
    <i name="e_0_energy">   -357.40299580 </i>
   </energy>
  </scstep>
  <scstep>
   <time name="dav">    2.58    2.58</time>
   <time name="total">    4.27    4.31</time>
   <energy>
    <i name="e_fr_energy">   -357.40281047 </i>
    <i name="e_wo_entrp">   -357.40281047 </i>
    <i name="e_0_energy">   -357.40281047 </i>
   </energy>
  </scstep>
  <scstep>
   <time name="dav">    2.67    2.67</time>
   <time name="total">    4.39    4.40</time>
   <energy>
    <i name="e_fr_energy">   -357.40280074 </i>
    <i name="e_wo_entrp">   -357.40280074 </i>
    <i name="e_0_energy">   -357.40280074 </i>
   </energy>
  </scstep>
  <scstep>
   <time name="dav">    1.98    1.98</time>
   <time name="total">    3.68    3.71</time>
   <energy>
    <i name="e_fr_energy">   -357.40280814 </i>
    <i name="e_wo_entrp">   -357.40280814 </i>
    <i name="e_0_energy">   -357.40280814 </i>
   </energy>
  </scstep>
  <scstep>
   <time name="dav">    1.85    1.85</time>
   <time name="total">    3.56    3.57</time>
   <energy>
    <i name="e_fr_energy">   -357.40281037 </i>
    <i name="e_wo_entrp">   -357.40281037 </i>
    <i name="e_0_energy">   -357.40281037 </i>
   </energy>
  </scstep>
  <scstep>
   <time name="dav">    1.86    1.86</time>
   <time name="total">    3.15    3.15</time>
   <energy>
    <i name="alphaZ">    223.05853069 </i>
    <i name="ewald">  -4595.07383442 </i>
    <i name="hartreedc">  -1849.54677400 </i>
    <i name="XCdc">    240.70920436 </i>
    <i name="pawpsdc">   5782.96965828 </i>
    <i name="pawaedc">  -6051.12538744 </i>
    <i name="eentropy">     -0.00000000 </i>
    <i name="bandstr">   -753.53425698 </i>
    <i name="atom">   6645.14004964 </i>
    <i name="e_fr_energy">   -357.40280987 </i>
    <i name="e_wo_entrp">   -357.40280987 </i>
    <i name="e_0_energy">   -357.40280987 </i>
   </energy>
  </scstep>
  <structure>
   <crystal>
    <varray name="basis" >
     <v>       5.77386941       5.78541730      -0.17143644 </v>
     <v>       5.94730118       0.00246264      -5.96808111 </v>
     <v>       0.00235933       5.95718888      -5.96815658 </v>
    </varray>
    <i name="volume">    404.38818080 </i>
    <varray name="rec_basis" >
     <v>       0.08788162       0.08773833       0.08761184 </v>
     <v>       0.08285850      -0.08521256      -0.08502321 </v>
     <v>      -0.08538187       0.08269118      -0.08505046 </v>
    </varray>
   </crystal>
   <varray name="positions" >
    <v>       0.74993467       0.75170205       0.74680057 </v>
    <v>       0.25006533       0.24829795       0.25319943 </v>
    <v>       0.00000000       0.00000000       0.00000000 </v>
    <v>       0.50000000       0.50000000       0.50000000 </v>
    <v>       0.23889355       0.68608392       0.26041336 </v>
    <v>       0.76110645       0.31391608       0.73958664 </v>
    <v>       0.25530259       0.80964492       0.69002810 </v>
    <v>       0.74469741       0.19035508       0.30997190 </v>
    <v>       0.25548657       0.24485200       0.81787266 </v>
    <v>       0.74451343       0.75514800       0.18212734 </v>
   </varray>
  </structure>
  <varray name="forces" >
   <v>       0.00194346      -0.00418668       0.00227088 </v>
   <v>      -0.00194346       0.00418668      -0.00227088 </v>
   <v>       0.00000000       0.00000000      -0.00000000 </v>
   <v>       0.00000000      -0.00000000      -0.00000000 </v>
   <v>       0.00136248       0.00732515      -0.01132143 </v>
   <v>      -0.00136248      -0.00732515       0.01132143 </v>
   <v>       0.00845144      -0.00474624      -0.00207388 </v>
   <v>      -0.00845144       0.00474624       0.00207388 </v>
   <v>      -0.00293431       0.00460001       0.00233042 </v>
   <v>       0.00293431      -0.00460001      -0.00233042 </v>
  </varray>
  <varray name="stress" >
   <v>      -1.77999688       0.00283958       0.09992113 </v>
   <v>       0.00283583      -1.72020448       0.03876860 </v>
   <v>       0.09992573       0.03877550      -1.39435968 </v>
  </varray>
  <energy>
   <i name="e_fr_energy">   -357.40280987 </i>
   <i name="e_wo_entrp">   -357.40280987 </i>
   <i name="e_0_energy">     -0.00000000 </i>
  </energy>
  <time name="totalsc">   68.37   68.82</time>
  <eigenvalues>
   <array>
    <dimension dim="1">band</dimension>
    <dimension dim="2">kpoint</dimension>
    <dimension dim="3">spin</dimension>
    <field>eigene</field>
    <field>occ</field>
    <set>
     <set comment="spin 1">
      <set comment="kpoint 1">
       <r>  -20.9116    1.0000 </r>
       <r>  -20.9077    1.0000 </r>
       <r>  -16.4262    1.0000 </r>
       <r>  -16.4246    1.0000 </r>
       <r>  -16.3303    1.0000 </r>
       <r>  -16.3292    1.0000 </r>
       <r>  -16.2665    1.0000 </r>
       <r>  -16.2652    1.0000 </r>
       <r>  -16.2508    1.0000 </r>
       <r>  -16.2500    1.0000 </r>
       <r>  -16.2494    1.0000 </r>
       <r>  -16.2484    1.0000 </r>
       <r>  -14.3582    1.0000 </r>
       <r>  -14.0323    1.0000 </r>
       <r>  -14.0209    1.0000 </r>
       <r>  -13.9678    1.0000 </r>
       <r>  -13.7246    1.0000 </r>
       <r>  -13.7205    1.0000 </r>
       <r>   -8.1927    1.0000 </r>
       <r>   -7.3384    1.0000 </r>
       <r>   -7.3200    1.0000 </r>
       <r>   -7.3098    1.0000 </r>
       <r>   -7.2991    1.0000 </r>
       <r>   -7.2833    1.0000 </r>
       <r>   -7.2827    1.0000 </r>
       <r>   -6.4648    1.0000 </r>
       <r>   -3.3867    1.0000 </r>
       <r>   -3.3604    1.0000 </r>
       <r>   -3.1779    1.0000 </r>
       <r>   -1.9232    1.0000 </r>
       <r>   -1.9221    1.0000 </r>
       <r>   -1.8922    1.0000 </r>
       <r>   -1.5504    1.0000 </r>
       <r>   -1.4386    1.0000 </r>
       <r>   -1.4377    1.0000 </r>
       <r>   -1.2979    1.0000 </r>
       <r>   -1.2668    1.0000 </r>
       <r>   -1.1812    1.0000 </r>
       <r>   -1.1726    1.0000 </r>
       <r>   -1.0379    1.0000 </r>
       <r>   -0.9134    1.0000 </r>
       <r>   -0.8990    1.0000 </r>
       <r>   -0.8553    1.0000 </r>
       <r>    0.5635    1.0000 </r>
       <r>    2.7295    0.0000 </r>
       <r>    2.8161    0.0000 </r>
       <r>    2.8483    0.0000 </r>
       <r>    4.7230    0.0000 </r>
       <r>    5.7994    0.0000 </r>
       <r>    5.9149    0.0000 </r>
       <r>    6.1928    0.0000 </r>
       <r>    6.4943    0.0000 </r>
       <r>    6.5384    0.0000 </r>
       <r>    6.5530    0.0000 </r>
       <r>    6.6714    0.0000 </r>
       <r>    6.6794    0.0000 </r>
      </set>
      <set comment="kpoint 2">
       <r>  -20.9103    1.0000 </r>
       <r>  -20.9085    1.0000 </r>
       <r>  -16.4036    1.0000 </r>
       <r>  -16.4020    1.0000 </r>
       <r>  -16.3558    1.0000 </r>
       <r>  -16.3546    1.0000 </r>
       <r>  -16.2661    1.0000 </r>
       <r>  -16.2653    1.0000 </r>
       <r>  -16.2505    1.0000 </r>
       <r>  -16.2497    1.0000 </r>
       <r>  -16.2494    1.0000 </r>
       <r>  -16.2486    1.0000 </r>
       <r>  -14.2714    1.0000 </r>
       <r>  -14.0776    1.0000 </r>
       <r>  -13.9560    1.0000 </r>
       <r>  -13.9463    1.0000 </r>
       <r>  -13.8026    1.0000 </r>
       <r>  -13.7964    1.0000 </r>
       <r>   -7.8410    1.0000 </r>
       <r>   -7.3052    1.0000 </r>
       <r>   -7.3002    1.0000 </r>
       <r>   -7.2939    1.0000 </r>
       <r>   -7.2838    1.0000 </r>
       <r>   -7.2822    1.0000 </r>
       <r>   -7.2804    1.0000 </r>
       <r>   -7.0112    1.0000 </r>
       <r>   -3.0102    1.0000 </r>
       <r>   -2.9963    1.0000 </r>
       <r>   -2.5439    1.0000 </r>
       <r>   -2.0984    1.0000 </r>
       <r>   -2.0822    1.0000 </r>
       <r>   -1.9496    1.0000 </r>
       <r>   -1.7520    1.0000 </r>
       <r>   -1.7441    1.0000 </r>
       <r>   -1.4882    1.0000 </r>
       <r>   -1.3725    1.0000 </r>
       <r>   -1.3656    1.0000 </r>
       <r>   -1.3394    1.0000 </r>
       <r>   -1.2226    1.0000 </r>
       <r>   -1.2103    1.0000 </r>
       <r>   -1.1097    1.0000 </r>
       <r>   -1.0980    1.0000 </r>
       <r>   -0.8604    1.0000 </r>
       <r>   -0.3574    1.0000 </r>
       <r>    3.7889    0.0000 </r>
       <r>    3.8333    0.0000 </r>
       <r>    3.8448    0.0000 </r>
       <r>    5.0697    0.0000 </r>
       <r>    5.6388    0.0000 </r>
       <r>    5.6797    0.0000 </r>
       <r>    5.9707    0.0000 </r>
       <r>    6.2187    0.0000 </r>
       <r>    6.2844    0.0000 </r>
       <r>    6.6633    0.0000 </r>
       <r>    6.6825    0.0000 </r>
       <r>    6.6960    0.0000 </r>
      </set>
      <set comment="kpoint 3">
       <r>  -20.9105    1.0000 </r>
       <r>  -20.9085    1.0000 </r>
       <r>  -16.4037    1.0000 </r>
       <r>  -16.4020    1.0000 </r>
       <r>  -16.3557    1.0000 </r>
       <r>  -16.3543    1.0000 </r>
       <r>  -16.2662    1.0000 </r>
       <r>  -16.2655    1.0000 </r>
       <r>  -16.2506    1.0000 </r>
       <r>  -16.2498    1.0000 </r>
       <r>  -16.2495    1.0000 </r>
       <r>  -16.2488    1.0000 </r>
       <r>  -14.2837    1.0000 </r>
       <r>  -14.1150    1.0000 </r>
       <r>  -13.9529    1.0000 </r>
       <r>  -13.9089    1.0000 </r>
       <r>  -13.7996    1.0000 </r>
       <r>  -13.7836    1.0000 </r>
       <r>   -7.8549    1.0000 </r>
       <r>   -7.3213    1.0000 </r>
       <r>   -7.3141    1.0000 </r>
       <r>   -7.2909    1.0000 </r>
       <r>   -7.2880    1.0000 </r>
       <r>   -7.2749    1.0000 </r>
       <r>   -7.2689    1.0000 </r>
       <r>   -7.0255    1.0000 </r>
       <r>   -3.0200    1.0000 </r>
       <r>   -2.8960    1.0000 </r>
       <r>   -2.6503    1.0000 </r>
       <r>   -2.1460    1.0000 </r>
       <r>   -2.1119    1.0000 </r>
       <r>   -2.0331    1.0000 </r>
       <r>   -1.7530    1.0000 </r>
       <r>   -1.7497    1.0000 </r>
       <r>   -1.4754    1.0000 </r>
       <r>   -1.4470    1.0000 </r>
       <r>   -1.3503    1.0000 </r>
       <r>   -1.2476    1.0000 </r>
       <r>   -1.1975    1.0000 </r>
       <r>   -1.0664    1.0000 </r>
       <r>   -1.0145    1.0000 </r>
       <r>   -0.9608    1.0000 </r>
       <r>   -0.8667    1.0000 </r>
       <r>   -0.4122    1.0000 </r>
       <r>    3.5908    0.0000 </r>
       <r>    3.8102    0.0000 </r>
       <r>    3.9598    0.0000 </r>
       <r>    5.1176    0.0000 </r>
       <r>    5.4022    0.0000 </r>
       <r>    5.6291    0.0000 </r>
       <r>    5.9251    0.0000 </r>
       <r>    6.2091    0.0000 </r>
       <r>    6.2971    0.0000 </r>
       <r>    6.5602    0.0000 </r>
       <r>    6.7217    0.0000 </r>
       <r>    6.8963    0.0000 </r>
      </set>
      <set comment="kpoint 4">
       <r>  -20.9104    1.0000 </r>
       <r>  -20.9084    1.0000 </r>
       <r>  -16.4257    1.0000 </r>
       <r>  -16.3803    1.0000 </r>
       <r>  -16.3797    1.0000 </r>
       <r>  -16.3301    1.0000 </r>
       <r>  -16.2661    1.0000 </r>
       <r>  -16.2654    1.0000 </r>
       <r>  -16.2509    1.0000 </r>
       <r>  -16.2496    1.0000 </r>
       <r>  -16.2492    1.0000 </r>
       <r>  -16.2489    1.0000 </r>
       <r>  -14.2507    1.0000 </r>
       <r>  -14.0360    1.0000 </r>
       <r>  -13.9998    1.0000 </r>
       <r>  -13.9495    1.0000 </r>
       <r>  -13.9027    1.0000 </r>
       <r>  -13.7169    1.0000 </r>
       <r>   -7.8279    1.0000 </r>
       <r>   -7.3090    1.0000 </r>
       <r>   -7.2979    1.0000 </r>
       <r>   -7.2900    1.0000 </r>
       <r>   -7.2847    1.0000 </r>
       <r>   -7.2745    1.0000 </r>
       <r>   -7.2671    1.0000 </r>
       <r>   -6.9686    1.0000 </r>
       <r>   -3.3204    1.0000 </r>
       <r>   -3.1841    1.0000 </r>
       <r>   -2.6970    1.0000 </r>
       <r>   -2.1452    1.0000 </r>
       <r>   -2.0862    1.0000 </r>
       <r>   -1.7647    1.0000 </r>
       <r>   -1.7232    1.0000 </r>
       <r>   -1.5038    1.0000 </r>
       <r>   -1.4828    1.0000 </r>
       <r>   -1.3731    1.0000 </r>
       <r>   -1.3372    1.0000 </r>
       <r>   -1.2880    1.0000 </r>
       <r>   -1.2662    1.0000 </r>
       <r>   -1.1523    1.0000 </r>
       <r>   -1.1406    1.0000 </r>
       <r>   -1.0254    1.0000 </r>
       <r>   -0.7939    1.0000 </r>
       <r>   -0.0062    1.0000 </r>
       <r>    3.0780    0.0000 </r>
       <r>    3.0947    0.0000 </r>
       <r>    4.3215    0.0000 </r>
       <r>    5.0038    0.0000 </r>
       <r>    5.7193    0.0000 </r>
       <r>    6.0689    0.0000 </r>
       <r>    6.3090    0.0000 </r>
       <r>    6.3354    0.0000 </r>
       <r>    6.5355    0.0000 </r>
       <r>    6.7391    0.0000 </r>
       <r>    6.8219    0.0000 </r>
       <r>    7.1343    0.0000 </r>
      </set>
      <set comment="kpoint 5">
       <r>  -20.9094    1.0000 </r>
       <r>  -20.9093    1.0000 </r>
       <r>  -16.4034    1.0000 </r>
       <r>  -16.4030    1.0000 </r>
       <r>  -16.3560    1.0000 </r>
       <r>  -16.3556    1.0000 </r>
       <r>  -16.2658    1.0000 </r>
       <r>  -16.2656    1.0000 </r>
       <r>  -16.2504    1.0000 </r>
       <r>  -16.2499    1.0000 </r>
       <r>  -16.2493    1.0000 </r>
       <r>  -16.2489    1.0000 </r>
       <r>  -14.1535    1.0000 </r>
       <r>  -14.1285    1.0000 </r>
       <r>  -14.0074    1.0000 </r>
       <r>  -13.9591    1.0000 </r>
       <r>  -13.8215    1.0000 </r>
       <r>  -13.7942    1.0000 </r>
       <r>   -7.4543    1.0000 </r>
       <r>   -7.4400    1.0000 </r>
       <r>   -7.2939    1.0000 </r>
       <r>   -7.2871    1.0000 </r>
       <r>   -7.2811    1.0000 </r>
       <r>   -7.2784    1.0000 </r>
       <r>   -7.2611    1.0000 </r>
       <r>   -7.2556    1.0000 </r>
       <r>   -3.1494    1.0000 </r>
       <r>   -2.9293    1.0000 </r>
       <r>   -2.6836    1.0000 </r>
       <r>   -2.2124    1.0000 </r>
       <r>   -2.0991    1.0000 </r>
       <r>   -1.9494    1.0000 </r>
       <r>   -1.7472    1.0000 </r>
       <r>   -1.5877    1.0000 </r>
       <r>   -1.4479    1.0000 </r>
       <r>   -1.3645    1.0000 </r>
       <r>   -1.3318    1.0000 </r>
       <r>   -1.3156    1.0000 </r>
       <r>   -1.2763    1.0000 </r>
       <r>   -1.2460    1.0000 </r>
       <r>   -1.1951    1.0000 </r>
       <r>   -1.0537    1.0000 </r>
       <r>   -0.6301    1.0000 </r>
       <r>   -0.5462    1.0000 </r>
       <r>    3.3931    0.0000 </r>
       <r>    4.0474    0.0000 </r>
       <r>    4.0907    0.0000 </r>
       <r>    5.1747    0.0000 </r>
       <r>    5.4207    0.0000 </r>
       <r>    5.9147    0.0000 </r>
       <r>    6.4547    0.0000 </r>
       <r>    6.5591    0.0000 </r>
       <r>    6.6146    0.0000 </r>
       <r>    6.6714    0.0000 </r>
       <r>    6.8801    0.0000 </r>
       <r>    6.9948    0.0000 </r>
      </set>
      <set comment="kpoint 6">
       <r>  -20.9105    1.0000 </r>
       <r>  -20.9085    1.0000 </r>
       <r>  -16.4037    1.0000 </r>
       <r>  -16.4021    1.0000 </r>
       <r>  -16.3557    1.0000 </r>
       <r>  -16.3543    1.0000 </r>
       <r>  -16.2662    1.0000 </r>
       <r>  -16.2655    1.0000 </r>
       <r>  -16.2506    1.0000 </r>
       <r>  -16.2498    1.0000 </r>
       <r>  -16.2496    1.0000 </r>
       <r>  -16.2487    1.0000 </r>
       <r>  -14.2843    1.0000 </r>
       <r>  -14.1171    1.0000 </r>
       <r>  -13.9493    1.0000 </r>
       <r>  -13.9106    1.0000 </r>
       <r>  -13.7974    1.0000 </r>
       <r>  -13.7851    1.0000 </r>
       <r>   -7.8559    1.0000 </r>
       <r>   -7.3222    1.0000 </r>
       <r>   -7.3141    1.0000 </r>
       <r>   -7.2908    1.0000 </r>
       <r>   -7.2869    1.0000 </r>
       <r>   -7.2745    1.0000 </r>
       <r>   -7.2692    1.0000 </r>
       <r>   -7.0255    1.0000 </r>
       <r>   -3.0145    1.0000 </r>
       <r>   -2.8971    1.0000 </r>
       <r>   -2.6551    1.0000 </r>
       <r>   -2.1440    1.0000 </r>
       <r>   -2.1171    1.0000 </r>
       <r>   -2.0401    1.0000 </r>
       <r>   -1.7548    1.0000 </r>
       <r>   -1.7479    1.0000 </r>
       <r>   -1.4881    1.0000 </r>
       <r>   -1.4461    1.0000 </r>
       <r>   -1.3454    1.0000 </r>
       <r>   -1.2300    1.0000 </r>
       <r>   -1.1847    1.0000 </r>
       <r>   -1.0601    1.0000 </r>
       <r>   -1.0136    1.0000 </r>
       <r>   -0.9586    1.0000 </r>
       <r>   -0.8727    1.0000 </r>
       <r>   -0.4263    1.0000 </r>
       <r>    3.5912    0.0000 </r>
       <r>    3.8039    0.0000 </r>
       <r>    3.9596    0.0000 </r>
       <r>    5.1234    0.0000 </r>
       <r>    5.4023    0.0000 </r>
       <r>    5.6076    0.0000 </r>
       <r>    5.9216    0.0000 </r>
       <r>    6.1588    0.0000 </r>
       <r>    6.3301    0.0000 </r>
       <r>    6.5566    0.0000 </r>
       <r>    6.7546    0.0000 </r>
       <r>    6.8898    0.0000 </r>
      </set>
      <set comment="kpoint 7">
       <r>  -20.9104    1.0000 </r>
       <r>  -20.9085    1.0000 </r>
       <r>  -16.4253    1.0000 </r>
       <r>  -16.3807    1.0000 </r>
       <r>  -16.3800    1.0000 </r>
       <r>  -16.3297    1.0000 </r>
       <r>  -16.2661    1.0000 </r>
       <r>  -16.2654    1.0000 </r>
       <r>  -16.2507    1.0000 </r>
       <r>  -16.2498    1.0000 </r>
       <r>  -16.2494    1.0000 </r>
       <r>  -16.2486    1.0000 </r>
       <r>  -14.2508    1.0000 </r>
       <r>  -14.0322    1.0000 </r>
       <r>  -13.9979    1.0000 </r>
       <r>  -13.9536    1.0000 </r>
       <r>  -13.9057    1.0000 </r>
       <r>  -13.7153    1.0000 </r>
       <r>   -7.8250    1.0000 </r>
       <r>   -7.3130    1.0000 </r>
       <r>   -7.2996    1.0000 </r>
       <r>   -7.2878    1.0000 </r>
       <r>   -7.2844    1.0000 </r>
       <r>   -7.2727    1.0000 </r>
       <r>   -7.2691    1.0000 </r>
       <r>   -6.9699    1.0000 </r>
       <r>   -3.3133    1.0000 </r>
       <r>   -3.1884    1.0000 </r>
       <r>   -2.6999    1.0000 </r>
       <r>   -2.1443    1.0000 </r>
       <r>   -2.0852    1.0000 </r>
       <r>   -1.7634    1.0000 </r>
       <r>   -1.7318    1.0000 </r>
       <r>   -1.4991    1.0000 </r>
       <r>   -1.4774    1.0000 </r>
       <r>   -1.3618    1.0000 </r>
       <r>   -1.3487    1.0000 </r>
       <r>   -1.2906    1.0000 </r>
       <r>   -1.2646    1.0000 </r>
       <r>   -1.1599    1.0000 </r>
       <r>   -1.1326    1.0000 </r>
       <r>   -1.0405    1.0000 </r>
       <r>   -0.7811    1.0000 </r>
       <r>   -0.0000    1.0000 </r>
       <r>    3.0737    0.0000 </r>
       <r>    3.1075    0.0000 </r>
       <r>    4.3235    0.0000 </r>
       <r>    5.0089    0.0000 </r>
       <r>    5.7005    0.0000 </r>
       <r>    6.0882    0.0000 </r>
       <r>    6.2914    0.0000 </r>
       <r>    6.3390    0.0000 </r>
       <r>    6.4855    0.0000 </r>
       <r>    6.7510    0.0000 </r>
       <r>    6.8127    0.0000 </r>
       <r>    7.1005    0.0000 </r>
      </set>
      <set comment="kpoint 8">
       <r>  -20.9094    1.0000 </r>
       <r>  -20.9093    1.0000 </r>
       <r>  -16.4035    1.0000 </r>
       <r>  -16.4029    1.0000 </r>
       <r>  -16.3562    1.0000 </r>
       <r>  -16.3553    1.0000 </r>
       <r>  -16.2658    1.0000 </r>
       <r>  -16.2656    1.0000 </r>
       <r>  -16.2504    1.0000 </r>
       <r>  -16.2500    1.0000 </r>
       <r>  -16.2493    1.0000 </r>
       <r>  -16.2489    1.0000 </r>
       <r>  -14.1539    1.0000 </r>
       <r>  -14.1274    1.0000 </r>
       <r>  -14.0123    1.0000 </r>
       <r>  -13.9549    1.0000 </r>
       <r>  -13.8236    1.0000 </r>
       <r>  -13.7919    1.0000 </r>
       <r>   -7.4507    1.0000 </r>
       <r>   -7.4443    1.0000 </r>
       <r>   -7.2949    1.0000 </r>
       <r>   -7.2878    1.0000 </r>
       <r>   -7.2799    1.0000 </r>
       <r>   -7.2773    1.0000 </r>
       <r>   -7.2611    1.0000 </r>
       <r>   -7.2560    1.0000 </r>
       <r>   -3.1576    1.0000 </r>
       <r>   -2.9269    1.0000 </r>
       <r>   -2.6863    1.0000 </r>
       <r>   -2.2101    1.0000 </r>
       <r>   -2.0911    1.0000 </r>
       <r>   -1.9529    1.0000 </r>
       <r>   -1.7392    1.0000 </r>
       <r>   -1.6005    1.0000 </r>
       <r>   -1.4568    1.0000 </r>
       <r>   -1.3562    1.0000 </r>
       <r>   -1.3384    1.0000 </r>
       <r>   -1.3113    1.0000 </r>
       <r>   -1.2654    1.0000 </r>
       <r>   -1.2473    1.0000 </r>
       <r>   -1.1900    1.0000 </r>
       <r>   -1.0580    1.0000 </r>
       <r>   -0.6320    1.0000 </r>
       <r>   -0.5362    1.0000 </r>
       <r>    3.3875    0.0000 </r>
       <r>    4.0474    0.0000 </r>
       <r>    4.0839    0.0000 </r>
       <r>    5.1885    0.0000 </r>
       <r>    5.4074    0.0000 </r>
       <r>    5.9211    0.0000 </r>
       <r>    6.4310    0.0000 </r>
       <r>    6.5114    0.0000 </r>
       <r>    6.6589    0.0000 </r>
       <r>    6.7002    0.0000 </r>
       <r>    6.8296    0.0000 </r>
       <r>    7.0047    0.0000 </r>
      </set>
      <set comment="kpoint 9">
       <r>  -20.9104    1.0000 </r>
       <r>  -20.9086    1.0000 </r>
       <r>  -16.4244    1.0000 </r>
       <r>  -16.3813    1.0000 </r>
       <r>  -16.3811    1.0000 </r>
       <r>  -16.3292    1.0000 </r>
       <r>  -16.2661    1.0000 </r>
       <r>  -16.2654    1.0000 </r>
       <r>  -16.2504    1.0000 </r>
       <r>  -16.2500    1.0000 </r>
       <r>  -16.2498    1.0000 </r>
       <r>  -16.2484    1.0000 </r>
       <r>  -14.2507    1.0000 </r>
       <r>  -14.0252    1.0000 </r>
       <r>  -13.9969    1.0000 </r>
       <r>  -13.9594    1.0000 </r>
       <r>  -13.9095    1.0000 </r>
       <r>  -13.7137    1.0000 </r>
       <r>   -7.8193    1.0000 </r>
       <r>   -7.3142    1.0000 </r>
       <r>   -7.3041    1.0000 </r>
       <r>   -7.2885    1.0000 </r>
       <r>   -7.2821    1.0000 </r>
       <r>   -7.2716    1.0000 </r>
       <r>   -7.2698    1.0000 </r>
       <r>   -6.9749    1.0000 </r>
       <r>   -3.3027    1.0000 </r>
       <r>   -3.1904    1.0000 </r>
       <r>   -2.7081    1.0000 </r>
       <r>   -2.1387    1.0000 </r>
       <r>   -2.0838    1.0000 </r>
       <r>   -1.7619    1.0000 </r>
       <r>   -1.7393    1.0000 </r>
       <r>   -1.4955    1.0000 </r>
       <r>   -1.4745    1.0000 </r>
       <r>   -1.3668    1.0000 </r>
       <r>   -1.3427    1.0000 </r>
       <r>   -1.2900    1.0000 </r>
       <r>   -1.2714    1.0000 </r>
       <r>   -1.1629    1.0000 </r>
       <r>   -1.1229    1.0000 </r>
       <r>   -1.0579    1.0000 </r>
       <r>   -0.7678    1.0000 </r>
       <r>    0.0015    1.0000 </r>
       <r>    3.0807    0.0000 </r>
       <r>    3.1163    0.0000 </r>
       <r>    4.3272    0.0000 </r>
       <r>    5.0254    0.0000 </r>
       <r>    5.6794    0.0000 </r>
       <r>    6.1025    0.0000 </r>
       <r>    6.2547    0.0000 </r>
       <r>    6.3520    0.0000 </r>
       <r>    6.4266    0.0000 </r>
       <r>    6.7609    0.0000 </r>
       <r>    6.8111    0.0000 </r>
       <r>    7.0921    0.0000 </r>
      </set>
      <set comment="kpoint 10">
       <r>  -20.9105    1.0000 </r>
       <r>  -20.9085    1.0000 </r>
       <r>  -16.4036    1.0000 </r>
       <r>  -16.4022    1.0000 </r>
       <r>  -16.3555    1.0000 </r>
       <r>  -16.3545    1.0000 </r>
       <r>  -16.2662    1.0000 </r>
       <r>  -16.2655    1.0000 </r>
       <r>  -16.2506    1.0000 </r>
       <r>  -16.2499    1.0000 </r>
       <r>  -16.2496    1.0000 </r>
       <r>  -16.2486    1.0000 </r>
       <r>  -14.2848    1.0000 </r>
       <r>  -14.1191    1.0000 </r>
       <r>  -13.9445    1.0000 </r>
       <r>  -13.9133    1.0000 </r>
       <r>  -13.7942    1.0000 </r>
       <r>  -13.7876    1.0000 </r>
       <r>   -7.8568    1.0000 </r>
       <r>   -7.3209    1.0000 </r>
       <r>   -7.3164    1.0000 </r>
       <r>   -7.2905    1.0000 </r>
       <r>   -7.2859    1.0000 </r>
       <r>   -7.2745    1.0000 </r>
       <r>   -7.2690    1.0000 </r>
       <r>   -7.0258    1.0000 </r>
       <r>   -3.0079    1.0000 </r>
       <r>   -2.9003    1.0000 </r>
       <r>   -2.6586    1.0000 </r>
       <r>   -2.1384    1.0000 </r>
       <r>   -2.1244    1.0000 </r>
       <r>   -2.0451    1.0000 </r>
       <r>   -1.7579    1.0000 </r>
       <r>   -1.7453    1.0000 </r>
       <r>   -1.4931    1.0000 </r>
       <r>   -1.4542    1.0000 </r>
       <r>   -1.3418    1.0000 </r>
       <r>   -1.2213    1.0000 </r>
       <r>   -1.1660    1.0000 </r>
       <r>   -1.0547    1.0000 </r>
       <r>   -1.0104    1.0000 </r>
       <r>   -0.9575    1.0000 </r>
       <r>   -0.8780    1.0000 </r>
       <r>   -0.4393    1.0000 </r>
       <r>    3.5919    0.0000 </r>
       <r>    3.7968    0.0000 </r>
       <r>    3.9614    0.0000 </r>
       <r>    5.1273    0.0000 </r>
       <r>    5.4081    0.0000 </r>
       <r>    5.5847    0.0000 </r>
       <r>    5.9198    0.0000 </r>
       <r>    6.1275    0.0000 </r>
       <r>    6.3507    0.0000 </r>
       <r>    6.5557    0.0000 </r>
       <r>    6.7904    0.0000 </r>
       <r>    6.8821    0.0000 </r>
      </set>
      <set comment="kpoint 11">
       <r>  -20.9095    1.0000 </r>
       <r>  -20.9093    1.0000 </r>
       <r>  -16.4047    1.0000 </r>
       <r>  -16.4020    1.0000 </r>
       <r>  -16.3567    1.0000 </r>
       <r>  -16.3546    1.0000 </r>
       <r>  -16.2658    1.0000 </r>
       <r>  -16.2656    1.0000 </r>
       <r>  -16.2504    1.0000 </r>
       <r>  -16.2500    1.0000 </r>
       <r>  -16.2494    1.0000 </r>
       <r>  -16.2488    1.0000 </r>
       <r>  -14.1541    1.0000 </r>
       <r>  -14.1249    1.0000 </r>
       <r>  -14.0196    1.0000 </r>
       <r>  -13.9497    1.0000 </r>
       <r>  -13.8263    1.0000 </r>
       <r>  -13.7893    1.0000 </r>
       <r>   -7.4515    1.0000 </r>
       <r>   -7.4432    1.0000 </r>
       <r>   -7.2946    1.0000 </r>
       <r>   -7.2883    1.0000 </r>
       <r>   -7.2800    1.0000 </r>
       <r>   -7.2778    1.0000 </r>
       <r>   -7.2606    1.0000 </r>
       <r>   -7.2557    1.0000 </r>
       <r>   -3.1716    1.0000 </r>
       <r>   -2.9241    1.0000 </r>
       <r>   -2.6885    1.0000 </r>
       <r>   -2.2058    1.0000 </r>
       <r>   -2.0827    1.0000 </r>
       <r>   -1.9546    1.0000 </r>
       <r>   -1.7324    1.0000 </r>
       <r>   -1.6152    1.0000 </r>
       <r>   -1.4621    1.0000 </r>
       <r>   -1.3448    1.0000 </r>
       <r>   -1.3393    1.0000 </r>
       <r>   -1.3169    1.0000 </r>
       <r>   -1.2602    1.0000 </r>
       <r>   -1.2448    1.0000 </r>
       <r>   -1.1837    1.0000 </r>
       <r>   -1.0629    1.0000 </r>
       <r>   -0.6356    1.0000 </r>
       <r>   -0.5184    1.0000 </r>
       <r>    3.3780    0.0000 </r>
       <r>    4.0483    0.0000 </r>
       <r>    4.0751    0.0000 </r>
       <r>    5.1984    0.0000 </r>
       <r>    5.3913    0.0000 </r>
       <r>    5.9378    0.0000 </r>
       <r>    6.4259    0.0000 </r>
       <r>    6.4604    0.0000 </r>
       <r>    6.6912    0.0000 </r>
       <r>    6.7433    0.0000 </r>
       <r>    6.7705    0.0000 </r>
       <r>    7.0046    0.0000 </r>
      </set>
      <set comment="kpoint 12">
       <r>  -20.9095    1.0000 </r>
       <r>  -20.9094    1.0000 </r>
       <r>  -16.4047    1.0000 </r>
       <r>  -16.4019    1.0000 </r>
       <r>  -16.3568    1.0000 </r>
       <r>  -16.3544    1.0000 </r>
       <r>  -16.2659    1.0000 </r>
       <r>  -16.2657    1.0000 </r>
       <r>  -16.2506    1.0000 </r>
       <r>  -16.2500    1.0000 </r>
       <r>  -16.2495    1.0000 </r>
       <r>  -16.2489    1.0000 </r>
       <r>  -14.1714    1.0000 </r>
       <r>  -14.1312    1.0000 </r>
       <r>  -14.0215    1.0000 </r>
       <r>  -13.9244    1.0000 </r>
       <r>  -13.8330    1.0000 </r>
       <r>  -13.7793    1.0000 </r>
       <r>   -7.4666    1.0000 </r>
       <r>   -7.4466    1.0000 </r>
       <r>   -7.3009    1.0000 </r>
       <r>   -7.2955    1.0000 </r>
       <r>   -7.2807    1.0000 </r>
       <r>   -7.2788    1.0000 </r>
       <r>   -7.2541    1.0000 </r>
       <r>   -7.2480    1.0000 </r>
       <r>   -3.1736    1.0000 </r>
       <r>   -2.8572    1.0000 </r>
       <r>   -2.7591    1.0000 </r>
       <r>   -2.2163    1.0000 </r>
       <r>   -2.1059    1.0000 </r>
       <r>   -1.9993    1.0000 </r>
       <r>   -1.6897    1.0000 </r>
       <r>   -1.6347    1.0000 </r>
       <r>   -1.4572    1.0000 </r>
       <r>   -1.4091    1.0000 </r>
       <r>   -1.3889    1.0000 </r>
       <r>   -1.2873    1.0000 </r>
       <r>   -1.2686    1.0000 </r>
       <r>   -1.1340    1.0000 </r>
       <r>   -1.0961    1.0000 </r>
       <r>   -0.9820    1.0000 </r>
       <r>   -0.6739    1.0000 </r>
       <r>   -0.5112    1.0000 </r>
       <r>    3.3511    0.0000 </r>
       <r>    3.9505    0.0000 </r>
       <r>    4.1756    0.0000 </r>
       <r>    5.1048    0.0000 </r>
       <r>    5.4124    0.0000 </r>
       <r>    5.9484    0.0000 </r>
       <r>    6.2165    0.0000 </r>
       <r>    6.4335    0.0000 </r>
       <r>    6.7278    0.0000 </r>
       <r>    6.7829    0.0000 </r>
       <r>    6.8586    0.0000 </r>
       <r>    7.0418    0.0000 </r>
      </set>
      <set comment="kpoint 13">
       <r>  -20.9095    1.0000 </r>
       <r>  -20.9094    1.0000 </r>
       <r>  -16.4035    1.0000 </r>
       <r>  -16.4028    1.0000 </r>
       <r>  -16.3564    1.0000 </r>
       <r>  -16.3551    1.0000 </r>
       <r>  -16.2659    1.0000 </r>
       <r>  -16.2657    1.0000 </r>
       <r>  -16.2505    1.0000 </r>
       <r>  -16.2502    1.0000 </r>
       <r>  -16.2493    1.0000 </r>
       <r>  -16.2490    1.0000 </r>
       <r>  -14.1729    1.0000 </r>
       <r>  -14.1346    1.0000 </r>
       <r>  -14.0141    1.0000 </r>
       <r>  -13.9279    1.0000 </r>
       <r>  -13.8302    1.0000 </r>
       <r>  -13.7811    1.0000 </r>
       <r>   -7.4617    1.0000 </r>
       <r>   -7.4547    1.0000 </r>
       <r>   -7.3020    1.0000 </r>
       <r>   -7.2944    1.0000 </r>
       <r>   -7.2829    1.0000 </r>
       <r>   -7.2769    1.0000 </r>
       <r>   -7.2507    1.0000 </r>
       <r>   -7.2486    1.0000 </r>
       <r>   -3.1597    1.0000 </r>
       <r>   -2.8538    1.0000 </r>
       <r>   -2.7619    1.0000 </r>
       <r>   -2.2225    1.0000 </r>
       <r>   -2.1145    1.0000 </r>
       <r>   -2.0030    1.0000 </r>
       <r>   -1.6918    1.0000 </r>
       <r>   -1.6261    1.0000 </r>
       <r>   -1.4764    1.0000 </r>
       <r>   -1.4115    1.0000 </r>
       <r>   -1.3677    1.0000 </r>
       <r>   -1.2889    1.0000 </r>
       <r>   -1.2582    1.0000 </r>
       <r>   -1.1380    1.0000 </r>
       <r>   -1.0987    1.0000 </r>
       <r>   -0.9726    1.0000 </r>
       <r>   -0.6771    1.0000 </r>
       <r>   -0.5320    1.0000 </r>
       <r>    3.3587    0.0000 </r>
       <r>    3.9542    0.0000 </r>
       <r>    4.1790    0.0000 </r>
       <r>    5.0971    0.0000 </r>
       <r>    5.4230    0.0000 </r>
       <r>    5.9224    0.0000 </r>
       <r>    6.2229    0.0000 </r>
       <r>    6.4696    0.0000 </r>
       <r>    6.7003    0.0000 </r>
       <r>    6.7894    0.0000 </r>
       <r>    6.8645    0.0000 </r>
       <r>    7.0651    0.0000 </r>
      </set>
      <set comment="kpoint 14">
       <r>  -20.9096    1.0000 </r>
       <r>  -20.9093    1.0000 </r>
       <r>  -16.4033    1.0000 </r>
       <r>  -16.4029    1.0000 </r>
       <r>  -16.3561    1.0000 </r>
       <r>  -16.3555    1.0000 </r>
       <r>  -16.2659    1.0000 </r>
       <r>  -16.2657    1.0000 </r>
       <r>  -16.2505    1.0000 </r>
       <r>  -16.2500    1.0000 </r>
       <r>  -16.2495    1.0000 </r>
       <r>  -16.2488    1.0000 </r>
       <r>  -14.1742    1.0000 </r>
       <r>  -14.1365    1.0000 </r>
       <r>  -14.0091    1.0000 </r>
       <r>  -13.9301    1.0000 </r>
       <r>  -13.8280    1.0000 </r>
       <r>  -13.7827    1.0000 </r>
       <r>   -7.4611    1.0000 </r>
       <r>   -7.4581    1.0000 </r>
       <r>   -7.3029    1.0000 </r>
       <r>   -7.2945    1.0000 </r>
       <r>   -7.2837    1.0000 </r>
       <r>   -7.2757    1.0000 </r>
       <r>   -7.2518    1.0000 </r>
       <r>   -7.2442    1.0000 </r>
       <r>   -3.1517    1.0000 </r>
       <r>   -2.8474    1.0000 </r>
       <r>   -2.7663    1.0000 </r>
       <r>   -2.2284    1.0000 </r>
       <r>   -2.1232    1.0000 </r>
       <r>   -2.0075    1.0000 </r>
       <r>   -1.6911    1.0000 </r>
       <r>   -1.6210    1.0000 </r>
       <r>   -1.4907    1.0000 </r>
       <r>   -1.3932    1.0000 </r>
       <r>   -1.3682    1.0000 </r>
       <r>   -1.2801    1.0000 </r>
       <r>   -1.2571    1.0000 </r>
       <r>   -1.1398    1.0000 </r>
       <r>   -1.1024    1.0000 </r>
       <r>   -0.9643    1.0000 </r>
       <r>   -0.6827    1.0000 </r>
       <r>   -0.5459    1.0000 </r>
       <r>    3.3617    0.0000 </r>
       <r>    3.9599    0.0000 </r>
       <r>    4.1799    0.0000 </r>
       <r>    5.0851    0.0000 </r>
       <r>    5.4294    0.0000 </r>
       <r>    5.9094    0.0000 </r>
       <r>    6.2319    0.0000 </r>
       <r>    6.4842    0.0000 </r>
       <r>    6.6522    0.0000 </r>
       <r>    6.7969    0.0000 </r>
       <r>    6.8879    0.0000 </r>
       <r>    7.0867    0.0000 </r>
      </set>
     </set>
    </set>
   </array>
  </eigenvalues>
  <separator name="orbital magnetization" >
   <v name="MAGDIPOLOUT">      0.00000000      0.00000000      0.00000000</v>
  </separator>
  <dos>
   <i name="efermi">      0.64399455 </i>
   <total>
    <array>
     <dimension dim="1">gridpoints</dimension>
     <dimension dim="2">spin</dimension>
     <field>energy</field>
     <field>total</field>
     <field>integrated</field>
     <set>
      <set comment="spin 1">
       <r>   -22.3139     0.0000     0.0000 </r>
       <r>   -22.2111     0.0000     0.0000 </r>
       <r>   -22.1083     0.0000     0.0000 </r>
       <r>   -22.0054     0.0000     0.0000 </r>
       <r>   -21.9026     0.0000     0.0000 </r>
       <r>   -21.7998     0.0000     0.0000 </r>
       <r>   -21.6969     0.0000     0.0000 </r>
       <r>   -21.5941     0.0000     0.0000 </r>
       <r>   -21.4913     0.0000     0.0000 </r>
       <r>   -21.3884     0.0000     0.0000 </r>
       <r>   -21.2856     0.0000     0.0000 </r>
       <r>   -21.1828     0.0000     0.0000 </r>
       <r>   -21.0799     0.0000     0.0000 </r>
       <r>   -20.9771     0.0000     0.0000 </r>
       <r>   -20.8743    38.8972     4.0000 </r>
       <r>   -20.7714     0.0000     4.0000 </r>
       <r>   -20.6686     0.0000     4.0000 </r>
       <r>   -20.5657     0.0000     4.0000 </r>
       <r>   -20.4629     0.0000     4.0000 </r>
       <r>   -20.3601     0.0000     4.0000 </r>
       <r>   -20.2572     0.0000     4.0000 </r>
       <r>   -20.1544     0.0000     4.0000 </r>
       <r>   -20.0516     0.0000     4.0000 </r>
       <r>   -19.9487     0.0000     4.0000 </r>
       <r>   -19.8459     0.0000     4.0000 </r>
       <r>   -19.7431     0.0000     4.0000 </r>
       <r>   -19.6402     0.0000     4.0000 </r>
       <r>   -19.5374     0.0000     4.0000 </r>
       <r>   -19.4346     0.0000     4.0000 </r>
       <r>   -19.3317     0.0000     4.0000 </r>
       <r>   -19.2289     0.0000     4.0000 </r>
       <r>   -19.1261     0.0000     4.0000 </r>
       <r>   -19.0232     0.0000     4.0000 </r>
       <r>   -18.9204     0.0000     4.0000 </r>
       <r>   -18.8176     0.0000     4.0000 </r>
       <r>   -18.7147     0.0000     4.0000 </r>
       <r>   -18.6119     0.0000     4.0000 </r>
       <r>   -18.5090     0.0000     4.0000 </r>
       <r>   -18.4062     0.0000     4.0000 </r>
       <r>   -18.3034     0.0000     4.0000 </r>
       <r>   -18.2005     0.0000     4.0000 </r>
       <r>   -18.0977     0.0000     4.0000 </r>
       <r>   -17.9949     0.0000     4.0000 </r>
       <r>   -17.8920     0.0000     4.0000 </r>
       <r>   -17.7892     0.0000     4.0000 </r>
       <r>   -17.6864     0.0000     4.0000 </r>
       <r>   -17.5835     0.0000     4.0000 </r>
       <r>   -17.4807     0.0000     4.0000 </r>
       <r>   -17.3779     0.0000     4.0000 </r>
       <r>   -17.2750     0.0000     4.0000 </r>
       <r>   -17.1722     0.0000     4.0000 </r>
       <r>   -17.0694     0.0000     4.0000 </r>
       <r>   -16.9665     0.0000     4.0000 </r>
       <r>   -16.8637     0.0000     4.0000 </r>
       <r>   -16.7608     0.0000     4.0000 </r>
       <r>   -16.6580     0.0000     4.0000 </r>
       <r>   -16.5552     0.0000     4.0000 </r>
       <r>   -16.4523     0.0004     4.0000 </r>
       <r>   -16.3495    66.2481    10.8127 </r>
       <r>   -16.2467    90.3628    21.2925 </r>
       <r>   -16.1438     0.0000    24.0000 </r>
       <r>   -16.0410     0.0000    24.0000 </r>
       <r>   -15.9382     0.0000    24.0000 </r>
       <r>   -15.8353     0.0000    24.0000 </r>
       <r>   -15.7325     0.0000    24.0000 </r>
       <r>   -15.6297     0.0000    24.0000 </r>
       <r>   -15.5268     0.0000    24.0000 </r>
       <r>   -15.4240     0.0000    24.0000 </r>
       <r>   -15.3212     0.0000    24.0000 </r>
       <r>   -15.2183     0.0000    24.0000 </r>
       <r>   -15.1155     0.0000    24.0000 </r>
       <r>   -15.0127     0.0000    24.0000 </r>
       <r>   -14.9098     0.0000    24.0000 </r>
       <r>   -14.8070     0.0000    24.0000 </r>
       <r>   -14.7041     0.0000    24.0000 </r>
       <r>   -14.6013     0.0000    24.0000 </r>
       <r>   -14.4985     0.0000    24.0000 </r>
       <r>   -14.3956     0.0000    24.0000 </r>
       <r>   -14.2928     1.2140    24.1248 </r>
       <r>   -14.1900     4.3582    25.1148 </r>
       <r>   -14.0871    17.4147    27.3464 </r>
       <r>   -13.9843    18.6212    29.3964 </r>
       <r>   -13.8815    28.8096    32.4442 </r>
       <r>   -13.7786    26.2727    35.1462 </r>
       <r>   -13.6758     5.7626    36.0000 </r>
       <r>   -13.5730     0.0000    36.0000 </r>
       <r>   -13.4701     0.0000    36.0000 </r>
       <r>   -13.3673     0.0000    36.0000 </r>
       <r>   -13.2645     0.0000    36.0000 </r>
       <r>   -13.1616     0.0000    36.0000 </r>
       <r>   -13.0588     0.0000    36.0000 </r>
       <r>   -12.9559     0.0000    36.0000 </r>
       <r>   -12.8531     0.0000    36.0000 </r>
       <r>   -12.7503     0.0000    36.0000 </r>
       <r>   -12.6474     0.0000    36.0000 </r>
       <r>   -12.5446     0.0000    36.0000 </r>
       <r>   -12.4418     0.0000    36.0000 </r>
       <r>   -12.3389     0.0000    36.0000 </r>
       <r>   -12.2361     0.0000    36.0000 </r>
       <r>   -12.1333     0.0000    36.0000 </r>
       <r>   -12.0304     0.0000    36.0000 </r>
       <r>   -11.9276     0.0000    36.0000 </r>
       <r>   -11.8248     0.0000    36.0000 </r>
       <r>   -11.7219     0.0000    36.0000 </r>
       <r>   -11.6191     0.0000    36.0000 </r>
       <r>   -11.5163     0.0000    36.0000 </r>
       <r>   -11.4134     0.0000    36.0000 </r>
       <r>   -11.3106     0.0000    36.0000 </r>
       <r>   -11.2078     0.0000    36.0000 </r>
       <r>   -11.1049     0.0000    36.0000 </r>
       <r>   -11.0021     0.0000    36.0000 </r>
       <r>   -10.8992     0.0000    36.0000 </r>
       <r>   -10.7964     0.0000    36.0000 </r>
       <r>   -10.6936     0.0000    36.0000 </r>
       <r>   -10.5907     0.0000    36.0000 </r>
       <r>   -10.4879     0.0000    36.0000 </r>
       <r>   -10.3851     0.0000    36.0000 </r>
       <r>   -10.2822     0.0000    36.0000 </r>
       <r>   -10.1794     0.0000    36.0000 </r>
       <r>   -10.0766     0.0000    36.0000 </r>
       <r>    -9.9737     0.0000    36.0000 </r>
       <r>    -9.8709     0.0000    36.0000 </r>
       <r>    -9.7681     0.0000    36.0000 </r>
       <r>    -9.6652     0.0000    36.0000 </r>
       <r>    -9.5624     0.0000    36.0000 </r>
       <r>    -9.4596     0.0000    36.0000 </r>
       <r>    -9.3567     0.0000    36.0000 </r>
       <r>    -9.2539     0.0000    36.0000 </r>
       <r>    -9.1510     0.0000    36.0000 </r>
       <r>    -9.0482     0.0000    36.0000 </r>
       <r>    -8.9454     0.0000    36.0000 </r>
       <r>    -8.8425     0.0000    36.0000 </r>
       <r>    -8.7397     0.0000    36.0000 </r>
       <r>    -8.6369     0.0000    36.0000 </r>
       <r>    -8.5340     0.0000    36.0000 </r>
       <r>    -8.4312     0.0000    36.0000 </r>
       <r>    -8.3284     0.0000    36.0000 </r>
       <r>    -8.2255     0.0000    36.0000 </r>
       <r>    -8.1227     0.7203    36.0741 </r>
       <r>    -8.0199     0.0000    36.0741 </r>
       <r>    -7.9170     0.0000    36.0741 </r>
       <r>    -7.8142     9.6202    37.0634 </r>
       <r>    -7.7114     0.0000    37.1111 </r>
       <r>    -7.6085     0.0000    37.1111 </r>
       <r>    -7.5057     0.0000    37.1111 </r>
       <r>    -7.4029    17.2877    38.8889 </r>
       <r>    -7.3000    25.1496    41.4751 </r>
       <r>    -7.1972    37.4543    50.8889 </r>
       <r>    -7.0943     0.0000    50.8889 </r>
       <r>    -6.9915     5.7748    51.4827 </r>
       <r>    -6.8887     1.4398    51.9259 </r>
       <r>    -6.7858     0.0000    51.9259 </r>
       <r>    -6.6830     0.0000    51.9259 </r>
       <r>    -6.5802     0.0000    51.9259 </r>
       <r>    -6.4773     0.0273    51.9287 </r>
       <r>    -6.3745     0.0000    52.0000 </r>
       <r>    -6.2717     0.0000    52.0000 </r>
       <r>    -6.1688     0.0000    52.0000 </r>
       <r>    -6.0660     0.0000    52.0000 </r>
       <r>    -5.9632     0.0000    52.0000 </r>
       <r>    -5.8603     0.0000    52.0000 </r>
       <r>    -5.7575     0.0000    52.0000 </r>
       <r>    -5.6547     0.0000    52.0000 </r>
       <r>    -5.5518     0.0000    52.0000 </r>
       <r>    -5.4490     0.0000    52.0000 </r>
       <r>    -5.3462     0.0000    52.0000 </r>
       <r>    -5.2433     0.0000    52.0000 </r>
       <r>    -5.1405     0.0000    52.0000 </r>
       <r>    -5.0376     0.0000    52.0000 </r>
       <r>    -4.9348     0.0000    52.0000 </r>
       <r>    -4.8320     0.0000    52.0000 </r>
       <r>    -4.7291     0.0000    52.0000 </r>
       <r>    -4.6263     0.0000    52.0000 </r>
       <r>    -4.5235     0.0000    52.0000 </r>
       <r>    -4.4206     0.0000    52.0000 </r>
       <r>    -4.3178     0.0000    52.0000 </r>
       <r>    -4.2150     0.0000    52.0000 </r>
       <r>    -4.1121     0.0000    52.0000 </r>
       <r>    -4.0093     0.0000    52.0000 </r>
       <r>    -3.9065     0.0000    52.0000 </r>
       <r>    -3.8036     0.0000    52.0000 </r>
       <r>    -3.7008     0.0000    52.0000 </r>
       <r>    -3.5980     0.0000    52.0000 </r>
       <r>    -3.4951     0.0000    52.0000 </r>
       <r>    -3.3923     0.1546    52.0159 </r>
       <r>    -3.2894     4.9981    52.5881 </r>
       <r>    -3.1866     2.5512    52.8549 </r>
       <r>    -3.0838     5.7624    54.0000 </r>
       <r>    -2.9809     7.1813    54.7385 </r>
       <r>    -2.8781     8.6317    55.6284 </r>
       <r>    -2.7753     3.0886    56.0954 </r>
       <r>    -2.6724     8.5558    57.3984 </r>
       <r>    -2.5696     0.0002    57.8519 </r>
       <r>    -2.4668     1.4404    58.0000 </r>
       <r>    -2.3639     0.0000    58.0000 </r>
       <r>    -2.2611     0.0000    58.0000 </r>
       <r>    -2.1583     8.8247    58.9075 </r>
       <r>    -2.0554    20.2950    61.8648 </r>
       <r>    -1.9526     6.8992    63.0058 </r>
       <r>    -1.8498     2.1609    63.5556 </r>
       <r>    -1.7469    13.1665    64.9095 </r>
       <r>    -1.6441     5.9041    66.5331 </r>
       <r>    -1.5413     6.4123    67.4743 </r>
       <r>    -1.4384    27.5446    70.3140 </r>
       <r>    -1.3356    30.8041    73.6122 </r>
       <r>    -1.2327    30.7833    77.4619 </r>
       <r>    -1.1299    20.5368    80.1119 </r>
       <r>    -1.0271    18.6132    82.4326 </r>
       <r>    -0.9242     8.6891    83.8565 </r>
       <r>    -0.8214     7.2031    84.6667 </r>
       <r>    -0.7186     4.3218    85.1111 </r>
       <r>    -0.6157     8.5939    85.9949 </r>
       <r>    -0.5129     7.4635    86.7675 </r>
       <r>    -0.4101     3.7567    87.2752 </r>
       <r>    -0.3072     1.4406    87.4815 </r>
       <r>    -0.2044     0.0000    87.4815 </r>
       <r>    -0.1016     0.0000    87.4815 </r>
       <r>     0.0013     2.7567    87.7650 </r>
       <r>     0.1041     0.0000    87.9259 </r>
       <r>     0.2069     0.0000    87.9259 </r>
       <r>     0.3098     0.0000    87.9259 </r>
       <r>     0.4126     0.0000    87.9259 </r>
       <r>     0.5155     0.0000    87.9259 </r>
       <r>     0.6183     0.7203    88.0000 </r>
       <r>     0.7211     0.0000    88.0000 </r>
       <r>     0.8240     0.0000    88.0000 </r>
       <r>     0.9268     0.0000    88.0000 </r>
       <r>     1.0296     0.0000    88.0000 </r>
       <r>     1.1325     0.0000    88.0000 </r>
       <r>     1.2353     0.0000    88.0000 </r>
       <r>     1.3381     0.0000    88.0000 </r>
       <r>     1.4410     0.0000    88.0000 </r>
       <r>     1.5438     0.0000    88.0000 </r>
       <r>     1.6466     0.0000    88.0000 </r>
       <r>     1.7495     0.0000    88.0000 </r>
       <r>     1.8523     0.0000    88.0000 </r>
       <r>     1.9551     0.0000    88.0000 </r>
       <r>     2.0580     0.0000    88.0000 </r>
       <r>     2.1608     0.0000    88.0000 </r>
       <r>     2.2636     0.0000    88.0000 </r>
       <r>     2.3665     0.0000    88.0000 </r>
       <r>     2.4693     0.0000    88.0000 </r>
       <r>     2.5722     0.0000    88.0000 </r>
       <r>     2.6750     0.0000    88.0000 </r>
       <r>     2.7778     0.7203    88.0741 </r>
       <r>     2.8807     1.4406    88.2222 </r>
       <r>     2.9835     0.0000    88.2222 </r>
       <r>     3.0863     3.9597    88.6294 </r>
       <r>     3.1892     1.4406    89.1111 </r>
       <r>     3.2920     0.0000    89.1111 </r>
       <r>     3.3948     7.8367    89.9170 </r>
       <r>     3.4977     0.0000    90.0000 </r>
       <r>     3.6005     3.9015    90.4012 </r>
       <r>     3.7033     0.0000    90.4444 </r>
       <r>     3.8062     4.0517    90.8611 </r>
       <r>     3.9090     2.8812    91.3333 </r>
       <r>     4.0118     8.6438    92.2222 </r>
       <r>     4.1147     8.6433    93.1111 </r>
       <r>     4.2175     4.3219    93.5556 </r>
       <r>     4.3203     1.3346    93.6928 </r>
       <r>     4.4232     0.0000    94.0000 </r>
       <r>     4.5260     0.0000    94.0000 </r>
       <r>     4.6289     0.0000    94.0000 </r>
       <r>     4.7317     0.6413    94.0659 </r>
       <r>     4.8345     0.0000    94.0741 </r>
       <r>     4.9374     0.0000    94.0741 </r>
       <r>     5.0402     4.2955    94.5158 </r>
       <r>     5.1430    10.0612    95.5532 </r>
       <r>     5.2459     4.3219    96.0000 </r>
       <r>     5.3487     0.0000    96.0000 </r>
       <r>     5.4515    12.9644    97.3332 </r>
       <r>     5.5544     0.0000    97.3333 </r>
       <r>     5.6572     5.7581    97.9255 </r>
       <r>     5.7600     2.8813    98.5185 </r>
       <r>     5.8629     0.7203    98.5926 </r>
       <r>     5.9657    14.0188   100.0342 </r>
       <r>     6.0685     0.6981   100.2199 </r>
       <r>     6.1714     4.2685   100.8834 </r>
       <r>     6.2742     8.7605   101.8638 </r>
       <r>     6.3771    10.0832   103.1851 </r>
       <r>     6.4799    10.6908   104.2846 </r>
       <r>     6.5827    10.0825   105.6294 </r>
       <r>     6.6856     9.8773   106.6454 </r>
       <r>     6.7884    14.0061   108.6996 </r>
       <r>     6.8912    12.0181   110.4211 </r>
       <r>     6.9941     0.8510   110.7542 </r>
       <r>     7.0969     5.7311   111.7005 </r>
       <r>     7.1997     1.4406   112.0000 </r>
       <r>     7.3026     0.0000   112.0000 </r>
       <r>     7.4054     0.0000   112.0000 </r>
       <r>     7.5082     0.0000   112.0000 </r>
       <r>     7.6111     0.0000   112.0000 </r>
       <r>     7.7139     0.0000   112.0000 </r>
       <r>     7.8167     0.0000   112.0000 </r>
       <r>     7.9196     0.0000   112.0000 </r>
       <r>     8.0224     0.0000   112.0000 </r>
       <r>     8.1252     0.0000   112.0000 </r>
       <r>     8.2281     0.0000   112.0000 </r>
       <r>     8.3309     0.0000   112.0000 </r>
       <r>     8.4338     0.0000   112.0000 </r>
       <r>     8.5366     0.0000   112.0000 </r>
      </set>
     </set>
    </array>
   </total>
   <partial>
    <array>
     <dimension dim="1">gridpoints</dimension>
     <dimension dim="2">spin</dimension>
     <dimension dim="3">ion</dimension>
     <field>energy</field>
     <field>  s  </field>
     <field>  p  </field>
     <field>  d  </field>
     <set>
      <set comment="ion 1">
       <set comment="spin 1">
        <r>   -22.3139     0.0000     0.0000     0.0000 </r>
        <r>   -22.2111     0.0000     0.0000     0.0000 </r>
        <r>   -22.1083     0.0000     0.0000     0.0000 </r>
        <r>   -22.0054     0.0000     0.0000     0.0000 </r>
        <r>   -21.9026     0.0000     0.0000     0.0000 </r>
        <r>   -21.7998     0.0000     0.0000     0.0000 </r>
        <r>   -21.6969     0.0000     0.0000     0.0000 </r>
        <r>   -21.5941     0.0000     0.0000     0.0000 </r>
        <r>   -21.4913     0.0000     0.0000     0.0000 </r>
        <r>   -21.3884     0.0000     0.0000     0.0000 </r>
        <r>   -21.2856     0.0000     0.0000     0.0000 </r>
        <r>   -21.1828     0.0000     0.0000     0.0000 </r>
        <r>   -21.0799     0.0000     0.0000     0.0000 </r>
        <r>   -20.9771     0.0000     0.0000     0.0000 </r>
        <r>   -20.8743    17.2632     0.0000     0.0000 </r>
        <r>   -20.7714     0.0000     0.0000     0.0000 </r>
        <r>   -20.6686     0.0000     0.0000     0.0000 </r>
        <r>   -20.5657     0.0000     0.0000     0.0000 </r>
        <r>   -20.4629     0.0000     0.0000     0.0000 </r>
        <r>   -20.3601     0.0000     0.0000     0.0000 </r>
        <r>   -20.2572     0.0000     0.0000     0.0000 </r>
        <r>   -20.1544     0.0000     0.0000     0.0000 </r>
        <r>   -20.0516     0.0000     0.0000     0.0000 </r>
        <r>   -19.9487     0.0000     0.0000     0.0000 </r>
        <r>   -19.8459     0.0000     0.0000     0.0000 </r>
        <r>   -19.7431     0.0000     0.0000     0.0000 </r>
        <r>   -19.6402     0.0000     0.0000     0.0000 </r>
        <r>   -19.5374     0.0000     0.0000     0.0000 </r>
        <r>   -19.4346     0.0000     0.0000     0.0000 </r>
        <r>   -19.3317     0.0000     0.0000     0.0000 </r>
        <r>   -19.2289     0.0000     0.0000     0.0000 </r>
        <r>   -19.1261     0.0000     0.0000     0.0000 </r>
        <r>   -19.0232     0.0000     0.0000     0.0000 </r>
        <r>   -18.9204     0.0000     0.0000     0.0000 </r>
        <r>   -18.8176     0.0000     0.0000     0.0000 </r>
        <r>   -18.7147     0.0000     0.0000     0.0000 </r>
        <r>   -18.6119     0.0000     0.0000     0.0000 </r>
        <r>   -18.5090     0.0000     0.0000     0.0000 </r>
        <r>   -18.4062     0.0000     0.0000     0.0000 </r>
        <r>   -18.3034     0.0000     0.0000     0.0000 </r>
        <r>   -18.2005     0.0000     0.0000     0.0000 </r>
        <r>   -18.0977     0.0000     0.0000     0.0000 </r>
        <r>   -17.9949     0.0000     0.0000     0.0000 </r>
        <r>   -17.8920     0.0000     0.0000     0.0000 </r>
        <r>   -17.7892     0.0000     0.0000     0.0000 </r>
        <r>   -17.6864     0.0000     0.0000     0.0000 </r>
        <r>   -17.5835     0.0000     0.0000     0.0000 </r>
        <r>   -17.4807     0.0000     0.0000     0.0000 </r>
        <r>   -17.3779     0.0000     0.0000     0.0000 </r>
        <r>   -17.2750     0.0000     0.0000     0.0000 </r>
        <r>   -17.1722     0.0000     0.0000     0.0000 </r>
        <r>   -17.0694     0.0000     0.0000     0.0000 </r>
        <r>   -16.9665     0.0000     0.0000     0.0000 </r>
        <r>   -16.8637     0.0000     0.0000     0.0000 </r>
        <r>   -16.7608     0.0000     0.0000     0.0000 </r>
        <r>   -16.6580     0.0000     0.0000     0.0000 </r>
        <r>   -16.5552     0.0000     0.0000     0.0000 </r>
        <r>   -16.4523     0.0000     0.0000     0.0000 </r>
        <r>   -16.3495     0.0001     0.0001     0.0000 </r>
        <r>   -16.2467     0.0000     0.0000     0.0000 </r>
        <r>   -16.1438     0.0000     0.0000     0.0000 </r>
        <r>   -16.0410     0.0000     0.0000     0.0000 </r>
        <r>   -15.9382     0.0000     0.0000     0.0000 </r>
        <r>   -15.8353     0.0000     0.0000     0.0000 </r>
        <r>   -15.7325     0.0000     0.0000     0.0000 </r>
        <r>   -15.6297     0.0000     0.0000     0.0000 </r>
        <r>   -15.5268     0.0000     0.0000     0.0000 </r>
        <r>   -15.4240     0.0000     0.0000     0.0000 </r>
        <r>   -15.3212     0.0000     0.0000     0.0000 </r>
        <r>   -15.2183     0.0000     0.0000     0.0000 </r>
        <r>   -15.1155     0.0000     0.0000     0.0000 </r>
        <r>   -15.0127     0.0000     0.0000     0.0000 </r>
        <r>   -14.9098     0.0000     0.0000     0.0000 </r>
        <r>   -14.8070     0.0000     0.0000     0.0000 </r>
        <r>   -14.7041     0.0000     0.0000     0.0000 </r>
        <r>   -14.6013     0.0000     0.0000     0.0000 </r>
        <r>   -14.4985     0.0000     0.0000     0.0000 </r>
        <r>   -14.3956     0.0000     0.0000     0.0000 </r>
        <r>   -14.2928     0.0006     0.0001     0.0000 </r>
        <r>   -14.1900     0.0011     0.0010     0.0000 </r>
        <r>   -14.0871     0.0007     0.0053     0.0002 </r>
        <r>   -13.9843     0.0016     0.0036     0.0003 </r>
        <r>   -13.8815     0.0011     0.0050     0.0005 </r>
        <r>   -13.7786     0.0014     0.0029     0.0004 </r>
        <r>   -13.6758     0.0003     0.0007     0.0001 </r>
        <r>   -13.5730     0.0000     0.0000     0.0000 </r>
        <r>   -13.4701     0.0000     0.0000     0.0000 </r>
        <r>   -13.3673     0.0000     0.0000     0.0000 </r>
        <r>   -13.2645     0.0000     0.0000     0.0000 </r>
        <r>   -13.1616     0.0000     0.0000     0.0000 </r>
        <r>   -13.0588     0.0000     0.0000     0.0000 </r>
        <r>   -12.9559     0.0000     0.0000     0.0000 </r>
        <r>   -12.8531     0.0000     0.0000     0.0000 </r>
        <r>   -12.7503     0.0000     0.0000     0.0000 </r>
        <r>   -12.6474     0.0000     0.0000     0.0000 </r>
        <r>   -12.5446     0.0000     0.0000     0.0000 </r>
        <r>   -12.4418     0.0000     0.0000     0.0000 </r>
        <r>   -12.3389     0.0000     0.0000     0.0000 </r>
        <r>   -12.2361     0.0000     0.0000     0.0000 </r>
        <r>   -12.1333     0.0000     0.0000     0.0000 </r>
        <r>   -12.0304     0.0000     0.0000     0.0000 </r>
        <r>   -11.9276     0.0000     0.0000     0.0000 </r>
        <r>   -11.8248     0.0000     0.0000     0.0000 </r>
        <r>   -11.7219     0.0000     0.0000     0.0000 </r>
        <r>   -11.6191     0.0000     0.0000     0.0000 </r>
        <r>   -11.5163     0.0000     0.0000     0.0000 </r>
        <r>   -11.4134     0.0000     0.0000     0.0000 </r>
        <r>   -11.3106     0.0000     0.0000     0.0000 </r>
        <r>   -11.2078     0.0000     0.0000     0.0000 </r>
        <r>   -11.1049     0.0000     0.0000     0.0000 </r>
        <r>   -11.0021     0.0000     0.0000     0.0000 </r>
        <r>   -10.8992     0.0000     0.0000     0.0000 </r>
        <r>   -10.7964     0.0000     0.0000     0.0000 </r>
        <r>   -10.6936     0.0000     0.0000     0.0000 </r>
        <r>   -10.5907     0.0000     0.0000     0.0000 </r>
        <r>   -10.4879     0.0000     0.0000     0.0000 </r>
        <r>   -10.3851     0.0000     0.0000     0.0000 </r>
        <r>   -10.2822     0.0000     0.0000     0.0000 </r>
[...]
       <set comment="band 16">
        <r>  0.0000  0.0003  0.0000 </r>
        <r>  0.0000  0.0003  0.0000 </r>
        <r>  0.0000  0.0016  0.0084 </r>
        <r>  0.0000  0.0016  0.0084 </r>
        <r>  0.1969  0.0000  0.0000 </r>
        <r>  0.1969  0.0000  0.0000 </r>
        <r>  0.1963  0.0000  0.0000 </r>
        <r>  0.1963  0.0000  0.0000 </r>
        <r>  0.0002  0.0000  0.0000 </r>
        <r>  0.0002  0.0000  0.0000 </r>
       </set>
       <set comment="band 17">
        <r>  0.0001  0.0000  0.0000 </r>
        <r>  0.0001  0.0000  0.0000 </r>
        <r>  0.0014  0.0006  0.0217 </r>
        <r>  0.0014  0.0006  0.0218 </r>
        <r>  0.0656  0.0001  0.0000 </r>
        <r>  0.0656  0.0001  0.0000 </r>
        <r>  0.0584  0.0001  0.0000 </r>
        <r>  0.0584  0.0001  0.0000 </r>
        <r>  0.2616  0.0000  0.0000 </r>
        <r>  0.2616  0.0000  0.0000 </r>
       </set>
       <set comment="band 18">
        <r>  0.0001  0.0000  0.0000 </r>
        <r>  0.0001  0.0000  0.0000 </r>
        <r>  0.0000  0.0005  0.0230 </r>
        <r>  0.0000  0.0005  0.0230 </r>
        <r>  0.1979  0.0000  0.0000 </r>
        <r>  0.1979  0.0000  0.0000 </r>
        <r>  0.1894  0.0000  0.0000 </r>
        <r>  0.1894  0.0000  0.0000 </r>
        <r>  0.0011  0.0000  0.0000 </r>
        <r>  0.0011  0.0000  0.0000 </r>
       </set>
       <set comment="band 19">
        <r>  0.0000  0.0435  0.0000 </r>
        <r>  0.0000  0.0435  0.0000 </r>
        <r>  0.1113  0.0012  0.0008 </r>
        <r>  0.4185  0.0003  0.0002 </r>
        <r>  0.0022  0.0155  0.0002 </r>
        <r>  0.0022  0.0155  0.0002 </r>
        <r>  0.0024  0.0156  0.0002 </r>
        <r>  0.0024  0.0156  0.0002 </r>
        <r>  0.0100  0.0030  0.0006 </r>
        <r>  0.0100  0.0030  0.0006 </r>
       </set>
       <set comment="band 20">
        <r>  0.0000  0.0453  0.0000 </r>
        <r>  0.0000  0.0453  0.0000 </r>
        <r>  0.4188  0.0004  0.0002 </r>
        <r>  0.1070  0.0013  0.0007 </r>
        <r>  0.0070  0.0081  0.0004 </r>
        <r>  0.0070  0.0081  0.0004 </r>
        <r>  0.0068  0.0081  0.0004 </r>
        <r>  0.0068  0.0081  0.0004 </r>
        <r>  0.0011  0.0177  0.0001 </r>
        <r>  0.0011  0.0177  0.0001 </r>
       </set>
       <set comment="band 21">
        <r>  0.0000  0.3859  0.0000 </r>
        <r>  0.0000  0.3823  0.0000 </r>
        <r>  0.0007  0.0000  0.0000 </r>
        <r>  0.0007  0.0000  0.0000 </r>
        <r>  0.0003  0.0003  0.0000 </r>
        <r>  0.0003  0.0003  0.0000 </r>
        <r>  0.0004  0.0003  0.0000 </r>
        <r>  0.0004  0.0003  0.0000 </r>
        <r>  0.0000  0.0006  0.0000 </r>
        <r>  0.0000  0.0006  0.0000 </r>
       </set>
       <set comment="band 22">
        <r>  0.0000  0.3768  0.0000 </r>
        <r>  0.0000  0.3794  0.0000 </r>
        <r>  0.0066  0.0000  0.0000 </r>
        <r>  0.0084  0.0000  0.0000 </r>
        <r>  0.0000  0.0004  0.0000 </r>
        <r>  0.0000  0.0004  0.0000 </r>
        <r>  0.0001  0.0004  0.0000 </r>
        <r>  0.0001  0.0004  0.0000 </r>
        <r>  0.0000  0.0008  0.0000 </r>
        <r>  0.0000  0.0008  0.0000 </r>
       </set>
       <set comment="band 23">
        <r>  0.0000  0.3847  0.0000 </r>
        <r>  0.0000  0.3847  0.0000 </r>
        <r>  0.0002  0.0000  0.0000 </r>
        <r>  0.0000  0.0000  0.0000 </r>
        <r>  0.0004  0.0007  0.0000 </r>
        <r>  0.0004  0.0007  0.0000 </r>
        <r>  0.0005  0.0006  0.0000 </r>
        <r>  0.0005  0.0006  0.0000 </r>
        <r>  0.0000  0.0004  0.0000 </r>
        <r>  0.0000  0.0004  0.0000 </r>
       </set>
       <set comment="band 24">
        <r>  0.0000  0.3854  0.0000 </r>
        <r>  0.0000  0.3844  0.0000 </r>
        <r>  0.0000  0.0000  0.0000 </r>
        <r>  0.0001  0.0000  0.0000 </r>
        <r>  0.0002  0.0003  0.0000 </r>
        <r>  0.0002  0.0003  0.0000 </r>
        <r>  0.0001  0.0003  0.0000 </r>
        <r>  0.0001  0.0003  0.0000 </r>
        <r>  0.0007  0.0011  0.0000 </r>
        <r>  0.0007  0.0011  0.0000 </r>
       </set>
       <set comment="band 25">
        <r>  0.0000  0.3489  0.0000 </r>
        <r>  0.0000  0.3498  0.0000 </r>
        <r>  0.0315  0.0001  0.0001 </r>
        <r>  0.0263  0.0002  0.0001 </r>
        <r>  0.0025  0.0011  0.0000 </r>
        <r>  0.0025  0.0011  0.0000 </r>
        <r>  0.0024  0.0010  0.0000 </r>
        <r>  0.0024  0.0010  0.0000 </r>
        <r>  0.0000  0.0023  0.0000 </r>
        <r>  0.0000  0.0023  0.0000 </r>
       </set>
       <set comment="band 26">
        <r>  0.0000  0.3432  0.0000 </r>
        <r>  0.0000  0.3443  0.0000 </r>
        <r>  0.0290  0.0002  0.0001 </r>
        <r>  0.0371  0.0001  0.0001 </r>
        <r>  0.0011  0.0023  0.0000 </r>
        <r>  0.0011  0.0023  0.0000 </r>
        <r>  0.0010  0.0023  0.0000 </r>
        <r>  0.0010  0.0023  0.0000 </r>
        <r>  0.0034  0.0003  0.0001 </r>
        <r>  0.0034  0.0003  0.0001 </r>
       </set>
       <set comment="band 27">
        <r>  0.0000  0.0006  0.0001 </r>
        <r>  0.0000  0.0006  0.0001 </r>
        <r>  0.0000  0.0485  0.0001 </r>
        <r>  0.0000  0.0486  0.0001 </r>
        <r>  0.0000  0.0082  0.0002 </r>
        <r>  0.0000  0.0082  0.0002 </r>
        <r>  0.0000  0.0082  0.0002 </r>
        <r>  0.0000  0.0082  0.0002 </r>
        <r>  0.0000  0.2030  0.0001 </r>
        <r>  0.0000  0.2030  0.0001 </r>
       </set>
       <set comment="band 28">
        <r>  0.0000  0.0002  0.0003 </r>
        <r>  0.0000  0.0002  0.0003 </r>
        <r>  0.0001  0.0419  0.0020 </r>
        <r>  0.0001  0.0425  0.0020 </r>
        <r>  0.0004  0.1026  0.0001 </r>
        <r>  0.0004  0.1026  0.0001 </r>
        <r>  0.0006  0.1235  0.0001 </r>
        <r>  0.0006  0.1235  0.0001 </r>
        <r>  0.0000  0.0005  0.0002 </r>
        <r>  0.0000  0.0005  0.0002 </r>
       </set>
       <set comment="band 29">
        <r>  0.0000  0.0011  0.0002 </r>
        <r>  0.0000  0.0011  0.0002 </r>
        <r>  0.0107  0.0412  0.0020 </r>
        <r>  0.0108  0.0403  0.0021 </r>
        <r>  0.0013  0.1101  0.0003 </r>
        <r>  0.0013  0.1101  0.0003 </r>
        <r>  0.0011  0.0899  0.0002 </r>
        <r>  0.0011  0.0899  0.0002 </r>
        <r>  0.0000  0.0211  0.0002 </r>
        <r>  0.0000  0.0211  0.0002 </r>
       </set>
       <set comment="band 30">
        <r>  0.0000  0.0044  0.0002 </r>
        <r>  0.0000  0.0044  0.0002 </r>
        <r>  0.0002  0.0239  0.0048 </r>
        <r>  0.0001  0.0246  0.0048 </r>
        <r>  0.0011  0.0971  0.0002 </r>
        <r>  0.0011  0.0971  0.0002 </r>
        <r>  0.0010  0.0941  0.0002 </r>
        <r>  0.0010  0.0941  0.0002 </r>
        <r>  0.0000  0.0548  0.0000 </r>
        <r>  0.0000  0.0548  0.0000 </r>
       </set>
       <set comment="band 31">
        <r>  0.0017  0.0004  0.0004 </r>
        <r>  0.0017  0.0004  0.0004 </r>
        <r>  0.0063  0.0090  0.0015 </r>
        <r>  0.0064  0.0085  0.0016 </r>
        <r>  0.0010  0.1019  0.0001 </r>
        <r>  0.0010  0.1019  0.0001 </r>
        <r>  0.0012  0.1034  0.0001 </r>
        <r>  0.0012  0.1034  0.0001 </r>
        <r>  0.0002  0.0342  0.0000 </r>
        <r>  0.0002  0.0342  0.0000 </r>
       </set>
       <set comment="band 32">
        <r>  0.0018  0.0003  0.0002 </r>
        <r>  0.0018  0.0003  0.0002 </r>
        <r>  0.0002  0.0066  0.0011 </r>
        <r>  0.0002  0.0066  0.0011 </r>
        <r>  0.0001  0.0803  0.0000 </r>
        <r>  0.0001  0.0803  0.0000 </r>
        <r>  0.0001  0.0845  0.0000 </r>
        <r>  0.0001  0.0845  0.0000 </r>
        <r>  0.0022  0.0832  0.0001 </r>
        <r>  0.0022  0.0832  0.0001 </r>
       </set>
       <set comment="band 33">
        <r>  0.0002  0.0052  0.0011 </r>
        <r>  0.0002  0.0052  0.0011 </r>
        <r>  0.0082  0.0091  0.0009 </r>
        <r>  0.0082  0.0090  0.0008 </r>
        <r>  0.0006  0.0487  0.0002 </r>
        <r>  0.0006  0.0487  0.0002 </r>
        <r>  0.0007  0.0537  0.0002 </r>
        <r>  0.0007  0.0537  0.0002 </r>
        <r>  0.0002  0.1545  0.0001 </r>
        <r>  0.0002  0.1545  0.0001 </r>
       </set>
       <set comment="band 34">
        <r>  0.0000  0.0050  0.0006 </r>
        <r>  0.0000  0.0050  0.0006 </r>
        <r>  0.0000  0.0012  0.0024 </r>
        <r>  0.0001  0.0012  0.0025 </r>
        <r>  0.0001  0.0862  0.0000 </r>
        <r>  0.0001  0.0862  0.0000 </r>
        <r>  0.0000  0.0802  0.0000 </r>
        <r>  0.0000  0.0802  0.0000 </r>
        <r>  0.0000  0.1081  0.0001 </r>
        <r>  0.0000  0.1081  0.0001 </r>
       </set>
       <set comment="band 35">
        <r>  0.0000  0.0044  0.0008 </r>
        <r>  0.0000  0.0044  0.0008 </r>
        <r>  0.0001  0.0012  0.0021 </r>
        <r>  0.0001  0.0013  0.0020 </r>
        <r>  0.0000  0.1288  0.0000 </r>
        <r>  0.0000  0.1288  0.0000 </r>
        <r>  0.0000  0.1287  0.0000 </r>
        <r>  0.0000  0.1287  0.0000 </r>
        <r>  0.0000  0.0281  0.0000 </r>
        <r>  0.0000  0.0281  0.0000 </r>
       </set>
       <set comment="band 36">
        <r>  0.0000  0.0025  0.0007 </r>
        <r>  0.0000  0.0025  0.0007 </r>
        <r>  0.0003  0.0001  0.0012 </r>
        <r>  0.0006  0.0009  0.0014 </r>
        <r>  0.0000  0.0115  0.0000 </r>
        <r>  0.0000  0.0115  0.0000 </r>
        <r>  0.0000  0.2120  0.0000 </r>
        <r>  0.0000  0.2120  0.0000 </r>
        <r>  0.0000  0.0641  0.0001 </r>
        <r>  0.0000  0.0641  0.0001 </r>
       </set>
       <set comment="band 37">
        <r>  0.0000  0.0019  0.0008 </r>
        <r>  0.0000  0.0019  0.0008 </r>
        <r>  0.0006  0.0005  0.0016 </r>
        <r>  0.0002  0.0001  0.0012 </r>
        <r>  0.0000  0.2094  0.0000 </r>
        <r>  0.0000  0.2094  0.0000 </r>
        <r>  0.0000  0.0265  0.0000 </r>
        <r>  0.0000  0.0265  0.0000 </r>
        <r>  0.0000  0.0528  0.0001 </r>
        <r>  0.0000  0.0528  0.0001 </r>
       </set>
       <set comment="band 38">
        <r>  0.0000  0.0028  0.0005 </r>
        <r>  0.0000  0.0028  0.0005 </r>
        <r>  0.0000  0.0023  0.0015 </r>
        <r>  0.0008  0.0002  0.0030 </r>
        <r>  0.0000  0.0877  0.0000 </r>
        <r>  0.0000  0.0877  0.0000 </r>
        <r>  0.0001  0.0667  0.0000 </r>
        <r>  0.0001  0.0667  0.0000 </r>
        <r>  0.0000  0.1397  0.0001 </r>
        <r>  0.0000  0.1397  0.0001 </r>
       </set>
       <set comment="band 39">
        <r>  0.0000  0.0040  0.0007 </r>
        <r>  0.0000  0.0040  0.0007 </r>
        <r>  0.0020  0.0050  0.0020 </r>
        <r>  0.0014  0.0066  0.0008 </r>
        <r>  0.0002  0.0584  0.0001 </r>
        <r>  0.0002  0.0584  0.0001 </r>
        <r>  0.0001  0.0565  0.0001 </r>
        <r>  0.0001  0.0565  0.0001 </r>
        <r>  0.0005  0.1740  0.0001 </r>
        <r>  0.0005  0.1740  0.0001 </r>
       </set>
       <set comment="band 40">
        <r>  0.0000  0.0020  0.0004 </r>
        <r>  0.0000  0.0020  0.0004 </r>
        <r>  0.0002  0.0006  0.0005 </r>
        <r>  0.0001  0.0007  0.0005 </r>
        <r>  0.0000  0.0644  0.0001 </r>
        <r>  0.0000  0.0644  0.0001 </r>
        <r>  0.0000  0.0764  0.0001 </r>
        <r>  0.0000  0.0764  0.0001 </r>
        <r>  0.0000  0.1589  0.0000 </r>
        <r>  0.0000  0.1589  0.0000 </r>
       </set>
       <set comment="band 41">
        <r>  0.0001  0.0009  0.0008 </r>
        <r>  0.0001  0.0009  0.0008 </r>
        <r>  0.0000  0.0011  0.0003 </r>
        <r>  0.0000  0.0012  0.0003 </r>
        <r>  0.0000  0.1356  0.0000 </r>
        <r>  0.0000  0.1356  0.0000 </r>
        <r>  0.0000  0.1328  0.0000 </r>
        <r>  0.0000  0.1328  0.0000 </r>
        <r>  0.0001  0.0359  0.0000 </r>
        <r>  0.0001  0.0359  0.0000 </r>
       </set>
       <set comment="band 42">
        <r>  0.0000  0.0035  0.0003 </r>
        <r>  0.0000  0.0035  0.0003 </r>
        <r>  0.0025  0.0006  0.0021 </r>
        <r>  0.0028  0.0005  0.0020 </r>
        <r>  0.0000  0.1389  0.0001 </r>
        <r>  0.0000  0.1389  0.0001 </r>
        <r>  0.0000  0.1356  0.0001 </r>
        <r>  0.0000  0.1356  0.0001 </r>
        <r>  0.0000  0.0350  0.0000 </r>
        <r>  0.0000  0.0350  0.0000 </r>
       </set>
       <set comment="band 43">
        <r>  0.0002  0.0017  0.0001 </r>
        <r>  0.0002  0.0017  0.0001 </r>
        <r>  0.0615  0.0112  0.0019 </r>
        <r>  0.0615  0.0111  0.0019 </r>
        <r>  0.0006  0.1003  0.0005 </r>
        <r>  0.0006  0.1003  0.0005 </r>
        <r>  0.0007  0.0968  0.0005 </r>
        <r>  0.0007  0.0968  0.0005 </r>
        <r>  0.0006  0.0622  0.0005 </r>
        <r>  0.0006  0.0622  0.0005 </r>
       </set>
       <set comment="band 44">
        <r>  0.0000  0.0006  0.0001 </r>
        <r>  0.0000  0.0006  0.0001 </r>
        <r>  0.0659  0.0037  0.0054 </r>
        <r>  0.0656  0.0038  0.0054 </r>
        <r>  0.0007  0.0278  0.0005 </r>
        <r>  0.0007  0.0278  0.0005 </r>
        <r>  0.0007  0.0277  0.0005 </r>
        <r>  0.0007  0.0277  0.0005 </r>
        <r>  0.0000  0.2161  0.0001 </r>
        <r>  0.0000  0.2161  0.0001 </r>
       </set>
       <set comment="band 45">
        <r>  0.0001  0.0010  0.0004 </r>
        <r>  0.0001  0.0010  0.0004 </r>
        <r>  0.0001  0.1925  0.0003 </r>
        <r>  0.0001  0.1915  0.0003 </r>
        <r>  0.0010  0.0139  0.0014 </r>
        <r>  0.0010  0.0139  0.0014 </r>
        <r>  0.0008  0.0131  0.0014 </r>
        <r>  0.0008  0.0131  0.0014 </r>
        <r>  0.0175  0.0025  0.0105 </r>
        <r>  0.0175  0.0025  0.0105 </r>
       </set>
       <set comment="band 46">
        <r>  0.0000  0.0007  0.0001 </r>
        <r>  0.0000  0.0007  0.0001 </r>
        <r>  0.0000  0.1785  0.0026 </r>
        <r>  0.0000  0.1819  0.0025 </r>
        <r>  0.0073  0.0206  0.0057 </r>
        <r>  0.0073  0.0206  0.0057 </r>
        <r>  0.0077  0.0219  0.0059 </r>
        <r>  0.0077  0.0219  0.0059 </r>
        <r>  0.0000  0.0150  0.0005 </r>
        <r>  0.0000  0.0150  0.0005 </r>
       </set>
       <set comment="band 47">
        <r>  0.0002  0.0004  0.0008 </r>
        <r>  0.0002  0.0004  0.0008 </r>
        <r>  0.0094  0.1742  0.0016 </r>
        <r>  0.0094  0.1739  0.0016 </r>
        <r>  0.0072  0.0236  0.0056 </r>
        <r>  0.0072  0.0236  0.0056 </r>
        <r>  0.0069  0.0233  0.0054 </r>
        <r>  0.0069  0.0233  0.0054 </r>
        <r>  0.0021  0.0141  0.0008 </r>
        <r>  0.0021  0.0141  0.0008 </r>
       </set>
       <set comment="band 48">
        <r>  0.0005  0.0000  0.0029 </r>
        <r>  0.0005  0.0000  0.0029 </r>
        <r>  0.0000  0.1531  0.0029 </r>
        <r>  0.0000  0.1489  0.0030 </r>
        <r>  0.0039  0.0489  0.0033 </r>
        <r>  0.0039  0.0489  0.0033 </r>
        <r>  0.0036  0.0457  0.0032 </r>
        <r>  0.0036  0.0457  0.0032 </r>
        <r>  0.0000  0.0006  0.0051 </r>
        <r>  0.0000  0.0006  0.0051 </r>
       </set>
       <set comment="band 49">
        <r>  0.0000  0.0019  0.0024 </r>
        <r>  0.0000  0.0019  0.0024 </r>
        <r>  0.0080  0.1475  0.0014 </r>
        <r>  0.0082  0.1476  0.0014 </r>
        <r>  0.0047  0.0411  0.0025 </r>
        <r>  0.0047  0.0411  0.0025 </r>
        <r>  0.0051  0.0447  0.0025 </r>
        <r>  0.0051  0.0447  0.0025 </r>
        <r>  0.0000  0.0011  0.0056 </r>
        <r>  0.0000  0.0011  0.0056 </r>
       </set>
       <set comment="band 50">
        <r>  0.0000  0.0002  0.0015 </r>
        <r>  0.0000  0.0002  0.0015 </r>
        <r>  0.0000  0.1550  0.0007 </r>
        <r>  0.0000  0.1545  0.0007 </r>
        <r>  0.0002  0.0014  0.0057 </r>
        <r>  0.0002  0.0014  0.0057 </r>
        <r>  0.0001  0.0014  0.0057 </r>
        <r>  0.0001  0.0014  0.0057 </r>
        <r>  0.0000  0.1103  0.0019 </r>
        <r>  0.0000  0.1103  0.0019 </r>
       </set>
       <set comment="band 51">
        <r>  0.0131  0.0049  0.0275 </r>
        <r>  0.0131  0.0049  0.0275 </r>
        <r>  0.0003  0.0068  0.0005 </r>
        <r>  0.0004  0.0099  0.0006 </r>
        <r>  0.0009  0.0065  0.0014 </r>
        <r>  0.0009  0.0065  0.0014 </r>
        <r>  0.0012  0.0073  0.0017 </r>
        <r>  0.0012  0.0073  0.0017 </r>
        <r>  0.0102  0.0037  0.0082 </r>
        <r>  0.0102  0.0037  0.0082 </r>
       </set>
       <set comment="band 52">
        <r>  0.0164  0.0016  0.0272 </r>
        <r>  0.0164  0.0016  0.0272 </r>
        <r>  0.0002  0.0104  0.0005 </r>
        <r>  0.0002  0.0118  0.0005 </r>
        <r>  0.0026  0.0165  0.0032 </r>
        <r>  0.0026  0.0165  0.0032 </r>
        <r>  0.0025  0.0176  0.0029 </r>
        <r>  0.0025  0.0176  0.0029 </r>
        <r>  0.0040  0.0036  0.0036 </r>
        <r>  0.0040  0.0036  0.0036 </r>
       </set>
       <set comment="band 53">
        <r>  0.0007  0.0025  0.0700 </r>
        <r>  0.0007  0.0025  0.0700 </r>
        <r>  0.0002  0.0032  0.0005 </r>
        <r>  0.0002  0.0034  0.0008 </r>
        <r>  0.0004  0.0100  0.0053 </r>
        <r>  0.0004  0.0100  0.0053 </r>
        <r>  0.0003  0.0116  0.0048 </r>
        <r>  0.0003  0.0116  0.0048 </r>
        <r>  0.0018  0.0015  0.0024 </r>
        <r>  0.0018  0.0015  0.0024 </r>
       </set>
       <set comment="band 54">
        <r>  0.0000  0.0139  0.0395 </r>
        <r>  0.0000  0.0139  0.0395 </r>
        <r>  0.0000  0.0157  0.0005 </r>
        <r>  0.0000  0.0150  0.0002 </r>
        <r>  0.0043  0.0088  0.0053 </r>
        <r>  0.0043  0.0088  0.0053 </r>
        <r>  0.0044  0.0085  0.0059 </r>
        <r>  0.0044  0.0085  0.0059 </r>
        <r>  0.0000  0.0065  0.0031 </r>
        <r>  0.0000  0.0065  0.0031 </r>
       </set>
       <set comment="band 55">
        <r>  0.0000  0.0050  0.0611 </r>
        <r>  0.0000  0.0050  0.0610 </r>
        <r>  0.0000  0.0023  0.0016 </r>
        <r>  0.0000  0.0023  0.0019 </r>
        <r>  0.0019  0.0088  0.0036 </r>
        <r>  0.0019  0.0088  0.0036 </r>
        <r>  0.0019  0.0072  0.0033 </r>
        <r>  0.0019  0.0072  0.0033 </r>
        <r>  0.0001  0.0096  0.0080 </r>
        <r>  0.0000  0.0096  0.0080 </r>
       </set>
       <set comment="band 56">
        <r>  0.0011  0.0028  0.0693 </r>
        <r>  0.0011  0.0028  0.0692 </r>
        <r>  0.0000  0.0022  0.0038 </r>
        <r>  0.0000  0.0012  0.0035 </r>
        <r>  0.0003  0.0092  0.0053 </r>
        <r>  0.0002  0.0095  0.0053 </r>
        <r>  0.0004  0.0088  0.0055 </r>
        <r>  0.0005  0.0084  0.0056 </r>
        <r>  0.0026  0.0028  0.0068 </r>
        <r>  0.0026  0.0028  0.0068 </r>
       </set>
      </set>
     </set>
    </set>
   </array>
  </projected>
 </calculation>
 <structure name="finalpos" >
  <crystal>
   <varray name="basis" >
    <v>       5.77386941       5.78541730      -0.17143644 </v>
    <v>       5.94730118       0.00246264      -5.96808111 </v>
    <v>       0.00235933       5.95718888      -5.96815658 </v>
   </varray>
   <i name="volume">    404.38818080 </i>
   <varray name="rec_basis" >
    <v>       0.08788162       0.08773833       0.08761184 </v>
    <v>       0.08285850      -0.08521256      -0.08502321 </v>
    <v>      -0.08538187       0.08269118      -0.08505046 </v>
   </varray>
  </crystal>
  <varray name="positions" >
   <v>       0.74993467       0.75170205       0.74680057 </v>
   <v>       0.25006533       0.24829795       0.25319943 </v>
   <v>       0.00000000       0.00000000       0.00000000 </v>
   <v>       0.50000000       0.50000000       0.50000000 </v>
   <v>       0.23889355       0.68608392       0.26041336 </v>
   <v>       0.76110645       0.31391608       0.73958664 </v>
   <v>       0.25530259       0.80964492       0.69002810 </v>
   <v>       0.74469741       0.19035508       0.30997190 </v>
   <v>       0.25548657       0.24485200       0.81787266 </v>
   <v>       0.74451343       0.75514800       0.18212734 </v>
  </varray>
 </structure>
</modeling>
