CsPbBr3 cubic bulk                      
           1
     5.773869    5.785417   -0.171436
     5.947301    0.002463   -5.968081
     0.002359    5.957189   -5.968157
   Cs   Pb   Br
   2   2   6
Direct configuration=     1
   0.74993467  0.75170205  0.74680057
   0.25006533  0.24829795  0.25319943
   0.00000000  0.00000000  0.00000000
   0.50000000  0.50000000  0.50000000
   0.23889355  0.68608392  0.26041336
   0.76110645  0.31391608  0.73958664
   0.25530259  0.80964492  0.69002810
   0.74469741  0.19035508  0.30997190
   0.25548657  0.24485200  0.81787266
   0.74451343  0.75514800  0.18212734
