       N       E                     dE             d eps       ncg     rms          rms(c)
DAV:   1     0.133138585300E+04    0.13314E+04   -0.11057E+05  3448   0.973E+02
DAV:   2    -0.111193431491E+04   -0.24433E+04   -0.23564E+04  4088   0.300E+02
DAV:   3    -0.147459605260E+04   -0.36266E+03   -0.36068E+03  4424   0.137E+02
DAV:   4    -0.148678871886E+04   -0.12193E+02   -0.12156E+02  3912   0.332E+01
DAV:   5    -0.148733403239E+04   -0.54531E+00   -0.54504E+00  4384   0.549E+00    0.102E+01
DAV:   6    -0.140948286336E+04    0.77851E+02   -0.23496E+01  4328   0.325E+01    0.726E+00
DAV:   7    -0.140896801609E+04    0.51485E+00   -0.92901E+00  4024   0.594E+00    0.378E+00
DAV:   8    -0.140914538786E+04   -0.17737E+00   -0.49604E-01  3984   0.216E+00    0.224E+00
DAV:   9    -0.140921239487E+04   -0.67007E-01   -0.19032E-01  3680   0.138E+00    0.466E-01
DAV:  10    -0.140921626426E+04   -0.38694E-02   -0.23066E-02  4624   0.460E-01    0.330E-01
DAV:  11    -0.140921845287E+04   -0.21886E-02   -0.28321E-03  3776   0.151E-01    0.160E-01
DAV:  12    -0.140922197991E+04   -0.35270E-02   -0.53539E-03  3640   0.189E-01    0.981E-02
DAV:  13    -0.140922179739E+04    0.18252E-03   -0.11360E-03  4360   0.102E-01    0.502E-02
DAV:  14    -0.140922175952E+04    0.37869E-04   -0.38826E-04  3936   0.395E-02    0.228E-02
DAV:  15    -0.140922176339E+04   -0.38673E-05   -0.29801E-05  4120   0.155E-02    0.134E-02
DAV:  16    -0.140922181532E+04   -0.51933E-04   -0.39175E-05  3648   0.160E-02    0.564E-03
DAV:  17    -0.140922181621E+04   -0.89386E-06   -0.76936E-06  3840   0.711E-03
   1 F= -.14092218E+04 E0= -.14092218E+04  d E =-.402725E-48
