 vasp.5.4.4.18Apr17-6-g9f103f2a35 (build Jun 22 2020 09:27:21) complex           
 executed on tx2_gcc-7.3_libsci-1 date 2021.10.11  20:19:31
 running on   64 total cores
 distrk:  each k-point on   64 cores,    1 groups
 distr:  one band on NCORES_PER_BAND=   8 cores,    8 groups


--------------------------------------------------------------------------------------------------------


 INCAR:
 POTCAR:    PAW_PBE Cs_sv 08Apr2002               
 POTCAR:    PAW_PBE Pb_d 06Sep2000                
 POTCAR:    PAW_PBE Br 06Sep2000                  
 POTCAR:    PAW_PBE Cs_sv 08Apr2002               
   SHA256 =  c1463496f0f6037ed62c6012a8013a89ee9ad6ffb38599dcd6c079e7ed31779b Cs
   COPYR  = (c) Copyright 08Apr2002 Georg Kresse                                
   COPYR  = This file is part of the software VASP. Any use, copying, and all ot
   COPYR  = If you do not have a valid VASP license, you may not use, copy or di
   VRHFIN =Cs: 5s5p6s                                                           
   LEXCH  = PE                                                                  
   EATOM  =   555.6835 eV,   40.8416 Ry                                         
                                                                                
   TITEL  = PAW_PBE Cs_sv 08Apr2002                                             
   LULTRA =        F    use ultrasoft PP ?                                      
   IUNSCR =        1    unscreen: 0-lin 1-nonlin 2-no                           
   RPACOR =    2.200    partial core radius                                     
   POMASS =  132.900; ZVAL   =    9.000    mass and valenz                      
   RCORE  =    2.500    outmost cutoff radius                                   
   RWIGS  =    2.500; RWIGS  =    1.323    wigner-seitz radius (au A)           
   ENMAX  =  220.318; ENMIN  =  165.238 eV                                      
   RCLOC  =    2.207    cutoff for local pot                                    
   LCOR   =        T    correct aug charges                                     
   LPAW   =        T    paw PP                                                  
   EAUG   =  407.933                                                            
   DEXC   =    0.000                                                            
   RMAX   =    2.554    core radius for proj-oper                               
   RAUG   =    1.300    factor for augmentation sphere                          
   RDEP   =    2.590    radius for radial grids                                 
   RDEPT  =    2.117    core radius for aug-charge                              
                                                                                
   Atomic configuration                                                         
   13 entries                                                                   
     n  l   j            E        occ.                                          
     1  0  0.50    -35790.1377   2.0000                                         
     2  0  0.50     -5613.6201   2.0000                                         
     2  1  1.50     -5035.0101   6.0000                                         
     3  0  0.50     -1167.0767   2.0000                                         
     3  1  1.50      -980.9754   6.0000                                         
     3  2  2.50      -708.0703  10.0000                                         
     4  0  0.50      -220.2386   2.0000                                         
     4  1  1.50      -160.7596   6.0000                                         
     4  2  2.50       -74.2354  10.0000                                         
     5  0  0.50       -26.7287   2.0000                                         
     6  0  0.50        -2.0862   1.0000                                         
     5  1  1.50       -13.5159   6.0000                                         
     5  2  2.50        -0.4136   0.0000                                         
   Description                                                                  
     l       E           TYP  RCUT    TYP  RCUT                                 
     0    -26.7287425     23  1.900                                             
     0     -2.0862306     23  1.900                                             
     1    -13.5158719     23  2.500                                             
     1     -2.7211652     23  2.500                                             
     2     -0.4136171     23  2.500                                             
  local pseudopotential read in
  partial core-charges read in
  partial kinetic energy density read in
  atomic valenz-charges read in
  non local Contribution for L=           0  read in
    real space projection operators read in
  non local Contribution for L=           0  read in
    real space projection operators read in
  non local Contribution for L=           1  read in
    real space projection operators read in
  non local Contribution for L=           1  read in
    real space projection operators read in
  non local Contribution for L=           2  read in
    real space projection operators read in
    PAW grid and wavefunctions read in

   number of l-projection  operators is LMAX  =           5
   number of lm-projection operators is LMMAX =          13

 POTCAR:    PAW_PBE Pb_d 06Sep2000                
   SHA256 =  fb885b08f0fba73a15f6a6b0e39bd200c13ec96ef97cf3ecd8e63bade5137abd Pb
   COPYR  = (c) Copyright 06Sep2000 Georg Kresse                                
   COPYR  = This file is part of the software VASP. Any use, copying, and all ot
   COPYR  = If you do not have a valid VASP license, you may not use, copy or di
   VRHFIN =Pb:                                                                  
   LEXCH  = PE                                                                  
   EATOM  =  1661.6185 eV,  122.1255 Ry                                         
                                                                                
   TITEL  = PAW_PBE Pb_d 06Sep2000                                              
   LULTRA =        F    use ultrasoft PP ?                                      
   IUNSCR =        1    unscreen: 0-lin 1-nonlin 2-no                           
   RPACOR =    2.200    partial core radius                                     
   POMASS =  207.200; ZVAL   =   14.000    mass and valenz                      
   RCORE  =    2.500    outmost cutoff radius                                   
   RWIGS  =    3.260; RWIGS  =    1.725    wigner-seitz radius (au A)           
   ENMAX  =  237.835; ENMIN  =  178.376 eV                                      
   ICORE  =        3    local potential                                         
   LCOR   =        T    correct aug charges                                     
   LPAW   =        T    paw PP                                                  
   EAUG   =  391.914                                                            
   DEXC   =    0.000                                                            
   RMAX   =    2.565    core radius for proj-oper                               
   RAUG   =    1.300    factor for augmentation sphere                          
   RDEP   =    2.643    radius for radial grids                                 
   RDEPT  =    2.092    core radius for aug-charge                              
                                                                                
   Atomic configuration                                                         
   16 entries                                                                   
     n  l   j            E        occ.                                          
     1  0  0.50    -88091.8466   2.0000                                         
     2  0  0.50    -15753.4197   2.0000                                         
     2  1  1.50    -13508.1797   6.0000                                         
     3  0  0.50     -3781.7194   2.0000                                         
     3  1  1.50     -3138.2529   6.0000                                         
     3  2  2.50     -2483.2977  10.0000                                         
     4  0  0.50      -856.2895   2.0000                                         
     4  1  1.50      -645.4942   6.0000                                         
     4  2  2.50      -401.8768  10.0000                                         
     4  3  3.50      -132.9059  14.0000                                         
     5  0  0.50      -144.0950   2.0000                                         
     5  1  1.50       -85.7879   6.0000                                         
     5  2  2.50       -21.1769  10.0000                                         
     6  0  0.50       -12.0372   2.0000                                         
     6  1  1.50        -3.4971   2.0000                                         
     5  3  2.50        -2.7212   0.0000                                         
   Description                                                                  
     l       E           TYP  RCUT    TYP  RCUT                                 
     2    -21.1768523     23  2.500                                             
     2      1.3605826     23  2.500                                             
     0    -12.0371562     23  2.500                                             
     0     13.6058260     23  2.500                                             
     1     -3.4971339     23  2.500                                             
     1     13.6058260     23  2.500                                             
     3     -1.3605826      7  2.500                                             
  local pseudopotential read in
  partial core-charges read in
  partial kinetic energy density read in
  atomic valenz-charges read in
  non local Contribution for L=           2  read in
    real space projection operators read in
  non local Contribution for L=           2  read in
    real space projection operators read in
  non local Contribution for L=           0  read in
    real space projection operators read in
  non local Contribution for L=           0  read in
    real space projection operators read in
  non local Contribution for L=           1  read in
    real space projection operators read in
  non local Contribution for L=           1  read in
    real space projection operators read in
    PAW grid and wavefunctions read in

   number of l-projection  operators is LMAX  =           6
   number of lm-projection operators is LMMAX =          18

 POTCAR:    PAW_PBE Br 06Sep2000                  
   SHA256 =  96a73d2954943bbee26f4990d676cc6c3bf44b8dd2c75cd4b3b825d8403f0103 Br
   COPYR  = (c) Copyright 06Sep2000 Georg Kresse                                
   COPYR  = This file is part of the software VASP. Any use, copying, and all ot
   COPYR  = If you do not have a valid VASP license, you may not use, copy or di
   VRHFIN =Br: s2p5                                                             
   LEXCH  = PE                                                                  
   EATOM  =   368.4488 eV,   27.0802 Ry                                         
                                                                                
   TITEL  = PAW_PBE Br 06Sep2000                                                
   LULTRA =        F    use ultrasoft PP ?                                      
   IUNSCR =        1    unscreen: 0-lin 1-nonlin 2-no                           
   RPACOR =    1.900    partial core radius                                     
   POMASS =   79.904; ZVAL   =    7.000    mass and valenz                      
   RCORE  =    2.100    outmost cutoff radius                                   
   RWIGS  =    2.200; RWIGS  =    1.164    wigner-seitz radius (au A)           
   ENMAX  =  216.285; ENMIN  =  162.214 eV                                      
   ICORE  =        3    local potential                                         
   LCOR   =        T    correct aug charges                                     
   LPAW   =        T    paw PP                                                  
   EAUG   =  503.852                                                            
   DEXC   =    0.000                                                            
   RMAX   =    2.139    core radius for proj-oper                               
   RAUG   =    1.300    factor for augmentation sphere                          
   RDEP   =    2.186    radius for radial grids                                 
   RDEPT  =    1.890    core radius for aug-charge                              
                                                                                
   Atomic configuration                                                         
   10 entries                                                                   
     n  l   j            E        occ.                                          
     1  0  0.50    -13316.2796   2.0000                                         
     2  0  0.50     -1732.8239   2.0000                                         
     2  1  1.50     -1528.2193   6.0000                                         
     3  0  0.50      -238.0460   2.0000                                         
     3  1  1.50      -173.4609   6.0000                                         
     3  2  2.50       -66.7132  10.0000                                         
     4  0  0.50       -20.1334   2.0000                                         
     4  1  0.50        -7.8591   5.0000                                         
     4  2  2.50        -8.1635   0.0000                                         
     4  3  2.50        -8.1635   0.0000                                         
   Description                                                                  
     l       E           TYP  RCUT    TYP  RCUT                                 
     0    -20.1333652     23  2.100                                             
     0    -21.4939478     23  2.100                                             
     1     -7.8591052     23  2.100                                             
     1     -3.1608434     23  2.100                                             
     2     -8.1634956     23  2.100                                             
     3     -1.3605826      7  2.100                                             
  local pseudopotential read in
  partial core-charges read in
  partial kinetic energy density read in
  atomic valenz-charges read in
  non local Contribution for L=           0  read in
    real space projection operators read in
  non local Contribution for L=           0  read in
    real space projection operators read in
  non local Contribution for L=           1  read in
    real space projection operators read in
  non local Contribution for L=           1  read in
    real space projection operators read in
  non local Contribution for L=           2  read in
    real space projection operators read in
    PAW grid and wavefunctions read in

   number of l-projection  operators is LMAX  =           5
   number of lm-projection operators is LMMAX =          13

 Optimization of the real space projectors (new method)

 maximal supplied QI-value         = 15.12
 optimisation between [QCUT,QGAM] = [  8.77, 17.69] = [ 21.53, 87.61] Ry 
 Optimized for a Real-space Cutoff    1.85 Angstroem

   l    n(q)    QCUT    max X(q) W(low)/X(q) W(high)/X(q)  e(spline) 
   0     10     8.768    25.322    0.81E-04    0.51E-04    0.48E-06
   0     10     8.768    99.187    0.78E-04    0.50E-04    0.47E-06
   1      9     8.768    11.761    0.21E-03    0.20E-03    0.37E-06
   1      9     8.768     8.275    0.24E-03    0.22E-03    0.41E-06
   2      9     8.768     3.829    0.23E-04    0.15E-03    0.18E-06
 Optimization of the real space projectors (new method)

 maximal supplied QI-value         = 15.12
 optimisation between [QCUT,QGAM] = [  8.77, 17.69] = [ 21.53, 87.61] Ry 
 Optimized for a Real-space Cutoff    1.59 Angstroem

   l    n(q)    QCUT    max X(q) W(low)/X(q) W(high)/X(q)  e(spline) 
   2      7     8.768     3.846    0.48E-04    0.11E-03    0.11E-06
   2      7     8.768     8.593    0.20E-03    0.22E-04    0.24E-06
   0      8     8.768    20.082    0.68E-04    0.88E-04    0.41E-07
   0      8     8.768     8.597    0.89E-04    0.13E-03    0.59E-07
   1      8     8.768    33.223    0.15E-03    0.53E-04    0.87E-07
   1      8     8.768    15.899    0.14E-03    0.44E-04    0.78E-07
 Optimization of the real space projectors (new method)

 maximal supplied QI-value         = 17.95
 optimisation between [QCUT,QGAM] = [  8.80, 17.59] = [ 21.67, 86.68] Ry 
 Optimized for a Real-space Cutoff    1.59 Angstroem

   l    n(q)    QCUT    max X(q) W(low)/X(q) W(high)/X(q)  e(spline) 
   0      8     8.797   175.082    0.82E-04    0.14E-03    0.89E-07
   0      8     8.797   174.004    0.79E-04    0.14E-03    0.86E-07
   1      8     8.797    54.315    0.16E-03    0.14E-04    0.30E-06
   1      8     8.797    42.441    0.16E-03    0.14E-04    0.30E-06
   2      7     8.797     3.596    0.92E-04    0.15E-03    0.85E-07
  PAW_PBE Cs_sv 08Apr2002               :
 energy of atom  1       EATOM= -555.6835
 kinetic energy error for atom=    0.0069 (will be added to EATOM!!)
  PAW_PBE Pb_d 06Sep2000                :
 energy of atom  2       EATOM=-1661.6185
 kinetic energy error for atom=    0.0498 (will be added to EATOM!!)
  PAW_PBE Br 06Sep2000                  :
 energy of atom  3       EATOM= -368.4488
 kinetic energy error for atom=    0.0072 (will be added to EATOM!!)


 POSCAR: Cs8 Pb8 Br23                            
  positions in direct lattice
  No initial velocities read in

 METAGGA = SCAN     LMAXTAU =  6    LMIXTAU =  F

 exchange correlation table for  LEXCH =        8
   RHO(1)=    0.500       N(1)  =     2000
   RHO(2)=  100.500       N(2)  =     4000

 VTST: version 3.2, (02/03/18)

 CHAIN: initializing optimizer
 
 OPT: Using VASP Conjugate-Gradient optimizer
 CHAIN: Read ICHAIN            0

 POSCAR: Cs8 Pb8 Br23                            
  positions in direct lattice
  No initial velocities read in



--------------------------------------------------------------------------------------------------------


 ion  position               nearest neighbor table
   1  0.264  0.257  0.211-
   2  0.769  0.235  0.757-
   3  0.707  0.777  0.226-
   4  0.214  0.748  0.777-
   5  0.303  0.272  0.742-
   6  0.791  0.242  0.208-
   7  0.737  0.750  0.807-
   8  0.233  0.742  0.278-
   9  0.007  0.001  0.998-  18 2.95  20 2.95  29 2.96  31 2.98  28 3.02  34 3.04
  10  0.502  0.009  0.492-  19 2.79  27 2.97  33 2.98  32 2.99  30 3.13
  11  0.493  0.005  0.993-  31 2.90  21 2.96  17 2.97  27 2.98  33 3.03  29 3.06
  12  0.008  0.038  0.505-  22 2.88  30 2.95  34 2.99  28 2.99  32 3.05
  13  0.501  0.503  0.001-  21 2.96  23 2.97  35 2.98  17 2.98  25 2.98  37 3.02
  14  0.945  0.500  0.503-  24 2.78  26 2.88  22 2.95  38 3.11
  15  0.000  0.502  0.009-  38 2.94  18 2.96  20 2.96  35 2.96  23 2.98  26 3.09
  16  0.520  0.505  0.502-  39 2.96  37 2.98  36 2.98  25 3.01  24 3.13  19 3.22
  17  0.478  0.754  0.968-  11 2.97  13 2.98
  18  0.998  0.252  0.977-   9 2.95  15 2.96
  19  0.451  0.241  0.473-  10 2.79  16 3.22
  20  0.017  0.752  0.034-   9 2.95  15 2.96
  21  0.518  0.253  0.033-  11 2.96  13 2.96
  22  0.055  0.277  0.541-  12 2.88  14 2.95
  23  0.248  0.485  0.963-  13 2.97  15 2.98
  24  0.748  0.368  0.477-  14 2.78  16 3.13
  25  0.471  0.543  0.250-  13 2.98  16 3.01
  26  0.951  0.530  0.747-  14 2.88  15 3.09
  27  0.539  0.027  0.745-  10 2.97  11 2.98
  28  0.046  0.028  0.254-  12 2.99   9 3.02
  29  0.755  0.997  0.018-   9 2.96  11 3.06
  30  0.246  0.953  0.537-  12 2.95  10 3.13
  31  0.249  0.030  0.934-  11 2.90   9 2.98
  32  0.751  0.032  0.444-  10 2.99  12 3.05
  33  0.446  0.968  0.243-  10 2.98  11 3.03
  34  0.958  0.963  0.742-  12 2.99   9 3.04
  35  0.753  0.522  0.052-  15 2.96  13 2.98
  36  0.276  0.563  0.538-  16 2.98
  37  0.558  0.468  0.754-  16 2.98  13 3.02
  38  0.037  0.473  0.258-  15 2.94  14 3.11
  39  0.698  0.686  0.512-  16 2.96


IMPORTANT INFORMATION: All symmetrisations will be switched off!
NOSYMM: (Re-)initialisation of all symmetry stuff for point group C_1.



 KPOINTS: 1x1x1                                   

Automatic generation of k-mesh.
Space group operators:
 irot       det(A)        alpha          n_x          n_y          n_z        tau_x        tau_y        tau_z
    1     1.000000     0.000001     1.000000     0.000000     0.000000     0.000000     0.000000     0.000000
 
 Subroutine IBZKPT returns following result:
 ===========================================
 
 Found      8 irreducible k-points:
 
 Following reciprocal coordinates:
            Coordinates               Weight
  0.000000  0.000000  0.000000      1.000000
  0.500000  0.000000  0.000000      1.000000
  0.000000  0.500000  0.000000      1.000000
  0.500000  0.500000  0.000000      1.000000
  0.000000  0.000000  0.500000      1.000000
  0.500000  0.000000  0.500000      1.000000
  0.000000  0.500000  0.500000      1.000000
  0.500000  0.500000  0.500000      1.000000
 
 Following cartesian coordinates:
            Coordinates               Weight
 -0.000000  0.000000  0.000000      1.000000
  0.029563  0.000000  0.031093      1.000000
 -0.000000  0.042626  0.000000      1.000000
  0.029563  0.042626  0.031093      1.000000
 -0.029563  0.000000  0.031093      1.000000
  0.000000  0.000000  0.062187      1.000000
 -0.029563  0.042626  0.031093      1.000000
  0.000000  0.042626  0.062187      1.000000
 


--------------------------------------------------------------------------------------------------------




 Dimension of arrays:
   k-points           NKPTS =      8   k-points in BZ     NKDIM =      8   number of bands    NBANDS=    208
   number of dos      NEDOS =    301   number of ions     NIONS =     39
   non local maximal  LDIM  =      6   non local SUM 2l+1 LMDIM =     18
   total plane-waves  NPLWV = 343000
   max r-space proj   IRMAX =   5734   max aug-charges    IRDMAX=  91523
   dimension x,y,z NGX =    70 NGY =   70 NGZ =   70
   dimension x,y,z NGXF=   140 NGYF=  140 NGZF=  140
   support grid    NGXF=   280 NGYF=  280 NGZF=  280
   ions per type =               8   8  23
   NGX,Y,Z   is equivalent  to a cutoff of   9.97,  9.92,  9.97 a.u.
   NGXF,Y,Z  is equivalent  to a cutoff of  19.95, 19.84, 19.95 a.u.

 SYSTEM =  CsPbBr3 cubic bulk                      
 POSCAR =  Cs8 Pb8 Br23                            

 Startparameter for this run:
   NWRITE =      2    write-flag & timer
   PREC   = accura    normal or accurate (medium, high low for compatibility)
   ISTART =      0    job   : 0-new  1-cont  2-samecut
   ICHARG =      2    charge: 1-file 2-atom 10-const
   ISPIN  =      1    spin polarized calculation?
   LNONCOLLINEAR =      F non collinear calculations
   LSORBIT =      F    spin-orbit coupling
   INIWAV =      1    electr: 0-lowe 1-rand  2-diag
   LASPH  =      T    aspherical Exc in radial PAW
   METAGGA=      F    non-selfconsistent MetaGGA calc.

 Electronic Relaxation 1
   ENCUT  =  300.0 eV  22.05 Ry    4.70 a.u.  16.48 16.57 16.48*2*pi/ulx,y,z
   ENINI  =  300.0     initial cutoff
   ENAUG  =  503.9 eV  augmentation charge cutoff
   NELM   =    200;   NELMIN=  2; NELMDL= -5     # of ELM steps 
   EDIFF  = 0.1E-05   stopping-criterion for ELM
   LREAL  =      T    real-space projection
   NLSPLINE    = F    spline interpolate recip. space projectors
   LCOMPAT=      F    compatible to vasp.4.4
   GGA_COMPAT  = T    GGA compatible to vasp.4.4-vasp.4.6
   LMAXPAW     = -100 max onsite density
   LMAXMIX     =    2 max onsite mixed and CHGCAR
   VOSKOWN=      0    Vosko Wilk Nusair interpolation
   ROPT   =   -0.00025  -0.00025  -0.00025
 Ionic relaxation
   EDIFFG = -.1E-01   stopping-criterion for IOM
   NSW    =      0    number of steps for IOM
   NBLOCK =      1;   KBLOCK =      1    inner block; outer block 
   IBRION =     -1    ionic relax: 0-MD 1-quasi-New 2-CG
   NFREE  =      1    steps in history (QN), initial steepest desc. (CG)
   ISIF   =      2    stress and relaxation
   IWAVPR =     10    prediction:  0-non 1-charg 2-wave 3-comb
   ISYM   =      0    0-nonsym 1-usesym 2-fastsym
   LCORR  =      T    Harris-Foulkes like correction to forces

   POTIM  = 0.5000    time-step for ionic-motion
   TEIN   =    0.0    initial temperature
   TEBEG  =    0.0;   TEEND  =   0.0 temperature during run
   SMASS  =  -3.00    Nose mass-parameter (am)
   estimated Nose-frequenzy (Omega)   =  0.10E-29 period in steps =****** mass=  -0.311E-26a.u.
   SCALEE = 1.0000    scale energy and forces
   NPACO  =    256;   APACO  = 16.0  distance and # of slots for P.C.
   PSTRESS=    0.0 pullay stress

  Mass of Ions in am
   POMASS = 132.90207.20 79.90
  Ionic Valenz
   ZVAL   =   9.00 14.00  7.00
  Atomic Wigner-Seitz radii
   RWIGS  =  -1.00 -1.00 -1.00
  virtual crystal weights 
   VCA    =   1.00  1.00  1.00
   NELECT =     344.0000    total number of electrons
   NUPDOWN=       0.0000    fix difference up-down

 DOS related values:
   EMIN   =  10.00;   EMAX   =-10.00  energy-range for DOS
   EFERMI =   0.00
   ISMEAR =     0;   SIGMA  =   0.01  broadening in eV -4-tet -1-fermi 0-gaus

 Electronic relaxation 2 (details)
   IALGO  =     38    algorithm
   LDIAG  =      T    sub-space diagonalisation (order eigenvalues)
   LSUBROT=      F    optimize rotation matrix (better conditioning)
   TURBO    =      0    0=normal 1=particle mesh
   IRESTART =      0    0=no restart 2=restart with 2 vectors
   NREBOOT  =      0    no. of reboots
   NMIN     =      0    reboot dimension
   EREF     =   0.00    reference energy to select bands
   IMIX   =      4    mixing-type and parameters
     AMIX     =   0.40;   BMIX     =  1.00
     AMIX_MAG =   1.60;   BMIX_MAG =  1.00
     AMIN     =   0.10
     WC   =   100.;   INIMIX=   1;  MIXPRE=   1;  MAXMIX= -45

 Intra band minimization:
   WEIMIN = 0.0000     energy-eigenvalue tresh-hold
   EBREAK =  0.12E-08  absolut break condition
   DEPER  =   0.30     relativ break condition  

   TIME   =   0.40     timestep for ELM

  volume/ion in A,a.u.               =      40.90       276.00
  Fermi-wavevector in a.u.,A,eV,Ry     =   0.981747  1.855232 13.113654  0.963826
  Thomas-Fermi vector in A             =   2.112777

 Write flags
   LWAVE        =      F    write WAVECAR
   LDOWNSAMPLE  =      F    k-point downsampling of WAVECAR
   LCHARG       =      F    write CHGCAR
   LVTOT        =      F    write LOCPOT, total local potential
   LVHAR        =      T    write LOCPOT, Hartree potential only
   LELF         =      F    write electronic localiz. function (ELF)
   LORBIT       =     10    0 simple, 1 ext, 2 COOP (PROOUT), +10 PAW based schemes


 Dipole corrections
   LMONO  =      F    monopole corrections only (constant potential shift)
   LDIPOL =      F    correct potential (dipole corrections)
   IDIPOL =      0    1-x, 2-y, 3-z, 4-all directions 
   EPSILON=  1.0000000 bulk dielectric constant

 Exchange correlation treatment:
   GGA     =    --    GGA type
   LEXCH   =     8    internal setting for exchange type
   VOSKOWN=      0    Vosko Wilk Nusair interpolation
   LHFCALC =     F    Hartree Fock is set to
   LHFONE  =     F    Hartree Fock one center treatment
   AEXX    =    0.0000 exact exchange contribution

 Linear response parameters
   LEPSILON=     F    determine dielectric tensor
   LRPA    =     F    only Hartree local field effects (RPA)
   LNABLA  =     F    use nabla operator in PAW spheres
   LVEL    =     F    velocity operator in full k-point grid
   LINTERFAST=   F  fast interpolation
   KINTER  =     0    interpolate to denser k-point grid
   CSHIFT  =0.1000    complex shift for real part using Kramers Kronig
   OMEGAMAX=  -1.0    maximum frequency
   DEG_THRESHOLD= 0.2000000E-02 threshold for treating states as degnerate
   RTIME   =   -0.100 relaxation time in fs
  (WPLASMAI=    0.000 imaginary part of plasma frequency in eV, 0.658/RTIME)
   DFIELD  = 0.0000000 0.0000000 0.0000000 field for delta impulse in time

 Orbital magnetization related:
   ORBITALMAG=     F  switch on orbital magnetization
   LCHIMAG   =     F  perturbation theory with respect to B field
   DQ        =  0.001000  dq finite difference perturbation B field
   LLRAUG    =     F  two centre corrections for induced B field



--------------------------------------------------------------------------------------------------------


 Static calculation
 charge density and potential will be updated during run
 non-spin polarized calculation
 Variant of blocked Davidson
 Davidson routine will perform the subspace rotation
 perform sub-space diagonalisation
    after iterative eigenvector-optimisation
 modified Broyden-mixing scheme, WC =      100.0
 initial mixing is a Kerker type mixing with AMIX =  0.4000 and BMIX =      1.0000
 Hartree-type preconditioning will be used
 using additional bands           36
 real space projection scheme for non local part
 use partial core corrections
 calculate Harris-corrections to forces   (improved forces if not selfconsistent)
 use gradient corrections 
 use of overlap-Matrix (Vanderbilt PP)
 Gauss-broadening in eV      SIGMA  =   0.01


--------------------------------------------------------------------------------------------------------


  energy-cutoff  :      300.00
  volume of cell :     1595.09
      direct lattice vectors                 reciprocal lattice vectors
     8.456489000  0.000000000  8.040301000     0.059126193 -0.000000000  0.062186727
     0.000000000 11.729847000  0.000000000     0.000000000  0.085252604 -0.000000000
    -8.456489000  0.000000000  8.040301000    -0.059126193  0.000000000  0.062186727

  length of vectors
    11.668703715 11.729847000 11.668703715     0.085808482  0.085252604  0.085808482



 k-points in units of 2pi/SCALE and weight: 1x1x1                                   
  -0.00000000  0.00000000  0.00000000       0.125
   0.02956310  0.00000000  0.03109336       0.125
  -0.00000000  0.04262630  0.00000000       0.125
   0.02956310  0.04262630  0.03109336       0.125
  -0.02956310  0.00000000  0.03109336       0.125
   0.00000000  0.00000000  0.06218673       0.125
  -0.02956310  0.04262630  0.03109336       0.125
   0.00000000  0.04262630  0.06218673       0.125

 k-points in reciprocal lattice and weights: 1x1x1                                   
   0.00000000  0.00000000  0.00000000       0.125
   0.50000000  0.00000000  0.00000000       0.125
   0.00000000  0.50000000  0.00000000       0.125
   0.50000000  0.50000000  0.00000000       0.125
   0.00000000  0.00000000  0.50000000       0.125
   0.50000000  0.00000000  0.50000000       0.125
   0.00000000  0.50000000  0.50000000       0.125
   0.50000000  0.50000000  0.50000000       0.125

 position of ions in fractional coordinates (direct lattice) 
   0.26412300  0.25697400  0.21109700
   0.76911000  0.23515900  0.75717100
   0.70708600  0.77655600  0.22614200
   0.21380700  0.74846400  0.77675000
   0.30288900  0.27225700  0.74229900
   0.79103700  0.24200000  0.20809100
   0.73699400  0.75021200  0.80734500
   0.23256100  0.74204400  0.27767100
   0.00693200  0.00128400  0.99768000
   0.50214200  0.00891200  0.49183100
   0.49269900  0.00475900  0.99287700
   0.00808300  0.03799200  0.50539500
   0.50119400  0.50292700  0.00135100
   0.94544000  0.50027500  0.50258400
   0.00012500  0.50178400  0.00867600
   0.52044900  0.50511600  0.50224000
   0.47774100  0.75357300  0.96767400
   0.99783900  0.25184200  0.97652300
   0.45050300  0.24057400  0.47328000
   0.01671700  0.75235100  0.03433000
   0.51787300  0.25280400  0.03299600
   0.05539200  0.27651700  0.54079200
   0.24839500  0.48549000  0.96347700
   0.74801600  0.36778000  0.47706600
   0.47105600  0.54332400  0.24991300
   0.95121800  0.53049900  0.74746000
   0.53919100  0.02728300  0.74510000
   0.04557100  0.02751800  0.25379000
   0.75477600  0.99655300  0.01813200
   0.24596400  0.95294800  0.53668000
   0.24937200  0.03029000  0.93394600
   0.75053300  0.03220500  0.44405200
   0.44589200  0.96755200  0.24314900
   0.95756400  0.96263100  0.74239800
   0.75286200  0.52206200  0.05225900
   0.27573600  0.56274500  0.53775800
   0.55757500  0.46779600  0.75410300
   0.03749300  0.47275600  0.25818000
   0.69781800  0.68619300  0.51209300

 position of ions in cartesian coordinates  (Angst):
   0.44841379  3.01426570  3.82091184
   0.10096202  2.75837909 12.27175865
   4.06709765  9.10888307  7.50343402
  -4.76052129  8.77936821  7.96437644
  -3.71586583  3.19353295  8.40362612
   4.92967644  2.83862297  8.03328986
  -0.59492246  8.79987198 12.41695041
  -0.38147222  8.70406259  4.10241886
  -8.37824956  0.01506112  8.07738287
   0.08719486  0.10453640  7.99184211
  -4.22974976  0.05582234 11.94447820
  -4.20551346  0.44564035  4.12851768
   4.22691683  5.89925676  4.04061307
   3.74500689  5.86814921 11.64254882
  -0.07231144  5.88584955  0.07076269
   0.15398421  5.92493340  8.22272739
  -4.14311303  8.83929599 11.62157167
   0.18025852  2.95406813 15.87446476
  -0.19261345  2.82189621  7.42749338
  -0.14894414  8.82496212  0.41043325
   4.10035702  2.96535224  4.42915257
  -4.10477976  3.24350210  4.79349881
  -6.04708307  5.69472342  9.74381565
   2.29128569  4.31400313  9.85002803
   1.87009335  6.37310739  5.79680777
   1.72307729  6.22267210 13.65788242
  -1.74126719  0.32002542 10.32608621
  -1.76080168  0.32278193  2.40695255
   6.22942188 11.68941422  6.21441297
  -2.45843666 11.17793424  6.29269334
  -5.78909250  0.35529707  9.51423290
   2.59175321  0.37775972  9.60482297
   1.71449395 11.34923692  5.54009704
   1.81954891 11.29151435 13.66820617
   5.92464156  6.12370738  6.47341518
  -2.21578616  6.60091275  6.54073662
  -1.66193687  5.48717551 10.54628594
  -1.86623719  5.54535555  2.37729992
   1.57058142  8.04893890  9.72804862



--------------------------------------------------------------------------------------------------------


 k-point  1 :   0.0000 0.0000 0.0000  plane waves:   18809
 k-point  2 :   0.5000 0.0000 0.0000  plane waves:   18808
 k-point  3 :   0.0000 0.5000 0.0000  plane waves:   18794
 k-point  4 :   0.5000 0.5000 0.0000  plane waves:   18804
 k-point  5 :   0.0000 0.0000 0.5000  plane waves:   18808
 k-point  6 :   0.5000 0.0000 0.5000  plane waves:   18790
 k-point  7 :   0.0000 0.5000 0.5000  plane waves:   18804
 k-point  8 :   0.5000 0.5000 0.5000  plane waves:   18800

 maximum and minimum number of plane-waves per node :      2389     2304

 maximum number of plane-waves:     18809
 maximum index in each direction: 
   IXMAX=   16   IYMAX=   16   IZMAX=   16
   IXMIN=  -16   IYMIN=  -17   IZMIN=  -16


 real space projection operators:
  total allocation   :      16734.31 KBytes
  max/ min on nodes  :       2188.98       1836.76


 parallel 3D FFT for wavefunctions:
    minimum data exchange during FFTs selected (reduces bandwidth)
 parallel 3D FFT for charge:
    minimum data exchange during FFTs selected (reduces bandwidth)


 total amount of memory used by VASP MPI-rank0    60655. kBytes
=======================================================================

   base      :      30000. kBytes
   nonlr-proj:       6490. kBytes
   fftplans  :       8423. kBytes
   grid      :       7465. kBytes
   one-center:         77. kBytes
   wavefun   :       8200. kBytes

     INWAV:  cpu time    0.0002: real time    0.0008
 Broyden mixing: mesh for mixing (old mesh)
   NGX = 33   NGY = 33   NGZ = 33
  (NGX  =140   NGY  =140   NGZ  =140)
  gives a total of  35937 points

 initial charge density was supplied:
 charge density of overlapping atoms calculated
 number of electron     345.0000000 magnetization 
 keeping initial charge density in first step


--------------------------------------------------------------------------------------------------------


 Maximum index for non-local projection operator          725
 Maximum index for augmentation-charges         3829 (set IRDMAX)


--------------------------------------------------------------------------------------------------------


 First call to EWALD:  gamma=   0.152
 Maximum number of real-space cells 3x 3x 3
 Maximum number of reciprocal cells 3x 3x 3

    FEWALD:  cpu time    0.0038: real time    0.0038


--------------------------------------- Iteration      1(   1)  ---------------------------------------


    POTLOK:  cpu time    0.2636: real time    0.2640
    SETDIJ:  cpu time    1.2021: real time    1.2021
     EDDAV:  cpu time   16.4059: real time   16.4118
       DOS:  cpu time    0.0009: real time    0.0008
    --------------------------------------------
      LOOP:  cpu time   17.8724: real time   17.8787

 eigenvalue-minimisations  :  3448
 total energy-change (2. order) : 0.1331386E+04  (-0.1105721E+05)
 number of electron     345.0000000 magnetization 
 augmentation part      345.0000000 magnetization 

 Free energy of the ion-electron system (eV)
  ---------------------------------------------------
  alpha Z        PSCENC =       872.70583573
  Ewald energy   TEWEN  =    -17871.78157883
  -Hartree energ DENC   =     -7484.88360081
  -exchange      EXHF   =         0.00000000
  -V(xc)+E(xc)   XCENC  =       908.08236463
  PAW double counting   =     21345.28103884   -22405.85761495
  entropy T*S    EENTRO =        -0.00189604
  eigenvalues    EBANDS =      -244.27731125
  atomic energy  EATOM  =     26212.11861568
  Solvation  Ediel_sol  =         0.00000000
  ---------------------------------------------------
  free energy    TOTEN  =      1331.38585300 eV

  energy without entropy =     1331.38774904  energy(sigma->0) =     1331.38680102


--------------------------------------------------------------------------------------------------------




--------------------------------------- Iteration      1(   2)  ---------------------------------------


     EDDAV:  cpu time   18.3096: real time   18.3537
       DOS:  cpu time    0.0004: real time    0.0004
    --------------------------------------------
      LOOP:  cpu time   18.3099: real time   18.3541

 eigenvalue-minimisations  :  4088
 total energy-change (2. order) :-0.2443320E+04  (-0.2356403E+04)
 number of electron     345.0000000 magnetization 
 augmentation part      345.0000000 magnetization 

 Free energy of the ion-electron system (eV)
  ---------------------------------------------------
  alpha Z        PSCENC =       872.70583573
  Ewald energy   TEWEN  =    -17871.78157883
  -Hartree energ DENC   =     -7484.88360081
  -exchange      EXHF   =         0.00000000
  -V(xc)+E(xc)   XCENC  =       908.08236463
  PAW double counting   =     21345.28103884   -22405.85761495
  entropy T*S    EENTRO =        -0.00000000
  eigenvalues    EBANDS =     -2687.59937520
  atomic energy  EATOM  =     26212.11861568
  Solvation  Ediel_sol  =         0.00000000
  ---------------------------------------------------
  free energy    TOTEN  =     -1111.93431491 eV

  energy without entropy =    -1111.93431491  energy(sigma->0) =    -1111.93431491


--------------------------------------------------------------------------------------------------------




--------------------------------------- Iteration      1(   3)  ---------------------------------------


     EDDAV:  cpu time   19.2965: real time   19.3219
       DOS:  cpu time    0.0004: real time    0.0004
    --------------------------------------------
      LOOP:  cpu time   19.2969: real time   19.3223

 eigenvalue-minimisations  :  4424
 total energy-change (2. order) :-0.3626617E+03  (-0.3606805E+03)
 number of electron     345.0000000 magnetization 
 augmentation part      345.0000000 magnetization 

 Free energy of the ion-electron system (eV)
  ---------------------------------------------------
  alpha Z        PSCENC =       872.70583573
  Ewald energy   TEWEN  =    -17871.78157883
  -Hartree energ DENC   =     -7484.88360081
  -exchange      EXHF   =         0.00000000
  -V(xc)+E(xc)   XCENC  =       908.08236463
  PAW double counting   =     21345.28103884   -22405.85761495
  entropy T*S    EENTRO =        -0.00000000
  eigenvalues    EBANDS =     -3050.26111289
  atomic energy  EATOM  =     26212.11861568
  Solvation  Ediel_sol  =         0.00000000
  ---------------------------------------------------
  free energy    TOTEN  =     -1474.59605260 eV

  energy without entropy =    -1474.59605260  energy(sigma->0) =    -1474.59605260


--------------------------------------------------------------------------------------------------------




--------------------------------------- Iteration      1(   4)  ---------------------------------------


     EDDAV:  cpu time   17.7923: real time   17.8249
       DOS:  cpu time    0.0004: real time    0.0004
    --------------------------------------------
      LOOP:  cpu time   17.7927: real time   17.8253

 eigenvalue-minimisations  :  3912
 total energy-change (2. order) :-0.1219267E+02  (-0.1215630E+02)
 number of electron     345.0000000 magnetization 
 augmentation part      345.0000000 magnetization 

 Free energy of the ion-electron system (eV)
  ---------------------------------------------------
  alpha Z        PSCENC =       872.70583573
  Ewald energy   TEWEN  =    -17871.78157883
  -Hartree energ DENC   =     -7484.88360081
  -exchange      EXHF   =         0.00000000
  -V(xc)+E(xc)   XCENC  =       908.08236463
  PAW double counting   =     21345.28103884   -22405.85761495
  entropy T*S    EENTRO =        -0.00000000
  eigenvalues    EBANDS =     -3062.45377916
  atomic energy  EATOM  =     26212.11861568
  Solvation  Ediel_sol  =         0.00000000
  ---------------------------------------------------
  free energy    TOTEN  =     -1486.78871886 eV

  energy without entropy =    -1486.78871886  energy(sigma->0) =    -1486.78871886


--------------------------------------------------------------------------------------------------------




--------------------------------------- Iteration      1(   5)  ---------------------------------------


     EDDAV:  cpu time   19.1537: real time   19.1637
       DOS:  cpu time    0.0004: real time    0.0004
    CHARGE:  cpu time    2.7108: real time    2.7109
    MIXING:  cpu time    0.0014: real time    0.0014
    --------------------------------------------
      LOOP:  cpu time   21.8663: real time   21.8764

 eigenvalue-minimisations  :  4384
 total energy-change (2. order) :-0.5453135E+00  (-0.5450426E+00)
 number of electron     344.0000000 magnetization 
 augmentation part       -5.0372054 magnetization 

 Broyden mixing:
  rms(total) = 0.10156E+01    rms(broyden)= 0.10150E+01
  rms(prec ) = 0.14116E+01
  weight for this iteration     100.00

 Free energy of the ion-electron system (eV)
  ---------------------------------------------------
  alpha Z        PSCENC =       872.70583573
  Ewald energy   TEWEN  =    -17871.78157883
  -Hartree energ DENC   =     -7484.88360081
  -exchange      EXHF   =         0.00000000
  -V(xc)+E(xc)   XCENC  =       908.08236463
  PAW double counting   =     21345.28103884   -22405.85761495
  entropy T*S    EENTRO =        -0.00000000
  eigenvalues    EBANDS =     -3062.99909268
  atomic energy  EATOM  =     26212.11861568
  Solvation  Ediel_sol  =         0.00000000
  ---------------------------------------------------
  free energy    TOTEN  =     -1487.33403239 eV

  energy without entropy =    -1487.33403239  energy(sigma->0) =    -1487.33403239


--------------------------------------------------------------------------------------------------------




--------------------------------------- Iteration      1(   6)  ---------------------------------------


    POTLOK:  cpu time    0.2659: real time    0.3124
    SETDIJ:  cpu time    1.2046: real time    1.2046
     EDDAV:  cpu time   18.9842: real time   18.9849
       DOS:  cpu time    0.0004: real time    0.0004
    CHARGE:  cpu time    2.6875: real time    2.6876
    MIXING:  cpu time    0.0016: real time    0.0016
    --------------------------------------------
      LOOP:  cpu time   23.1442: real time   23.1915

 eigenvalue-minimisations  :  4328
 total energy-change (2. order) : 0.7785117E+02  (-0.2349630E+01)
 number of electron     344.0000001 magnetization 
 augmentation part       -3.6704399 magnetization 

 Broyden mixing:
  rms(total) = 0.72553E+00    rms(broyden)= 0.72543E+00
  rms(prec ) = 0.91084E+00
  weight for this iteration     100.00

 eigenvalues of (default mixing * dielectric matrix)
  average eigenvalue GAMMA=   1.1923
  1.1923

 Free energy of the ion-electron system (eV)
  ---------------------------------------------------
  alpha Z        PSCENC =       872.70583573
  Ewald energy   TEWEN  =    -17871.78157883
  -Hartree energ DENC   =     -7465.09904658
  -exchange      EXHF   =         0.00000000
  -V(xc)+E(xc)   XCENC  =       936.02996492
  PAW double counting   =     21623.55787282   -22682.21226561
  entropy T*S    EENTRO =        -0.00000000
  eigenvalues    EBANDS =     -3034.80226150
  atomic energy  EATOM  =     26212.11861568
  Solvation  Ediel_sol  =         0.00000000
  ---------------------------------------------------
  free energy    TOTEN  =     -1409.48286336 eV

  energy without entropy =    -1409.48286336  energy(sigma->0) =    -1409.48286336


--------------------------------------------------------------------------------------------------------




--------------------------------------- Iteration      1(   7)  ---------------------------------------


    POTLOK:  cpu time    0.3079: real time    0.3098
    SETDIJ:  cpu time    1.2013: real time    1.2014
     EDDAV:  cpu time   18.1083: real time   18.1090
       DOS:  cpu time    0.0006: real time    0.0006
    CHARGE:  cpu time    2.6835: real time    2.6836
    MIXING:  cpu time    0.0015: real time    0.0015
    --------------------------------------------
      LOOP:  cpu time   22.3032: real time   22.3060

 eigenvalue-minimisations  :  4024
 total energy-change (2. order) : 0.5148473E+00  (-0.9290087E+00)
 number of electron     344.0000001 magnetization 
 augmentation part       -3.0691157 magnetization 

 Broyden mixing:
  rms(total) = 0.37755E+00    rms(broyden)= 0.37753E+00
  rms(prec ) = 0.42096E+00
  weight for this iteration     100.00

 eigenvalues of (default mixing * dielectric matrix)
  average eigenvalue GAMMA=   1.2932
  1.2932  1.2932

 Free energy of the ion-electron system (eV)
  ---------------------------------------------------
  alpha Z        PSCENC =       872.70583573
  Ewald energy   TEWEN  =    -17871.78157883
  -Hartree energ DENC   =     -7507.14766813
  -exchange      EXHF   =         0.00000000
  -V(xc)+E(xc)   XCENC  =       941.01418556
  PAW double counting   =     22242.90339599   -23299.54681049
  entropy T*S    EENTRO =        -0.00000000
  eigenvalues    EBANDS =     -2999.23399160
  atomic energy  EATOM  =     26212.11861568
  Solvation  Ediel_sol  =         0.00000000
  ---------------------------------------------------
  free energy    TOTEN  =     -1408.96801609 eV

  energy without entropy =    -1408.96801609  energy(sigma->0) =    -1408.96801609


--------------------------------------------------------------------------------------------------------




--------------------------------------- Iteration      1(   8)  ---------------------------------------


    POTLOK:  cpu time    0.2812: real time    0.3100
    SETDIJ:  cpu time    1.2010: real time    1.2011
     EDDAV:  cpu time   17.9813: real time   17.9823
       DOS:  cpu time    0.0004: real time    0.0004
    CHARGE:  cpu time    2.6884: real time    2.6885
    MIXING:  cpu time    0.0017: real time    0.0017
    --------------------------------------------
      LOOP:  cpu time   22.1541: real time   22.1840

 eigenvalue-minimisations  :  3984
 total energy-change (2. order) :-0.1773718E+00  (-0.4960431E-01)
 number of electron     344.0000001 magnetization 
 augmentation part       -3.1677832 magnetization 

 Broyden mixing:
  rms(total) = 0.22425E+00    rms(broyden)= 0.22424E+00
  rms(prec ) = 0.25437E+00
  weight for this iteration     100.00

 eigenvalues of (default mixing * dielectric matrix)
  average eigenvalue GAMMA=   1.6846
  1.1866  1.2292  2.6380

 Free energy of the ion-electron system (eV)
  ---------------------------------------------------
  alpha Z        PSCENC =       872.70583573
  Ewald energy   TEWEN  =    -17871.78157883
  -Hartree energ DENC   =     -7512.76076727
  -exchange      EXHF   =         0.00000000
  -V(xc)+E(xc)   XCENC  =       941.62776824
  PAW double counting   =     22464.19901750   -23521.21338411
  entropy T*S    EENTRO =        -0.00000000
  eigenvalues    EBANDS =     -2994.04089479
  atomic energy  EATOM  =     26212.11861568
  Solvation  Ediel_sol  =         0.00000000
  ---------------------------------------------------
  free energy    TOTEN  =     -1409.14538786 eV

  energy without entropy =    -1409.14538786  energy(sigma->0) =    -1409.14538786


--------------------------------------------------------------------------------------------------------




--------------------------------------- Iteration      1(   9)  ---------------------------------------


    POTLOK:  cpu time    0.2954: real time    0.3105
    SETDIJ:  cpu time    1.1990: real time    1.1990
     EDDAV:  cpu time   17.1135: real time   17.1143
       DOS:  cpu time    0.0004: real time    0.0004
    CHARGE:  cpu time    2.6893: real time    2.6894
    MIXING:  cpu time    0.0016: real time    0.0016
    --------------------------------------------
      LOOP:  cpu time   21.2992: real time   21.3152

 eigenvalue-minimisations  :  3680
 total energy-change (2. order) :-0.6700702E-01  (-0.1903151E-01)
 number of electron     344.0000001 magnetization 
 augmentation part       -3.2031392 magnetization 

 Broyden mixing:
  rms(total) = 0.46556E-01    rms(broyden)= 0.46552E-01
  rms(prec ) = 0.55677E-01
  weight for this iteration     100.00

 eigenvalues of (default mixing * dielectric matrix)
  average eigenvalue GAMMA=   1.4643
  2.5400  1.2386  1.2386  0.8403

 Free energy of the ion-electron system (eV)
  ---------------------------------------------------
  alpha Z        PSCENC =       872.70583573
  Ewald energy   TEWEN  =    -17871.78157883
  -Hartree energ DENC   =     -7520.32063207
  -exchange      EXHF   =         0.00000000
  -V(xc)+E(xc)   XCENC  =       943.57204460
  PAW double counting   =     22800.44230596   -23858.33643723
  entropy T*S    EENTRO =        -0.00000000
  eigenvalues    EBANDS =     -2987.61254871
  atomic energy  EATOM  =     26212.11861568
  Solvation  Ediel_sol  =         0.00000000
  ---------------------------------------------------
  free energy    TOTEN  =     -1409.21239487 eV

  energy without entropy =    -1409.21239487  energy(sigma->0) =    -1409.21239487


--------------------------------------------------------------------------------------------------------




--------------------------------------- Iteration      1(  10)  ---------------------------------------


    POTLOK:  cpu time    0.2668: real time    0.3114
    SETDIJ:  cpu time    1.2032: real time    1.2033
     EDDAV:  cpu time   19.8210: real time   19.8218
       DOS:  cpu time    0.0007: real time    0.0007
    CHARGE:  cpu time    2.6896: real time    2.6897
    MIXING:  cpu time    0.0016: real time    0.0016
    --------------------------------------------
      LOOP:  cpu time   23.9830: real time   24.0284

 eigenvalue-minimisations  :  4624
 total energy-change (2. order) :-0.3869384E-02  (-0.2306552E-02)
 number of electron     344.0000001 magnetization 
 augmentation part       -3.1908932 magnetization 

 Broyden mixing:
  rms(total) = 0.32981E-01    rms(broyden)= 0.32978E-01
  rms(prec ) = 0.41284E-01
  weight for this iteration     100.00

 eigenvalues of (default mixing * dielectric matrix)
  average eigenvalue GAMMA=   1.3086
  2.4406  1.2983  1.2983  0.7530  0.7530

 Free energy of the ion-electron system (eV)
  ---------------------------------------------------
  alpha Z        PSCENC =       872.70583573
  Ewald energy   TEWEN  =    -17871.78157883
  -Hartree energ DENC   =     -7518.66675462
  -exchange      EXHF   =         0.00000000
  -V(xc)+E(xc)   XCENC  =       943.43643438
  PAW double counting   =     22774.08615019   -23832.03332892
  entropy T*S    EENTRO =        -0.00000000
  eigenvalues    EBANDS =     -2989.08163787
  atomic energy  EATOM  =     26212.11861568
  Solvation  Ediel_sol  =         0.00000000
  ---------------------------------------------------
  free energy    TOTEN  =     -1409.21626426 eV

  energy without entropy =    -1409.21626426  energy(sigma->0) =    -1409.21626426


--------------------------------------------------------------------------------------------------------




--------------------------------------- Iteration      1(  11)  ---------------------------------------


    POTLOK:  cpu time    0.2928: real time    0.3077
    SETDIJ:  cpu time    1.2009: real time    1.2009
     EDDAV:  cpu time   17.4196: real time   17.4203
       DOS:  cpu time    0.0004: real time    0.0004
    CHARGE:  cpu time    2.6827: real time    2.6828
    MIXING:  cpu time    0.0016: real time    0.0016
    --------------------------------------------
      LOOP:  cpu time   21.5980: real time   21.6138

 eigenvalue-minimisations  :  3776
 total energy-change (2. order) :-0.2188615E-02  (-0.2832092E-03)
 number of electron     344.0000001 magnetization 
 augmentation part       -3.1906539 magnetization 

 Broyden mixing:
  rms(total) = 0.16039E-01    rms(broyden)= 0.16039E-01
  rms(prec ) = 0.23604E-01
  weight for this iteration     100.00

 eigenvalues of (default mixing * dielectric matrix)
  average eigenvalue GAMMA=   1.5960
  2.7339  2.7339  1.1955  1.1955  0.8586  0.8586

 Free energy of the ion-electron system (eV)
  ---------------------------------------------------
  alpha Z        PSCENC =       872.70583573
  Ewald energy   TEWEN  =    -17871.78157883
  -Hartree energ DENC   =     -7517.36715971
  -exchange      EXHF   =         0.00000000
  -V(xc)+E(xc)   XCENC  =       943.37301985
  PAW double counting   =     22760.27783642   -23818.39527623
  entropy T*S    EENTRO =        -0.00000000
  eigenvalues    EBANDS =     -2990.14974577
  atomic energy  EATOM  =     26212.11861568
  Solvation  Ediel_sol  =         0.00000000
  ---------------------------------------------------
  free energy    TOTEN  =     -1409.21845287 eV

  energy without entropy =    -1409.21845287  energy(sigma->0) =    -1409.21845287


--------------------------------------------------------------------------------------------------------




--------------------------------------- Iteration      1(  12)  ---------------------------------------


    POTLOK:  cpu time    0.2630: real time    0.3158
    SETDIJ:  cpu time    1.2014: real time    1.2014
     EDDAV:  cpu time   17.0155: real time   17.0164
       DOS:  cpu time    0.0012: real time    0.0012
    CHARGE:  cpu time    2.6850: real time    2.6851
    MIXING:  cpu time    0.0016: real time    0.0016
    --------------------------------------------
      LOOP:  cpu time   21.1676: real time   21.2214

 eigenvalue-minimisations  :  3640
 total energy-change (2. order) :-0.3527034E-02  (-0.5353922E-03)
 number of electron     344.0000001 magnetization 
 augmentation part       -3.1935175 magnetization 

 Broyden mixing:
  rms(total) = 0.98096E-02    rms(broyden)= 0.98085E-02
  rms(prec ) = 0.12775E-01
  weight for this iteration     100.00

 eigenvalues of (default mixing * dielectric matrix)
  average eigenvalue GAMMA=   1.5774
  2.8066  2.8066  1.2939  1.2939  0.8982  0.9713  0.9713

 Free energy of the ion-electron system (eV)
  ---------------------------------------------------
  alpha Z        PSCENC =       872.70583573
  Ewald energy   TEWEN  =    -17871.78157883
  -Hartree energ DENC   =     -7516.48159833
  -exchange      EXHF   =         0.00000000
  -V(xc)+E(xc)   XCENC  =       943.39014908
  PAW double counting   =     22753.27944379   -23811.67914245
  entropy T*S    EENTRO =        -0.00000000
  eigenvalues    EBANDS =     -2990.77370457
  atomic energy  EATOM  =     26212.11861568
  Solvation  Ediel_sol  =         0.00000000
  ---------------------------------------------------
  free energy    TOTEN  =     -1409.22197991 eV

  energy without entropy =    -1409.22197991  energy(sigma->0) =    -1409.22197991


--------------------------------------------------------------------------------------------------------




--------------------------------------- Iteration      1(  13)  ---------------------------------------


    POTLOK:  cpu time    0.3025: real time    0.3040
    SETDIJ:  cpu time    1.2014: real time    1.2014
     EDDAV:  cpu time   19.0926: real time   19.0933
       DOS:  cpu time    0.0006: real time    0.0006
    CHARGE:  cpu time    2.6846: real time    2.6846
    MIXING:  cpu time    0.0019: real time    0.0019
    --------------------------------------------
      LOOP:  cpu time   23.2835: real time   23.2858

 eigenvalue-minimisations  :  4360
 total energy-change (2. order) : 0.1825191E-03  (-0.1136022E-03)
 number of electron     344.0000001 magnetization 
 augmentation part       -3.1939857 magnetization 

 Broyden mixing:
  rms(total) = 0.50165E-02    rms(broyden)= 0.50159E-02
  rms(prec ) = 0.61392E-02
  weight for this iteration     100.00

 eigenvalues of (default mixing * dielectric matrix)
  average eigenvalue GAMMA=   1.5520
  3.1484  2.5332  1.5134  1.1207  1.1207  1.2376  0.9439  0.7979

 Free energy of the ion-electron system (eV)
  ---------------------------------------------------
  alpha Z        PSCENC =       872.70583573
  Ewald energy   TEWEN  =    -17871.78157883
  -Hartree energ DENC   =     -7517.40168179
  -exchange      EXHF   =         0.00000000
  -V(xc)+E(xc)   XCENC  =       943.44905113
  PAW double counting   =     22752.11456359   -23810.47460599
  entropy T*S    EENTRO =        -0.00000000
  eigenvalues    EBANDS =     -2989.95199691
  atomic energy  EATOM  =     26212.11861568
  Solvation  Ediel_sol  =         0.00000000
  ---------------------------------------------------
  free energy    TOTEN  =     -1409.22179739 eV

  energy without entropy =    -1409.22179739  energy(sigma->0) =    -1409.22179739


--------------------------------------------------------------------------------------------------------




--------------------------------------- Iteration      1(  14)  ---------------------------------------


    POTLOK:  cpu time    0.2874: real time    0.3060
    SETDIJ:  cpu time    1.1993: real time    1.1993
     EDDAV:  cpu time   17.8745: real time   17.8753
       DOS:  cpu time    0.0004: real time    0.0004
    CHARGE:  cpu time    2.6866: real time    2.6866
    MIXING:  cpu time    0.0017: real time    0.0017
    --------------------------------------------
      LOOP:  cpu time   22.0498: real time   22.0694

 eigenvalue-minimisations  :  3936
 total energy-change (2. order) : 0.3786856E-04  (-0.3882566E-04)
 number of electron     344.0000001 magnetization 
 augmentation part       -3.1928515 magnetization 

 Broyden mixing:
  rms(total) = 0.22829E-02    rms(broyden)= 0.22818E-02
  rms(prec ) = 0.31191E-02
  weight for this iteration     100.00

 eigenvalues of (default mixing * dielectric matrix)
  average eigenvalue GAMMA=   1.5453
  3.2050  2.1858  2.1858  1.1170  1.1170  1.1480  1.1480  0.9007  0.9007

 Free energy of the ion-electron system (eV)
  ---------------------------------------------------
  alpha Z        PSCENC =       872.70583573
  Ewald energy   TEWEN  =    -17871.78157883
  -Hartree energ DENC   =     -7517.76071497
  -exchange      EXHF   =         0.00000000
  -V(xc)+E(xc)   XCENC  =       943.47148663
  PAW double counting   =     22753.25068223   -23811.58835985
  entropy T*S    EENTRO =        -0.00000000
  eigenvalues    EBANDS =     -2989.63772614
  atomic energy  EATOM  =     26212.11861568
  Solvation  Ediel_sol  =         0.00000000
  ---------------------------------------------------
  free energy    TOTEN  =     -1409.22175952 eV

  energy without entropy =    -1409.22175952  energy(sigma->0) =    -1409.22175952


--------------------------------------------------------------------------------------------------------




--------------------------------------- Iteration      1(  15)  ---------------------------------------


    POTLOK:  cpu time    0.2666: real time    0.3015
    SETDIJ:  cpu time    1.2010: real time    1.2011
     EDDAV:  cpu time   18.3916: real time   18.3923
       DOS:  cpu time    0.0004: real time    0.0004
    CHARGE:  cpu time    2.6895: real time    2.6896
    MIXING:  cpu time    0.0019: real time    0.0019
    --------------------------------------------
      LOOP:  cpu time   22.5510: real time   22.5868

 eigenvalue-minimisations  :  4120
 total energy-change (2. order) :-0.3867277E-05  (-0.2980149E-05)
 number of electron     344.0000001 magnetization 
 augmentation part       -3.1932244 magnetization 

 Broyden mixing:
  rms(total) = 0.13405E-02    rms(broyden)= 0.13392E-02
  rms(prec ) = 0.19328E-02
  weight for this iteration     100.00

 eigenvalues of (default mixing * dielectric matrix)
  average eigenvalue GAMMA=   1.6317
  3.6467  2.4544  2.4544  1.4130  1.4130  1.1305  1.1305  0.8488  0.8488  0.9765

 Free energy of the ion-electron system (eV)
  ---------------------------------------------------
  alpha Z        PSCENC =       872.70583573
  Ewald energy   TEWEN  =    -17871.78157883
  -Hartree energ DENC   =     -7517.86953259
  -exchange      EXHF   =         0.00000000
  -V(xc)+E(xc)   XCENC  =       943.47305684
  PAW double counting   =     22753.66975378   -23812.00271522
  entropy T*S    EENTRO =        -0.00000000
  eigenvalues    EBANDS =     -2989.53519878
  atomic energy  EATOM  =     26212.11861568
  Solvation  Ediel_sol  =         0.00000000
  ---------------------------------------------------
  free energy    TOTEN  =     -1409.22176339 eV

  energy without entropy =    -1409.22176339  energy(sigma->0) =    -1409.22176339


--------------------------------------------------------------------------------------------------------




--------------------------------------- Iteration      1(  16)  ---------------------------------------


    POTLOK:  cpu time    0.2644: real time    0.3056
    SETDIJ:  cpu time    1.2097: real time    1.2097
     EDDAV:  cpu time   17.0450: real time   17.0457
       DOS:  cpu time    0.0005: real time    0.0005
    CHARGE:  cpu time    2.6835: real time    2.6836
    MIXING:  cpu time    0.0019: real time    0.0019
    --------------------------------------------
      LOOP:  cpu time   21.2051: real time   21.2470

 eigenvalue-minimisations  :  3648
 total energy-change (2. order) :-0.5193325E-04  (-0.3917538E-05)
 number of electron     344.0000001 magnetization 
 augmentation part       -3.1928775 magnetization 

 Broyden mixing:
  rms(total) = 0.56397E-03    rms(broyden)= 0.56100E-03
  rms(prec ) = 0.71948E-03
  weight for this iteration     100.00

 eigenvalues of (default mixing * dielectric matrix)
  average eigenvalue GAMMA=   1.6635
  4.0773  2.7067  2.4074  1.9120  1.0974  1.0974  1.1403  1.1403  0.8590  0.9304
  0.9304

 Free energy of the ion-electron system (eV)
  ---------------------------------------------------
  alpha Z        PSCENC =       872.70583573
  Ewald energy   TEWEN  =    -17871.78157883
  -Hartree energ DENC   =     -7517.92679709
  -exchange      EXHF   =         0.00000000
  -V(xc)+E(xc)   XCENC  =       943.46788060
  PAW double counting   =     22753.06535507   -23811.39465793
  entropy T*S    EENTRO =        -0.00000000
  eigenvalues    EBANDS =     -2989.47646855
  atomic energy  EATOM  =     26212.11861568
  Solvation  Ediel_sol  =         0.00000000
  ---------------------------------------------------
  free energy    TOTEN  =     -1409.22181532 eV

  energy without entropy =    -1409.22181532  energy(sigma->0) =    -1409.22181532


--------------------------------------------------------------------------------------------------------




--------------------------------------- Iteration      1(  17)  ---------------------------------------


    POTLOK:  cpu time    0.2822: real time    0.3109
    SETDIJ:  cpu time    1.2117: real time    1.2118
     EDDAV:  cpu time   17.6309: real time   17.6316
       DOS:  cpu time    0.0004: real time    0.0004
    --------------------------------------------
      LOOP:  cpu time   19.1251: real time   19.1547

 eigenvalue-minimisations  :  3840
 total energy-change (2. order) :-0.8938637E-06  (-0.7693578E-06)
 number of electron     344.0000001 magnetization 
 augmentation part       -3.1928775 magnetization 

 Free energy of the ion-electron system (eV)
  ---------------------------------------------------
  alpha Z        PSCENC =       872.70583573
  Ewald energy   TEWEN  =    -17871.78157883
  -Hartree energ DENC   =     -7517.92515541
  -exchange      EXHF   =         0.00000000
  -V(xc)+E(xc)   XCENC  =       943.46593592
  PAW double counting   =     22753.16602703   -23811.49277985
  entropy T*S    EENTRO =        -0.00000000
  eigenvalues    EBANDS =     -2989.47871648
  atomic energy  EATOM  =     26212.11861568
  Solvation  Ediel_sol  =         0.00000000
  ---------------------------------------------------
  free energy    TOTEN  =     -1409.22181621 eV

  energy without entropy =    -1409.22181621  energy(sigma->0) =    -1409.22181621


--------------------------------------------------------------------------------------------------------




 average (electrostatic) potential at core
  the test charge radii are     1.1312  1.1541  1.0178
  (the norm of the test charge is              1.0000)
       1 -55.2721       2 -55.2568       3 -55.3037       4 -55.1805       5 -55.2039
       6 -55.1655       7 -55.0991       8 -55.2808       9-101.6961      10-101.7944
      11-101.6403      12-101.9639      13-101.5806      14-102.0579      15-101.6562
      16-101.5896      17 -69.0658      18 -69.1195      19 -69.1758      20 -69.1462
      21 -69.0879      22 -69.5088      23 -69.0337      24 -69.2613      25 -68.9184
      26 -69.1093      27 -69.0081      28 -69.0838      29 -69.0921      30 -68.9640
      31 -69.1080      32 -68.9166      33 -69.0198      34 -69.0740      35 -69.0583
      36 -68.4235      37 -68.9155      38 -69.0296      39 -68.7234



 E-fermi :   0.4330     XC(G=0):  -7.9552     alpha+bet : -6.9586


 k-point     1 :       0.0000    0.0000    0.0000
  band No.  band energies     occupation 
      1     -20.8416      2.00000
      2     -20.8083      2.00000
      3     -20.7947      2.00000
      4     -20.7882      2.00000
      5     -20.7351      2.00000
      6     -20.7116      2.00000
      7     -20.7106      2.00000
      8     -20.6422      2.00000
      9     -16.8255      2.00000
     10     -16.7878      2.00000
     11     -16.7313      2.00000
     12     -16.7183      2.00000
     13     -16.7093      2.00000
     14     -16.6857      2.00000
     15     -16.6755      2.00000
     16     -16.6424      2.00000
     17     -16.6333      2.00000
     18     -16.5797      2.00000
     19     -16.5776      2.00000
     20     -16.5407      2.00000
     21     -16.5241      2.00000
     22     -16.4881      2.00000
     23     -16.4585      2.00000
     24     -16.4531      2.00000
     25     -16.4448      2.00000
     26     -16.4429      2.00000
     27     -16.4363      2.00000
     28     -16.4323      2.00000
     29     -16.4110      2.00000
     30     -16.3799      2.00000
     31     -16.3686      2.00000
     32     -16.3600      2.00000
     33     -16.3585      2.00000
     34     -16.3548      2.00000
     35     -16.3290      2.00000
     36     -16.3242      2.00000
     37     -16.3229      2.00000
     38     -16.3135      2.00000
     39     -16.3123      2.00000
     40     -16.3062      2.00000
     41     -16.3052      2.00000
     42     -16.3002      2.00000
     43     -16.2690      2.00000
     44     -16.2554      2.00000
     45     -16.2543      2.00000
     46     -16.2499      2.00000
     47     -16.2378      2.00000
     48     -16.2069      2.00000
     49     -14.5782      2.00000
     50     -14.3984      2.00000
     51     -14.2980      2.00000
     52     -14.2580      2.00000
     53     -14.2031      2.00000
     54     -14.1797      2.00000
     55     -14.1519      2.00000
     56     -14.1382      2.00000
     57     -14.1282      2.00000
     58     -14.1000      2.00000
     59     -14.0863      2.00000
     60     -14.0774      2.00000
     61     -14.0455      2.00000
     62     -13.9997      2.00000
     63     -13.9437      2.00000
     64     -13.9351      2.00000
     65     -13.9138      2.00000
     66     -13.8608      2.00000
     67     -13.8196      2.00000
     68     -13.8124      2.00000
     69     -13.7548      2.00000
     70     -13.6445      2.00000
     71     -13.3524      2.00000
     72      -8.2266      2.00000
     73      -7.7906      2.00000
     74      -7.7833      2.00000
     75      -7.6416      2.00000
     76      -7.3552      2.00000
     77      -7.2876      2.00000
     78      -7.2617      2.00000
     79      -7.2433      2.00000
     80      -7.2390      2.00000
     81      -7.2332      2.00000
     82      -7.2206      2.00000
     83      -7.2073      2.00000
     84      -7.2047      2.00000
     85      -7.1957      2.00000
     86      -7.1927      2.00000
     87      -7.1873      2.00000
     88      -7.1763      2.00000
     89      -7.1629      2.00000
     90      -7.1577      2.00000
     91      -7.1479      2.00000
     92      -7.1383      2.00000
     93      -7.1331      2.00000
     94      -7.1244      2.00000
     95      -7.1206      2.00000
     96      -7.1152      2.00000
     97      -7.1129      2.00000
     98      -7.0889      2.00000
     99      -7.0789      2.00000
    100      -7.0676      2.00000
    101      -7.0538      2.00000
    102      -7.0247      2.00000
    103      -6.6203      2.00000
    104      -3.4908      2.00000
    105      -3.3971      2.00000
    106      -3.3422      2.00000
    107      -3.3095      2.00000
    108      -3.2734      2.00000
    109      -3.2238      2.00000
    110      -3.1916      2.00000
    111      -3.0598      2.00000
    112      -3.0471      2.00000
    113      -2.8948      2.00000
    114      -2.7430      2.00000
    115      -2.6532      2.00000
    116      -2.3532      2.00000
    117      -2.2403      2.00000
    118      -2.1745      2.00000
    119      -2.1482      2.00000
    120      -2.0683      2.00000
    121      -1.9711      2.00000
    122      -1.9461      2.00000
    123      -1.9369      2.00000
    124      -1.9075      2.00000
    125      -1.8610      2.00000
    126      -1.8403      2.00000
    127      -1.7354      2.00000
    128      -1.7170      2.00000
    129      -1.7065      2.00000
    130      -1.6741      2.00000
    131      -1.6273      2.00000
    132      -1.6023      2.00000
    133      -1.5880      2.00000
    134      -1.5697      2.00000
    135      -1.5485      2.00000
    136      -1.5272      2.00000
    137      -1.5113      2.00000
    138      -1.4755      2.00000
    139      -1.4668      2.00000
    140      -1.4549      2.00000
    141      -1.4473      2.00000
    142      -1.4366      2.00000
    143      -1.4241      2.00000
    144      -1.4126      2.00000
    145      -1.4007      2.00000
    146      -1.3923      2.00000
    147      -1.3642      2.00000
    148      -1.3582      2.00000
    149      -1.3359      2.00000
    150      -1.3222      2.00000
    151      -1.3146      2.00000
    152      -1.2686      2.00000
    153      -1.2523      2.00000
    154      -1.2253      2.00000
    155      -1.1932      2.00000
    156      -1.1715      2.00000
    157      -1.1426      2.00000
    158      -1.1199      2.00000
    159      -1.0698      2.00000
    160      -1.0461      2.00000
    161      -1.0251      2.00000
    162      -0.9907      2.00000
    163      -0.8761      2.00000
    164      -0.8555      2.00000
    165      -0.7951      2.00000
    166      -0.7650      2.00000
    167      -0.6975      2.00000
    168      -0.6513      2.00000
    169      -0.4326      2.00000
    170      -0.2128      2.00000
    171      -0.1630      2.00000
    172       0.3310      2.00000
    173       2.6818      0.00000
    174       2.7297      0.00000
    175       2.8629      0.00000
    176       2.8838      0.00000
    177       3.0291      0.00000
    178       3.1549      0.00000
    179       3.1914      0.00000
    180       3.2130      0.00000
    181       3.3645      0.00000
    182       3.4103      0.00000
    183       3.5212      0.00000
    184       3.6915      0.00000
    185       4.2454      0.00000
    186       4.6195      0.00000
    187       4.8486      0.00000
    188       4.9383      0.00000
    189       5.4115      0.00000
    190       5.4287      0.00000
    191       5.6200      0.00000
    192       5.6848      0.00000
    193       5.8025      0.00000
    194       5.8757      0.00000
    195       6.0003      0.00000
    196       6.0234      0.00000
    197       6.0782      0.00000
    198       6.1456      0.00000
    199       6.1910      0.00000
    200       6.2334      0.00000
    201       6.3026      0.00000
    202       6.4133      0.00000
    203       6.4371      0.00000
    204       6.4511      0.00000
    205       6.5147      0.00000
    206       6.5904      0.00000
    207       6.6479      0.00000
    208       6.6888      0.00000

 k-point     2 :       0.5000    0.0000    0.0000
  band No.  band energies     occupation 
      1     -20.8415      2.00000
      2     -20.8083      2.00000
      3     -20.7947      2.00000
      4     -20.7882      2.00000
      5     -20.7352      2.00000
      6     -20.7116      2.00000
      7     -20.7106      2.00000
      8     -20.6422      2.00000
      9     -16.8255      2.00000
     10     -16.7877      2.00000
     11     -16.7311      2.00000
     12     -16.7183      2.00000
     13     -16.7093      2.00000
     14     -16.6832      2.00000
     15     -16.6755      2.00000
     16     -16.6424      2.00000
     17     -16.6337      2.00000
     18     -16.5796      2.00000
     19     -16.5777      2.00000
     20     -16.5428      2.00000
     21     -16.5196      2.00000
     22     -16.4747      2.00000
     23     -16.4553      2.00000
     24     -16.4531      2.00000
     25     -16.4430      2.00000
     26     -16.4420      2.00000
     27     -16.4364      2.00000
     28     -16.4318      2.00000
     29     -16.4229      2.00000
     30     -16.3847      2.00000
     31     -16.3689      2.00000
     32     -16.3672      2.00000
     33     -16.3600      2.00000
     34     -16.3546      2.00000
     35     -16.3291      2.00000
     36     -16.3252      2.00000
     37     -16.3229      2.00000
     38     -16.3135      2.00000
     39     -16.3124      2.00000
     40     -16.3062      2.00000
     41     -16.3054      2.00000
     42     -16.3002      2.00000
     43     -16.2690      2.00000
     44     -16.2554      2.00000
     45     -16.2543      2.00000
     46     -16.2499      2.00000
     47     -16.2378      2.00000
     48     -16.2069      2.00000
     49     -14.5738      2.00000
     50     -14.3679      2.00000
     51     -14.3488      2.00000
     52     -14.2814      2.00000
     53     -14.2109      2.00000
     54     -14.1940      2.00000
     55     -14.1670      2.00000
     56     -14.1388      2.00000
     57     -14.1326      2.00000
     58     -14.0898      2.00000
     59     -14.0775      2.00000
     60     -14.0465      2.00000
     61     -14.0095      2.00000
     62     -13.9459      2.00000
     63     -13.9349      2.00000
     64     -13.9143      2.00000
     65     -13.9025      2.00000
     66     -13.8895      2.00000
     67     -13.8368      2.00000
     68     -13.8210      2.00000
     69     -13.7935      2.00000
     70     -13.6459      2.00000
     71     -13.3531      2.00000
     72      -8.0717      2.00000
     73      -7.9301      2.00000
     74      -7.6447      2.00000
     75      -7.5861      2.00000
     76      -7.4986      2.00000
     77      -7.3623      2.00000
     78      -7.2923      2.00000
     79      -7.2497      2.00000
     80      -7.2329      2.00000
     81      -7.2317      2.00000
     82      -7.2193      2.00000
     83      -7.2102      2.00000
     84      -7.2047      2.00000
     85      -7.1967      2.00000
     86      -7.1895      2.00000
     87      -7.1821      2.00000
     88      -7.1800      2.00000
     89      -7.1618      2.00000
     90      -7.1533      2.00000
     91      -7.1490      2.00000
     92      -7.1409      2.00000
     93      -7.1355      2.00000
     94      -7.1233      2.00000
     95      -7.1168      2.00000
     96      -7.1157      2.00000
     97      -7.0974      2.00000
     98      -7.0841      2.00000
     99      -7.0709      2.00000
    100      -7.0622      2.00000
    101      -7.0318      2.00000
    102      -6.9909      2.00000
    103      -6.8693      2.00000
    104      -3.4510      2.00000
    105      -3.3641      2.00000
    106      -3.2998      2.00000
    107      -3.2568      2.00000
    108      -3.1960      2.00000
    109      -3.0892      2.00000
    110      -2.9583      2.00000
    111      -2.8295      2.00000
    112      -2.6330      2.00000
    113      -2.5836      2.00000
    114      -2.5647      2.00000
    115      -2.5337      2.00000
    116      -2.4662      2.00000
    117      -2.4013      2.00000
    118      -2.2896      2.00000
    119      -2.2540      2.00000
    120      -2.1743      2.00000
    121      -2.0876      2.00000
    122      -2.0768      2.00000
    123      -2.0377      2.00000
    124      -1.9854      2.00000
    125      -1.9603      2.00000
    126      -1.9303      2.00000
    127      -1.8310      2.00000
    128      -1.7994      2.00000
    129      -1.7675      2.00000
    130      -1.6942      2.00000
    131      -1.6450      2.00000
    132      -1.6373      2.00000
    133      -1.5905      2.00000
    134      -1.5759      2.00000
    135      -1.5604      2.00000
    136      -1.5488      2.00000
    137      -1.5371      2.00000
    138      -1.5245      2.00000
    139      -1.4790      2.00000
    140      -1.4616      2.00000
    141      -1.4540      2.00000
    142      -1.4459      2.00000
    143      -1.4244      2.00000
    144      -1.3969      2.00000
    145      -1.3921      2.00000
    146      -1.3747      2.00000
    147      -1.3629      2.00000
    148      -1.3556      2.00000
    149      -1.3416      2.00000
    150      -1.3024      2.00000
    151      -1.2692      2.00000
    152      -1.2524      2.00000
    153      -1.2185      2.00000
    154      -1.2150      2.00000
    155      -1.2048      2.00000
    156      -1.1702      2.00000
    157      -1.1604      2.00000
    158      -1.1264      2.00000
    159      -1.1123      2.00000
    160      -1.0996      2.00000
    161      -1.0358      2.00000
    162      -0.9826      2.00000
    163      -0.9199      2.00000
    164      -0.8635      2.00000
    165      -0.8447      2.00000
    166      -0.7771      2.00000
    167      -0.7553      2.00000
    168      -0.6568      2.00000
    169      -0.6067      2.00000
    170      -0.4311      2.00000
    171      -0.1285      2.00000
    172      -0.0210      2.00000
    173       2.5720      0.00000
    174       2.8666      0.00000
[...]


--------------------------------------------------------------------------------------------------------


 soft charge-density along one line, spin component           1
         0         1         2         3         4         5         6         7         8         9
 total charge-density along one line

 pseudopotential strength for first ion, spin component:           1
 17.966  -4.703  -0.000  -0.001  -0.001   0.000   0.001   0.001
 -4.703   1.240   0.000   0.000   0.000  -0.000  -0.000  -0.000
 -0.000   0.000   2.262   0.000   0.000  -2.705  -0.001  -0.000
 -0.001   0.000   0.000   2.262  -0.001  -0.001  -2.705   0.001
 -0.001   0.000   0.000  -0.001   2.262  -0.000   0.001  -2.705
  0.000  -0.000  -2.705  -0.001  -0.000   3.203   0.001   0.000
  0.001  -0.000  -0.001  -2.705   0.001   0.001   3.202  -0.001
  0.001  -0.000  -0.000   0.001  -2.705   0.000  -0.001   3.202
  0.000  -0.000   0.000   0.000  -0.000  -0.001  -0.000   0.000
  0.001  -0.000   0.000  -0.000   0.000  -0.000   0.000  -0.000
 -0.000   0.000   0.000  -0.002   0.001  -0.000   0.002  -0.001
 -0.001   0.000   0.000   0.000  -0.000  -0.000  -0.000   0.000
 -0.000   0.000   0.000  -0.000  -0.001  -0.000   0.000   0.002
 total augmentation occupancy for first ion, spin component:           1
  1.910  -0.140  -0.000  -0.000  -0.000  -0.000  -0.001  -0.000   0.000   0.001  -0.000  -0.001  -0.000
 -0.140   0.108  -0.001  -0.004  -0.001   0.000   0.001   0.001   0.000  -0.002   0.001   0.004   0.002
 -0.000  -0.001   2.017   0.001   0.000   0.004   0.001   0.000   0.002   0.001   0.000   0.000  -0.000
 -0.000  -0.004   0.001   2.016  -0.002   0.001   0.003  -0.001   0.000  -0.000  -0.004   0.000  -0.000
 -0.000  -0.001   0.000  -0.002   2.017   0.000  -0.001   0.004  -0.001   0.000   0.001   0.000  -0.003
 -0.000   0.000   0.004   0.001   0.000   0.007  -0.001   0.000  -0.001  -0.002  -0.000  -0.000   0.000
 -0.001   0.001   0.001   0.003  -0.001  -0.001   0.008   0.001  -0.000  -0.000   0.002  -0.001   0.000
 -0.000   0.001   0.000  -0.001   0.004   0.000   0.001   0.008   0.000  -0.000  -0.001  -0.001   0.002
  0.000   0.000   0.002   0.000  -0.001  -0.001  -0.000   0.000   0.005   0.002   0.000  -0.000  -0.000
  0.001  -0.002   0.001  -0.000   0.000  -0.002  -0.000  -0.000   0.002   0.004  -0.000   0.000   0.000
 -0.000   0.001   0.000  -0.004   0.001  -0.000   0.002  -0.001   0.000  -0.000   0.006  -0.002  -0.001
 -0.001   0.004   0.000   0.000   0.000  -0.000  -0.001  -0.001  -0.000   0.000  -0.002   0.003   0.000
 -0.000   0.002  -0.000  -0.000  -0.003   0.000   0.000   0.002  -0.000   0.000  -0.001   0.000   0.004


------------------------ aborting loop because EDIFF is reached ----------------------------------------





 total charge     

# of ion       s       p       d       tot
------------------------------------------
    1        1.785   4.716   0.016   6.517
    2        1.786   4.716   0.019   6.521
    3        1.787   4.717   0.020   6.524
    4        1.786   4.717   0.018   6.521
    5        1.786   4.717   0.018   6.521
    6        1.787   4.717   0.021   6.526
    7        1.787   4.717   0.021   6.525
    8        1.785   4.717   0.017   6.519
    9        1.553   0.425   9.835  11.813
   10        1.531   0.439   9.830  11.800
   11        1.552   0.429   9.835  11.816
   12        1.544   0.424   9.827  11.796
   13        1.554   0.426   9.835  11.815
   14        1.518   0.446   9.827  11.791
   15        1.552   0.429   9.835  11.816
   16        1.552   0.405   9.829  11.786
   17        1.615   3.288   0.007   4.910
   18        1.615   3.289   0.007   4.912
   19        1.615   3.275   0.007   4.897
   20        1.615   3.285   0.007   4.907
   21        1.615   3.286   0.007   4.908
   22        1.617   3.265   0.007   4.889
   23        1.615   3.286   0.007   4.907
   24        1.619   3.277   0.009   4.906
   25        1.614   3.280   0.006   4.900
   26        1.615   3.277   0.006   4.898
   27        1.614   3.282   0.006   4.903
   28        1.614   3.277   0.006   4.897
   29        1.614   3.291   0.007   4.912
   30        1.614   3.271   0.005   4.890
   31        1.616   3.282   0.007   4.905
   32        1.614   3.270   0.006   4.890
   33        1.614   3.280   0.006   4.901
   34        1.614   3.277   0.006   4.897
   35        1.615   3.286   0.007   4.908
   36        1.611   3.273   0.004   4.887
   37        1.614   3.282   0.006   4.903
   38        1.614   3.276   0.006   4.897
   39        1.613   3.277   0.005   4.895
--------------------------------------------------
tot         63.781 116.592  78.953 259.326

    CHARGE:  cpu time    0.3948: real time    0.3949
    FORLOC:  cpu time    0.0111: real time    0.0111
    FORNL :  cpu time    1.9069: real time    1.9071
    STRESS:  cpu time   49.4904: real time   49.4924
    FORCOR:  cpu time    0.2403: real time    0.2403
    FORHAR:  cpu time    0.0275: real time    0.0275
    MIXING:  cpu time    0.0018: real time    0.0018
    OFIELD:  cpu time    0.0000: real time    0.0000

  FORCE on cell =-STRESS in cart. coord.  units (eV):
  Direction    XX          YY          ZZ          XY          YZ          ZX
  --------------------------------------------------------------------------------------
  Alpha Z   872.70584   872.70584   872.70584
  Ewald   -5738.94791 -6288.32505 -5844.58731   -45.86229   -31.74622   105.73486
  Hartree  2676.53838  2241.26718  2600.14357   -39.41275   -27.66306   113.62837
  E(xc)   -1449.15232 -1449.46639 -1449.12450     0.03953     0.02546    -0.13310
  Local   -3329.24579 -2341.29528 -3147.48358    84.76282    59.93586  -218.78964
  n-local  1748.51887  1746.11428  1747.48482     0.60911     0.56650    -0.02549
  augment   819.16661   816.54305   817.94501    -0.06106     0.09616     0.17311
  Kinetic  4392.94514  4397.23171  4398.56036     0.36756    -1.05029    -2.30072
  Fock        0.00000     0.00000     0.00000     0.00000     0.00000     0.00000
  -------------------------------------------------------------------------------------
  Total      -7.47119    -5.22467    -4.35579     0.44292     0.16440    -1.71262
  in kB      -7.50439    -5.24789    -4.37515     0.44489     0.16513    -1.72023
  external pressure =       -5.71 kB  Pullay stress =        0.00 kB


 VOLUME and BASIS-vectors are now :
 -----------------------------------------------------------------------------
  energy-cutoff  :      300.00
  volume of cell :     1595.09
      direct lattice vectors                 reciprocal lattice vectors
     8.456489000  0.000000000  8.040301000     0.059126193 -0.000000000  0.062186727
     0.000000000 11.729847000  0.000000000     0.000000000  0.085252604 -0.000000000
    -8.456489000  0.000000000  8.040301000    -0.059126193  0.000000000  0.062186727

  length of vectors
    11.668703715 11.729847000 11.668703715     0.085808482  0.085252604  0.085808482


 FORCES acting on ions
    electron-ion (+dipol)            ewald-force                    non-local-force                 convergence-correction
 -----------------------------------------------------------------------------------------------
   0.398E+02 -.558E+01 -.317E+02   -.397E+02 0.560E+01 0.318E+02   -.609E-01 -.171E-01 -.847E-01   -.123E-02 0.191E-03 0.275E-03
   -.202E+01 0.671E+01 0.368E+01   0.195E+01 -.667E+01 -.386E+01   0.619E-01 -.524E-01 0.172E+00   0.754E-03 -.184E-03 -.395E-03
   0.264E+01 0.487E+01 -.819E+02   -.302E+01 -.493E+01 0.817E+02   0.384E+00 0.470E-01 0.198E+00   -.198E-03 0.127E-03 0.191E-02
   -.578E+02 0.934E+01 0.425E+02   0.580E+02 -.939E+01 -.424E+02   -.136E+00 0.468E-01 -.754E-01   0.582E-03 -.285E-03 -.210E-02
   0.128E+02 -.421E+01 0.484E+02   -.127E+02 0.433E+01 -.484E+02   -.159E+00 -.131E+00 -.170E-01   0.101E-02 0.671E-03 -.968E-03
   0.366E+02 0.149E+01 -.585E+01   -.366E+02 -.155E+01 0.578E+01   0.338E-01 0.642E-01 0.670E-01   -.573E-04 -.416E-03 0.120E-02
   -.440E+02 -.155E+02 0.415E+02   0.443E+02 0.154E+02 -.417E+02   -.218E+00 0.121E+00 0.209E+00   0.132E-02 -.998E-04 -.577E-04
   0.473E+02 -.279E+01 -.121E+02   -.471E+02 0.262E+01 0.123E+02   -.156E+00 0.159E+00 -.286E+00   -.221E-02 -.260E-03 0.338E-03
   -.816E+01 0.351E+02 -.311E+02   0.839E+01 -.354E+02 0.316E+02   -.244E+00 0.227E+00 -.495E+00   0.811E-04 -.132E-02 -.460E-04
   0.108E+02 0.132E+03 -.515E+01   -.112E+02 -.139E+03 0.580E+01   0.403E+00 0.639E+01 -.660E+00   -.210E-03 -.536E-02 0.358E-03
   0.178E+02 0.203E+02 0.326E-01   -.173E+02 -.205E+02 0.195E+01   -.505E+00 0.290E+00 -.197E+01   -.227E-03 -.720E-03 0.113E-03
   -.862E+01 0.115E+03 0.821E+01   0.773E+01 -.118E+03 -.985E+01   0.853E+00 0.274E+01 0.163E+01   -.274E-04 -.551E-02 -.962E-03
   0.154E+02 -.162E+02 0.162E+02   -.150E+02 0.163E+02 -.168E+02   -.467E+00 -.717E-02 0.527E+00   0.174E-04 0.768E-03 -.792E-04
   -.101E+03 -.188E+03 -.318E+02   0.105E+03 0.195E+03 0.320E+02   -.414E+01 -.704E+01 -.187E+00   0.392E-02 0.872E-02 0.479E-03
   -.136E+02 -.290E+02 -.124E+02   0.149E+02 0.292E+02 0.109E+02   -.124E+01 -.182E+00 0.155E+01   -.270E-03 0.133E-02 0.238E-03
   0.410E+02 -.703E+02 0.600E+02   -.407E+02 0.683E+02 -.608E+02   -.274E+00 0.203E+01 0.845E+00   -.243E-03 0.151E-02 -.350E-03
   0.620E+01 0.225E+01 0.468E+02   -.628E+01 -.228E+01 -.470E+02   0.733E-01 0.242E-01 0.251E+00   0.109E-03 -.345E-03 0.195E-03
   -.334E+02 -.498E+01 0.119E+02   0.338E+02 0.499E+01 -.120E+02   -.308E+00 -.641E-02 0.619E-01   -.156E-03 -.627E-04 0.331E-04
   0.181E+02 -.429E+02 0.565E+02   -.182E+02 0.438E+02 -.569E+02   0.125E+00 -.748E+00 0.353E+00   -.573E-03 0.214E-03 -.107E-03
   0.230E+02 -.908E+00 -.444E+02   -.232E+02 0.891E+00 0.446E+02   0.165E+00 0.368E-02 -.186E+00   -.252E-03 0.546E-04 -.334E-04
   0.140E+02 -.469E+00 -.332E+02   -.141E+02 0.455E+00 0.335E+02   0.278E-01 0.170E-01 -.285E+00   0.164E-03 0.289E-03 -.201E-03
   -.431E+02 -.138E+02 -.700E+02   0.436E+02 0.141E+02 0.708E+02   -.398E+00 -.236E+00 -.743E+00   0.660E-03 0.664E-03 0.560E-03
   -.179E+02 -.565E+01 0.276E+02   0.181E+02 0.555E+01 -.278E+02   -.147E+00 0.908E-01 0.195E+00   0.246E-03 0.453E-03 -.942E-04
   -.214E+01 0.690E+02 0.451E+02   0.174E+01 -.701E+02 -.457E+02   0.363E+00 0.107E+01 0.541E+00   -.127E-03 0.104E-03 0.101E-03
   0.472E+02 -.298E+02 0.422E+01   -.475E+02 0.300E+02 -.435E+01   0.222E+00 -.184E+00 0.127E+00   -.446E-03 0.362E-03 -.866E-04
   -.187E+02 -.405E+02 -.443E+01   0.184E+02 0.406E+02 0.466E+01   0.259E+00 -.147E+00 -.197E+00   0.479E-03 0.101E-02 -.214E-03
   -.335E+02 0.221E+02 0.107E+02   0.337E+02 -.221E+02 -.105E+02   -.185E+00 -.421E-01 -.173E+00   0.421E-03 -.228E-03 -.158E-03
   0.330E+01 0.329E+02 -.424E+02   -.313E+01 -.330E+02 0.426E+02   -.157E+00 0.540E-01 -.190E+00   -.420E-03 -.835E-03 0.181E-03
   0.202E+02 0.122E+02 -.125E+02   -.203E+02 -.122E+02 0.124E+02   0.116E+00 -.297E-01 0.900E-01   0.233E-03 -.588E-03 0.255E-03
   0.599E+01 0.766E+02 -.163E+02   -.598E+01 -.770E+02 0.166E+02   0.988E-02 0.328E+00 -.296E+00   -.171E-03 -.866E-03 -.411E-03
   -.217E+02 -.459E+01 0.419E+02   0.219E+02 0.484E+01 -.425E+02   -.215E+00 -.218E+00 0.503E+00   -.518E-04 -.378E-03 -.353E-03
   -.266E+02 0.389E+02 0.548E+01   0.269E+02 -.389E+02 -.561E+01   -.282E+00 0.406E-02 0.104E+00   0.208E-03 -.967E-03 0.375E-03
   0.454E+02 0.354E+02 0.119E+02   -.457E+02 -.356E+02 -.122E+02   0.221E+00 0.189E+00 0.253E+00   -.396E-03 -.429E-03 0.294E-03
   -.188E+02 0.583E+02 0.480E+02   0.186E+02 -.586E+02 -.482E+02   0.193E+00 0.319E+00 0.228E+00   0.216E-03 -.993E-03 -.455E-03
   0.275E+02 -.178E+02 -.360E+02   -.278E+02 0.179E+02 0.363E+02   0.259E+00 -.772E-01 -.240E+00   0.128E-03 0.565E-03 -.155E-03
   0.594E+02 -.493E+02 0.447E+02   -.598E+02 0.493E+02 -.450E+02   0.345E+00 0.171E-01 0.268E+00   -.574E-03 0.448E-03 -.794E-03
   -.142E+02 -.379E+01 -.150E+00   0.144E+02 0.362E+01 0.471E+00   -.180E+00 0.170E+00 -.287E+00   -.118E-04 0.357E-03 -.204E-03
   0.107E+02 -.214E+02 -.740E+02   -.107E+02 0.213E+02 0.746E+02   -.136E-01 0.152E+00 -.523E+00   -.297E-03 0.860E-03 0.911E-03
   -.343E+02 -.110E+03 -.308E+02   0.346E+02 0.110E+03 0.312E+02   -.210E+00 -.614E+00 -.325E+00   0.782E-03 0.650E-03 0.742E-03
 -----------------------------------------------------------------------------------------------
   0.550E+01 -.481E+01 -.100E+01   -.639E-13 -.426E-13 0.391E-13   -.558E+01 0.483E+01 0.955E+00   0.318E-02 -.506E-03 0.334E-03


 POSITION                                       TOTAL-FORCE (eV/Angst)
 -----------------------------------------------------------------------------------
      0.44841      3.01427      3.82091        -0.006266      0.003003     -0.003159
      0.10096      2.75838     12.27176        -0.004306     -0.006937      0.002412
      4.06710      9.10888      7.50343        -0.003896      0.001769      0.004114
     -4.76052      8.77937      7.96438        -0.003740      0.004712      0.001291
     -3.71587      3.19353      8.40363        -0.000453     -0.010170      0.000762
      4.92968      2.83862      8.03329        -0.002411      0.002807      0.001325
     -0.59492      8.79987     12.41695         0.001883     -0.004740      0.001643
     -0.38147      8.70406      4.10242         0.001110     -0.002477      0.002087
     -8.37825      0.01506      8.07738         0.005388      0.002168     -0.001771
      0.08719      0.10454      7.99184        -0.007673     -0.033746      0.009166
     -4.22975      0.05582     11.94448        -0.011777     -0.001114      0.009818
     -4.20551      0.44564      4.12852        -0.016022     -0.012991     -0.014121
      4.22692      5.89926      4.04061        -0.003232      0.015125      0.004910
      3.74501      5.86815     11.64255         0.004331     -0.022071     -0.003985
     -0.07231      5.88585      0.07076         0.003494     -0.000508     -0.004511
      0.15398      5.92493      8.22273         0.017814      0.001923      0.010066
     -4.14311      8.83930     11.62157         0.000285     -0.000307      0.003569
      0.18026      2.95407     15.87446         0.001078      0.009439      0.004558
     -0.19261      2.82190      7.42749        -0.004490      0.026041     -0.020354
     -0.14894      8.82496      0.41043        -0.002780     -0.000858      0.000777
      4.10036      2.96535      4.42915         0.011029      0.010989     -0.002808
     -4.10478      3.24350      4.79350         0.010678      0.005997      0.012610
     -6.04708      5.69472      9.74382        -0.005254     -0.002390     -0.006182
      2.29129      4.31400      9.85003         0.004670      0.003130      0.011148
      1.87009      6.37311      5.79681         0.003106     -0.000395     -0.000874
      1.72308      6.22267     13.65788         0.002470     -0.000729      0.000716
     -1.74127      0.32003     10.32609        -0.002671     -0.001950      0.004288
     -1.76080      0.32278      2.40695         0.000074      0.001749     -0.002166
      6.22942     11.68941      6.21441        -0.000312     -0.000851     -0.007474
     -2.45844     11.17793      6.29269         0.005308     -0.003134      0.005724
     -5.78909      0.35530      9.51423         0.010216      0.006047      0.003280
      2.59175      0.37776      9.60482         0.001199     -0.011281     -0.011750
      1.71449     11.34924      5.54010         0.011871      0.002521     -0.011109
      1.81955     11.29151     13.66821        -0.001324      0.006770     -0.001678
      5.92464      6.12371      6.47342        -0.000213      0.011597      0.007306
     -2.21579      6.60091      6.54074        -0.002943     -0.005044     -0.004511
     -1.66194      5.48718     10.54629         0.002137      0.011571      0.008580
     -1.86624      5.54536      2.37730        -0.007811      0.001083      0.011568
      1.57058      8.04894      9.72805        -0.010566     -0.006745     -0.025267
 -----------------------------------------------------------------------------------
    total drift:                               -0.079151      0.019285     -0.049270


--------------------------------------------------------------------------------------------------------



  FREE ENERGIE OF THE ION-ELECTRON SYSTEM (eV)
  ---------------------------------------------------
  free  energy   TOTEN  =     -1409.22181621 eV

  energy  without entropy=    -1409.22181621  energy(sigma->0) =    -1409.22181621



--------------------------------------------------------------------------------------------------------


    POTLOK:  cpu time    1.4437: real time    1.4437


--------------------------------------------------------------------------------------------------------


 stress matrix after NEB project (eV)
     -7.47119      0.44295     -1.71262
      0.44292     -5.22467      0.16426
     -1.71267      0.16440     -4.35579
  FORCES: max atom, RMS     0.035801    0.014486
  FORCE total and by dimension    0.090466    0.033746
  Stress total and by dimension   10.411598    7.471186
     LOOP+:  cpu time  413.8082: real time  414.3385
    4ORBIT:  cpu time    0.0000: real time    0.0000



 total charge     

# of ion       s       p       d       tot
------------------------------------------
    1        1.785   4.716   0.016   6.517
    2        1.786   4.716   0.019   6.521
    3        1.787   4.717   0.020   6.524
    4        1.786   4.717   0.018   6.521
    5        1.786   4.717   0.018   6.521
    6        1.787   4.717   0.021   6.526
    7        1.787   4.717   0.021   6.525
    8        1.785   4.717   0.017   6.519
    9        1.553   0.425   9.835  11.813
   10        1.531   0.439   9.830  11.800
   11        1.552   0.429   9.835  11.816
   12        1.544   0.424   9.827  11.796
   13        1.554   0.426   9.835  11.815
   14        1.518   0.446   9.827  11.791
   15        1.552   0.429   9.835  11.816
   16        1.552   0.405   9.829  11.786
   17        1.615   3.288   0.007   4.910
   18        1.615   3.289   0.007   4.912
   19        1.615   3.275   0.007   4.897
   20        1.615   3.285   0.007   4.907
   21        1.615   3.286   0.007   4.908
   22        1.617   3.265   0.007   4.889
   23        1.615   3.286   0.007   4.907
   24        1.619   3.277   0.009   4.906
   25        1.614   3.280   0.006   4.900
   26        1.615   3.277   0.006   4.898
   27        1.614   3.282   0.006   4.903
   28        1.614   3.277   0.006   4.897
   29        1.614   3.291   0.007   4.912
   30        1.614   3.271   0.005   4.890
   31        1.616   3.282   0.007   4.905
   32        1.614   3.270   0.006   4.890
   33        1.614   3.280   0.006   4.901
   34        1.614   3.277   0.006   4.897
   35        1.615   3.286   0.007   4.908
   36        1.611   3.273   0.004   4.887
   37        1.614   3.282   0.006   4.903
   38        1.614   3.276   0.006   4.897
   39        1.613   3.277   0.005   4.895
--------------------------------------------------
tot         63.781 116.592  78.953 259.326


 total amount of memory used by VASP MPI-rank0    60655. kBytes
=======================================================================

   base      :      30000. kBytes
   nonlr-proj:       6490. kBytes
   fftplans  :       8423. kBytes
   grid      :       7465. kBytes
   one-center:         77. kBytes
   wavefun   :       8200. kBytes

  
  
 General timing and accounting informations for this job:
 ========================================================
  
                  Total CPU time used (sec):      426.121
                            User time (sec):      424.837
                          System time (sec):        1.284
                         Elapsed time (sec):      427.387
  
                   Maximum memory used (kb):       77828.
                   Average memory used (kb):           0.
  
                          Minor page faults:        20857
                          Major page faults:            0
                 Voluntary context switches:         1470
