<?xml version="1.0" encoding="ISO-8859-1"?>
<modeling>
 <generator>
  <i name="program" type="string">vasp </i>
  <i name="version" type="string">5.4.4.18Apr17-6-g9f103f2a35  </i>
  <i name="subversion" type="string">(build Jun 22 2020 09:27:21) complex            parallel </i>
  <i name="platform" type="string">tx2_gcc-7.3_libsci-18.07_cray-fftw-3.3.8 </i>
  <i name="date" type="string">2021 10 11 </i>
  <i name="time" type="string">20:19:31 </i>
 </generator>
 <incar>
  <i type="string" name="SYSTEM"> CsPbBr3 cubic bulk</i>
  <i type="string" name="PREC">accurate</i>
  <i type="string" name="ALGO"> NORMAL   ! Electronic minimisation algo</i>
  <i type="logical" name="ADDGRID"> T  </i>
  <i type="int" name="ISPIN">     1</i>
  <i type="int" name="NELM">   200</i>
  <i type="int" name="IBRION">     2</i>
  <i name="EDIFF">      0.00000100</i>
  <i name="EDIFFG">     -0.01000000</i>
  <i type="int" name="NSW">     0</i>
  <i type="int" name="ISIF">     2</i>
  <i type="int" name="ISYM">     0</i>
  <i name="ENCUT">    300.00000000</i>
  <i name="POTIM">      0.50000000</i>
  <i name="NUPDOWN">      0.00000000</i>
  <i name="NELECT">    344.00000000</i>
  <i type="string" name="LREAL"> AUTO</i>
  <i type="int" name="ISMEAR">     0</i>
  <i name="SIGMA">      0.01000000</i>
  <i type="logical" name="LWAVE"> F  </i>
  <i type="logical" name="LCHARG"> F  </i>
  <i type="logical" name="LVHAR"> T  </i>
  <i type="int" name="LORBIT">    10</i>
  <i type="logical" name="LASPH"> T  </i>
  <v type="int" name="KPOINT_BSE">    -1     0     0     0</v>
  <i type="int" name="NELM">   200</i>
  <i type="string" name="METAGGA"> SCAN       ! PBE exchange-correlation</i>
  <i type="logical" name="LASPH"> T  </i>
 </incar>
 <structure name="primitive_cell" >
  <crystal>
   <varray name="basis" >
    <v>       8.45648900       0.00000000       8.04030100 </v>
    <v>       0.00000000      11.72984700       0.00000000 </v>
    <v>      -8.45648900       0.00000000       8.04030100 </v>
   </varray>
   <i name="volume">   1595.08833419 </i>
   <varray name="rec_basis" >
    <v>       0.05912619      -0.00000000       0.06218673 </v>
    <v>       0.00000000       0.08525260      -0.00000000 </v>
    <v>      -0.05912619       0.00000000       0.06218673 </v>
   </varray>
  </crystal>
  <varray name="positions" >
   <v>       0.26412300       0.25697400       0.21109700 </v>
   <v>       0.45050300       0.24057400       0.47328000 </v>
   <v>      -0.48212700       0.25280400       0.03299600 </v>
   <v>       0.03749300       0.47275600       0.25818000 </v>
   <v>       0.04557100       0.02751800       0.25379000 </v>
   <v>       0.24839500       0.48549000      -0.03652300 </v>
   <v>       0.44589200      -0.03244800       0.24314900 </v>
   <v>      -0.00216100       0.25184200      -0.02347700 </v>
   <v>       0.47105600      -0.45667600       0.24991300 </v>
   <v>       0.24937200       0.03029000      -0.06605400 </v>
   <v>       0.05539200       0.27651700      -0.45920800 </v>
   <v>       0.00012500      -0.49821600       0.00867600 </v>
   <v>      -0.49880600      -0.49707300       0.00135100 </v>
   <v>       0.49269900       0.00475900      -0.00712300 </v>
   <v>       0.00693200       0.00128400      -0.00232000 </v>
   <v>      -0.49785800       0.00891200       0.49183100 </v>
   <v>       0.24596400      -0.04705200      -0.46332000 </v>
   <v>       0.27573600      -0.43725500      -0.46224200 </v>
   <v>      -0.47955100      -0.49488400      -0.49776000 </v>
   <v>       0.00808300       0.03799200      -0.49460500 </v>
   <v>       0.30288900       0.27225700      -0.25770100 </v>
   <v>      -0.20896300       0.24200000       0.20809100 </v>
   <v>       0.23256100      -0.25795600       0.27767100 </v>
   <v>      -0.05456000      -0.49972500      -0.49741600 </v>
   <v>      -0.25198400       0.36778000       0.47706600 </v>
   <v>      -0.24946700       0.03220500       0.44405200 </v>
   <v>       0.01671700      -0.24764900       0.03433000 </v>
   <v>      -0.24713800      -0.47793800       0.05225900 </v>
   <v>      -0.44242500       0.46779600      -0.24589700 </v>
   <v>      -0.24522400      -0.00344700       0.01813200 </v>
   <v>      -0.46080900       0.02728300      -0.25490000 </v>
   <v>       0.47774100      -0.24642700      -0.03232600 </v>
   <v>      -0.04878200      -0.46950100      -0.25254000 </v>
   <v>      -0.04243600      -0.03736900      -0.25760200 </v>
   <v>      -0.23089000       0.23515900      -0.24282900 </v>
   <v>      -0.29291400      -0.22344400       0.22614200 </v>
   <v>       0.21380700      -0.25153600      -0.22325000 </v>
   <v>      -0.30218200      -0.31380700      -0.48790700 </v>
   <v>      -0.26300600      -0.24978800      -0.19265500 </v>
  </varray>
 </structure>
 <varray name="primitive_index" >
  <v type="int" >        1 </v>
  <v type="int" >       19 </v>
  <v type="int" >       21 </v>
  <v type="int" >       38 </v>
  <v type="int" >       28 </v>
  <v type="int" >       23 </v>
  <v type="int" >       33 </v>
  <v type="int" >       18 </v>
  <v type="int" >       25 </v>
  <v type="int" >       31 </v>
  <v type="int" >       22 </v>
  <v type="int" >       15 </v>
  <v type="int" >       13 </v>
  <v type="int" >       11 </v>
  <v type="int" >        9 </v>
  <v type="int" >       10 </v>
  <v type="int" >       30 </v>
  <v type="int" >       36 </v>
  <v type="int" >       16 </v>
  <v type="int" >       12 </v>
  <v type="int" >        5 </v>
  <v type="int" >        6 </v>
  <v type="int" >        8 </v>
  <v type="int" >       14 </v>
  <v type="int" >       24 </v>
  <v type="int" >       32 </v>
  <v type="int" >       20 </v>
  <v type="int" >       35 </v>
  <v type="int" >       37 </v>
  <v type="int" >       29 </v>
  <v type="int" >       27 </v>
  <v type="int" >       17 </v>
  <v type="int" >       26 </v>
  <v type="int" >       34 </v>
  <v type="int" >        2 </v>
  <v type="int" >        3 </v>
  <v type="int" >        4 </v>
  <v type="int" >       39 </v>
  <v type="int" >        7 </v>
 </varray>
 <kpoints>
  <generation param="Gamma">
   <v type="int" name="divisions">       2        2        2 </v>
   <v name="usershift">      0.00000000       0.00000000       0.00000000 </v>
   <v name="genvec1">      0.50000000       0.00000000       0.00000000 </v>
   <v name="genvec2">      0.00000000       0.50000000       0.00000000 </v>
   <v name="genvec3">      0.00000000       0.00000000       0.50000000 </v>
   <v name="shift">      0.00000000       0.00000000       0.00000000 </v>
  </generation>
  <varray name="kpointlist" >
   <v>       0.00000000       0.00000000       0.00000000 </v>
   <v>       0.50000000       0.00000000       0.00000000 </v>
   <v>       0.00000000       0.50000000       0.00000000 </v>
   <v>       0.50000000       0.50000000       0.00000000 </v>
   <v>       0.00000000       0.00000000       0.50000000 </v>
   <v>       0.50000000       0.00000000       0.50000000 </v>
   <v>       0.00000000       0.50000000       0.50000000 </v>
   <v>       0.50000000       0.50000000       0.50000000 </v>
  </varray>
  <varray name="weights" >
   <v>       0.12500000 </v>
   <v>       0.12500000 </v>
   <v>       0.12500000 </v>
   <v>       0.12500000 </v>
   <v>       0.12500000 </v>
   <v>       0.12500000 </v>
   <v>       0.12500000 </v>
   <v>       0.12500000 </v>
  </varray>
 </kpoints>
 <parameters>
  <separator name="general" >
   <i type="string" name="SYSTEM">CsPbBr3 cubic bulk</i>
   <i type="logical" name="LCOMPAT"> F  </i>
  </separator>
  <separator name="electronic" >
   <i type="string" name="PREC">accura</i>
   <i name="ENMAX">    300.00000000</i>
   <i name="ENAUG">    503.85200000</i>
   <i name="EDIFF">      0.00000100</i>
   <i type="int" name="IALGO">    38</i>
   <i type="int" name="IWAVPR">    10</i>
   <i type="int" name="NBANDS">   208</i>
   <i name="NELECT">    344.00000000</i>
   <i type="int" name="TURBO">     0</i>
   <i type="int" name="IRESTART">     0</i>
   <i type="int" name="NREBOOT">     0</i>
   <i type="int" name="NMIN">     0</i>
   <i name="EREF">      0.00000000</i>
   <separator name="electronic smearing" >
    <i type="int" name="ISMEAR">     0</i>
    <i name="SIGMA">      0.01000000</i>
    <i name="KSPACING">      0.50000000</i>
    <i type="logical" name="KGAMMA"> T  </i>
   </separator>
   <separator name="electronic projectors" >
    <i type="logical" name="LREAL"> T  </i>
    <v name="ROPT">     -0.00025000     -0.00025000     -0.00025000</v>
    <i type="int" name="LMAXPAW">  -100</i>
    <i type="int" name="LMAXMIX">     2</i>
    <i type="logical" name="NLSPLINE"> F  </i>
   </separator>
   <separator name="electronic startup" >
    <i type="int" name="ISTART">     0</i>
    <i type="int" name="ICHARG">     2</i>
    <i type="int" name="INIWAV">     1</i>
   </separator>
   <separator name="electronic spin" >
    <i type="int" name="ISPIN">     1</i>
    <i type="logical" name="LNONCOLLINEAR"> F  </i>
    <v name="MAGMOM">      0.00000000      0.00000000      0.00000000      0.00000000      0.00000000      0.00000000      0.00000000      0.00000000      0.00000000      0.00000000      0.00000000      0.00000000      0.00000000      0.00000000      0.00000000      0.00000000      0.00000000      0.00000000      0.00000000      0.00000000
      0.00000000      0.00000000      0.00000000      0.00000000      0.00000000      0.00000000      0.00000000      0.00000000      0.00000000      0.00000000      0.00000000      0.00000000      0.00000000      0.00000000      0.00000000      0.00000000      0.00000000      0.00000000      0.00000000</v>
    <i name="NUPDOWN">      0.00000000</i>
    <i type="logical" name="LSORBIT"> F  </i>
    <v name="SAXIS">      0.00000000      0.00000000      1.00000000</v>
    <i type="logical" name="LSPIRAL"> F  </i>
    <v name="QSPIRAL">      0.00000000      0.00000000      0.00000000</v>
    <i type="logical" name="LZEROZ"> F  </i>
   </separator>
   <separator name="electronic exchange-correlation" >
    <i type="logical" name="LASPH"> T  </i>
    <i type="logical" name="LMETAGGA"> F  </i>
   </separator>
   <separator name="electronic convergence" >
    <i type="int" name="NELM">   200</i>
    <i type="int" name="NELMDL">    -5</i>
    <i type="int" name="NELMIN">     2</i>
    <i name="ENINI">    300.00000000</i>
    <separator name="electronic convergence detail" >
     <i type="logical" name="LDIAG"> T  </i>
     <i type="logical" name="LSUBROT"> F  </i>
     <i name="WEIMIN">      0.00000000</i>
     <i name="EBREAK">      0.00000000</i>
     <i name="DEPER">      0.30000000</i>
     <i type="int" name="NRMM">     4</i>
     <i name="TIME">      0.40000000</i>
    </separator>
   </separator>
   <separator name="electronic mixer" >
    <i name="AMIX">      0.40000000</i>
    <i name="BMIX">      1.00000000</i>
    <i name="AMIN">      0.10000000</i>
    <i name="AMIX_MAG">      1.60000000</i>
    <i name="BMIX_MAG">      1.00000000</i>
    <separator name="electronic mixer details" >
     <i type="int" name="IMIX">     4</i>
     <i type="logical" name="MIXFIRST"> F  </i>
     <i type="int" name="MAXMIX">   -45</i>
     <i name="WC">    100.00000000</i>
     <i type="int" name="INIMIX">     1</i>
     <i type="int" name="MIXPRE">     1</i>
     <i type="int" name="MREMOVE">     5</i>
    </separator>
   </separator>
   <separator name="electronic dipolcorrection" >
    <i type="logical" name="LDIPOL"> F  </i>
    <i type="logical" name="LMONO"> F  </i>
    <i type="int" name="IDIPOL">     0</i>
    <i name="EPSILON">      1.00000000</i>
    <v name="DIPOL">   -100.00000000   -100.00000000   -100.00000000</v>
    <i name="EFIELD">      0.00000000</i>
   </separator>
  </separator>
  <separator name="grids" >
   <i type="int" name="NGX">    70</i>
   <i type="int" name="NGY">    70</i>
   <i type="int" name="NGZ">    70</i>
   <i type="int" name="NGXF">   140</i>
   <i type="int" name="NGYF">   140</i>
   <i type="int" name="NGZF">   140</i>
   <i type="logical" name="ADDGRID"> T  </i>
  </separator>
  <separator name="ionic" >
   <i type="int" name="NSW">     0</i>
   <i type="int" name="IBRION">    -1</i>
   <i type="int" name="MDALGO">     0</i>
   <i type="int" name="ISIF">     2</i>
   <i name="PSTRESS">      0.00000000</i>
   <i name="EDIFFG">     -0.01000000</i>
   <i type="int" name="NFREE">     1</i>
   <i name="POTIM">      0.50000000</i>
   <i name="SMASS">     -3.00000000</i>
   <i name="SCALEE">      1.00000000</i>
  </separator>
  <separator name="ionic md" >
   <i name="TEBEG">      0.00010000</i>
   <i name="TEEND">      0.00010000</i>
   <i type="int" name="NBLOCK">     1</i>
   <i type="int" name="KBLOCK">     1</i>
   <i type="int" name="NPACO">   256</i>
   <i name="APACO">     16.00000000</i>
  </separator>
  <separator name="symmetry" >
   <i type="int" name="ISYM">     0</i>
   <i name="SYMPREC">      0.00001000</i>
  </separator>
  <separator name="dos" >
   <i type="int" name="LORBIT">    10</i>
   <v name="RWIGS">     -1.00000000     -1.00000000     -1.00000000</v>
   <i type="int" name="NEDOS">   301</i>
   <i name="EMIN">     10.00000000</i>
   <i name="EMAX">    -10.00000000</i>
   <i name="EFERMI">      0.00000000</i>
  </separator>
  <separator name="writing" >
   <i type="int" name="NWRITE">     2</i>
   <i type="logical" name="LWAVE"> F  </i>
   <i type="logical" name="LDOWNSAMPLE"> F  </i>
   <i type="logical" name="LCHARG"> F  </i>
   <i type="logical" name="LPARD"> F  </i>
   <i type="logical" name="LVTOT"> F  </i>
   <i type="logical" name="LVHAR"> T  </i>
   <i type="logical" name="LELF"> F  </i>
   <i type="logical" name="LOPTICS"> F  </i>
   <v name="STM">      0.00000000      0.00000000      0.00000000      0.00000000      0.00000000      0.00000000      0.00000000</v>
  </separator>
  <separator name="performance" >
   <i type="int" name="NPAR">     8</i>
   <i type="int" name="NSIM">     4</i>
   <i type="int" name="NBLK">    -1</i>
   <i type="logical" name="LPLANE"> T  </i>
   <i type="logical" name="LSCALAPACK"> T  </i>
   <i type="logical" name="LSCAAWARE"> F  </i>
   <i type="logical" name="LSCALU"> F  </i>
   <i type="logical" name="LASYNC"> F  </i>
   <i type="logical" name="LORBITALREAL"> F  </i>
  </separator>
  <separator name="miscellaneous" >
   <i type="int" name="IDIOT">     3</i>
   <i type="int" name="ISPECIAL">     0</i>
   <i type="logical" name="LMUSIC"> F  </i>
   <v name="POMASS">    132.90000000    207.20000000     79.90400000</v>
   <v name="DARWINR">      0.00000000      0.00000000      0.00000000</v>
   <v name="DARWINV">      1.00000000      1.00000000      1.00000000</v>
   <i type="logical" name="LCORR"> T  </i>
  </separator>
  <i type="logical" name="GGA_COMPAT"> T  </i>
  <i type="logical" name="LBERRY"> F  </i>
  <i type="int" name="ICORELEVEL">     0</i>
  <i type="logical" name="LDAU"> F  </i>
  <i type="int" name="I_CONSTRAINED_M">     0</i>
  <separator name="electronic exchange-correlation" >
   <i type="string" name="GGA">--</i>
   <i type="int" name="VOSKOWN">     0</i>
   <i type="logical" name="LHFCALC"> F  </i>
   <i type="string" name="PRECFOCK"></i>
   <i type="logical" name="LSYMGRAD"> F  </i>
   <i type="logical" name="LHFONE"> F  </i>
   <i type="logical" name="LRHFCALC"> F  </i>
   <i type="logical" name="LTHOMAS"> F  </i>
   <i type="logical" name="LMODELHF"> F  </i>
   <i name="ENCUT4O">     -1.00000000</i>
   <i type="int" name="EXXOEP">     0</i>
   <i type="int" name="FOURORBIT">     0</i>
   <i name="AEXX">      0.00000000</i>
   <i name="HFALPHA">      0.00000000</i>
   <i name="MCALPHA">      0.00000000</i>
   <i name="ALDAX">      1.00000000</i>
   <i name="AGGAX">      1.00000000</i>
   <i name="ALDAC">      1.00000000</i>
   <i name="AGGAC">      1.00000000</i>
   <i type="int" name="NKREDX">     1</i>
   <i type="int" name="NKREDY">     1</i>
   <i type="int" name="NKREDZ">     1</i>
   <i type="logical" name="SHIFTRED"> F  </i>
   <i type="logical" name="ODDONLY"> F  </i>
   <i type="logical" name="EVENONLY"> F  </i>
   <i type="int" name="LMAXFOCK">     0</i>
   <i type="int" name="NMAXFOCKAE">     0</i>
   <i type="logical" name="LFOCKAEDFT"> F  </i>
   <i name="HFSCREEN">      0.00000000</i>
   <i name="HFSCREENC">      0.00000000</i>
   <i type="int" name="NBANDSGWLOW">     0</i>
  </separator>
  <separator name="vdW DFT" >
   <i type="logical" name="LUSE_VDW"> F  </i>
   <i name="Zab_VDW">     -0.84910000</i>
   <i name="PARAM1">      0.12340000</i>
   <i name="PARAM2">      1.00000000</i>
   <i name="PARAM3">      0.00000000</i>
  </separator>
  <separator name="model GW" >
   <i type="int" name="MODEL_GW">     0</i>
   <i name="MODEL_EPS0">     24.53982053</i>
   <i name="MODEL_ALPHA">      1.00000000</i>
  </separator>
  <separator name="linear response parameters" >
   <i type="logical" name="LEPSILON"> F  </i>
   <i type="logical" name="LRPA"> F  </i>
   <i type="logical" name="LNABLA"> F  </i>
   <i type="logical" name="LVEL"> F  </i>
   <i type="int" name="KINTER">     0</i>
   <i name="CSHIFT">      0.10000000</i>
   <i name="OMEGAMAX">     -1.00000000</i>
   <i name="DEG_THRESHOLD">      0.00200000</i>
   <i name="RTIME">     -0.10000000</i>
   <i name="WPLASMAI">      0.00000000</i>
   <v name="DFIELD">      0.00000000      0.00000000      0.00000000</v>
   <v name="WPLASMA">      0.00000000      0.00000000      0.00000000      0.00000000      0.00000000      0.00000000      0.00000000      0.00000000      0.00000000</v>
  </separator>
  <separator name="orbital magnetization" >
   <i type="logical" name="NUCIND"> F  </i>
   <v name="MAGPOS">      0.00000000      0.00000000      0.00000000</v>
   <i type="logical" name="LNICSALL"> T  </i>
   <i type="logical" name="ORBITALMAG"> F  </i>
   <i type="logical" name="LMAGBLOCH"> F  </i>
   <i type="logical" name="LCHIMAG"> F  </i>
   <i type="logical" name="LGAUGE"> T  </i>
   <i type="int" name="MAGATOM">     0</i>
   <v name="MAGDIPOL">      0.00000000      0.00000000      0.00000000</v>
   <v name="AVECCONST">      0.00000000      0.00000000      0.00000000</v>
  </separator>
  <separator name="response functions" >
   <i type="logical" name="LADDER"> F  </i>
   <i type="logical" name="LRPAFORCE"> F  </i>
   <i type="logical" name="LFXC"> F  </i>
   <i type="logical" name="LHARTREE"> T  </i>
   <i type="int" name="IBSE">     0</i>
   <v type="int" name="KPOINT">    -1     0     0     0</v>
   <i type="logical" name="LTCTE"> F  </i>
   <i type="logical" name="LTETE"> F  </i>
   <i type="logical" name="LTRIPLET"> F  </i>
   <i type="logical" name="LFXCEPS"> F  </i>
   <i type="logical" name="LFXHEG"> F  </i>
   <i type="int" name="NATURALO">     2</i>
   <i type="logical" name="L2ORDER"> F  </i>
   <i type="logical" name="LMP2LT"> F  </i>
   <i type="logical" name="LUSEW"> F  </i>
   <i name="ENCUTGW">     -2.00000000</i>
   <i name="ENCUTGWSOFT">     -2.00000000</i>
   <i name="ENCUTLF">     -1.00000000</i>
   <i type="int" name="LMAXMP2">    -1</i>
   <i name="SCISSOR">      0.00000000</i>
   <i type="int" name="NOMEGA">     0</i>
   <i type="int" name="NOMEGAR">     0</i>
   <i type="int" name="NBANDSGW">    -1</i>
   <i type="int" name="NBANDSO">    -1</i>
   <i type="int" name="NBANDSV">    -1</i>
   <i type="int" name="NELM">   200</i>
   <i type="int" name="NELMHF">     1</i>
   <i type="int" name="DIM">     3</i>
   <i type="int" name="ANTIRES">     0</i>
   <i name="OMEGAMAX">    -30.00000000</i>
   <i name="OMEGAMIN">    -30.00000000</i>
   <i name="OMEGATL">   -200.00000000</i>
   <i type="int" name="OMEGAGRID">   140</i>
   <i name="CSHIFT">     -0.10000000</i>
   <i type="logical" name="SELFENERGY"> F  </i>
   <i type="logical" name="LSPECTRAL"> F  </i>
   <i type="logical" name="LSPECTRALGW"> F  </i>
   <i type="logical" name="LSINGLES"> F  </i>
   <i type="logical" name="LFERMIGW"> F  </i>
   <i type="logical" name="ODDONLYGW"> F  </i>
   <i type="logical" name="EVENONLYGW"> F  </i>
   <i type="int" name="NKREDLFX">     1</i>
   <i type="int" name="NKREDLFY">     1</i>
   <i type="int" name="NKREDLFZ">     1</i>
   <i type="int" name="MAXMEM">  2800</i>
   <i type="int" name="TELESCOPE">     0</i>
   <i type="int" name="TAUPAR">     1</i>
   <i type="int" name="OMEGAPAR">    -1</i>
   <i name="LAMBDA">      1.00000000</i>
  </separator>
  <separator name="External order field" >
   <i name="OFIELD_KAPPA">      0.00000000</i>
   <v name="OFIELD_K">      0.00000000      0.00000000      0.00000000</v>
   <i name="OFIELD_Q6_NEAR">      0.00000000</i>
   <i name="OFIELD_Q6_FAR">      0.00000000</i>
   <i name="OFIELD_A">      0.00000000</i>
  </separator>
 </parameters>
 <atominfo>
  <atoms>      39 </atoms>
  <types>       3 </types>
  <array name="atoms" >
   <dimension dim="1">ion</dimension>
   <field type="string">element</field>
   <field type="int">atomtype</field>
   <set>
    <rc><c>Cs</c><c>   1</c></rc>
    <rc><c>Cs</c><c>   1</c></rc>
    <rc><c>Cs</c><c>   1</c></rc>
    <rc><c>Cs</c><c>   1</c></rc>
    <rc><c>Cs</c><c>   1</c></rc>
    <rc><c>Cs</c><c>   1</c></rc>
    <rc><c>Cs</c><c>   1</c></rc>
    <rc><c>Cs</c><c>   1</c></rc>
    <rc><c>Pb</c><c>   2</c></rc>
    <rc><c>Pb</c><c>   2</c></rc>
    <rc><c>Pb</c><c>   2</c></rc>
    <rc><c>Pb</c><c>   2</c></rc>
    <rc><c>Pb</c><c>   2</c></rc>
    <rc><c>Pb</c><c>   2</c></rc>
    <rc><c>Pb</c><c>   2</c></rc>
    <rc><c>Pb</c><c>   2</c></rc>
    <rc><c>Br</c><c>   3</c></rc>
    <rc><c>Br</c><c>   3</c></rc>
    <rc><c>Br</c><c>   3</c></rc>
    <rc><c>Br</c><c>   3</c></rc>
    <rc><c>Br</c><c>   3</c></rc>
    <rc><c>Br</c><c>   3</c></rc>
    <rc><c>Br</c><c>   3</c></rc>
    <rc><c>Br</c><c>   3</c></rc>
    <rc><c>Br</c><c>   3</c></rc>
    <rc><c>Br</c><c>   3</c></rc>
    <rc><c>Br</c><c>   3</c></rc>
    <rc><c>Br</c><c>   3</c></rc>
    <rc><c>Br</c><c>   3</c></rc>
    <rc><c>Br</c><c>   3</c></rc>
    <rc><c>Br</c><c>   3</c></rc>
    <rc><c>Br</c><c>   3</c></rc>
    <rc><c>Br</c><c>   3</c></rc>
    <rc><c>Br</c><c>   3</c></rc>
    <rc><c>Br</c><c>   3</c></rc>
    <rc><c>Br</c><c>   3</c></rc>
    <rc><c>Br</c><c>   3</c></rc>
    <rc><c>Br</c><c>   3</c></rc>
    <rc><c>Br</c><c>   3</c></rc>
   </set>
  </array>
  <array name="atomtypes" >
   <dimension dim="1">type</dimension>
   <field type="int">atomspertype</field>
   <field type="string">element</field>
   <field>mass</field>
   <field>valence</field>
   <field type="string">pseudopotential</field>
   <set>
    <rc><c>   8</c><c>Cs</c><c>    132.90000000</c><c>      9.00000000</c><c>  PAW_PBE Cs_sv 08Apr2002               </c></rc>
    <rc><c>   8</c><c>Pb</c><c>    207.20000000</c><c>     14.00000000</c><c>  PAW_PBE Pb_d 06Sep2000                </c></rc>
    <rc><c>  23</c><c>Br</c><c>     79.90400000</c><c>      7.00000000</c><c>  PAW_PBE Br 06Sep2000                  </c></rc>
   </set>
  </array>
 </atominfo>
 <structure name="initialpos" >
  <crystal>
   <varray name="basis" >
    <v>       8.45648900       0.00000000       8.04030100 </v>
    <v>       0.00000000      11.72984700       0.00000000 </v>
    <v>      -8.45648900       0.00000000       8.04030100 </v>
   </varray>
   <i name="volume">   1595.08833419 </i>
   <varray name="rec_basis" >
    <v>       0.05912619      -0.00000000       0.06218673 </v>
    <v>       0.00000000       0.08525260      -0.00000000 </v>
    <v>      -0.05912619       0.00000000       0.06218673 </v>
   </varray>
  </crystal>
  <varray name="positions" >
   <v>       0.26412300       0.25697400       0.21109700 </v>
   <v>       0.76911000       0.23515900       0.75717100 </v>
   <v>       0.70708600       0.77655600       0.22614200 </v>
   <v>       0.21380700       0.74846400       0.77675000 </v>
   <v>       0.30288900       0.27225700       0.74229900 </v>
   <v>       0.79103700       0.24200000       0.20809100 </v>
   <v>       0.73699400       0.75021200       0.80734500 </v>
   <v>       0.23256100       0.74204400       0.27767100 </v>
   <v>       0.00693200       0.00128400       0.99768000 </v>
   <v>       0.50214200       0.00891200       0.49183100 </v>
   <v>       0.49269900       0.00475900       0.99287700 </v>
   <v>       0.00808300       0.03799200       0.50539500 </v>
   <v>       0.50119400       0.50292700       0.00135100 </v>
   <v>       0.94544000       0.50027500       0.50258400 </v>
   <v>       0.00012500       0.50178400       0.00867600 </v>
   <v>       0.52044900       0.50511600       0.50224000 </v>
   <v>       0.47774100       0.75357300       0.96767400 </v>
   <v>       0.99783900       0.25184200       0.97652300 </v>
   <v>       0.45050300       0.24057400       0.47328000 </v>
   <v>       0.01671700       0.75235100       0.03433000 </v>
   <v>       0.51787300       0.25280400       0.03299600 </v>
   <v>       0.05539200       0.27651700       0.54079200 </v>
   <v>       0.24839500       0.48549000       0.96347700 </v>
   <v>       0.74801600       0.36778000       0.47706600 </v>
   <v>       0.47105600       0.54332400       0.24991300 </v>
   <v>       0.95121800       0.53049900       0.74746000 </v>
   <v>       0.53919100       0.02728300       0.74510000 </v>
   <v>       0.04557100       0.02751800       0.25379000 </v>
   <v>       0.75477600       0.99655300       0.01813200 </v>
   <v>       0.24596400       0.95294800       0.53668000 </v>
   <v>       0.24937200       0.03029000       0.93394600 </v>
   <v>       0.75053300       0.03220500       0.44405200 </v>
   <v>       0.44589200       0.96755200       0.24314900 </v>
   <v>       0.95756400       0.96263100       0.74239800 </v>
   <v>       0.75286200       0.52206200       0.05225900 </v>
   <v>       0.27573600       0.56274500       0.53775800 </v>
   <v>       0.55757500       0.46779600       0.75410300 </v>
   <v>       0.03749300       0.47275600       0.25818000 </v>
   <v>       0.69781800       0.68619300       0.51209300 </v>
  </varray>
 </structure>
 <calculation>
  <scstep>
   <time name="dav">   16.41   16.41</time>
   <time name="total">   17.87   17.88</time>
   <energy>
    <i name="alphaZ">    872.70583573 </i>
    <i name="ewald"> -17871.78157883 </i>
    <i name="hartreedc">  -7484.88360081 </i>
    <i name="XCdc">    908.08236463 </i>
    <i name="pawpsdc">  21345.28103884 </i>
    <i name="pawaedc"> -22405.85761495 </i>
    <i name="eentropy">     -0.00189604 </i>
    <i name="bandstr">   -244.27731125 </i>
    <i name="atom">  26212.11861568 </i>
    <i name="e_fr_energy">   1331.38585300 </i>
    <i name="e_wo_entrp">   1331.38774904 </i>
    <i name="e_0_energy">   1331.38680102 </i>
   </energy>
  </scstep>
  <scstep>
   <time name="dav">   18.31   18.35</time>
   <time name="total">   18.31   18.35</time>
   <energy>
    <i name="e_fr_energy">  -1111.93431491 </i>
    <i name="e_wo_entrp">  -1111.93431491 </i>
    <i name="e_0_energy">  -1111.93431491 </i>
   </energy>
  </scstep>
  <scstep>
   <time name="dav">   19.30   19.32</time>
   <time name="total">   19.30   19.32</time>
   <energy>
    <i name="e_fr_energy">  -1474.59605260 </i>
    <i name="e_wo_entrp">  -1474.59605260 </i>
    <i name="e_0_energy">  -1474.59605260 </i>
   </energy>
  </scstep>
  <scstep>
   <time name="dav">   17.79   17.82</time>
   <time name="total">   17.79   17.83</time>
   <energy>
    <i name="e_fr_energy">  -1486.78871886 </i>
    <i name="e_wo_entrp">  -1486.78871886 </i>
    <i name="e_0_energy">  -1486.78871886 </i>
   </energy>
  </scstep>
  <scstep>
   <time name="dav">   19.15   19.16</time>
   <time name="total">   21.87   21.88</time>
   <energy>
    <i name="e_fr_energy">  -1487.33403239 </i>
    <i name="e_wo_entrp">  -1487.33403239 </i>
    <i name="e_0_energy">  -1487.33403239 </i>
   </energy>
  </scstep>
  <scstep>
   <time name="dav">   18.98   18.98</time>
   <time name="total">   23.14   23.19</time>
   <energy>
    <i name="e_fr_energy">  -1409.48286336 </i>
    <i name="e_wo_entrp">  -1409.48286336 </i>
    <i name="e_0_energy">  -1409.48286336 </i>
   </energy>
  </scstep>
  <scstep>
   <time name="dav">   18.11   18.11</time>
   <time name="total">   22.30   22.31</time>
   <energy>
    <i name="e_fr_energy">  -1408.96801609 </i>
    <i name="e_wo_entrp">  -1408.96801609 </i>
    <i name="e_0_energy">  -1408.96801609 </i>
   </energy>
  </scstep>
  <scstep>
   <time name="dav">   17.98   17.98</time>
   <time name="total">   22.15   22.18</time>
   <energy>
    <i name="e_fr_energy">  -1409.14538786 </i>
    <i name="e_wo_entrp">  -1409.14538786 </i>
    <i name="e_0_energy">  -1409.14538786 </i>
   </energy>
  </scstep>
  <scstep>
   <time name="dav">   17.11   17.11</time>
   <time name="total">   21.30   21.32</time>
   <energy>
    <i name="e_fr_energy">  -1409.21239487 </i>
    <i name="e_wo_entrp">  -1409.21239487 </i>
    <i name="e_0_energy">  -1409.21239487 </i>
   </energy>
  </scstep>
  <scstep>
   <time name="dav">   19.82   19.82</time>
   <time name="total">   23.98   24.03</time>
   <energy>
    <i name="e_fr_energy">  -1409.21626426 </i>
    <i name="e_wo_entrp">  -1409.21626426 </i>
    <i name="e_0_energy">  -1409.21626426 </i>
   </energy>
  </scstep>
  <scstep>
   <time name="dav">   17.42   17.42</time>
   <time name="total">   21.60   21.61</time>
   <energy>
    <i name="e_fr_energy">  -1409.21845287 </i>
    <i name="e_wo_entrp">  -1409.21845287 </i>
    <i name="e_0_energy">  -1409.21845287 </i>
   </energy>
  </scstep>
  <scstep>
   <time name="dav">   17.02   17.02</time>
   <time name="total">   21.17   21.22</time>
   <energy>
    <i name="e_fr_energy">  -1409.22197991 </i>
    <i name="e_wo_entrp">  -1409.22197991 </i>
    <i name="e_0_energy">  -1409.22197991 </i>
   </energy>
  </scstep>
  <scstep>
   <time name="dav">   19.09   19.09</time>
   <time name="total">   23.28   23.29</time>
   <energy>
    <i name="e_fr_energy">  -1409.22179739 </i>
    <i name="e_wo_entrp">  -1409.22179739 </i>
    <i name="e_0_energy">  -1409.22179739 </i>
   </energy>
  </scstep>
  <scstep>
   <time name="dav">   17.87   17.88</time>
   <time name="total">   22.05   22.07</time>
   <energy>
    <i name="e_fr_energy">  -1409.22175952 </i>
    <i name="e_wo_entrp">  -1409.22175952 </i>
    <i name="e_0_energy">  -1409.22175952 </i>
   </energy>
  </scstep>
  <scstep>
   <time name="dav">   18.39   18.39</time>
   <time name="total">   22.55   22.59</time>
   <energy>
    <i name="e_fr_energy">  -1409.22176339 </i>
    <i name="e_wo_entrp">  -1409.22176339 </i>
    <i name="e_0_energy">  -1409.22176339 </i>
   </energy>
  </scstep>
  <scstep>
   <time name="dav">   17.05   17.05</time>
   <time name="total">   21.21   21.25</time>
   <energy>
    <i name="e_fr_energy">  -1409.22181532 </i>
    <i name="e_wo_entrp">  -1409.22181532 </i>
    <i name="e_0_energy">  -1409.22181532 </i>
   </energy>
  </scstep>
  <scstep>
   <time name="dav">   17.63   17.63</time>
   <time name="total">   19.13   19.15</time>
   <energy>
    <i name="alphaZ">    872.70583573 </i>
    <i name="ewald"> -17871.78157883 </i>
    <i name="hartreedc">  -7517.92515541 </i>
    <i name="XCdc">    943.46593592 </i>
    <i name="pawpsdc">  22753.16602703 </i>
    <i name="pawaedc"> -23811.49277985 </i>
    <i name="eentropy">     -0.00000000 </i>
    <i name="bandstr">  -2989.47871648 </i>
    <i name="atom">  26212.11861568 </i>
    <i name="e_fr_energy">  -1409.22181621 </i>
    <i name="e_wo_entrp">  -1409.22181621 </i>
    <i name="e_0_energy">  -1409.22181621 </i>
   </energy>
  </scstep>
  <structure>
   <crystal>
    <varray name="basis" >
     <v>       8.45648900       0.00000000       8.04030100 </v>
     <v>       0.00000000      11.72984700       0.00000000 </v>
     <v>      -8.45648900       0.00000000       8.04030100 </v>
    </varray>
    <i name="volume">   1595.08833419 </i>
    <varray name="rec_basis" >
     <v>       0.05912619      -0.00000000       0.06218673 </v>
     <v>       0.00000000       0.08525260      -0.00000000 </v>
     <v>      -0.05912619       0.00000000       0.06218673 </v>
    </varray>
   </crystal>
   <varray name="positions" >
    <v>       0.26412300       0.25697400       0.21109700 </v>
    <v>       0.76911000       0.23515900       0.75717100 </v>
    <v>       0.70708600       0.77655600       0.22614200 </v>
    <v>       0.21380700       0.74846400       0.77675000 </v>
    <v>       0.30288900       0.27225700       0.74229900 </v>
    <v>       0.79103700       0.24200000       0.20809100 </v>
    <v>       0.73699400       0.75021200       0.80734500 </v>
    <v>       0.23256100       0.74204400       0.27767100 </v>
    <v>       0.00693200       0.00128400       0.99768000 </v>
    <v>       0.50214200       0.00891200       0.49183100 </v>
    <v>       0.49269900       0.00475900       0.99287700 </v>
    <v>       0.00808300       0.03799200       0.50539500 </v>
    <v>       0.50119400       0.50292700       0.00135100 </v>
    <v>       0.94544000       0.50027500       0.50258400 </v>
    <v>       0.00012500       0.50178400       0.00867600 </v>
    <v>       0.52044900       0.50511600       0.50224000 </v>
    <v>       0.47774100       0.75357300       0.96767400 </v>
    <v>       0.99783900       0.25184200       0.97652300 </v>
    <v>       0.45050300       0.24057400       0.47328000 </v>
    <v>       0.01671700       0.75235100       0.03433000 </v>
    <v>       0.51787300       0.25280400       0.03299600 </v>
    <v>       0.05539200       0.27651700       0.54079200 </v>
    <v>       0.24839500       0.48549000       0.96347700 </v>
    <v>       0.74801600       0.36778000       0.47706600 </v>
    <v>       0.47105600       0.54332400       0.24991300 </v>
    <v>       0.95121800       0.53049900       0.74746000 </v>
    <v>       0.53919100       0.02728300       0.74510000 </v>
    <v>       0.04557100       0.02751800       0.25379000 </v>
    <v>       0.75477600       0.99655300       0.01813200 </v>
    <v>       0.24596400       0.95294800       0.53668000 </v>
    <v>       0.24937200       0.03029000       0.93394600 </v>
    <v>       0.75053300       0.03220500       0.44405200 </v>
    <v>       0.44589200       0.96755200       0.24314900 </v>
    <v>       0.95756400       0.96263100       0.74239800 </v>
    <v>       0.75286200       0.52206200       0.05225900 </v>
    <v>       0.27573600       0.56274500       0.53775800 </v>
    <v>       0.55757500       0.46779600       0.75410300 </v>
    <v>       0.03749300       0.47275600       0.25818000 </v>
    <v>       0.69781800       0.68619300       0.51209300 </v>
   </varray>
  </structure>
  <varray name="forces" >
   <v>      -0.00626587       0.00300306      -0.00315872 </v>
   <v>      -0.00430638      -0.00693677       0.00241235 </v>
   <v>      -0.00389633       0.00176898       0.00411435 </v>
   <v>      -0.00374016       0.00471184       0.00129091 </v>
   <v>      -0.00045253      -0.01017033       0.00076158 </v>
   <v>      -0.00241129       0.00280671       0.00132521 </v>
   <v>       0.00188347      -0.00474049       0.00164346 </v>
   <v>       0.00111029      -0.00247687       0.00208709 </v>
   <v>       0.00538763       0.00216766      -0.00177150 </v>
   <v>      -0.00767349      -0.03374586       0.00916646 </v>
   <v>      -0.01177738      -0.00111420       0.00981758 </v>
   <v>      -0.01602230      -0.01299141      -0.01412119 </v>
   <v>      -0.00323150       0.01512518       0.00490966 </v>
   <v>       0.00433126      -0.02207097      -0.00398461 </v>
   <v>       0.00349374      -0.00050830      -0.00451056 </v>
   <v>       0.01781351       0.00192308       0.01006631 </v>
   <v>       0.00028503      -0.00030658       0.00356929 </v>
   <v>       0.00107815       0.00943888       0.00455764 </v>
   <v>      -0.00448977       0.02604101      -0.02035383 </v>
   <v>      -0.00278044      -0.00085786       0.00077737 </v>
   <v>       0.01102864       0.01098875      -0.00280760 </v>
   <v>       0.01067771       0.00599683       0.01261018 </v>
   <v>      -0.00525419      -0.00238973      -0.00618225 </v>
   <v>       0.00467011       0.00313020       0.01114807 </v>
   <v>       0.00310601      -0.00039549      -0.00087371 </v>
   <v>       0.00247048      -0.00072940       0.00071567 </v>
   <v>      -0.00267068      -0.00195034       0.00428782 </v>
   <v>       0.00007403       0.00174871      -0.00216577 </v>
   <v>      -0.00031218      -0.00085069      -0.00747394 </v>
   <v>       0.00530789      -0.00313444       0.00572379 </v>
   <v>       0.01021581       0.00604719       0.00327966 </v>
   <v>       0.00119933      -0.01128077      -0.01174980 </v>
   <v>       0.01187142       0.00252079      -0.01110882 </v>
   <v>      -0.00132385       0.00676975      -0.00167846 </v>
   <v>      -0.00021295       0.01159746       0.00730626 </v>
   <v>      -0.00294287      -0.00504439      -0.00451112 </v>
   <v>       0.00213693       0.01157129       0.00858002 </v>
   <v>      -0.00781085       0.00108262       0.01156791 </v>
   <v>      -0.01056645      -0.00674509      -0.02526681 </v>
  </varray>
  <varray name="stress" >
   <v>      -7.50438968       0.44491879      -1.72023394 </v>
   <v>       0.44488812      -5.24788621       0.16499131 </v>
   <v>      -1.72028277       0.16512632      -4.37514930 </v>
  </varray>
  <energy>
   <i name="e_fr_energy">  -1409.22181621 </i>
   <i name="e_wo_entrp">  -1409.22181621 </i>
   <i name="e_0_energy">     -0.00000000 </i>
  </energy>
  <time name="totalsc">  413.81  414.34</time>
  <eigenvalues>
   <array>
    <dimension dim="1">band</dimension>
    <dimension dim="2">kpoint</dimension>
    <dimension dim="3">spin</dimension>
    <field>eigene</field>
    <field>occ</field>
    <set>
     <set comment="spin 1">
      <set comment="kpoint 1">
       <r>  -20.8416    1.0000 </r>
       <r>  -20.8083    1.0000 </r>
       <r>  -20.7947    1.0000 </r>
       <r>  -20.7882    1.0000 </r>
       <r>  -20.7351    1.0000 </r>
       <r>  -20.7116    1.0000 </r>
       <r>  -20.7106    1.0000 </r>
       <r>  -20.6422    1.0000 </r>
       <r>  -16.8255    1.0000 </r>
       <r>  -16.7878    1.0000 </r>
       <r>  -16.7313    1.0000 </r>
       <r>  -16.7183    1.0000 </r>
       <r>  -16.7093    1.0000 </r>
       <r>  -16.6857    1.0000 </r>
       <r>  -16.6755    1.0000 </r>
       <r>  -16.6424    1.0000 </r>
       <r>  -16.6333    1.0000 </r>
       <r>  -16.5797    1.0000 </r>
       <r>  -16.5776    1.0000 </r>
       <r>  -16.5407    1.0000 </r>
       <r>  -16.5241    1.0000 </r>
       <r>  -16.4881    1.0000 </r>
       <r>  -16.4585    1.0000 </r>
       <r>  -16.4531    1.0000 </r>
       <r>  -16.4448    1.0000 </r>
       <r>  -16.4429    1.0000 </r>
       <r>  -16.4363    1.0000 </r>
       <r>  -16.4323    1.0000 </r>
       <r>  -16.4110    1.0000 </r>
       <r>  -16.3799    1.0000 </r>
       <r>  -16.3686    1.0000 </r>
       <r>  -16.3600    1.0000 </r>
       <r>  -16.3585    1.0000 </r>
       <r>  -16.3548    1.0000 </r>
       <r>  -16.3290    1.0000 </r>
       <r>  -16.3242    1.0000 </r>
       <r>  -16.3229    1.0000 </r>
       <r>  -16.3135    1.0000 </r>
       <r>  -16.3123    1.0000 </r>
       <r>  -16.3062    1.0000 </r>
       <r>  -16.3052    1.0000 </r>
       <r>  -16.3002    1.0000 </r>
       <r>  -16.2690    1.0000 </r>
       <r>  -16.2554    1.0000 </r>
       <r>  -16.2543    1.0000 </r>
       <r>  -16.2499    1.0000 </r>
       <r>  -16.2378    1.0000 </r>
       <r>  -16.2069    1.0000 </r>
       <r>  -14.5782    1.0000 </r>
       <r>  -14.3984    1.0000 </r>
       <r>  -14.2980    1.0000 </r>
       <r>  -14.2580    1.0000 </r>
       <r>  -14.2031    1.0000 </r>
       <r>  -14.1797    1.0000 </r>
       <r>  -14.1519    1.0000 </r>
       <r>  -14.1382    1.0000 </r>
       <r>  -14.1282    1.0000 </r>
       <r>  -14.1000    1.0000 </r>
       <r>  -14.0863    1.0000 </r>
       <r>  -14.0774    1.0000 </r>
       <r>  -14.0455    1.0000 </r>
       <r>  -13.9997    1.0000 </r>
       <r>  -13.9437    1.0000 </r>
       <r>  -13.9351    1.0000 </r>
       <r>  -13.9138    1.0000 </r>
       <r>  -13.8608    1.0000 </r>
       <r>  -13.8196    1.0000 </r>
       <r>  -13.8124    1.0000 </r>
       <r>  -13.7548    1.0000 </r>
       <r>  -13.6445    1.0000 </r>
       <r>  -13.3524    1.0000 </r>
       <r>   -8.2266    1.0000 </r>
       <r>   -7.7906    1.0000 </r>
       <r>   -7.7833    1.0000 </r>
       <r>   -7.6416    1.0000 </r>
       <r>   -7.3552    1.0000 </r>
       <r>   -7.2876    1.0000 </r>
       <r>   -7.2617    1.0000 </r>
       <r>   -7.2433    1.0000 </r>
       <r>   -7.2390    1.0000 </r>
       <r>   -7.2332    1.0000 </r>
       <r>   -7.2206    1.0000 </r>
       <r>   -7.2073    1.0000 </r>
       <r>   -7.2047    1.0000 </r>
       <r>   -7.1957    1.0000 </r>
       <r>   -7.1927    1.0000 </r>
       <r>   -7.1873    1.0000 </r>
       <r>   -7.1763    1.0000 </r>
       <r>   -7.1629    1.0000 </r>
       <r>   -7.1577    1.0000 </r>
       <r>   -7.1479    1.0000 </r>
       <r>   -7.1383    1.0000 </r>
       <r>   -7.1331    1.0000 </r>
       <r>   -7.1244    1.0000 </r>
       <r>   -7.1206    1.0000 </r>
       <r>   -7.1152    1.0000 </r>
       <r>   -7.1129    1.0000 </r>
       <r>   -7.0889    1.0000 </r>
       <r>   -7.0789    1.0000 </r>
       <r>   -7.0676    1.0000 </r>
       <r>   -7.0538    1.0000 </r>
       <r>   -7.0247    1.0000 </r>
       <r>   -6.6203    1.0000 </r>
       <r>   -3.4908    1.0000 </r>
       <r>   -3.3971    1.0000 </r>
       <r>   -3.3422    1.0000 </r>
       <r>   -3.3095    1.0000 </r>
       <r>   -3.2734    1.0000 </r>
       <r>   -3.2238    1.0000 </r>
       <r>   -3.1916    1.0000 </r>
       <r>   -3.0598    1.0000 </r>
       <r>   -3.0471    1.0000 </r>
       <r>   -2.8948    1.0000 </r>
       <r>   -2.7430    1.0000 </r>
       <r>   -2.6532    1.0000 </r>
       <r>   -2.3532    1.0000 </r>
       <r>   -2.2403    1.0000 </r>
       <r>   -2.1745    1.0000 </r>
       <r>   -2.1482    1.0000 </r>
       <r>   -2.0683    1.0000 </r>
       <r>   -1.9711    1.0000 </r>
       <r>   -1.9461    1.0000 </r>
       <r>   -1.9369    1.0000 </r>
       <r>   -1.9075    1.0000 </r>
       <r>   -1.8610    1.0000 </r>
       <r>   -1.8403    1.0000 </r>
       <r>   -1.7354    1.0000 </r>
       <r>   -1.7170    1.0000 </r>
       <r>   -1.7065    1.0000 </r>
       <r>   -1.6741    1.0000 </r>
       <r>   -1.6273    1.0000 </r>
       <r>   -1.6023    1.0000 </r>
       <r>   -1.5880    1.0000 </r>
       <r>   -1.5697    1.0000 </r>
       <r>   -1.5485    1.0000 </r>
       <r>   -1.5272    1.0000 </r>
       <r>   -1.5113    1.0000 </r>
       <r>   -1.4755    1.0000 </r>
       <r>   -1.4668    1.0000 </r>
       <r>   -1.4549    1.0000 </r>
       <r>   -1.4473    1.0000 </r>
       <r>   -1.4366    1.0000 </r>
       <r>   -1.4241    1.0000 </r>
       <r>   -1.4126    1.0000 </r>
       <r>   -1.4007    1.0000 </r>
       <r>   -1.3923    1.0000 </r>
       <r>   -1.3642    1.0000 </r>
       <r>   -1.3582    1.0000 </r>
       <r>   -1.3359    1.0000 </r>
       <r>   -1.3222    1.0000 </r>
       <r>   -1.3146    1.0000 </r>
       <r>   -1.2686    1.0000 </r>
       <r>   -1.2523    1.0000 </r>
       <r>   -1.2253    1.0000 </r>
       <r>   -1.1932    1.0000 </r>
       <r>   -1.1715    1.0000 </r>
       <r>   -1.1426    1.0000 </r>
       <r>   -1.1199    1.0000 </r>
       <r>   -1.0698    1.0000 </r>
       <r>   -1.0461    1.0000 </r>
       <r>   -1.0251    1.0000 </r>
       <r>   -0.9907    1.0000 </r>
       <r>   -0.8761    1.0000 </r>
       <r>   -0.8555    1.0000 </r>
       <r>   -0.7951    1.0000 </r>
       <r>   -0.7650    1.0000 </r>
       <r>   -0.6975    1.0000 </r>
       <r>   -0.6513    1.0000 </r>
       <r>   -0.4326    1.0000 </r>
       <r>   -0.2128    1.0000 </r>
       <r>   -0.1630    1.0000 </r>
       <r>    0.3310    1.0000 </r>
       <r>    2.6818    0.0000 </r>
       <r>    2.7297    0.0000 </r>
       <r>    2.8629    0.0000 </r>
       <r>    2.8838    0.0000 </r>
       <r>    3.0291    0.0000 </r>
       <r>    3.1549    0.0000 </r>
       <r>    3.1914    0.0000 </r>
       <r>    3.2130    0.0000 </r>
       <r>    3.3645    0.0000 </r>
       <r>    3.4103    0.0000 </r>
       <r>    3.5212    0.0000 </r>
       <r>    3.6915    0.0000 </r>
       <r>    4.2454    0.0000 </r>
       <r>    4.6195    0.0000 </r>
       <r>    4.8486    0.0000 </r>
       <r>    4.9383    0.0000 </r>
       <r>    5.4115    0.0000 </r>
       <r>    5.4287    0.0000 </r>
       <r>    5.6200    0.0000 </r>
       <r>    5.6848    0.0000 </r>
       <r>    5.8025    0.0000 </r>
       <r>    5.8757    0.0000 </r>
       <r>    6.0003    0.0000 </r>
       <r>    6.0234    0.0000 </r>
       <r>    6.0782    0.0000 </r>
       <r>    6.1456    0.0000 </r>
       <r>    6.1910    0.0000 </r>
       <r>    6.2334    0.0000 </r>
       <r>    6.3026    0.0000 </r>
       <r>    6.4133    0.0000 </r>
       <r>    6.4371    0.0000 </r>
       <r>    6.4511    0.0000 </r>
       <r>    6.5147    0.0000 </r>
       <r>    6.5904    0.0000 </r>
       <r>    6.6479    0.0000 </r>
       <r>    6.6888    0.0000 </r>
      </set>
      <set comment="kpoint 2">
       <r>  -20.8415    1.0000 </r>
       <r>  -20.8083    1.0000 </r>
       <r>  -20.7947    1.0000 </r>
       <r>  -20.7882    1.0000 </r>
       <r>  -20.7352    1.0000 </r>
       <r>  -20.7116    1.0000 </r>
       <r>  -20.7106    1.0000 </r>
       <r>  -20.6422    1.0000 </r>
       <r>  -16.8255    1.0000 </r>
       <r>  -16.7877    1.0000 </r>
       <r>  -16.7311    1.0000 </r>
       <r>  -16.7183    1.0000 </r>
       <r>  -16.7093    1.0000 </r>
       <r>  -16.6832    1.0000 </r>
       <r>  -16.6755    1.0000 </r>
       <r>  -16.6424    1.0000 </r>
       <r>  -16.6337    1.0000 </r>
       <r>  -16.5796    1.0000 </r>
       <r>  -16.5777    1.0000 </r>
       <r>  -16.5428    1.0000 </r>
       <r>  -16.5196    1.0000 </r>
       <r>  -16.4747    1.0000 </r>
       <r>  -16.4553    1.0000 </r>
       <r>  -16.4531    1.0000 </r>
       <r>  -16.4430    1.0000 </r>
       <r>  -16.4420    1.0000 </r>
       <r>  -16.4364    1.0000 </r>
       <r>  -16.4318    1.0000 </r>
       <r>  -16.4229    1.0000 </r>
       <r>  -16.3847    1.0000 </r>
       <r>  -16.3689    1.0000 </r>
       <r>  -16.3672    1.0000 </r>
       <r>  -16.3600    1.0000 </r>
       <r>  -16.3546    1.0000 </r>
       <r>  -16.3291    1.0000 </r>
       <r>  -16.3252    1.0000 </r>
       <r>  -16.3229    1.0000 </r>
       <r>  -16.3135    1.0000 </r>
       <r>  -16.3124    1.0000 </r>
       <r>  -16.3062    1.0000 </r>
       <r>  -16.3054    1.0000 </r>
       <r>  -16.3002    1.0000 </r>
       <r>  -16.2690    1.0000 </r>
       <r>  -16.2554    1.0000 </r>
       <r>  -16.2543    1.0000 </r>
       <r>  -16.2499    1.0000 </r>
       <r>  -16.2378    1.0000 </r>
       <r>  -16.2069    1.0000 </r>
       <r>  -14.5738    1.0000 </r>
       <r>  -14.3679    1.0000 </r>
       <r>  -14.3488    1.0000 </r>
       <r>  -14.2814    1.0000 </r>
       <r>  -14.2109    1.0000 </r>
       <r>  -14.1940    1.0000 </r>
       <r>  -14.1670    1.0000 </r>
       <r>  -14.1388    1.0000 </r>
       <r>  -14.1326    1.0000 </r>
       <r>  -14.0898    1.0000 </r>
       <r>  -14.0775    1.0000 </r>
       <r>  -14.0465    1.0000 </r>
       <r>  -14.0095    1.0000 </r>
       <r>  -13.9459    1.0000 </r>
       <r>  -13.9349    1.0000 </r>
       <r>  -13.9143    1.0000 </r>
       <r>  -13.9025    1.0000 </r>
       <r>  -13.8895    1.0000 </r>
       <r>  -13.8368    1.0000 </r>
       <r>  -13.8210    1.0000 </r>
       <r>  -13.7935    1.0000 </r>
       <r>  -13.6459    1.0000 </r>
       <r>  -13.3531    1.0000 </r>
       <r>   -8.0717    1.0000 </r>
       <r>   -7.9301    1.0000 </r>
       <r>   -7.6447    1.0000 </r>
       <r>   -7.5861    1.0000 </r>
       <r>   -7.4986    1.0000 </r>
       <r>   -7.3623    1.0000 </r>
       <r>   -7.2923    1.0000 </r>
       <r>   -7.2497    1.0000 </r>
       <r>   -7.2329    1.0000 </r>
       <r>   -7.2317    1.0000 </r>
       <r>   -7.2193    1.0000 </r>
       <r>   -7.2102    1.0000 </r>
       <r>   -7.2047    1.0000 </r>
       <r>   -7.1967    1.0000 </r>
       <r>   -7.1895    1.0000 </r>
       <r>   -7.1821    1.0000 </r>
       <r>   -7.1800    1.0000 </r>
       <r>   -7.1618    1.0000 </r>
       <r>   -7.1533    1.0000 </r>
       <r>   -7.1490    1.0000 </r>
       <r>   -7.1409    1.0000 </r>
       <r>   -7.1355    1.0000 </r>
       <r>   -7.1233    1.0000 </r>
       <r>   -7.1168    1.0000 </r>
       <r>   -7.1157    1.0000 </r>
       <r>   -7.0974    1.0000 </r>
       <r>   -7.0841    1.0000 </r>
       <r>   -7.0709    1.0000 </r>
       <r>   -7.0622    1.0000 </r>
       <r>   -7.0318    1.0000 </r>
       <r>   -6.9909    1.0000 </r>
       <r>   -6.8693    1.0000 </r>
       <r>   -3.4510    1.0000 </r>
       <r>   -3.3641    1.0000 </r>
       <r>   -3.2998    1.0000 </r>
       <r>   -3.2568    1.0000 </r>
       <r>   -3.1960    1.0000 </r>
       <r>   -3.0892    1.0000 </r>
       <r>   -2.9583    1.0000 </r>
       <r>   -2.8295    1.0000 </r>
       <r>   -2.6330    1.0000 </r>
       <r>   -2.5836    1.0000 </r>
       <r>   -2.5647    1.0000 </r>
       <r>   -2.5337    1.0000 </r>
       <r>   -2.4662    1.0000 </r>
       <r>   -2.4013    1.0000 </r>
       <r>   -2.2896    1.0000 </r>
       <r>   -2.2540    1.0000 </r>
       <r>   -2.1743    1.0000 </r>
       <r>   -2.0876    1.0000 </r>
       <r>   -2.0768    1.0000 </r>
       <r>   -2.0377    1.0000 </r>
       <r>   -1.9854    1.0000 </r>
       <r>   -1.9603    1.0000 </r>
       <r>   -1.9303    1.0000 </r>
       <r>   -1.8310    1.0000 </r>
       <r>   -1.7994    1.0000 </r>
       <r>   -1.7675    1.0000 </r>
       <r>   -1.6942    1.0000 </r>
       <r>   -1.6450    1.0000 </r>
       <r>   -1.6373    1.0000 </r>
       <r>   -1.5905    1.0000 </r>
       <r>   -1.5759    1.0000 </r>
       <r>   -1.5604    1.0000 </r>
       <r>   -1.5488    1.0000 </r>
       <r>   -1.5371    1.0000 </r>
       <r>   -1.5245    1.0000 </r>
       <r>   -1.4790    1.0000 </r>
       <r>   -1.4616    1.0000 </r>
       <r>   -1.4540    1.0000 </r>
       <r>   -1.4459    1.0000 </r>
       <r>   -1.4244    1.0000 </r>
       <r>   -1.3969    1.0000 </r>
       <r>   -1.3921    1.0000 </r>
       <r>   -1.3747    1.0000 </r>
       <r>   -1.3629    1.0000 </r>
       <r>   -1.3556    1.0000 </r>
       <r>   -1.3416    1.0000 </r>
       <r>   -1.3024    1.0000 </r>
       <r>   -1.2692    1.0000 </r>
       <r>   -1.2524    1.0000 </r>
       <r>   -1.2185    1.0000 </r>
       <r>   -1.2150    1.0000 </r>
       <r>   -1.2048    1.0000 </r>
       <r>   -1.1702    1.0000 </r>
       <r>   -1.1604    1.0000 </r>
       <r>   -1.1264    1.0000 </r>
       <r>   -1.1123    1.0000 </r>
       <r>   -1.0996    1.0000 </r>
       <r>   -1.0358    1.0000 </r>
       <r>   -0.9826    1.0000 </r>
       <r>   -0.9199    1.0000 </r>
       <r>   -0.8635    1.0000 </r>
       <r>   -0.8447    1.0000 </r>
       <r>   -0.7771    1.0000 </r>
       <r>   -0.7553    1.0000 </r>
       <r>   -0.6568    1.0000 </r>
       <r>   -0.6067    1.0000 </r>
       <r>   -0.4311    1.0000 </r>
       <r>   -0.1285    1.0000 </r>
       <r>   -0.0210    1.0000 </r>
       <r>    2.5720    0.0000 </r>
       <r>    2.8666    0.0000 </r>
       <r>    3.0113    0.0000 </r>
       <r>    3.0333    0.0000 </r>
       <r>    3.1166    0.0000 </r>
       <r>    3.2143    0.0000 </r>
       <r>    3.3408    0.0000 </r>
       <r>    3.4460    0.0000 </r>
       <r>    3.7737    0.0000 </r>
       <r>    4.0264    0.0000 </r>
       <r>    4.1966    0.0000 </r>
       <r>    4.2787    0.0000 </r>
       <r>    4.4313    0.0000 </r>
       <r>    4.4608    0.0000 </r>
       <r>    4.6767    0.0000 </r>
       <r>    4.8211    0.0000 </r>
       <r>    4.8473    0.0000 </r>
       <r>    5.0105    0.0000 </r>
       <r>    5.4364    0.0000 </r>
       <r>    5.5391    0.0000 </r>
       <r>    5.5951    0.0000 </r>
       <r>    5.6643    0.0000 </r>
       <r>    5.7835    0.0000 </r>
       <r>    5.9994    0.0000 </r>
       <r>    6.0300    0.0000 </r>
       <r>    6.1241    0.0000 </r>
       <r>    6.1598    0.0000 </r>
       <r>    6.1986    0.0000 </r>
       <r>    6.2106    0.0000 </r>
       <r>    6.2751    0.0000 </r>
       <r>    6.3693    0.0000 </r>
       <r>    6.4462    0.0000 </r>
       <r>    6.5110    0.0000 </r>
       <r>    6.5501    0.0000 </r>
       <r>    6.6483    0.0000 </r>
       <r>    6.6863    0.0000 </r>
      </set>
      <set comment="kpoint 3">
       <r>  -20.8415    1.0000 </r>
       <r>  -20.8083    1.0000 </r>
       <r>  -20.7947    1.0000 </r>
       <r>  -20.7882    1.0000 </r>
       <r>  -20.7351    1.0000 </r>
       <r>  -20.7116    1.0000 </r>
       <r>  -20.7106    1.0000 </r>
       <r>  -20.6422    1.0000 </r>
       <r>  -16.8255    1.0000 </r>
       <r>  -16.7878    1.0000 </r>
       <r>  -16.7313    1.0000 </r>
       <r>  -16.7183    1.0000 </r>
       <r>  -16.7093    1.0000 </r>
       <r>  -16.6857    1.0000 </r>
       <r>  -16.6755    1.0000 </r>
       <r>  -16.6423    1.0000 </r>
       <r>  -16.6333    1.0000 </r>
       <r>  -16.5797    1.0000 </r>
       <r>  -16.5774    1.0000 </r>
       <r>  -16.5406    1.0000 </r>
       <r>  -16.5072    1.0000 </r>
       <r>  -16.4790    1.0000 </r>
       <r>  -16.4682    1.0000 </r>
       <r>  -16.4530    1.0000 </r>
       <r>  -16.4457    1.0000 </r>
       <r>  -16.4430    1.0000 </r>
       <r>  -16.4364    1.0000 </r>
       <r>  -16.4301    1.0000 </r>
       <r>  -16.4120    1.0000 </r>
       <r>  -16.3863    1.0000 </r>
       <r>  -16.3701    1.0000 </r>
       <r>  -16.3685    1.0000 </r>
       <r>  -16.3600    1.0000 </r>
       <r>  -16.3548    1.0000 </r>
       <r>  -16.3291    1.0000 </r>
       <r>  -16.3255    1.0000 </r>
       <r>  -16.3230    1.0000 </r>
       <r>  -16.3134    1.0000 </r>
       <r>  -16.3123    1.0000 </r>
       <r>  -16.3062    1.0000 </r>
       <r>  -16.3053    1.0000 </r>
       <r>  -16.3002    1.0000 </r>
       <r>  -16.2690    1.0000 </r>
       <r>  -16.2554    1.0000 </r>
       <r>  -16.2543    1.0000 </r>
       <r>  -16.2499    1.0000 </r>
       <r>  -16.2378    1.0000 </r>
       <r>  -16.2069    1.0000 </r>
       <r>  -14.5747    1.0000 </r>
       <r>  -14.3795    1.0000 </r>
       <r>  -14.3379    1.0000 </r>
       <r>  -14.2870    1.0000 </r>
       <r>  -14.2109    1.0000 </r>
       <r>  -14.1864    1.0000 </r>
       <r>  -14.1582    1.0000 </r>
       <r>  -14.1489    1.0000 </r>
       <r>  -14.1045    1.0000 </r>
       <r>  -14.0875    1.0000 </r>
       <r>  -14.0762    1.0000 </r>
       <r>  -14.0457    1.0000 </r>
       <r>  -14.0081    1.0000 </r>
       <r>  -13.9484    1.0000 </r>
       <r>  -13.9437    1.0000 </r>
       <r>  -13.9247    1.0000 </r>
       <r>  -13.9140    1.0000 </r>
       <r>  -13.8937    1.0000 </r>
       <r>  -13.8765    1.0000 </r>
       <r>  -13.8155    1.0000 </r>
       <r>  -13.7559    1.0000 </r>
       <r>  -13.6458    1.0000 </r>
       <r>  -13.3522    1.0000 </r>
       <r>   -8.0970    1.0000 </r>
       <r>   -7.9422    1.0000 </r>
       <r>   -7.6712    1.0000 </r>
       <r>   -7.5456    1.0000 </r>
       <r>   -7.4799    1.0000 </r>
       <r>   -7.3573    1.0000 </r>
       <r>   -7.2865    1.0000 </r>
       <r>   -7.2406    1.0000 </r>
       <r>   -7.2341    1.0000 </r>
       <r>   -7.2297    1.0000 </r>
       <r>   -7.2218    1.0000 </r>
       <r>   -7.2121    1.0000 </r>
       <r>   -7.2086    1.0000 </r>
       <r>   -7.1965    1.0000 </r>
       <r>   -7.1902    1.0000 </r>
       <r>   -7.1808    1.0000 </r>
       <r>   -7.1740    1.0000 </r>
       <r>   -7.1693    1.0000 </r>
       <r>   -7.1578    1.0000 </r>
       <r>   -7.1445    1.0000 </r>
       <r>   -7.1331    1.0000 </r>
       <r>   -7.1287    1.0000 </r>
       <r>   -7.1264    1.0000 </r>
       <r>   -7.1214    1.0000 </r>
       <r>   -7.1112    1.0000 </r>
       <r>   -7.1070    1.0000 </r>
       <r>   -7.0825    1.0000 </r>
       <r>   -7.0698    1.0000 </r>
       <r>   -7.0681    1.0000 </r>
       <r>   -7.0344    1.0000 </r>
       <r>   -6.9981    1.0000 </r>
       <r>   -6.8427    1.0000 </r>
       <r>   -3.3653    1.0000 </r>
       <r>   -3.3328    1.0000 </r>
       <r>   -3.2787    1.0000 </r>
       <r>   -3.2631    1.0000 </r>
       <r>   -3.1779    1.0000 </r>
       <r>   -3.0925    1.0000 </r>
       <r>   -3.0576    1.0000 </r>
       <r>   -2.9042    1.0000 </r>
       <r>   -2.7816    1.0000 </r>
       <r>   -2.6232    1.0000 </r>
       <r>   -2.5750    1.0000 </r>
       <r>   -2.5440    1.0000 </r>
       <r>   -2.4961    1.0000 </r>
       <r>   -2.4641    1.0000 </r>
       <r>   -2.4028    1.0000 </r>
       <r>   -2.2103    1.0000 </r>
       <r>   -2.1277    1.0000 </r>
       <r>   -2.0934    1.0000 </r>
       <r>   -2.0435    1.0000 </r>
       <r>   -2.0104    1.0000 </r>
       <r>   -1.9669    1.0000 </r>
       <r>   -1.9023    1.0000 </r>
       <r>   -1.8948    1.0000 </r>
       <r>   -1.8213    1.0000 </r>
       <r>   -1.7597    1.0000 </r>
       <r>   -1.7416    1.0000 </r>
       <r>   -1.7207    1.0000 </r>
       <r>   -1.6868    1.0000 </r>
       <r>   -1.6198    1.0000 </r>
       <r>   -1.5919    1.0000 </r>
       <r>   -1.5726    1.0000 </r>
       <r>   -1.5509    1.0000 </r>
       <r>   -1.5256    1.0000 </r>
       <r>   -1.5200    1.0000 </r>
       <r>   -1.5062    1.0000 </r>
       <r>   -1.4920    1.0000 </r>
       <r>   -1.4677    1.0000 </r>
       <r>   -1.4357    1.0000 </r>
       <r>   -1.4243    1.0000 </r>
       <r>   -1.4096    1.0000 </r>
       <r>   -1.3944    1.0000 </r>
       <r>   -1.3822    1.0000 </r>
       <r>   -1.3577    1.0000 </r>
       <r>   -1.3485    1.0000 </r>
       <r>   -1.3345    1.0000 </r>
       <r>   -1.3010    1.0000 </r>
       <r>   -1.2960    1.0000 </r>
       <r>   -1.2551    1.0000 </r>
       <r>   -1.2545    1.0000 </r>
       <r>   -1.2272    1.0000 </r>
       <r>   -1.2111    1.0000 </r>
       <r>   -1.2025    1.0000 </r>
       <r>   -1.1741    1.0000 </r>
       <r>   -1.1483    1.0000 </r>
       <r>   -1.1257    1.0000 </r>
       <r>   -1.1211    1.0000 </r>
       <r>   -1.0954    1.0000 </r>
       <r>   -1.0804    1.0000 </r>
       <r>   -1.0284    1.0000 </r>
       <r>   -0.9697    1.0000 </r>
       <r>   -0.9095    1.0000 </r>
       <r>   -0.8406    1.0000 </r>
       <r>   -0.7817    1.0000 </r>
       <r>   -0.6695    1.0000 </r>
       <r>   -0.6266    1.0000 </r>
       <r>   -0.5952    1.0000 </r>
       <r>   -0.4204    1.0000 </r>
       <r>   -0.0829    1.0000 </r>
       <r>   -0.0005    1.0000 </r>
       <r>    2.7819    0.0000 </r>
       <r>    2.9011    0.0000 </r>
       <r>    2.9431    0.0000 </r>
       <r>    3.0275    0.0000 </r>
       <r>    3.1513    0.0000 </r>
       <r>    3.2031    0.0000 </r>
       <r>    3.2572    0.0000 </r>
       <r>    3.2703    0.0000 </r>
       <r>    3.4172    0.0000 </r>
       <r>    3.7617    0.0000 </r>
       <r>    4.0173    0.0000 </r>
       <r>    4.3162    0.0000 </r>
       <r>    4.5442    0.0000 </r>
       <r>    4.6487    0.0000 </r>
       <r>    4.8074    0.0000 </r>
       <r>    4.8733    0.0000 </r>
       <r>    4.8943    0.0000 </r>
       <r>    5.3785    0.0000 </r>
       <r>    5.4602    0.0000 </r>
       <r>    5.5402    0.0000 </r>
       <r>    5.5838    0.0000 </r>
       <r>    5.6840    0.0000 </r>
       <r>    5.7622    0.0000 </r>
       <r>    5.9392    0.0000 </r>
       <r>    6.0469    0.0000 </r>
       <r>    6.0865    0.0000 </r>
       <r>    6.1136    0.0000 </r>
       <r>    6.1642    0.0000 </r>
       <r>    6.2716    0.0000 </r>
       <r>    6.2853    0.0000 </r>
       <r>    6.4067    0.0000 </r>
       <r>    6.4262    0.0000 </r>
       <r>    6.5268    0.0000 </r>
       <r>    6.5745    0.0000 </r>
       <r>    6.6197    0.0000 </r>
       <r>    6.6738    0.0000 </r>
      </set>
      <set comment="kpoint 4">
       <r>  -20.8415    1.0000 </r>
       <r>  -20.8083    1.0000 </r>
       <r>  -20.7947    1.0000 </r>
       <r>  -20.7882    1.0000 </r>
       <r>  -20.7351    1.0000 </r>
       <r>  -20.7116    1.0000 </r>
       <r>  -20.7106    1.0000 </r>
       <r>  -20.6422    1.0000 </r>
       <r>  -16.8255    1.0000 </r>
       <r>  -16.7877    1.0000 </r>
       <r>  -16.7311    1.0000 </r>
       <r>  -16.7183    1.0000 </r>
       <r>  -16.7092    1.0000 </r>
       <r>  -16.6832    1.0000 </r>
       <r>  -16.6755    1.0000 </r>
       <r>  -16.6424    1.0000 </r>
       <r>  -16.6337    1.0000 </r>
       <r>  -16.5796    1.0000 </r>
       <r>  -16.5776    1.0000 </r>
       <r>  -16.5428    1.0000 </r>
       <r>  -16.4973    1.0000 </r>
       <r>  -16.4724    1.0000 </r>
       <r>  -16.4603    1.0000 </r>
       <r>  -16.4531    1.0000 </r>
       <r>  -16.4430    1.0000 </r>
       <r>  -16.4405    1.0000 </r>
       <r>  -16.4393    1.0000 </r>
       <r>  -16.4364    1.0000 </r>
       <r>  -16.4199    1.0000 </r>
       <r>  -16.3863    1.0000 </r>
       <r>  -16.3838    1.0000 </r>
       <r>  -16.3683    1.0000 </r>
       <r>  -16.3600    1.0000 </r>
       <r>  -16.3546    1.0000 </r>
       <r>  -16.3291    1.0000 </r>
       <r>  -16.3271    1.0000 </r>
       <r>  -16.3230    1.0000 </r>
       <r>  -16.3134    1.0000 </r>
       <r>  -16.3124    1.0000 </r>
       <r>  -16.3062    1.0000 </r>
       <r>  -16.3055    1.0000 </r>
       <r>  -16.3002    1.0000 </r>
       <r>  -16.2690    1.0000 </r>
       <r>  -16.2554    1.0000 </r>
       <r>  -16.2543    1.0000 </r>
       <r>  -16.2500    1.0000 </r>
       <r>  -16.2378    1.0000 </r>
       <r>  -16.2069    1.0000 </r>
       <r>  -14.5711    1.0000 </r>
       <r>  -14.3574    1.0000 </r>
       <r>  -14.3306    1.0000 </r>
       <r>  -14.3086    1.0000 </r>
       <r>  -14.2777    1.0000 </r>
       <r>  -14.2494    1.0000 </r>
       <r>  -14.1680    1.0000 </r>
       <r>  -14.0900    1.0000 </r>
       <r>  -14.0807    1.0000 </r>
       <r>  -14.0519    1.0000 </r>
       <r>  -14.0270    1.0000 </r>
       <r>  -14.0051    1.0000 </r>
       <r>  -13.9908    1.0000 </r>
       <r>  -13.9798    1.0000 </r>
       <r>  -13.9547    1.0000 </r>
       <r>  -13.9407    1.0000 </r>
       <r>  -13.9179    1.0000 </r>
       <r>  -13.9016    1.0000 </r>
       <r>  -13.8382    1.0000 </r>
       <r>  -13.8288    1.0000 </r>
       <r>  -13.8023    1.0000 </r>
       <r>  -13.6470    1.0000 </r>
       <r>  -13.3529    1.0000 </r>
       <r>   -7.9735    1.0000 </r>
       <r>   -7.8005    1.0000 </r>
       <r>   -7.7672    1.0000 </r>
       <r>   -7.6459    1.0000 </r>
       <r>   -7.4247    1.0000 </r>
       <r>   -7.3186    1.0000 </r>
       <r>   -7.2886    1.0000 </r>
       <r>   -7.2644    1.0000 </r>
       <r>   -7.2424    1.0000 </r>
       <r>   -7.2287    1.0000 </r>
       <r>   -7.2275    1.0000 </r>
       <r>   -7.2137    1.0000 </r>
       <r>   -7.2070    1.0000 </r>
       <r>   -7.2042    1.0000 </r>
       <r>   -7.1974    1.0000 </r>
       <r>   -7.1863    1.0000 </r>
       <r>   -7.1852    1.0000 </r>
       <r>   -7.1708    1.0000 </r>
       <r>   -7.1694    1.0000 </r>
       <r>   -7.1544    1.0000 </r>
       <r>   -7.1396    1.0000 </r>
       <r>   -7.1330    1.0000 </r>
       <r>   -7.1227    1.0000 </r>
       <r>   -7.1196    1.0000 </r>
       <r>   -7.1162    1.0000 </r>
       <r>   -7.1129    1.0000 </r>
       <r>   -7.1022    1.0000 </r>
       <r>   -7.0932    1.0000 </r>
       <r>   -7.0695    1.0000 </r>
       <r>   -7.0622    1.0000 </r>
       <r>   -7.0302    1.0000 </r>
       <r>   -6.9721    1.0000 </r>
       <r>   -3.2721    1.0000 </r>
       <r>   -3.2456    1.0000 </r>
       <r>   -3.2331    1.0000 </r>
       <r>   -3.1143    1.0000 </r>
       <r>   -2.9805    1.0000 </r>
       <r>   -2.8233    1.0000 </r>
       <r>   -2.7443    1.0000 </r>
       <r>   -2.7013    1.0000 </r>
       <r>   -2.6560    1.0000 </r>
       <r>   -2.6435    1.0000 </r>
       <r>   -2.5861    1.0000 </r>
       <r>   -2.5282    1.0000 </r>
       <r>   -2.4221    1.0000 </r>
       <r>   -2.4072    1.0000 </r>
       <r>   -2.3721    1.0000 </r>
       <r>   -2.3614    1.0000 </r>
       <r>   -2.2846    1.0000 </r>
       <r>   -2.2615    1.0000 </r>
       <r>   -2.1479    1.0000 </r>
       <r>   -2.0657    1.0000 </r>
       <r>   -1.9720    1.0000 </r>
       <r>   -1.9596    1.0000 </r>
       <r>   -1.8859    1.0000 </r>
       <r>   -1.8468    1.0000 </r>
       <r>   -1.7996    1.0000 </r>
       <r>   -1.7941    1.0000 </r>
       <r>   -1.7583    1.0000 </r>
       <r>   -1.7298    1.0000 </r>
       <r>   -1.7114    1.0000 </r>
       <r>   -1.6814    1.0000 </r>
       <r>   -1.6608    1.0000 </r>
       <r>   -1.6036    1.0000 </r>
       <r>   -1.5809    1.0000 </r>
       <r>   -1.5578    1.0000 </r>
       <r>   -1.5383    1.0000 </r>
       <r>   -1.5208    1.0000 </r>
       <r>   -1.4894    1.0000 </r>
       <r>   -1.4692    1.0000 </r>
       <r>   -1.4470    1.0000 </r>
       <r>   -1.4347    1.0000 </r>
       <r>   -1.4073    1.0000 </r>
       <r>   -1.3708    1.0000 </r>
       <r>   -1.3482    1.0000 </r>
       <r>   -1.3160    1.0000 </r>
       <r>   -1.3013    1.0000 </r>
       <r>   -1.2912    1.0000 </r>
       <r>   -1.2734    1.0000 </r>
       <r>   -1.2412    1.0000 </r>
       <r>   -1.2367    1.0000 </r>
       <r>   -1.2127    1.0000 </r>
       <r>   -1.1981    1.0000 </r>
       <r>   -1.1810    1.0000 </r>
       <r>   -1.1731    1.0000 </r>
       <r>   -1.1623    1.0000 </r>
       <r>   -1.1432    1.0000 </r>
       <r>   -1.1225    1.0000 </r>
       <r>   -1.1041    1.0000 </r>
       <r>   -1.0481    1.0000 </r>
       <r>   -1.0352    1.0000 </r>
       <r>   -0.9867    1.0000 </r>
       <r>   -0.9332    1.0000 </r>
       <r>   -0.9210    1.0000 </r>
       <r>   -0.8428    1.0000 </r>
       <r>   -0.7920    1.0000 </r>
       <r>   -0.6996    1.0000 </r>
       <r>   -0.5465    1.0000 </r>
       <r>   -0.4923    1.0000 </r>
       <r>   -0.4420    1.0000 </r>
       <r>   -0.2278    1.0000 </r>
       <r>    2.8083    0.0000 </r>
       <r>    2.9793    0.0000 </r>
       <r>    3.0976    0.0000 </r>
       <r>    3.1004    0.0000 </r>
       <r>    3.2538    0.0000 </r>
       <r>    3.3450    0.0000 </r>
       <r>    3.6568    0.0000 </r>
       <r>    3.9144    0.0000 </r>
       <r>    4.1305    0.0000 </r>
       <r>    4.2115    0.0000 </r>
       <r>    4.4447    0.0000 </r>
       <r>    4.4967    0.0000 </r>
       <r>    4.5382    0.0000 </r>
       <r>    4.5607    0.0000 </r>
       <r>    4.6954    0.0000 </r>
       <r>    4.7796    0.0000 </r>
       <r>    4.8211    0.0000 </r>
       <r>    4.8533    0.0000 </r>
       <r>    4.8869    0.0000 </r>
       <r>    4.9177    0.0000 </r>
       <r>    5.5031    0.0000 </r>
       <r>    5.6294    0.0000 </r>
       <r>    5.8158    0.0000 </r>
       <r>    5.8408    0.0000 </r>
       <r>    5.9598    0.0000 </r>
       <r>    5.9846    0.0000 </r>
       <r>    6.0464    0.0000 </r>
       <r>    6.1120    0.0000 </r>
       <r>    6.2322    0.0000 </r>
       <r>    6.2545    0.0000 </r>
       <r>    6.2944    0.0000 </r>
       <r>    6.3319    0.0000 </r>
       <r>    6.3985    0.0000 </r>
       <r>    6.4461    0.0000 </r>
       <r>    6.4813    0.0000 </r>
       <r>    6.5234    0.0000 </r>
      </set>
      <set comment="kpoint 5">
       <r>  -20.8415    1.0000 </r>
       <r>  -20.8083    1.0000 </r>
       <r>  -20.7947    1.0000 </r>
       <r>  -20.7882    1.0000 </r>
       <r>  -20.7352    1.0000 </r>
       <r>  -20.7116    1.0000 </r>
       <r>  -20.7107    1.0000 </r>
       <r>  -20.6422    1.0000 </r>
       <r>  -16.8252    1.0000 </r>
       <r>  -16.7866    1.0000 </r>
       <r>  -16.7306    1.0000 </r>
       <r>  -16.7183    1.0000 </r>
       <r>  -16.7093    1.0000 </r>
       <r>  -16.6838    1.0000 </r>
       <r>  -16.6757    1.0000 </r>
       <r>  -16.6427    1.0000 </r>
       <r>  -16.6334    1.0000 </r>
       <r>  -16.5797    1.0000 </r>
       <r>  -16.5748    1.0000 </r>
       <r>  -16.5368    1.0000 </r>
       <r>  -16.5245    1.0000 </r>
       <r>  -16.4900    1.0000 </r>
       <r>  -16.4596    1.0000 </r>
       <r>  -16.4532    1.0000 </r>
       <r>  -16.4465    1.0000 </r>
       <r>  -16.4427    1.0000 </r>
       <r>  -16.4363    1.0000 </r>
       <r>  -16.4342    1.0000 </r>
       <r>  -16.4151    1.0000 </r>
       <r>  -16.3686    1.0000 </r>
       <r>  -16.3601    1.0000 </r>
       <r>  -16.3588    1.0000 </r>
       <r>  -16.3556    1.0000 </r>
       <r>  -16.3546    1.0000 </r>
       <r>  -16.3488    1.0000 </r>
       <r>  -16.3290    1.0000 </r>
       <r>  -16.3230    1.0000 </r>
       <r>  -16.3135    1.0000 </r>
       <r>  -16.3123    1.0000 </r>
       <r>  -16.3063    1.0000 </r>
       <r>  -16.3060    1.0000 </r>
       <r>  -16.3002    1.0000 </r>
       <r>  -16.2690    1.0000 </r>
       <r>  -16.2560    1.0000 </r>
       <r>  -16.2544    1.0000 </r>
       <r>  -16.2498    1.0000 </r>
       <r>  -16.2378    1.0000 </r>
       <r>  -16.2069    1.0000 </r>
       <r>  -14.5727    1.0000 </r>
       <r>  -14.4126    1.0000 </r>
       <r>  -14.2938    1.0000 </r>
       <r>  -14.2418    1.0000 </r>
       <r>  -14.2185    1.0000 </r>
       <r>  -14.2008    1.0000 </r>
       <r>  -14.1953    1.0000 </r>
       <r>  -14.1521    1.0000 </r>
       <r>  -14.1362    1.0000 </r>
       <r>  -14.0991    1.0000 </r>
       <r>  -14.0783    1.0000 </r>
       <r>  -14.0383    1.0000 </r>
       <r>  -13.9990    1.0000 </r>
       <r>  -13.9630    1.0000 </r>
       <r>  -13.9244    1.0000 </r>
       <r>  -13.9184    1.0000 </r>
       <r>  -13.9179    1.0000 </r>
       <r>  -13.8820    1.0000 </r>
       <r>  -13.8229    1.0000 </r>
       <r>  -13.8107    1.0000 </r>
       <r>  -13.7879    1.0000 </r>
       <r>  -13.6560    1.0000 </r>
       <r>  -13.3540    1.0000 </r>
       <r>   -8.0741    1.0000 </r>
       <r>   -7.9188    1.0000 </r>
       <r>   -7.6155    1.0000 </r>
       <r>   -7.5132    1.0000 </r>
       <r>   -7.4893    1.0000 </r>
       <r>   -7.4394    1.0000 </r>
       <r>   -7.2915    1.0000 </r>
       <r>   -7.2671    1.0000 </r>
       <r>   -7.2437    1.0000 </r>
       <r>   -7.2364    1.0000 </r>
       <r>   -7.2263    1.0000 </r>
       <r>   -7.2166    1.0000 </r>
       <r>   -7.2070    1.0000 </r>
       <r>   -7.1965    1.0000 </r>
       <r>   -7.1859    1.0000 </r>
       <r>   -7.1823    1.0000 </r>
       <r>   -7.1806    1.0000 </r>
       <r>   -7.1652    1.0000 </r>
       <r>   -7.1608    1.0000 </r>
       <r>   -7.1499    1.0000 </r>
       <r>   -7.1390    1.0000 </r>
       <r>   -7.1348    1.0000 </r>
       <r>   -7.1287    1.0000 </r>
       <r>   -7.1195    1.0000 </r>
       <r>   -7.1178    1.0000 </r>
       <r>   -7.0980    1.0000 </r>
       <r>   -7.0897    1.0000 </r>
       <r>   -7.0747    1.0000 </r>
       <r>   -7.0567    1.0000 </r>
       <r>   -7.0406    1.0000 </r>
       <r>   -7.0151    1.0000 </r>
       <r>   -6.8405    1.0000 </r>
       <r>   -3.4877    1.0000 </r>
       <r>   -3.3864    1.0000 </r>
       <r>   -3.3377    1.0000 </r>
       <r>   -3.2444    1.0000 </r>
       <r>   -3.0911    1.0000 </r>
       <r>   -3.0042    1.0000 </r>
       <r>   -2.8804    1.0000 </r>
       <r>   -2.7389    1.0000 </r>
       <r>   -2.6072    1.0000 </r>
       <r>   -2.5588    1.0000 </r>
       <r>   -2.5291    1.0000 </r>
       <r>   -2.4855    1.0000 </r>
       <r>   -2.4456    1.0000 </r>
       <r>   -2.4101    1.0000 </r>
       <r>   -2.3278    1.0000 </r>
       <r>   -2.2410    1.0000 </r>
       <r>   -2.1786    1.0000 </r>
       <r>   -2.1348    1.0000 </r>
       <r>   -2.0780    1.0000 </r>
       <r>   -2.0660    1.0000 </r>
       <r>   -2.0381    1.0000 </r>
       <r>   -1.9954    1.0000 </r>
       <r>   -1.9229    1.0000 </r>
       <r>   -1.8456    1.0000 </r>
       <r>   -1.8060    1.0000 </r>
       <r>   -1.7714    1.0000 </r>
       <r>   -1.7214    1.0000 </r>
       <r>   -1.6965    1.0000 </r>
       <r>   -1.6517    1.0000 </r>
       <r>   -1.6432    1.0000 </r>
       <r>   -1.6144    1.0000 </r>
       <r>   -1.5963    1.0000 </r>
       <r>   -1.5608    1.0000 </r>
       <r>   -1.5404    1.0000 </r>
       <r>   -1.5115    1.0000 </r>
       <r>   -1.4841    1.0000 </r>
       <r>   -1.4667    1.0000 </r>
       <r>   -1.4461    1.0000 </r>
       <r>   -1.4330    1.0000 </r>
       <r>   -1.4231    1.0000 </r>
       <r>   -1.3978    1.0000 </r>
       <r>   -1.3755    1.0000 </r>
       <r>   -1.3682    1.0000 </r>
       <r>   -1.3315    1.0000 </r>
       <r>   -1.3156    1.0000 </r>
       <r>   -1.3082    1.0000 </r>
       <r>   -1.2915    1.0000 </r>
       <r>   -1.2702    1.0000 </r>
       <r>   -1.2664    1.0000 </r>
       <r>   -1.2276    1.0000 </r>
       <r>   -1.2222    1.0000 </r>
       <r>   -1.2027    1.0000 </r>
       <r>   -1.1966    1.0000 </r>
       <r>   -1.1861    1.0000 </r>
       <r>   -1.1584    1.0000 </r>
       <r>   -1.1097    1.0000 </r>
       <r>   -1.0655    1.0000 </r>
       <r>   -1.0410    1.0000 </r>
       <r>   -1.0093    1.0000 </r>
       <r>   -0.9735    1.0000 </r>
       <r>   -0.9145    1.0000 </r>
       <r>   -0.8399    1.0000 </r>
       <r>   -0.7815    1.0000 </r>
       <r>   -0.7582    1.0000 </r>
       <r>   -0.5791    1.0000 </r>
       <r>   -0.5533    1.0000 </r>
       <r>   -0.4714    1.0000 </r>
       <r>   -0.4057    1.0000 </r>
       <r>    0.0676    1.0000 </r>
       <r>    2.7238    0.0000 </r>
       <r>    2.8882    0.0000 </r>
       <r>    2.9279    0.0000 </r>
       <r>    3.0440    0.0000 </r>
       <r>    3.1523    0.0000 </r>
       <r>    3.2917    0.0000 </r>
       <r>    3.3790    0.0000 </r>
       <r>    3.5636    0.0000 </r>
       <r>    4.0407    0.0000 </r>
       <r>    4.1638    0.0000 </r>
       <r>    4.3125    0.0000 </r>
       <r>    4.3521    0.0000 </r>
       <r>    4.5036    0.0000 </r>
       <r>    4.5664    0.0000 </r>
       <r>    4.6248    0.0000 </r>
       <r>    4.7047    0.0000 </r>
       <r>    4.7488    0.0000 </r>
       <r>    4.9295    0.0000 </r>
       <r>    4.9879    0.0000 </r>
       <r>    5.3882    0.0000 </r>
       <r>    5.4843    0.0000 </r>
       <r>    5.5370    0.0000 </r>
       <r>    5.6612    0.0000 </r>
       <r>    5.9721    0.0000 </r>
       <r>    5.9851    0.0000 </r>
       <r>    6.0385    0.0000 </r>
       <r>    6.1656    0.0000 </r>
       <r>    6.1846    0.0000 </r>
       <r>    6.3362    0.0000 </r>
       <r>    6.3609    0.0000 </r>
       <r>    6.3921    0.0000 </r>
       <r>    6.4309    0.0000 </r>
       <r>    6.5345    0.0000 </r>
       <r>    6.5733    0.0000 </r>
       <r>    6.6388    0.0000 </r>
       <r>    6.7073    0.0000 </r>
      </set>
      <set comment="kpoint 6">
       <r>  -20.8415    1.0000 </r>
       <r>  -20.8083    1.0000 </r>
       <r>  -20.7947    1.0000 </r>
       <r>  -20.7882    1.0000 </r>
       <r>  -20.7352    1.0000 </r>
       <r>  -20.7116    1.0000 </r>
       <r>  -20.7107    1.0000 </r>
       <r>  -20.6422    1.0000 </r>
       <r>  -16.8252    1.0000 </r>
       <r>  -16.7865    1.0000 </r>
       <r>  -16.7303    1.0000 </r>
       <r>  -16.7183    1.0000 </r>
       <r>  -16.7092    1.0000 </r>
       <r>  -16.6813    1.0000 </r>
       <r>  -16.6757    1.0000 </r>
       <r>  -16.6427    1.0000 </r>
       <r>  -16.6338    1.0000 </r>
       <r>  -16.5796    1.0000 </r>
       <r>  -16.5751    1.0000 </r>
       <r>  -16.5391    1.0000 </r>
       <r>  -16.5200    1.0000 </r>
       <r>  -16.4768    1.0000 </r>
       <r>  -16.4558    1.0000 </r>
       <r>  -16.4531    1.0000 </r>
       <r>  -16.4434    1.0000 </r>
       <r>  -16.4427    1.0000 </r>
       <r>  -16.4364    1.0000 </r>
       <r>  -16.4331    1.0000 </r>
       <r>  -16.4284    1.0000 </r>
       <r>  -16.3728    1.0000 </r>
       <r>  -16.3684    1.0000 </r>
       <r>  -16.3600    1.0000 </r>
       <r>  -16.3566    1.0000 </r>
       <r>  -16.3543    1.0000 </r>
       <r>  -16.3488    1.0000 </r>
       <r>  -16.3290    1.0000 </r>
       <r>  -16.3230    1.0000 </r>
       <r>  -16.3135    1.0000 </r>
       <r>  -16.3124    1.0000 </r>
       <r>  -16.3062    1.0000 </r>
       <r>  -16.3061    1.0000 </r>
       <r>  -16.3002    1.0000 </r>
       <r>  -16.2690    1.0000 </r>
       <r>  -16.2559    1.0000 </r>
       <r>  -16.2544    1.0000 </r>
       <r>  -16.2499    1.0000 </r>
       <r>  -16.2378    1.0000 </r>
       <r>  -16.2069    1.0000 </r>
       <r>  -14.5698    1.0000 </r>
       <r>  -14.3751    1.0000 </r>
       <r>  -14.3358    1.0000 </r>
       <r>  -14.3155    1.0000 </r>
       <r>  -14.2130    1.0000 </r>
       <r>  -14.1990    1.0000 </r>
       <r>  -14.1837    1.0000 </r>
       <r>  -14.1560    1.0000 </r>
       <r>  -14.1374    1.0000 </r>
       <r>  -14.1045    1.0000 </r>
       <r>  -14.0342    1.0000 </r>
       <r>  -13.9799    1.0000 </r>
       <r>  -13.9708    1.0000 </r>
       <r>  -13.9423    1.0000 </r>
       <r>  -13.9290    1.0000 </r>
       <r>  -13.9197    1.0000 </r>
       <r>  -13.9042    1.0000 </r>
       <r>  -13.8832    1.0000 </r>
       <r>  -13.8583    1.0000 </r>
       <r>  -13.8275    1.0000 </r>
       <r>  -13.8226    1.0000 </r>
       <r>  -13.6561    1.0000 </r>
       <r>  -13.3544    1.0000 </r>
       <r>   -7.8620    1.0000 </r>
       <r>   -7.8439    1.0000 </r>
       <r>   -7.7874    1.0000 </r>
       <r>   -7.5730    1.0000 </r>
       <r>   -7.5086    1.0000 </r>
       <r>   -7.3205    1.0000 </r>
       <r>   -7.2879    1.0000 </r>
       <r>   -7.2756    1.0000 </r>
       <r>   -7.2588    1.0000 </r>
       <r>   -7.2334    1.0000 </r>
       <r>   -7.2241    1.0000 </r>
       <r>   -7.2196    1.0000 </r>
       <r>   -7.2176    1.0000 </r>
       <r>   -7.1976    1.0000 </r>
       <r>   -7.1935    1.0000 </r>
       <r>   -7.1858    1.0000 </r>
       <r>   -7.1825    1.0000 </r>
       <r>   -7.1772    1.0000 </r>
       <r>   -7.1670    1.0000 </r>
       <r>   -7.1636    1.0000 </r>
       <r>   -7.1425    1.0000 </r>
       <r>   -7.1297    1.0000 </r>
       <r>   -7.1263    1.0000 </r>
       <r>   -7.1226    1.0000 </r>
       <r>   -7.1196    1.0000 </r>
       <r>   -7.1038    1.0000 </r>
       <r>   -7.0974    1.0000 </r>
       <r>   -7.0873    1.0000 </r>
       <r>   -7.0736    1.0000 </r>
       <r>   -7.0572    1.0000 </r>
       <r>   -7.0413    1.0000 </r>
       <r>   -7.0156    1.0000 </r>
       <r>   -3.4521    1.0000 </r>
       <r>   -3.3580    1.0000 </r>
       <r>   -3.0302    1.0000 </r>
       <r>   -2.9282    1.0000 </r>
       <r>   -2.7812    1.0000 </r>
       <r>   -2.7622    1.0000 </r>
       <r>   -2.7069    1.0000 </r>
       <r>   -2.6313    1.0000 </r>
       <r>   -2.6053    1.0000 </r>
       <r>   -2.5688    1.0000 </r>
       <r>   -2.5432    1.0000 </r>
       <r>   -2.4970    1.0000 </r>
       <r>   -2.4242    1.0000 </r>
       <r>   -2.4001    1.0000 </r>
       <r>   -2.3789    1.0000 </r>
       <r>   -2.3442    1.0000 </r>
       <r>   -2.2881    1.0000 </r>
       <r>   -2.2454    1.0000 </r>
       <r>   -2.1567    1.0000 </r>
[...]
        <r>  0.0003  0.0007  0.0003 </r>
        <r>  0.0011  0.0022  0.0021 </r>
        <r>  0.0007  0.0012  0.0011 </r>
        <r>  0.0004  0.0014  0.0002 </r>
        <r>  0.0002  0.0034  0.0019 </r>
        <r>  0.0003  0.0016  0.0002 </r>
        <r>  0.0004  0.0016  0.0003 </r>
        <r>  0.0011  0.0005  0.0011 </r>
        <r>  0.0000  0.0007  0.0002 </r>
       </set>
       <set comment="band 199">
        <r>  0.0000  0.0001  0.0059 </r>
        <r>  0.0015  0.0003  0.0061 </r>
        <r>  0.0062  0.0030  0.0156 </r>
        <r>  0.0044  0.0006  0.0100 </r>
        <r>  0.0001  0.0001  0.0028 </r>
        <r>  0.0001  0.0002  0.0030 </r>
        <r>  0.0009  0.0004  0.0099 </r>
        <r>  0.0008  0.0016  0.0147 </r>
        <r>  0.0000  0.0016  0.0000 </r>
        <r>  0.0000  0.0028  0.0002 </r>
        <r>  0.0000  0.0022  0.0001 </r>
        <r>  0.0000  0.0101  0.0003 </r>
        <r>  0.0000  0.0007  0.0001 </r>
        <r>  0.0000  0.0149  0.0008 </r>
        <r>  0.0000  0.0004  0.0001 </r>
        <r>  0.0005  0.0028  0.0006 </r>
        <r>  0.0000  0.0067  0.0006 </r>
        <r>  0.0000  0.0002  0.0002 </r>
        <r>  0.0001  0.0042  0.0002 </r>
        <r>  0.0005  0.0024  0.0036 </r>
        <r>  0.0003  0.0007  0.0005 </r>
        <r>  0.0001  0.0037  0.0008 </r>
        <r>  0.0002  0.0017  0.0005 </r>
        <r>  0.0003  0.0001  0.0015 </r>
        <r>  0.0014  0.0003  0.0015 </r>
        <r>  0.0000  0.0033  0.0013 </r>
        <r>  0.0001  0.0023  0.0006 </r>
        <r>  0.0004  0.0037  0.0010 </r>
        <r>  0.0005  0.0009  0.0011 </r>
        <r>  0.0007  0.0016  0.0006 </r>
        <r>  0.0001  0.0005  0.0006 </r>
        <r>  0.0002  0.0020  0.0005 </r>
        <r>  0.0006  0.0001  0.0006 </r>
        <r>  0.0002  0.0015  0.0012 </r>
        <r>  0.0000  0.0036  0.0007 </r>
        <r>  0.0018  0.0010  0.0007 </r>
        <r>  0.0014  0.0008  0.0009 </r>
        <r>  0.0001  0.0028  0.0016 </r>
        <r>  0.0002  0.0004  0.0022 </r>
       </set>
       <set comment="band 200">
        <r>  0.0070  0.0008  0.0057 </r>
        <r>  0.0005  0.0013  0.0124 </r>
        <r>  0.0055  0.0005  0.0131 </r>
        <r>  0.0004  0.0013  0.0124 </r>
        <r>  0.0032  0.0008  0.0053 </r>
        <r>  0.0013  0.0003  0.0023 </r>
        <r>  0.0010  0.0003  0.0062 </r>
        <r>  0.0006  0.0014  0.0025 </r>
        <r>  0.0000  0.0047  0.0000 </r>
        <r>  0.0003  0.0007  0.0005 </r>
        <r>  0.0000  0.0034  0.0000 </r>
        <r>  0.0009  0.0021  0.0003 </r>
        <r>  0.0000  0.0032  0.0001 </r>
        <r>  0.0000  0.0036  0.0004 </r>
        <r>  0.0000  0.0066  0.0001 </r>
        <r>  0.0000  0.0022  0.0001 </r>
        <r>  0.0001  0.0021  0.0005 </r>
        <r>  0.0003  0.0047  0.0015 </r>
        <r>  0.0022  0.0010  0.0014 </r>
        <r>  0.0023  0.0011  0.0029 </r>
        <r>  0.0000  0.0023  0.0003 </r>
        <r>  0.0039  0.0009  0.0018 </r>
        <r>  0.0005  0.0046  0.0013 </r>
        <r>  0.0000  0.0014  0.0010 </r>
        <r>  0.0000  0.0018  0.0005 </r>
        <r>  0.0002  0.0039  0.0007 </r>
        <r>  0.0002  0.0034  0.0006 </r>
        <r>  0.0001  0.0039  0.0004 </r>
        <r>  0.0001  0.0012  0.0006 </r>
        <r>  0.0010  0.0003  0.0010 </r>
        <r>  0.0000  0.0008  0.0011 </r>
        <r>  0.0001  0.0017  0.0006 </r>
        <r>  0.0003  0.0014  0.0019 </r>
        <r>  0.0005  0.0012  0.0009 </r>
        <r>  0.0012  0.0007  0.0022 </r>
        <r>  0.0007  0.0014  0.0009 </r>
        <r>  0.0006  0.0004  0.0008 </r>
        <r>  0.0017  0.0016  0.0013 </r>
        <r>  0.0000  0.0016  0.0010 </r>
       </set>
       <set comment="band 201">
        <r>  0.0012  0.0009  0.0058 </r>
        <r>  0.0022  0.0006  0.0067 </r>
        <r>  0.0030  0.0003  0.0074 </r>
        <r>  0.0080  0.0006  0.0099 </r>
        <r>  0.0019  0.0007  0.0055 </r>
        <r>  0.0041  0.0001  0.0069 </r>
        <r>  0.0002  0.0017  0.0049 </r>
        <r>  0.0029  0.0006  0.0056 </r>
        <r>  0.0001  0.0030  0.0001 </r>
        <r>  0.0000  0.0063  0.0003 </r>
        <r>  0.0000  0.0021  0.0001 </r>
        <r>  0.0000  0.0017  0.0001 </r>
        <r>  0.0000  0.0136  0.0001 </r>
        <r>  0.0000  0.0037  0.0002 </r>
        <r>  0.0000  0.0024  0.0005 </r>
        <r>  0.0000  0.0071  0.0003 </r>
        <r>  0.0019  0.0032  0.0023 </r>
        <r>  0.0018  0.0009  0.0018 </r>
        <r>  0.0000  0.0002  0.0013 </r>
        <r>  0.0006  0.0053  0.0001 </r>
        <r>  0.0004  0.0039  0.0008 </r>
        <r>  0.0001  0.0031  0.0001 </r>
        <r>  0.0026  0.0014  0.0029 </r>
        <r>  0.0000  0.0010  0.0007 </r>
        <r>  0.0008  0.0033  0.0016 </r>
        <r>  0.0026  0.0018  0.0013 </r>
        <r>  0.0004  0.0029  0.0021 </r>
        <r>  0.0005  0.0005  0.0008 </r>
        <r>  0.0003  0.0012  0.0006 </r>
        <r>  0.0000  0.0008  0.0015 </r>
        <r>  0.0000  0.0032  0.0001 </r>
        <r>  0.0009  0.0015  0.0009 </r>
        <r>  0.0007  0.0026  0.0016 </r>
        <r>  0.0006  0.0023  0.0005 </r>
        <r>  0.0001  0.0046  0.0011 </r>
        <r>  0.0002  0.0029  0.0009 </r>
        <r>  0.0002  0.0032  0.0004 </r>
        <r>  0.0004  0.0019  0.0009 </r>
        <r>  0.0004  0.0009  0.0003 </r>
       </set>
       <set comment="band 202">
        <r>  0.0000  0.0007  0.0019 </r>
        <r>  0.0011  0.0003  0.0036 </r>
        <r>  0.0015  0.0008  0.0107 </r>
        <r>  0.0036  0.0007  0.0113 </r>
        <r>  0.0006  0.0003  0.0091 </r>
        <r>  0.0069  0.0002  0.0032 </r>
        <r>  0.0022  0.0013  0.0073 </r>
        <r>  0.0087  0.0016  0.0103 </r>
        <r>  0.0000  0.0022  0.0003 </r>
        <r>  0.0000  0.0048  0.0004 </r>
        <r>  0.0001  0.0161  0.0000 </r>
        <r>  0.0000  0.0026  0.0001 </r>
        <r>  0.0000  0.0010  0.0001 </r>
        <r>  0.0001  0.0005  0.0002 </r>
        <r>  0.0000  0.0063  0.0001 </r>
        <r>  0.0001  0.0020  0.0001 </r>
        <r>  0.0053  0.0027  0.0046 </r>
        <r>  0.0012  0.0016  0.0011 </r>
        <r>  0.0002  0.0010  0.0010 </r>
        <r>  0.0004  0.0093  0.0010 </r>
        <r>  0.0010  0.0064  0.0015 </r>
        <r>  0.0001  0.0006  0.0006 </r>
        <r>  0.0004  0.0045  0.0006 </r>
        <r>  0.0001  0.0013  0.0005 </r>
        <r>  0.0015  0.0021  0.0016 </r>
        <r>  0.0000  0.0006  0.0006 </r>
        <r>  0.0001  0.0017  0.0005 </r>
        <r>  0.0006  0.0008  0.0013 </r>
        <r>  0.0001  0.0045  0.0006 </r>
        <r>  0.0001  0.0002  0.0006 </r>
        <r>  0.0008  0.0004  0.0025 </r>
        <r>  0.0002  0.0008  0.0010 </r>
        <r>  0.0001  0.0071  0.0007 </r>
        <r>  0.0000  0.0011  0.0009 </r>
        <r>  0.0011  0.0009  0.0019 </r>
        <r>  0.0004  0.0003  0.0013 </r>
        <r>  0.0000  0.0027  0.0004 </r>
        <r>  0.0001  0.0008  0.0001 </r>
        <r>  0.0000  0.0009  0.0010 </r>
       </set>
       <set comment="band 203">
        <r>  0.0065  0.0006  0.0130 </r>
        <r>  0.0003  0.0005  0.0075 </r>
        <r>  0.0000  0.0016  0.0224 </r>
        <r>  0.0004  0.0010  0.0113 </r>
        <r>  0.0070  0.0013  0.0045 </r>
        <r>  0.0001  0.0007  0.0128 </r>
        <r>  0.0010  0.0011  0.0126 </r>
        <r>  0.0005  0.0003  0.0030 </r>
        <r>  0.0000  0.0056  0.0003 </r>
        <r>  0.0000  0.0032  0.0004 </r>
        <r>  0.0000  0.0062  0.0002 </r>
        <r>  0.0000  0.0039  0.0000 </r>
        <r>  0.0000  0.0018  0.0002 </r>
        <r>  0.0000  0.0010  0.0002 </r>
        <r>  0.0000  0.0058  0.0002 </r>
        <r>  0.0000  0.0005  0.0002 </r>
        <r>  0.0001  0.0040  0.0014 </r>
        <r>  0.0025  0.0016  0.0034 </r>
        <r>  0.0000  0.0031  0.0016 </r>
        <r>  0.0012  0.0033  0.0010 </r>
        <r>  0.0006  0.0017  0.0007 </r>
        <r>  0.0000  0.0012  0.0009 </r>
        <r>  0.0031  0.0029  0.0027 </r>
        <r>  0.0000  0.0007  0.0008 </r>
        <r>  0.0000  0.0016  0.0001 </r>
        <r>  0.0000  0.0006  0.0008 </r>
        <r>  0.0014  0.0040  0.0004 </r>
        <r>  0.0001  0.0016  0.0006 </r>
        <r>  0.0002  0.0065  0.0032 </r>
        <r>  0.0000  0.0007  0.0009 </r>
        <r>  0.0023  0.0025  0.0021 </r>
        <r>  0.0004  0.0002  0.0010 </r>
        <r>  0.0006  0.0002  0.0016 </r>
        <r>  0.0005  0.0008  0.0007 </r>
        <r>  0.0000  0.0026  0.0019 </r>
        <r>  0.0000  0.0003  0.0007 </r>
        <r>  0.0001  0.0011  0.0002 </r>
        <r>  0.0000  0.0010  0.0007 </r>
        <r>  0.0001  0.0012  0.0008 </r>
       </set>
       <set comment="band 204">
        <r>  0.0011  0.0017  0.0060 </r>
        <r>  0.0001  0.0009  0.0110 </r>
        <r>  0.0005  0.0007  0.0130 </r>
        <r>  0.0005  0.0016  0.0047 </r>
        <r>  0.0049  0.0007  0.0081 </r>
        <r>  0.0058  0.0004  0.0135 </r>
        <r>  0.0020  0.0006  0.0132 </r>
        <r>  0.0000  0.0001  0.0128 </r>
        <r>  0.0000  0.0019  0.0002 </r>
        <r>  0.0002  0.0055  0.0002 </r>
        <r>  0.0000  0.0025  0.0002 </r>
        <r>  0.0001  0.0065  0.0006 </r>
        <r>  0.0000  0.0051  0.0002 </r>
        <r>  0.0005  0.0019  0.0004 </r>
        <r>  0.0000  0.0029  0.0001 </r>
        <r>  0.0001  0.0103  0.0000 </r>
        <r>  0.0009  0.0052  0.0011 </r>
        <r>  0.0000  0.0031  0.0003 </r>
        <r>  0.0001  0.0018  0.0002 </r>
        <r>  0.0011  0.0016  0.0008 </r>
        <r>  0.0025  0.0008  0.0032 </r>
        <r>  0.0015  0.0016  0.0026 </r>
        <r>  0.0003  0.0007  0.0001 </r>
        <r>  0.0006  0.0025  0.0007 </r>
        <r>  0.0005  0.0016  0.0015 </r>
        <r>  0.0023  0.0007  0.0020 </r>
        <r>  0.0001  0.0016  0.0018 </r>
        <r>  0.0007  0.0008  0.0023 </r>
        <r>  0.0001  0.0014  0.0016 </r>
        <r>  0.0000  0.0005  0.0006 </r>
        <r>  0.0007  0.0008  0.0008 </r>
        <r>  0.0000  0.0002  0.0002 </r>
        <r>  0.0008  0.0017  0.0011 </r>
        <r>  0.0000  0.0016  0.0019 </r>
        <r>  0.0000  0.0029  0.0009 </r>
        <r>  0.0001  0.0039  0.0003 </r>
        <r>  0.0003  0.0033  0.0014 </r>
        <r>  0.0002  0.0036  0.0019 </r>
        <r>  0.0000  0.0017  0.0005 </r>
       </set>
       <set comment="band 205">
        <r>  0.0058  0.0008  0.0064 </r>
        <r>  0.0007  0.0006  0.0088 </r>
        <r>  0.0003  0.0001  0.0128 </r>
        <r>  0.0022  0.0007  0.0131 </r>
        <r>  0.0006  0.0007  0.0087 </r>
        <r>  0.0007  0.0005  0.0152 </r>
        <r>  0.0004  0.0003  0.0064 </r>
        <r>  0.0005  0.0010  0.0105 </r>
        <r>  0.0000  0.0048  0.0010 </r>
        <r>  0.0000  0.0010  0.0003 </r>
        <r>  0.0000  0.0007  0.0002 </r>
        <r>  0.0000  0.0115  0.0004 </r>
        <r>  0.0001  0.0036  0.0003 </r>
        <r>  0.0000  0.0085  0.0008 </r>
        <r>  0.0000  0.0056  0.0002 </r>
        <r>  0.0000  0.0144  0.0003 </r>
        <r>  0.0001  0.0023  0.0015 </r>
        <r>  0.0005  0.0011  0.0021 </r>
        <r>  0.0015  0.0007  0.0018 </r>
        <r>  0.0006  0.0005  0.0016 </r>
        <r>  0.0005  0.0021  0.0017 </r>
        <r>  0.0013  0.0033  0.0032 </r>
        <r>  0.0001  0.0002  0.0011 </r>
        <r>  0.0001  0.0069  0.0009 </r>
        <r>  0.0026  0.0007  0.0037 </r>
        <r>  0.0013  0.0009  0.0021 </r>
        <r>  0.0001  0.0008  0.0007 </r>
        <r>  0.0001  0.0005  0.0018 </r>
        <r>  0.0005  0.0013  0.0008 </r>
        <r>  0.0002  0.0015  0.0005 </r>
        <r>  0.0003  0.0016  0.0008 </r>
        <r>  0.0001  0.0021  0.0003 </r>
        <r>  0.0002  0.0021  0.0002 </r>
        <r>  0.0000  0.0028  0.0007 </r>
        <r>  0.0000  0.0006  0.0001 </r>
        <r>  0.0000  0.0015  0.0007 </r>
        <r>  0.0000  0.0039  0.0007 </r>
        <r>  0.0003  0.0021  0.0015 </r>
        <r>  0.0004  0.0022  0.0004 </r>
       </set>
       <set comment="band 206">
        <r>  0.0009  0.0001  0.0060 </r>
        <r>  0.0068  0.0003  0.0057 </r>
        <r>  0.0014  0.0003  0.0058 </r>
        <r>  0.0016  0.0001  0.0154 </r>
        <r>  0.0008  0.0010  0.0183 </r>
        <r>  0.0001  0.0006  0.0104 </r>
        <r>  0.0024  0.0009  0.0168 </r>
        <r>  0.0007  0.0012  0.0095 </r>
        <r>  0.0000  0.0022  0.0002 </r>
        <r>  0.0000  0.0147  0.0003 </r>
        <r>  0.0000  0.0055  0.0007 </r>
        <r>  0.0000  0.0021  0.0002 </r>
        <r>  0.0000  0.0129  0.0001 </r>
        <r>  0.0001  0.0037  0.0001 </r>
        <r>  0.0001  0.0018  0.0006 </r>
        <r>  0.0001  0.0013  0.0003 </r>
        <r>  0.0000  0.0009  0.0008 </r>
        <r>  0.0006  0.0010  0.0007 </r>
        <r>  0.0001  0.0004  0.0006 </r>
        <r>  0.0001  0.0009  0.0018 </r>
        <r>  0.0000  0.0005  0.0010 </r>
        <r>  0.0000  0.0015  0.0002 </r>
        <r>  0.0004  0.0024  0.0015 </r>
        <r>  0.0004  0.0011  0.0009 </r>
        <r>  0.0003  0.0033  0.0011 </r>
        <r>  0.0001  0.0002  0.0014 </r>
        <r>  0.0036  0.0016  0.0054 </r>
        <r>  0.0000  0.0027  0.0003 </r>
        <r>  0.0014  0.0009  0.0012 </r>
        <r>  0.0000  0.0013  0.0002 </r>
        <r>  0.0006  0.0028  0.0022 </r>
        <r>  0.0001  0.0017  0.0005 </r>
        <r>  0.0002  0.0015  0.0016 </r>
        <r>  0.0020  0.0012  0.0029 </r>
        <r>  0.0008  0.0014  0.0022 </r>
        <r>  0.0012  0.0015  0.0011 </r>
        <r>  0.0009  0.0029  0.0011 </r>
        <r>  0.0005  0.0001  0.0008 </r>
        <r>  0.0000  0.0022  0.0006 </r>
       </set>
       <set comment="band 207">
        <r>  0.0002  0.0004  0.0213 </r>
        <r>  0.0006  0.0009  0.0184 </r>
        <r>  0.0001  0.0005  0.0066 </r>
        <r>  0.0003  0.0006  0.0149 </r>
        <r>  0.0000  0.0006  0.0210 </r>
        <r>  0.0010  0.0012  0.0115 </r>
        <r>  0.0016  0.0004  0.0129 </r>
        <r>  0.0004  0.0004  0.0068 </r>
        <r>  0.0001  0.0013  0.0005 </r>
        <r>  0.0000  0.0023  0.0001 </r>
        <r>  0.0000  0.0051  0.0002 </r>
        <r>  0.0001  0.0033  0.0003 </r>
        <r>  0.0000  0.0027  0.0011 </r>
        <r>  0.0002  0.0060  0.0009 </r>
        <r>  0.0000  0.0029  0.0002 </r>
        <r>  0.0001  0.0061  0.0003 </r>
        <r>  0.0004  0.0005  0.0007 </r>
        <r>  0.0001  0.0005  0.0011 </r>
        <r>  0.0005  0.0020  0.0008 </r>
        <r>  0.0000  0.0011  0.0007 </r>
        <r>  0.0003  0.0003  0.0016 </r>
        <r>  0.0002  0.0029  0.0018 </r>
        <r>  0.0002  0.0011  0.0017 </r>
        <r>  0.0002  0.0011  0.0016 </r>
        <r>  0.0000  0.0017  0.0010 </r>
        <r>  0.0028  0.0012  0.0028 </r>
        <r>  0.0004  0.0011  0.0025 </r>
        <r>  0.0009  0.0015  0.0010 </r>
        <r>  0.0002  0.0009  0.0013 </r>
        <r>  0.0006  0.0013  0.0008 </r>
        <r>  0.0004  0.0009  0.0016 </r>
        <r>  0.0002  0.0008  0.0005 </r>
        <r>  0.0001  0.0009  0.0003 </r>
        <r>  0.0002  0.0008  0.0011 </r>
        <r>  0.0003  0.0013  0.0011 </r>
        <r>  0.0005  0.0037  0.0012 </r>
        <r>  0.0004  0.0021  0.0021 </r>
        <r>  0.0006  0.0014  0.0028 </r>
        <r>  0.0001  0.0007  0.0011 </r>
       </set>
       <set comment="band 208">
        <r>  0.0012  0.0004  0.0168 </r>
        <r>  0.0004  0.0012  0.0448 </r>
        <r>  0.0001  0.0008  0.0139 </r>
        <r>  0.0005  0.0003  0.0048 </r>
        <r>  0.0000  0.0017  0.0183 </r>
        <r>  0.0021  0.0003  0.0038 </r>
        <r>  0.0001  0.0001  0.0049 </r>
        <r>  0.0004  0.0004  0.0056 </r>
        <r>  0.0000  0.0028  0.0002 </r>
        <r>  0.0001  0.0012  0.0003 </r>
        <r>  0.0001  0.0052  0.0002 </r>
        <r>  0.0001  0.0025  0.0003 </r>
        <r>  0.0001  0.0011  0.0006 </r>
        <r>  0.0003  0.0060  0.0006 </r>
        <r>  0.0000  0.0086  0.0007 </r>
        <r>  0.0001  0.0056  0.0001 </r>
        <r>  0.0001  0.0007  0.0005 </r>
        <r>  0.0001  0.0012  0.0021 </r>
        <r>  0.0027  0.0021  0.0025 </r>
        <r>  0.0001  0.0008  0.0006 </r>
        <r>  0.0001  0.0019  0.0007 </r>
        <r>  0.0007  0.0006  0.0016 </r>
        <r>  0.0003  0.0015  0.0015 </r>
        <r>  0.0001  0.0015  0.0014 </r>
        <r>  0.0001  0.0010  0.0008 </r>
        <r>  0.0003  0.0017  0.0012 </r>
        <r>  0.0005  0.0040  0.0029 </r>
        <r>  0.0000  0.0009  0.0006 </r>
        <r>  0.0003  0.0008  0.0006 </r>
        <r>  0.0003  0.0008  0.0007 </r>
        <r>  0.0000  0.0011  0.0008 </r>
        <r>  0.0000  0.0007  0.0008 </r>
        <r>  0.0006  0.0011  0.0019 </r>
        <r>  0.0000  0.0010  0.0013 </r>
        <r>  0.0011  0.0028  0.0020 </r>
        <r>  0.0006  0.0011  0.0007 </r>
        <r>  0.0003  0.0028  0.0037 </r>
        <r>  0.0004  0.0008  0.0014 </r>
        <r>  0.0001  0.0006  0.0006 </r>
       </set>
      </set>
     </set>
    </set>
   </array>
  </projected>
 </calculation>
 <structure name="finalpos" >
  <crystal>
   <varray name="basis" >
    <v>       8.45648900       0.00000000       8.04030100 </v>
    <v>       0.00000000      11.72984700       0.00000000 </v>
    <v>      -8.45648900       0.00000000       8.04030100 </v>
   </varray>
   <i name="volume">   1595.08833419 </i>
   <varray name="rec_basis" >
    <v>       0.05912619      -0.00000000       0.06218673 </v>
    <v>       0.00000000       0.08525260      -0.00000000 </v>
    <v>      -0.05912619       0.00000000       0.06218673 </v>
   </varray>
  </crystal>
  <varray name="positions" >
   <v>       0.26412300       0.25697400       0.21109700 </v>
   <v>       0.76911000       0.23515900       0.75717100 </v>
   <v>       0.70708600       0.77655600       0.22614200 </v>
   <v>       0.21380700       0.74846400       0.77675000 </v>
   <v>       0.30288900       0.27225700       0.74229900 </v>
   <v>       0.79103700       0.24200000       0.20809100 </v>
   <v>       0.73699400       0.75021200       0.80734500 </v>
   <v>       0.23256100       0.74204400       0.27767100 </v>
   <v>       0.00693200       0.00128400       0.99768000 </v>
   <v>       0.50214200       0.00891200       0.49183100 </v>
   <v>       0.49269900       0.00475900       0.99287700 </v>
   <v>       0.00808300       0.03799200       0.50539500 </v>
   <v>       0.50119400       0.50292700       0.00135100 </v>
   <v>       0.94544000       0.50027500       0.50258400 </v>
   <v>       0.00012500       0.50178400       0.00867600 </v>
   <v>       0.52044900       0.50511600       0.50224000 </v>
   <v>       0.47774100       0.75357300       0.96767400 </v>
   <v>       0.99783900       0.25184200       0.97652300 </v>
   <v>       0.45050300       0.24057400       0.47328000 </v>
   <v>       0.01671700       0.75235100       0.03433000 </v>
   <v>       0.51787300       0.25280400       0.03299600 </v>
   <v>       0.05539200       0.27651700       0.54079200 </v>
   <v>       0.24839500       0.48549000       0.96347700 </v>
   <v>       0.74801600       0.36778000       0.47706600 </v>
   <v>       0.47105600       0.54332400       0.24991300 </v>
   <v>       0.95121800       0.53049900       0.74746000 </v>
   <v>       0.53919100       0.02728300       0.74510000 </v>
   <v>       0.04557100       0.02751800       0.25379000 </v>
   <v>       0.75477600       0.99655300       0.01813200 </v>
   <v>       0.24596400       0.95294800       0.53668000 </v>
   <v>       0.24937200       0.03029000       0.93394600 </v>
   <v>       0.75053300       0.03220500       0.44405200 </v>
   <v>       0.44589200       0.96755200       0.24314900 </v>
   <v>       0.95756400       0.96263100       0.74239800 </v>
   <v>       0.75286200       0.52206200       0.05225900 </v>
   <v>       0.27573600       0.56274500       0.53775800 </v>
   <v>       0.55757500       0.46779600       0.75410300 </v>
   <v>       0.03749300       0.47275600       0.25818000 </v>
   <v>       0.69781800       0.68619300       0.51209300 </v>
  </varray>
 </structure>
</modeling>
