CsPbBr3 cubic bulk                      
           1
     8.456489    0.000000    8.040301
     0.000000   11.729847    0.000000
    -8.456489    0.000000    8.040301
   Cs   Pb   Br
   8   8  23
Direct configuration=     1
   0.26412300  0.25697400  0.21109700
   0.76911000  0.23515900  0.75717100
   0.70708600  0.77655600  0.22614200
   0.21380700  0.74846400  0.77675000
   0.30288900  0.27225700  0.74229900
   0.79103700  0.24200000  0.20809100
   0.73699400  0.75021200  0.80734500
   0.23256100  0.74204400  0.27767100
   0.00693200  0.00128400  0.99768000
   0.50214200  0.00891200  0.49183100
   0.49269900  0.00475900  0.99287700
   0.00808300  0.03799200  0.50539500
   0.50119400  0.50292700  0.00135100
   0.94544000  0.50027500  0.50258400
   0.00012500  0.50178400  0.00867600
   0.52044900  0.50511600  0.50224000
   0.47774100  0.75357300  0.96767400
   0.99783900  0.25184200  0.97652300
   0.45050300  0.24057400  0.47328000
   0.01671700  0.75235100  0.03433000
   0.51787300  0.25280400  0.03299600
   0.05539200  0.27651700  0.54079200
   0.24839500  0.48549000  0.96347700
   0.74801600  0.36778000  0.47706600
   0.47105600  0.54332400  0.24991300
   0.95121800  0.53049900  0.74746000
   0.53919100  0.02728300  0.74510000
   0.04557100  0.02751800  0.25379000
   0.75477600  0.99655300  0.01813200
   0.24596400  0.95294800  0.53668000
   0.24937200  0.03029000  0.93394600
   0.75053300  0.03220500  0.44405200
   0.44589200  0.96755200  0.24314900
   0.95756400  0.96263100  0.74239800
   0.75286200  0.52206200  0.05225900
   0.27573600  0.56274500  0.53775800
   0.55757500  0.46779600  0.75410300
   0.03749300  0.47275600  0.25818000
   0.69781800  0.68619300  0.51209300
