  10  10   1   0
  0.4043468E+02  0.8278140E-09  0.8293842E-09  0.8428956E-09  0.5000000E-15
   1.0000000000000000E-004
  CAR 
 CsPbBr3 cubic bulk                      
      8.57985055    -22.29076862  301      0.66925439      1.00000000
    -22.291  0.0000E+00  0.0000E+00
    -22.188  0.0000E+00  0.0000E+00
    -22.085  0.0000E+00  0.0000E+00
    -21.982  0.0000E+00  0.0000E+00
    -21.879  0.0000E+00  0.0000E+00
    -21.776  0.0000E+00  0.0000E+00
    -21.673  0.0000E+00  0.0000E+00
    -21.570  0.0000E+00  0.0000E+00
    -21.468  0.0000E+00  0.0000E+00
    -21.365  0.0000E+00  0.0000E+00
    -21.262  0.0000E+00  0.0000E+00
    -21.159  0.0000E+00  0.0000E+00
    -21.056  0.0000E+00  0.0000E+00
    -20.953  0.0000E+00  0.0000E+00
    -20.850  0.3887E+02  0.4000E+01
    -20.747  0.0000E+00  0.4000E+01
    -20.644  0.0000E+00  0.4000E+01
    -20.541  0.0000E+00  0.4000E+01
    -20.439  0.0000E+00  0.4000E+01
    -20.336  0.0000E+00  0.4000E+01
    -20.233  0.0000E+00  0.4000E+01
    -20.130  0.0000E+00  0.4000E+01
    -20.027  0.0000E+00  0.4000E+01
    -19.924  0.0000E+00  0.4000E+01
    -19.821  0.0000E+00  0.4000E+01
    -19.718  0.0000E+00  0.4000E+01
    -19.615  0.0000E+00  0.4000E+01
    -19.512  0.0000E+00  0.4000E+01
    -19.410  0.0000E+00  0.4000E+01
    -19.307  0.0000E+00  0.4000E+01
    -19.204  0.0000E+00  0.4000E+01
    -19.101  0.0000E+00  0.4000E+01
    -18.998  0.0000E+00  0.4000E+01
    -18.895  0.0000E+00  0.4000E+01
    -18.792  0.0000E+00  0.4000E+01
    -18.689  0.0000E+00  0.4000E+01
    -18.586  0.0000E+00  0.4000E+01
    -18.483  0.0000E+00  0.4000E+01
    -18.380  0.0000E+00  0.4000E+01
    -18.278  0.0000E+00  0.4000E+01
    -18.175  0.0000E+00  0.4000E+01
    -18.072  0.0000E+00  0.4000E+01
    -17.969  0.0000E+00  0.4000E+01
    -17.866  0.0000E+00  0.4000E+01
    -17.763  0.0000E+00  0.4000E+01
    -17.660  0.0000E+00  0.4000E+01
    -17.557  0.0000E+00  0.4000E+01
    -17.454  0.0000E+00  0.4000E+01
    -17.351  0.0000E+00  0.4000E+01
    -17.249  0.0000E+00  0.4000E+01
    -17.146  0.0000E+00  0.4000E+01
    -17.043  0.0000E+00  0.4000E+01
    -16.940  0.0000E+00  0.4000E+01
    -16.837  0.0000E+00  0.4000E+01
    -16.734  0.0000E+00  0.4000E+01
    -16.631  0.0000E+00  0.4000E+01
    -16.528  0.0000E+00  0.4000E+01
    -16.425  0.5699E+01  0.4586E+01
    -16.322  0.4312E+02  0.1199E+02
    -16.220  0.1166E+03  0.2400E+02
    -16.117  0.0000E+00  0.2400E+02
    -16.014  0.0000E+00  0.2400E+02
    -15.911  0.0000E+00  0.2400E+02
    -15.808  0.0000E+00  0.2400E+02
    -15.705  0.0000E+00  0.2400E+02
    -15.602  0.0000E+00  0.2400E+02
    -15.499  0.0000E+00  0.2400E+02
    -15.396  0.0000E+00  0.2400E+02
    -15.293  0.0000E+00  0.2400E+02
    -15.191  0.0000E+00  0.2400E+02
    -15.088  0.0000E+00  0.2400E+02
    -14.985  0.0000E+00  0.2400E+02
    -14.882  0.0000E+00  0.2400E+02
    -14.779  0.0000E+00  0.2400E+02
    -14.676  0.0000E+00  0.2400E+02
    -14.573  0.0000E+00  0.2400E+02
    -14.470  0.0000E+00  0.2400E+02
    -14.367  0.7666E-01  0.2401E+02
    -14.264  0.5891E+01  0.2468E+02
    -14.162  0.5907E+01  0.2572E+02
    -14.059  0.1319E+02  0.2751E+02
    -13.956  0.2451E+02  0.3023E+02
    -13.853  0.1016E+02  0.3245E+02
    -13.750  0.2310E+02  0.3541E+02
    -13.647  0.3599E+01  0.3600E+02
    -13.544  0.0000E+00  0.3600E+02
    -13.441  0.0000E+00  0.3600E+02
    -13.338  0.0000E+00  0.3600E+02
    -13.235  0.0000E+00  0.3600E+02
    -13.132  0.0000E+00  0.3600E+02
    -13.030  0.0000E+00  0.3600E+02
    -12.927  0.0000E+00  0.3600E+02
    -12.824  0.0000E+00  0.3600E+02
    -12.721  0.0000E+00  0.3600E+02
    -12.618  0.0000E+00  0.3600E+02
    -12.515  0.0000E+00  0.3600E+02
    -12.412  0.0000E+00  0.3600E+02
    -12.309  0.0000E+00  0.3600E+02
    -12.206  0.0000E+00  0.3600E+02
    -12.103  0.0000E+00  0.3600E+02
    -12.001  0.0000E+00  0.3600E+02
    -11.898  0.0000E+00  0.3600E+02
    -11.795  0.0000E+00  0.3600E+02
    -11.692  0.0000E+00  0.3600E+02
    -11.589  0.0000E+00  0.3600E+02
    -11.486  0.0000E+00  0.3600E+02
    -11.383  0.0000E+00  0.3600E+02
    -11.280  0.0000E+00  0.3600E+02
    -11.177  0.0000E+00  0.3600E+02
    -11.074  0.0000E+00  0.3600E+02
    -10.972  0.0000E+00  0.3600E+02
    -10.869  0.0000E+00  0.3600E+02
    -10.766  0.0000E+00  0.3600E+02
    -10.663  0.0000E+00  0.3600E+02
    -10.560  0.0000E+00  0.3600E+02
    -10.457  0.0000E+00  0.3600E+02
    -10.354  0.0000E+00  0.3600E+02
    -10.251  0.0000E+00  0.3600E+02
    -10.148  0.0000E+00  0.3600E+02
    -10.045  0.0000E+00  0.3600E+02
     -9.943  0.0000E+00  0.3600E+02
     -9.840  0.0000E+00  0.3600E+02
     -9.737  0.0000E+00  0.3600E+02
     -9.634  0.0000E+00  0.3600E+02
     -9.531  0.0000E+00  0.3600E+02
     -9.428  0.0000E+00  0.3600E+02
     -9.325  0.0000E+00  0.3600E+02
     -9.222  0.0000E+00  0.3600E+02
     -9.119  0.0000E+00  0.3600E+02
     -9.016  0.0000E+00  0.3600E+02
     -8.914  0.0000E+00  0.3600E+02
     -8.811  0.0000E+00  0.3600E+02
     -8.708  0.0000E+00  0.3600E+02
     -8.605  0.0000E+00  0.3600E+02
     -8.502  0.0000E+00  0.3600E+02
     -8.399  0.0000E+00  0.3600E+02
     -8.296  0.0000E+00  0.3600E+02
     -8.193  0.1662E+00  0.3602E+02
     -8.090  0.0000E+00  0.3607E+02
     -7.987  0.0000E+00  0.3607E+02
     -7.884  0.6500E-04  0.3607E+02
     -7.782  0.1008E+02  0.3711E+02
     -7.679  0.0000E+00  0.3711E+02
     -7.576  0.0000E+00  0.3711E+02
     -7.473  0.1392E+01  0.3725E+02
     -7.370  0.8638E+01  0.3889E+02
     -7.267  0.4799E+02  0.4383E+02
     -7.164  0.1152E+02  0.5089E+02
     -7.061  0.4810E-04  0.5089E+02
     -6.958  0.1007E+02  0.5193E+02
     -6.855  0.0000E+00  0.5193E+02
     -6.753  0.0000E+00  0.5193E+02
     -6.650  0.0000E+00  0.5193E+02
     -6.547  0.0000E+00  0.5193E+02
     -6.444  0.7198E+00  0.5200E+02
     -6.341  0.0000E+00  0.5200E+02
     -6.238  0.0000E+00  0.5200E+02
     -6.135  0.0000E+00  0.5200E+02
     -6.032  0.0000E+00  0.5200E+02
     -5.929  0.0000E+00  0.5200E+02
     -5.826  0.0000E+00  0.5200E+02
     -5.724  0.0000E+00  0.5200E+02
     -5.621  0.0000E+00  0.5200E+02
     -5.518  0.0000E+00  0.5200E+02
     -5.415  0.0000E+00  0.5200E+02
     -5.312  0.0000E+00  0.5200E+02
     -5.209  0.0000E+00  0.5200E+02
     -5.106  0.0000E+00  0.5200E+02
     -5.003  0.0000E+00  0.5200E+02
     -4.900  0.0000E+00  0.5200E+02
     -4.797  0.0000E+00  0.5200E+02
     -4.695  0.0000E+00  0.5200E+02
     -4.592  0.0000E+00  0.5200E+02
     -4.489  0.0000E+00  0.5200E+02
     -4.386  0.0000E+00  0.5200E+02
     -4.283  0.0000E+00  0.5200E+02
     -4.180  0.0000E+00  0.5200E+02
     -4.077  0.0000E+00  0.5200E+02
     -3.974  0.0000E+00  0.5200E+02
     -3.871  0.0000E+00  0.5200E+02
     -3.768  0.0000E+00  0.5200E+02
     -3.665  0.0000E+00  0.5200E+02
     -3.563  0.0000E+00  0.5200E+02
     -3.460  0.1079E-14  0.5200E+02
     -3.357  0.7202E+00  0.5207E+02
     -3.254  0.4964E+01  0.5258E+02
     -3.151  0.1075E+02  0.5370E+02
     -3.048  0.2881E+01  0.5400E+02
     -2.945  0.3174E+01  0.5462E+02
     -2.842  0.8751E+01  0.5594E+02
     -2.739  0.1463E+01  0.5622E+02
     -2.636  0.8638E+01  0.5770E+02
     -2.534  0.2879E+01  0.5800E+02
     -2.431  0.0000E+00  0.5800E+02
     -2.328  0.0000E+00  0.5800E+02
     -2.225  0.2638E+01  0.5827E+02
     -2.122  0.1335E+02  0.6026E+02
     -2.019  0.1689E+02  0.6226E+02
     -1.916  0.1056E+02  0.6338E+02
     -1.813  0.5797E-05  0.6356E+02
     -1.710  0.2562E+02  0.6619E+02
     -1.607  0.5657E+01  0.6710E+02
     -1.505  0.9495E+01  0.6824E+02
     -1.402  0.2169E+02  0.7075E+02
     -1.299  0.3059E+02  0.7507E+02
     -1.196  0.2213E+02  0.7769E+02
     -1.093  0.2205E+02  0.8108E+02
     -0.990  0.1442E+02  0.8326E+02
     -0.887  0.7082E+01  0.8436E+02
     -0.784  0.1262E+01  0.8494E+02
     -0.681  0.1441E+01  0.8526E+02
     -0.578  0.9887E+01  0.8628E+02
     -0.476  0.5802E+01  0.8689E+02
     -0.373  0.1110E+01  0.8730E+02
     -0.270  0.0000E+00  0.8748E+02
     -0.167  0.0000E+00  0.8748E+02
     -0.064  0.9583E-02  0.8748E+02
      0.039  0.2879E+01  0.8793E+02
      0.142  0.0000E+00  0.8793E+02
      0.245  0.0000E+00  0.8793E+02
      0.348  0.0000E+00  0.8793E+02
      0.451  0.0000E+00  0.8793E+02
      0.553  0.6623E+00  0.8799E+02
      0.656  0.0000E+00  0.8800E+02
      0.759  0.0000E+00  0.8800E+02
      0.862  0.0000E+00  0.8800E+02
      0.965  0.0000E+00  0.8800E+02
      1.068  0.0000E+00  0.8800E+02
      1.171  0.0000E+00  0.8800E+02
      1.274  0.0000E+00  0.8800E+02
      1.377  0.0000E+00  0.8800E+02
      1.480  0.0000E+00  0.8800E+02
      1.583  0.0000E+00  0.8800E+02
      1.685  0.0000E+00  0.8800E+02
      1.788  0.0000E+00  0.8800E+02
      1.891  0.0000E+00  0.8800E+02
      1.994  0.0000E+00  0.8800E+02
      2.097  0.0000E+00  0.8800E+02
      2.200  0.0000E+00  0.8800E+02
      2.303  0.0000E+00  0.8800E+02
      2.406  0.0000E+00  0.8800E+02
      2.509  0.0000E+00  0.8800E+02
      2.612  0.0000E+00  0.8800E+02
      2.714  0.9139E-09  0.8800E+02
      2.817  0.1440E+01  0.8815E+02
      2.920  0.7199E+00  0.8822E+02
      3.023  0.1044E-01  0.8822E+02
      3.126  0.5572E+01  0.8894E+02
      3.229  0.0000E+00  0.8911E+02
      3.332  0.4403E-01  0.8912E+02
      3.435  0.5759E+01  0.9000E+02
      3.538  0.0000E+00  0.9000E+02
      3.641  0.3808E-01  0.9000E+02
      3.743  0.5575E+01  0.9087E+02
      3.846  0.2879E+01  0.9119E+02
      3.949  0.5736E+01  0.9178E+02
      4.052  0.8147E+01  0.9262E+02
      4.155  0.8326E+01  0.9352E+02
      4.258  0.8703E-13  0.9356E+02
      4.361  0.4319E+01  0.9400E+02
      4.464  0.0000E+00  0.9400E+02
      4.567  0.0000E+00  0.9400E+02
      4.670  0.9957E-12  0.9400E+02
      4.772  0.7199E+00  0.9407E+02
      4.875  0.0000E+00  0.9407E+02
      4.978  0.1097E+01  0.9419E+02
      5.081  0.2879E+01  0.9467E+02
      5.184  0.4319E+01  0.9511E+02
      5.287  0.9403E+01  0.9608E+02
      5.390  0.2882E+01  0.9689E+02
      5.493  0.4421E+01  0.9749E+02
      5.596  0.2168E-08  0.9778E+02
      5.699  0.5759E+01  0.9837E+02
      5.801  0.2106E+01  0.9859E+02
      5.904  0.8678E+01  0.9949E+02
      6.007  0.4319E+01  0.1002E+03
      6.110  0.3599E+01  0.1006E+03
      6.213  0.2913E+01  0.1009E+03
      6.316  0.1225E+02  0.1026E+03
      6.419  0.5291E+01  0.1034E+03
      6.522  0.1084E+02  0.1050E+03
      6.625  0.3297E+01  0.1055E+03
      6.728  0.9688E+01  0.1067E+03
      6.831  0.1919E+02  0.1093E+03
      6.933  0.7584E+01  0.1103E+03
      7.036  0.7199E+01  0.1114E+03
      7.139  0.4319E+01  0.1119E+03
      7.242  0.1440E+01  0.1120E+03
      7.345  0.0000E+00  0.1120E+03
      7.448  0.0000E+00  0.1120E+03
      7.551  0.0000E+00  0.1120E+03
      7.654  0.0000E+00  0.1120E+03
      7.757  0.0000E+00  0.1120E+03
      7.860  0.0000E+00  0.1120E+03
      7.962  0.0000E+00  0.1120E+03
      8.065  0.0000E+00  0.1120E+03
      8.168  0.0000E+00  0.1120E+03
      8.271  0.0000E+00  0.1120E+03
      8.374  0.0000E+00  0.1120E+03
      8.477  0.0000E+00  0.1120E+03
      8.580  0.0000E+00  0.1120E+03
      8.57985055    -22.29076862  301      0.66925439      1.00000000
    -22.291  0.0000E+00  0.0000E+00  0.0000E+00
    -22.188  0.0000E+00  0.0000E+00  0.0000E+00
    -22.085  0.0000E+00  0.0000E+00  0.0000E+00
    -21.982  0.0000E+00  0.0000E+00  0.0000E+00
    -21.879  0.0000E+00  0.0000E+00  0.0000E+00
    -21.776  0.0000E+00  0.0000E+00  0.0000E+00
    -21.673  0.0000E+00  0.0000E+00  0.0000E+00
    -21.570  0.0000E+00  0.0000E+00  0.0000E+00
    -21.468  0.0000E+00  0.0000E+00  0.0000E+00
    -21.365  0.0000E+00  0.0000E+00  0.0000E+00
    -21.262  0.0000E+00  0.0000E+00  0.0000E+00
    -21.159  0.0000E+00  0.0000E+00  0.0000E+00
    -21.056  0.0000E+00  0.0000E+00  0.0000E+00
    -20.953  0.0000E+00  0.0000E+00  0.0000E+00
    -20.850  0.1725E+02  0.1815E-04  0.3606E-05
    -20.747  0.0000E+00  0.0000E+00  0.0000E+00
    -20.644  0.0000E+00  0.0000E+00  0.0000E+00
    -20.541  0.0000E+00  0.0000E+00  0.0000E+00
    -20.439  0.0000E+00  0.0000E+00  0.0000E+00
    -20.336  0.0000E+00  0.0000E+00  0.0000E+00
    -20.233  0.0000E+00  0.0000E+00  0.0000E+00
    -20.130  0.0000E+00  0.0000E+00  0.0000E+00
    -20.027  0.0000E+00  0.0000E+00  0.0000E+00
    -19.924  0.0000E+00  0.0000E+00  0.0000E+00
    -19.821  0.0000E+00  0.0000E+00  0.0000E+00
    -19.718  0.0000E+00  0.0000E+00  0.0000E+00
    -19.615  0.0000E+00  0.0000E+00  0.0000E+00
    -19.512  0.0000E+00  0.0000E+00  0.0000E+00
    -19.410  0.0000E+00  0.0000E+00  0.0000E+00
    -19.307  0.0000E+00  0.0000E+00  0.0000E+00
    -19.204  0.0000E+00  0.0000E+00  0.0000E+00
    -19.101  0.0000E+00  0.0000E+00  0.0000E+00
    -18.998  0.0000E+00  0.0000E+00  0.0000E+00
    -18.895  0.0000E+00  0.0000E+00  0.0000E+00
    -18.792  0.0000E+00  0.0000E+00  0.0000E+00
    -18.689  0.0000E+00  0.0000E+00  0.0000E+00
    -18.586  0.0000E+00  0.0000E+00  0.0000E+00
    -18.483  0.0000E+00  0.0000E+00  0.0000E+00
    -18.380  0.0000E+00  0.0000E+00  0.0000E+00
    -18.278  0.0000E+00  0.0000E+00  0.0000E+00
    -18.175  0.0000E+00  0.0000E+00  0.0000E+00
    -18.072  0.0000E+00  0.0000E+00  0.0000E+00
    -17.969  0.0000E+00  0.0000E+00  0.0000E+00
    -17.866  0.0000E+00  0.0000E+00  0.0000E+00
    -17.763  0.0000E+00  0.0000E+00  0.0000E+00
    -17.660  0.0000E+00  0.0000E+00  0.0000E+00
    -17.557  0.0000E+00  0.0000E+00  0.0000E+00
    -17.454  0.0000E+00  0.0000E+00  0.0000E+00
    -17.351  0.0000E+00  0.0000E+00  0.0000E+00
    -17.249  0.0000E+00  0.0000E+00  0.0000E+00
    -17.146  0.0000E+00  0.0000E+00  0.0000E+00
    -17.043  0.0000E+00  0.0000E+00  0.0000E+00
    -16.940  0.0000E+00  0.0000E+00  0.0000E+00
    -16.837  0.0000E+00  0.0000E+00  0.0000E+00
    -16.734  0.0000E+00  0.0000E+00  0.0000E+00
    -16.631  0.0000E+00  0.0000E+00  0.0000E+00
    -16.528  0.0000E+00  0.0000E+00  0.0000E+00
    -16.425  0.2440E-04  0.1063E-04  0.2084E-05
    -16.322  0.1849E-04  0.5691E-04  0.6764E-05
    -16.220  0.3192E-04  0.1939E-04  0.2151E-05
    -16.117  0.0000E+00  0.0000E+00  0.0000E+00
    -16.014  0.0000E+00  0.0000E+00  0.0000E+00
    -15.911  0.0000E+00  0.0000E+00  0.0000E+00
    -15.808  0.0000E+00  0.0000E+00  0.0000E+00
    -15.705  0.0000E+00  0.0000E+00  0.0000E+00
    -15.602  0.0000E+00  0.0000E+00  0.0000E+00
    -15.499  0.0000E+00  0.0000E+00  0.0000E+00
    -15.396  0.0000E+00  0.0000E+00  0.0000E+00
    -15.293  0.0000E+00  0.0000E+00  0.0000E+00
    -15.191  0.0000E+00  0.0000E+00  0.0000E+00
    -15.088  0.0000E+00  0.0000E+00  0.0000E+00
    -14.985  0.0000E+00  0.0000E+00  0.0000E+00
    -14.882  0.0000E+00  0.0000E+00  0.0000E+00
    -14.779  0.0000E+00  0.0000E+00  0.0000E+00
    -14.676  0.0000E+00  0.0000E+00  0.0000E+00
    -14.573  0.0000E+00  0.0000E+00  0.0000E+00
    -14.470  0.0000E+00  0.0000E+00  0.0000E+00
    -14.367  0.5197E-04  0.6898E-06  0.6711E-07
    -14.264  0.2273E-02  0.1049E-02  0.3144E-04
    -14.162  0.7978E-03  0.1782E-02  0.6423E-04
    -14.059  0.3585E-03  0.4234E-02  0.2075E-03
    -13.956  0.1855E-02  0.4705E-02  0.4195E-03
    -13.853  0.5384E-03  0.1964E-02  0.1832E-03
    -13.750  0.1361E-02  0.3025E-02  0.3768E-03
    -13.647  0.3688E-03  0.5314E-03  0.4183E-04
    -13.544  0.0000E+00  0.0000E+00  0.0000E+00
    -13.441  0.0000E+00  0.0000E+00  0.0000E+00
    -13.338  0.0000E+00  0.0000E+00  0.0000E+00
    -13.235  0.0000E+00  0.0000E+00  0.0000E+00
    -13.132  0.0000E+00  0.0000E+00  0.0000E+00
    -13.030  0.0000E+00  0.0000E+00  0.0000E+00
    -12.927  0.0000E+00  0.0000E+00  0.0000E+00
    -12.824  0.0000E+00  0.0000E+00  0.0000E+00
    -12.721  0.0000E+00  0.0000E+00  0.0000E+00
    -12.618  0.0000E+00  0.0000E+00  0.0000E+00
    -12.515  0.0000E+00  0.0000E+00  0.0000E+00
    -12.412  0.0000E+00  0.0000E+00  0.0000E+00
    -12.309  0.0000E+00  0.0000E+00  0.0000E+00
    -12.206  0.0000E+00  0.0000E+00  0.0000E+00
    -12.103  0.0000E+00  0.0000E+00  0.0000E+00
    -12.001  0.0000E+00  0.0000E+00  0.0000E+00
    -11.898  0.0000E+00  0.0000E+00  0.0000E+00
    -11.795  0.0000E+00  0.0000E+00  0.0000E+00
    -11.692  0.0000E+00  0.0000E+00  0.0000E+00
    -11.589  0.0000E+00  0.0000E+00  0.0000E+00
    -11.486  0.0000E+00  0.0000E+00  0.0000E+00
    -11.383  0.0000E+00  0.0000E+00  0.0000E+00
    -11.280  0.0000E+00  0.0000E+00  0.0000E+00
    -11.177  0.0000E+00  0.0000E+00  0.0000E+00
    -11.074  0.0000E+00  0.0000E+00  0.0000E+00
    -10.972  0.0000E+00  0.0000E+00  0.0000E+00
    -10.869  0.0000E+00  0.0000E+00  0.0000E+00
    -10.766  0.0000E+00  0.0000E+00  0.0000E+00
    -10.663  0.0000E+00  0.0000E+00  0.0000E+00
    -10.560  0.0000E+00  0.0000E+00  0.0000E+00
    -10.457  0.0000E+00  0.0000E+00  0.0000E+00
    -10.354  0.0000E+00  0.0000E+00  0.0000E+00
    -10.251  0.0000E+00  0.0000E+00  0.0000E+00
    -10.148  0.0000E+00  0.0000E+00  0.0000E+00
    -10.045  0.0000E+00  0.0000E+00  0.0000E+00
     -9.943  0.0000E+00  0.0000E+00  0.0000E+00
     -9.840  0.0000E+00  0.0000E+00  0.0000E+00
     -9.737  0.0000E+00  0.0000E+00  0.0000E+00
     -9.634  0.0000E+00  0.0000E+00  0.0000E+00
     -9.531  0.0000E+00  0.0000E+00  0.0000E+00
     -9.428  0.0000E+00  0.0000E+00  0.0000E+00
     -9.325  0.0000E+00  0.0000E+00  0.0000E+00
     -9.222  0.0000E+00  0.0000E+00  0.0000E+00
     -9.119  0.0000E+00  0.0000E+00  0.0000E+00
     -9.016  0.0000E+00  0.0000E+00  0.0000E+00
     -8.914  0.0000E+00  0.0000E+00  0.0000E+00
     -8.811  0.0000E+00  0.0000E+00  0.0000E+00
     -8.708  0.0000E+00  0.0000E+00  0.0000E+00
     -8.605  0.0000E+00  0.0000E+00  0.0000E+00
     -8.502  0.0000E+00  0.0000E+00  0.0000E+00
     -8.399  0.0000E+00  0.0000E+00  0.0000E+00
     -8.296  0.0000E+00  0.0000E+00  0.0000E+00
     -8.193  0.2865E-15  0.2201E-05  0.4157E-07
     -8.090  0.0000E+00  0.0000E+00  0.0000E+00
     -7.987  0.0000E+00  0.0000E+00  0.0000E+00
     -7.884  0.3156E-11  0.2103E-06  0.2452E-09
     -7.782  0.1197E-04  0.2944E-01  0.2120E-04
     -7.679  0.0000E+00  0.0000E+00  0.0000E+00
     -7.576  0.0000E+00  0.0000E+00  0.0000E+00
     -7.473  0.1552E-05  0.5940E-01  0.1255E-04
     -7.370  0.1412E-04  0.1861E+00  0.6346E-04
     -7.267  0.1325E-04  0.1830E+02  0.3363E-04
     -7.164  0.5977E-05  0.4105E+01  0.9308E-05
     -7.061  0.6836E-09  0.6386E-06  0.5790E-09
     -6.958  0.1378E-03  0.7558E-01  0.9987E-04
     -6.855  0.0000E+00  0.0000E+00  0.0000E+00
     -6.753  0.0000E+00  0.0000E+00  0.0000E+00
     -6.650  0.0000E+00  0.0000E+00  0.0000E+00
     -6.547  0.0000E+00  0.0000E+00  0.0000E+00
     -6.444  0.2178E-04  0.1016E-03  0.3073E-05
     -6.341  0.0000E+00  0.0000E+00  0.0000E+00
     -6.238  0.0000E+00  0.0000E+00  0.0000E+00
     -6.135  0.0000E+00  0.0000E+00  0.0000E+00
     -6.032  0.0000E+00  0.0000E+00  0.0000E+00
     -5.929  0.0000E+00  0.0000E+00  0.0000E+00
     -5.826  0.0000E+00  0.0000E+00  0.0000E+00
     -5.724  0.0000E+00  0.0000E+00  0.0000E+00
     -5.621  0.0000E+00  0.0000E+00  0.0000E+00
     -5.518  0.0000E+00  0.0000E+00  0.0000E+00
     -5.415  0.0000E+00  0.0000E+00  0.0000E+00
     -5.312  0.0000E+00  0.0000E+00  0.0000E+00
     -5.209  0.0000E+00  0.0000E+00  0.0000E+00
     -5.106  0.0000E+00  0.0000E+00  0.0000E+00
     -5.003  0.0000E+00  0.0000E+00  0.0000E+00
     -4.900  0.0000E+00  0.0000E+00  0.0000E+00
     -4.797  0.0000E+00  0.0000E+00  0.0000E+00
     -4.695  0.0000E+00  0.0000E+00  0.0000E+00
     -4.592  0.0000E+00  0.0000E+00  0.0000E+00
     -4.489  0.0000E+00  0.0000E+00  0.0000E+00
     -4.386  0.0000E+00  0.0000E+00  0.0000E+00
     -4.283  0.0000E+00  0.0000E+00  0.0000E+00
     -4.180  0.0000E+00  0.0000E+00  0.0000E+00
     -4.077  0.0000E+00  0.0000E+00  0.0000E+00
     -3.974  0.0000E+00  0.0000E+00  0.0000E+00
     -3.871  0.0000E+00  0.0000E+00  0.0000E+00
     -3.768  0.0000E+00  0.0000E+00  0.0000E+00
     -3.665  0.0000E+00  0.0000E+00  0.0000E+00
     -3.563  0.0000E+00  0.0000E+00  0.0000E+00
     -3.460  0.2404E-20  0.5384E-17  0.4348E-19
     -3.357  0.1604E-05  0.3593E-02  0.2908E-04
     -3.254  0.4674E-05  0.9662E-02  0.8326E-03
     -3.151  0.4838E-05  0.1147E-01  0.1671E-02
     -3.048  0.5308E-08  0.1170E-02  0.3855E-03
     -2.945  0.1022E-03  0.9672E-02  0.3062E-03
     -2.842  0.1782E-03  0.1316E-01  0.1624E-02
     -2.739  0.3621E-06  0.1832E-02  0.2859E-03
     -2.636  0.8394E-03  0.7943E-02  0.1342E-02
     -2.534  0.5422E-03  0.3628E-02  0.8420E-03
     -2.431  0.0000E+00  0.0000E+00  0.0000E+00
     -2.328  0.0000E+00  0.0000E+00  0.0000E+00
     -2.225  0.2143E-03  0.9635E-02  0.4629E-03
     -2.122  0.8185E-02  0.3846E-01  0.2894E-02
     -2.019  0.2091E-01  0.3777E-01  0.6000E-02
     -1.916  0.1500E-01  0.3364E-01  0.2843E-02
     -1.813  0.2527E-08  0.2771E-07  0.3660E-08
     -1.710  0.3784E-02  0.1971E+00  0.1700E-01
     -1.607  0.1074E-03  0.4021E-01  0.3767E-02
     -1.505  0.2205E-02  0.4999E-01  0.6686E-02
     -1.402  0.2140E-02  0.5631E-01  0.1400E-01
     -1.299  0.8629E-02  0.6470E-01  0.1836E-01
     -1.196  0.2887E-02  0.6537E-01  0.1271E-01
     -1.093  0.1369E-02  0.3608E-01  0.1279E-01
     -0.990  0.6563E-03  0.3598E-01  0.6702E-02
     -0.887  0.5245E-03  0.1603E-01  0.4542E-02
     -0.784  0.9265E-05  0.3263E-02  0.6797E-03
     -0.681  0.3850E-03  0.3951E-02  0.7790E-04
     -0.578  0.3434E-03  0.7209E-02  0.1848E-02
     -0.476  0.9786E-04  0.2097E-02  0.5356E-03
     -0.373  0.8385E-05  0.2958E-03  0.3387E-04
     -0.270  0.0000E+00  0.0000E+00  0.0000E+00
     -0.167  0.0000E+00  0.0000E+00  0.0000E+00
     -0.064  0.1070E-06  0.2525E-05  0.2440E-05
      0.039  0.1913E-11  0.3529E-03  0.5096E-03
      0.142  0.0000E+00  0.0000E+00  0.0000E+00
      0.245  0.0000E+00  0.0000E+00  0.0000E+00
      0.348  0.0000E+00  0.0000E+00  0.0000E+00
      0.451  0.0000E+00  0.0000E+00  0.0000E+00
      0.553  0.4040E-15  0.8830E-06  0.3786E-06
      0.656  0.0000E+00  0.0000E+00  0.0000E+00
      0.759  0.0000E+00  0.0000E+00  0.0000E+00
      0.862  0.0000E+00  0.0000E+00  0.0000E+00
      0.965  0.0000E+00  0.0000E+00  0.0000E+00
      1.068  0.0000E+00  0.0000E+00  0.0000E+00
      1.171  0.0000E+00  0.0000E+00  0.0000E+00
      1.274  0.0000E+00  0.0000E+00  0.0000E+00
      1.377  0.0000E+00  0.0000E+00  0.0000E+00
      1.480  0.0000E+00  0.0000E+00  0.0000E+00
      1.583  0.0000E+00  0.0000E+00  0.0000E+00
      1.685  0.0000E+00  0.0000E+00  0.0000E+00
      1.788  0.0000E+00  0.0000E+00  0.0000E+00
      1.891  0.0000E+00  0.0000E+00  0.0000E+00
      1.994  0.0000E+00  0.0000E+00  0.0000E+00
      2.097  0.0000E+00  0.0000E+00  0.0000E+00
      2.200  0.0000E+00  0.0000E+00  0.0000E+00
      2.303  0.0000E+00  0.0000E+00  0.0000E+00
      2.406  0.0000E+00  0.0000E+00  0.0000E+00
      2.509  0.0000E+00  0.0000E+00  0.0000E+00
      2.612  0.0000E+00  0.0000E+00  0.0000E+00
      2.714  0.3263E-19  0.2212E-14  0.1165E-11
      2.817  0.5056E-10  0.1783E-05  0.2161E-02
      2.920  0.5014E-04  0.3948E-05  0.1176E-02
      3.023  0.3795E-05  0.3979E-06  0.9658E-05
      3.126  0.2732E-03  0.9799E-03  0.4499E-02
      3.229  0.0000E+00  0.0000E+00  0.0000E+00
      3.332  0.2131E-05  0.2403E-04  0.1643E-04
      3.435  0.3997E-03  0.5165E-02  0.2170E-02
      3.538  0.0000E+00  0.0000E+00  0.0000E+00
      3.641  0.8987E-08  0.8553E-05  0.6661E-04
      3.743  0.1193E-02  0.1459E-02  0.8473E-02
      3.846  0.4081E-03  0.2123E-03  0.2580E-02
      3.949  0.3427E-03  0.3151E-02  0.1371E-01
      4.052  0.4966E-03  0.4901E-02  0.4151E-02
      4.155  0.1404E-02  0.3913E-02  0.5432E-02
      4.258  0.1377E-16  0.1111E-15  0.7849E-17
      4.361  0.5858E-03  0.3681E-02  0.8970E-03
      4.464  0.0000E+00  0.0000E+00  0.0000E+00
      4.567  0.0000E+00  0.0000E+00  0.0000E+00
      4.670  0.2173E-13  0.6260E-16  0.1965E-14
      4.772  0.1571E-01  0.4526E-04  0.1421E-02
      4.875  0.0000E+00  0.0000E+00  0.0000E+00
      4.978  0.1647E-05  0.7451E-04  0.5667E-02
      5.081  0.6349E-09  0.3036E-04  0.9172E-02
      5.184  0.2413E-01  0.1321E-01  0.7554E-02
      5.287  0.3441E-01  0.1185E-01  0.2412E-01
      5.390  0.5858E-05  0.1241E-02  0.6101E-02
      5.493  0.2328E-02  0.2670E-02  0.5246E-02
      5.596  0.3516E-10  0.7212E-11  0.2832E-10
      5.699  0.4729E-01  0.1101E-01  0.5078E-01
      5.801  0.2364E-01  0.1342E-01  0.4576E-01
      5.904  0.3698E-01  0.5270E-02  0.7736E-01
      6.007  0.1334E-02  0.1316E-02  0.5532E-02
      6.110  0.1785E-01  0.3312E-02  0.1590E+00
      6.213  0.2580E-03  0.4275E-03  0.1325E-01
      6.316  0.5925E-01  0.3560E-01  0.3747E+00
      6.419  0.3469E-01  0.1511E-01  0.2317E+00
      6.522  0.3929E-01  0.2934E-01  0.5302E+00
      6.625  0.3558E-01  0.1929E-02  0.1469E+00
      6.728  0.7929E-02  0.5644E-01  0.5442E+00
      6.831  0.7852E-02  0.9759E-01  0.1202E+01
      6.933  0.1869E-01  0.4415E-01  0.4196E+00
      7.036  0.9308E-02  0.5898E-01  0.3846E+00
      7.139  0.2049E-01  0.8524E-02  0.2831E+00
      7.242  0.2219E-03  0.2985E-03  0.1001E+00
      7.345  0.0000E+00  0.0000E+00  0.0000E+00
      7.448  0.0000E+00  0.0000E+00  0.0000E+00
      7.551  0.0000E+00  0.0000E+00  0.0000E+00
      7.654  0.0000E+00  0.0000E+00  0.0000E+00
      7.757  0.0000E+00  0.0000E+00  0.0000E+00
      7.860  0.0000E+00  0.0000E+00  0.0000E+00
      7.962  0.0000E+00  0.0000E+00  0.0000E+00
      8.065  0.0000E+00  0.0000E+00  0.0000E+00
      8.168  0.0000E+00  0.0000E+00  0.0000E+00
      8.271  0.0000E+00  0.0000E+00  0.0000E+00
      8.374  0.0000E+00  0.0000E+00  0.0000E+00
      8.477  0.0000E+00  0.0000E+00  0.0000E+00
      8.580  0.0000E+00  0.0000E+00  0.0000E+00
      8.57985055    -22.29076862  301      0.66925439      1.00000000
    -22.291  0.0000E+00  0.0000E+00  0.0000E+00
    -22.188  0.0000E+00  0.0000E+00  0.0000E+00
    -22.085  0.0000E+00  0.0000E+00  0.0000E+00
    -21.982  0.0000E+00  0.0000E+00  0.0000E+00
    -21.879  0.0000E+00  0.0000E+00  0.0000E+00
    -21.776  0.0000E+00  0.0000E+00  0.0000E+00
    -21.673  0.0000E+00  0.0000E+00  0.0000E+00
    -21.570  0.0000E+00  0.0000E+00  0.0000E+00
    -21.468  0.0000E+00  0.0000E+00  0.0000E+00
    -21.365  0.0000E+00  0.0000E+00  0.0000E+00
    -21.262  0.0000E+00  0.0000E+00  0.0000E+00
    -21.159  0.0000E+00  0.0000E+00  0.0000E+00
    -21.056  0.0000E+00  0.0000E+00  0.0000E+00
    -20.953  0.0000E+00  0.0000E+00  0.0000E+00
    -20.850  0.1725E+02  0.1815E-04  0.3606E-05
    -20.747  0.0000E+00  0.0000E+00  0.0000E+00
    -20.644  0.0000E+00  0.0000E+00  0.0000E+00
    -20.541  0.0000E+00  0.0000E+00  0.0000E+00
    -20.439  0.0000E+00  0.0000E+00  0.0000E+00
    -20.336  0.0000E+00  0.0000E+00  0.0000E+00
    -20.233  0.0000E+00  0.0000E+00  0.0000E+00
    -20.130  0.0000E+00  0.0000E+00  0.0000E+00
    -20.027  0.0000E+00  0.0000E+00  0.0000E+00
    -19.924  0.0000E+00  0.0000E+00  0.0000E+00
    -19.821  0.0000E+00  0.0000E+00  0.0000E+00
    -19.718  0.0000E+00  0.0000E+00  0.0000E+00
    -19.615  0.0000E+00  0.0000E+00  0.0000E+00
    -19.512  0.0000E+00  0.0000E+00  0.0000E+00
    -19.410  0.0000E+00  0.0000E+00  0.0000E+00
    -19.307  0.0000E+00  0.0000E+00  0.0000E+00
    -19.204  0.0000E+00  0.0000E+00  0.0000E+00
    -19.101  0.0000E+00  0.0000E+00  0.0000E+00
    -18.998  0.0000E+00  0.0000E+00  0.0000E+00
    -18.895  0.0000E+00  0.0000E+00  0.0000E+00
    -18.792  0.0000E+00  0.0000E+00  0.0000E+00
    -18.689  0.0000E+00  0.0000E+00  0.0000E+00
    -18.586  0.0000E+00  0.0000E+00  0.0000E+00
    -18.483  0.0000E+00  0.0000E+00  0.0000E+00
    -18.380  0.0000E+00  0.0000E+00  0.0000E+00
    -18.278  0.0000E+00  0.0000E+00  0.0000E+00
    -18.175  0.0000E+00  0.0000E+00  0.0000E+00
    -18.072  0.0000E+00  0.0000E+00  0.0000E+00
    -17.969  0.0000E+00  0.0000E+00  0.0000E+00
    -17.866  0.0000E+00  0.0000E+00  0.0000E+00
    -17.763  0.0000E+00  0.0000E+00  0.0000E+00
    -17.660  0.0000E+00  0.0000E+00  0.0000E+00
    -17.557  0.0000E+00  0.0000E+00  0.0000E+00
    -17.454  0.0000E+00  0.0000E+00  0.0000E+00
    -17.351  0.0000E+00  0.0000E+00  0.0000E+00
    -17.249  0.0000E+00  0.0000E+00  0.0000E+00
    -17.146  0.0000E+00  0.0000E+00  0.0000E+00
    -17.043  0.0000E+00  0.0000E+00  0.0000E+00
    -16.940  0.0000E+00  0.0000E+00  0.0000E+00
    -16.837  0.0000E+00  0.0000E+00  0.0000E+00
    -16.734  0.0000E+00  0.0000E+00  0.0000E+00
    -16.631  0.0000E+00  0.0000E+00  0.0000E+00
    -16.528  0.0000E+00  0.0000E+00  0.0000E+00
    -16.425  0.2440E-04  0.1063E-04  0.2084E-05
    -16.322  0.1849E-04  0.5691E-04  0.6764E-05
    -16.220  0.3192E-04  0.1939E-04  0.2151E-05
    -16.117  0.0000E+00  0.0000E+00  0.0000E+00
    -16.014  0.0000E+00  0.0000E+00  0.0000E+00
    -15.911  0.0000E+00  0.0000E+00  0.0000E+00
    -15.808  0.0000E+00  0.0000E+00  0.0000E+00
    -15.705  0.0000E+00  0.0000E+00  0.0000E+00
    -15.602  0.0000E+00  0.0000E+00  0.0000E+00
    -15.499  0.0000E+00  0.0000E+00  0.0000E+00
    -15.396  0.0000E+00  0.0000E+00  0.0000E+00
    -15.293  0.0000E+00  0.0000E+00  0.0000E+00
    -15.191  0.0000E+00  0.0000E+00  0.0000E+00
    -15.088  0.0000E+00  0.0000E+00  0.0000E+00
    -14.985  0.0000E+00  0.0000E+00  0.0000E+00
    -14.882  0.0000E+00  0.0000E+00  0.0000E+00
    -14.779  0.0000E+00  0.0000E+00  0.0000E+00
    -14.676  0.0000E+00  0.0000E+00  0.0000E+00
    -14.573  0.0000E+00  0.0000E+00  0.0000E+00
    -14.470  0.0000E+00  0.0000E+00  0.0000E+00
    -14.367  0.5197E-04  0.6898E-06  0.6711E-07
    -14.264  0.2273E-02  0.1049E-02  0.3144E-04
    -14.162  0.7978E-03  0.1782E-02  0.6423E-04
    -14.059  0.3585E-03  0.4234E-02  0.2075E-03
    -13.956  0.1855E-02  0.4705E-02  0.4195E-03
    -13.853  0.5384E-03  0.1964E-02  0.1832E-03
    -13.750  0.1361E-02  0.3025E-02  0.3768E-03
    -13.647  0.3688E-03  0.5314E-03  0.4183E-04
    -13.544  0.0000E+00  0.0000E+00  0.0000E+00
    -13.441  0.0000E+00  0.0000E+00  0.0000E+00
    -13.338  0.0000E+00  0.0000E+00  0.0000E+00
    -13.235  0.0000E+00  0.0000E+00  0.0000E+00
    -13.132  0.0000E+00  0.0000E+00  0.0000E+00