 vasp.5.4.4.18Apr17-6-g9f103f2a35 (build Jun 22 2020 09:27:21) complex           
 executed on tx2_gcc-7.3_libsci-1 date 2021.09.20  15:14:56
 running on   64 total cores
 distrk:  each k-point on   64 cores,    1 groups
 distr:  one band on NCORES_PER_BAND=   8 cores,    8 groups


--------------------------------------------------------------------------------------------------------


 INCAR:
 POTCAR:    PAW_PBE Cs_sv 08Apr2002               
 POTCAR:    PAW_PBE Pb_d 06Sep2000                
 POTCAR:    PAW_PBE Br 06Sep2000                  
 POTCAR:    PAW_PBE Cs_sv 08Apr2002               
   VRHFIN =Cs: 5s5p6s                                                           
   LEXCH  = PE                                                                  
   EATOM  =   555.6835 eV,   40.8416 Ry                                         
                                                                                
   TITEL  = PAW_PBE Cs_sv 08Apr2002                                             
   LULTRA =        F    use ultrasoft PP ?                                      
   IUNSCR =        1    unscreen: 0-lin 1-nonlin 2-no                           
   RPACOR =    2.200    partial core radius                                     
   POMASS =  132.900; ZVAL   =    9.000    mass and valenz                      
   RCORE  =    2.500    outmost cutoff radius                                   
   RWIGS  =    2.500; RWIGS  =    1.323    wigner-seitz radius (au A)           
   ENMAX  =  220.318; ENMIN  =  165.238 eV                                      
   RCLOC  =    2.207    cutoff for local pot                                    
   LCOR   =        T    correct aug charges                                     
   LPAW   =        T    paw PP                                                  
   EAUG   =  407.933                                                            
   DEXC   =    0.000                                                            
   RMAX   =    2.554    core radius for proj-oper                               
   RAUG   =    1.300    factor for augmentation sphere                          
   RDEP   =    2.590    radius for radial grids                                 
   RDEPT  =    2.117    core radius for aug-charge                              
                                                                                
   Atomic configuration                                                         
   13 entries                                                                   
     n  l   j            E        occ.                                          
     1  0  0.50    -35790.1377   2.0000                                         
     2  0  0.50     -5613.6201   2.0000                                         
     2  1  1.50     -5035.0101   6.0000                                         
     3  0  0.50     -1167.0767   2.0000                                         
     3  1  1.50      -980.9754   6.0000                                         
     3  2  2.50      -708.0703  10.0000                                         
     4  0  0.50      -220.2386   2.0000                                         
     4  1  1.50      -160.7596   6.0000                                         
     4  2  2.50       -74.2354  10.0000                                         
     5  0  0.50       -26.7287   2.0000                                         
     6  0  0.50        -2.0862   1.0000                                         
     5  1  1.50       -13.5159   6.0000                                         
     5  2  2.50        -0.4136   0.0000                                         
   Description                                                                  
     l       E           TYP  RCUT    TYP  RCUT                                 
     0    -26.7287425     23  1.900                                             
     0     -2.0862306     23  1.900                                             
     1    -13.5158719     23  2.500                                             
     1     -2.7211652     23  2.500                                             
     2     -0.4136171     23  2.500                                             
  local pseudopotential read in
  partial core-charges read in
  partial kinetic energy density read in
  atomic valenz-charges read in
  non local Contribution for L=           0  read in
    real space projection operators read in
  non local Contribution for L=           0  read in
    real space projection operators read in
  non local Contribution for L=           1  read in
    real space projection operators read in
  non local Contribution for L=           1  read in
    real space projection operators read in
  non local Contribution for L=           2  read in
    real space projection operators read in
    PAW grid and wavefunctions read in

   number of l-projection  operators is LMAX  =           5
   number of lm-projection operators is LMMAX =          13

 POTCAR:    PAW_PBE Pb_d 06Sep2000                
   VRHFIN =Pb:                                                                  
   LEXCH  = PE                                                                  
   EATOM  =  1661.6185 eV,  122.1255 Ry                                         
                                                                                
   TITEL  = PAW_PBE Pb_d 06Sep2000                                              
   LULTRA =        F    use ultrasoft PP ?                                      
   IUNSCR =        1    unscreen: 0-lin 1-nonlin 2-no                           
   RPACOR =    2.200    partial core radius                                     
   POMASS =  207.200; ZVAL   =   14.000    mass and valenz                      
   RCORE  =    2.500    outmost cutoff radius                                   
   RWIGS  =    3.260; RWIGS  =    1.725    wigner-seitz radius (au A)           
   ENMAX  =  237.835; ENMIN  =  178.376 eV                                      
   ICORE  =        3    local potential                                         
   LCOR   =        T    correct aug charges                                     
   LPAW   =        T    paw PP                                                  
   EAUG   =  391.914                                                            
   DEXC   =    0.000                                                            
   RMAX   =    2.565    core radius for proj-oper                               
   RAUG   =    1.300    factor for augmentation sphere                          
   RDEP   =    2.643    radius for radial grids                                 
   RDEPT  =    2.092    core radius for aug-charge                              
                                                                                
   Atomic configuration                                                         
   16 entries                                                                   
     n  l   j            E        occ.                                          
     1  0  0.50    -88091.8466   2.0000                                         
     2  0  0.50    -15753.4197   2.0000                                         
     2  1  1.50    -13508.1797   6.0000                                         
     3  0  0.50     -3781.7194   2.0000                                         
     3  1  1.50     -3138.2529   6.0000                                         
     3  2  2.50     -2483.2977  10.0000                                         
     4  0  0.50      -856.2895   2.0000                                         
     4  1  1.50      -645.4942   6.0000                                         
     4  2  2.50      -401.8768  10.0000                                         
     4  3  3.50      -132.9059  14.0000                                         
     5  0  0.50      -144.0950   2.0000                                         
     5  1  1.50       -85.7879   6.0000                                         
     5  2  2.50       -21.1769  10.0000                                         
     6  0  0.50       -12.0372   2.0000                                         
     6  1  1.50        -3.4971   2.0000                                         
     5  3  2.50        -2.7212   0.0000                                         
   Description                                                                  
     l       E           TYP  RCUT    TYP  RCUT                                 
     2    -21.1768523     23  2.500                                             
     2      1.3605826     23  2.500                                             
     0    -12.0371562     23  2.500                                             
     0     13.6058260     23  2.500                                             
     1     -3.4971339     23  2.500                                             
     1     13.6058260     23  2.500                                             
     3     -1.3605826      7  2.500                                             
  local pseudopotential read in
  partial core-charges read in
  partial kinetic energy density read in
  atomic valenz-charges read in
  non local Contribution for L=           2  read in
    real space projection operators read in
  non local Contribution for L=           2  read in
    real space projection operators read in
  non local Contribution for L=           0  read in
    real space projection operators read in
  non local Contribution for L=           0  read in
    real space projection operators read in
  non local Contribution for L=           1  read in
    real space projection operators read in
  non local Contribution for L=           1  read in
    real space projection operators read in
    PAW grid and wavefunctions read in

   number of l-projection  operators is LMAX  =           6
   number of lm-projection operators is LMMAX =          18

 POTCAR:    PAW_PBE Br 06Sep2000                  
   VRHFIN =Br: s2p5                                                             
   LEXCH  = PE                                                                  
   EATOM  =   368.4488 eV,   27.0802 Ry                                         
                                                                                
   TITEL  = PAW_PBE Br 06Sep2000                                                
   LULTRA =        F    use ultrasoft PP ?                                      
   IUNSCR =        1    unscreen: 0-lin 1-nonlin 2-no                           
   RPACOR =    1.900    partial core radius                                     
   POMASS =   79.904; ZVAL   =    7.000    mass and valenz                      
   RCORE  =    2.100    outmost cutoff radius                                   
   RWIGS  =    2.200; RWIGS  =    1.164    wigner-seitz radius (au A)           
   ENMAX  =  216.285; ENMIN  =  162.214 eV                                      
   ICORE  =        3    local potential                                         
   LCOR   =        T    correct aug charges                                     
   LPAW   =        T    paw PP                                                  
   EAUG   =  503.852                                                            
   DEXC   =    0.000                                                            
   RMAX   =    2.139    core radius for proj-oper                               
   RAUG   =    1.300    factor for augmentation sphere                          
   RDEP   =    2.186    radius for radial grids                                 
   RDEPT  =    1.890    core radius for aug-charge                              
                                                                                
   Atomic configuration                                                         
   10 entries                                                                   
     n  l   j            E        occ.                                          
     1  0  0.50    -13316.2796   2.0000                                         
     2  0  0.50     -1732.8239   2.0000                                         
     2  1  1.50     -1528.2193   6.0000                                         
     3  0  0.50      -238.0460   2.0000                                         
     3  1  1.50      -173.4609   6.0000                                         
     3  2  2.50       -66.7132  10.0000                                         
     4  0  0.50       -20.1334   2.0000                                         
     4  1  0.50        -7.8591   5.0000                                         
     4  2  2.50        -8.1635   0.0000                                         
     4  3  2.50        -8.1635   0.0000                                         
   Description                                                                  
     l       E           TYP  RCUT    TYP  RCUT                                 
     0    -20.1333652     23  2.100                                             
     0    -21.4939478     23  2.100                                             
     1     -7.8591052     23  2.100                                             
     1     -3.1608434     23  2.100                                             
     2     -8.1634956     23  2.100                                             
     3     -1.3605826      7  2.100                                             
  local pseudopotential read in
  partial core-charges read in
  partial kinetic energy density read in
  atomic valenz-charges read in
  non local Contribution for L=           0  read in
    real space projection operators read in
  non local Contribution for L=           0  read in
    real space projection operators read in
  non local Contribution for L=           1  read in
    real space projection operators read in
  non local Contribution for L=           1  read in
    real space projection operators read in
  non local Contribution for L=           2  read in
    real space projection operators read in
    PAW grid and wavefunctions read in

   number of l-projection  operators is LMAX  =           5
   number of lm-projection operators is LMMAX =          13

 Optimization of the real space projectors (new method)

 maximal supplied QI-value         = 15.12
 optimisation between [QCUT,QGAM] = [  8.77, 17.69] = [ 21.53, 87.61] Ry 
 Optimized for a Real-space Cutoff    1.85 Angstroem

   l    n(q)    QCUT    max X(q) W(low)/X(q) W(high)/X(q)  e(spline) 
   0     10     8.768    25.322    0.81E-04    0.51E-04    0.48E-06
   0     10     8.768    99.187    0.78E-04    0.50E-04    0.47E-06
   1      9     8.768    11.761    0.21E-03    0.20E-03    0.37E-06
   1      9     8.768     8.275    0.24E-03    0.22E-03    0.41E-06
   2      9     8.768     3.829    0.23E-04    0.15E-03    0.18E-06
 Optimization of the real space projectors (new method)

 maximal supplied QI-value         = 15.12
 optimisation between [QCUT,QGAM] = [  8.77, 17.69] = [ 21.53, 87.61] Ry 
 Optimized for a Real-space Cutoff    1.59 Angstroem

   l    n(q)    QCUT    max X(q) W(low)/X(q) W(high)/X(q)  e(spline) 
   2      7     8.768     3.846    0.48E-04    0.11E-03    0.11E-06
   2      7     8.768     8.593    0.20E-03    0.22E-04    0.24E-06
   0      8     8.768    20.082    0.68E-04    0.88E-04    0.41E-07
   0      8     8.768     8.597    0.89E-04    0.13E-03    0.59E-07
   1      8     8.768    33.223    0.15E-03    0.53E-04    0.87E-07
   1      8     8.768    15.899    0.14E-03    0.44E-04    0.78E-07
 Optimization of the real space projectors (new method)

 maximal supplied QI-value         = 17.95
 optimisation between [QCUT,QGAM] = [  8.80, 17.59] = [ 21.67, 86.68] Ry 
 Optimized for a Real-space Cutoff    1.59 Angstroem

   l    n(q)    QCUT    max X(q) W(low)/X(q) W(high)/X(q)  e(spline) 
   0      8     8.797   175.082    0.82E-04    0.14E-03    0.89E-07
   0      8     8.797   174.004    0.79E-04    0.14E-03    0.86E-07
   1      8     8.797    54.315    0.16E-03    0.14E-04    0.30E-06
   1      8     8.797    42.441    0.16E-03    0.14E-04    0.30E-06
   2      7     8.797     3.596    0.92E-04    0.15E-03    0.85E-07
  PAW_PBE Cs_sv 08Apr2002               :
 energy of atom  1       EATOM= -555.6835
 kinetic energy error for atom=    0.0069 (will be added to EATOM!!)
  PAW_PBE Pb_d 06Sep2000                :
 energy of atom  2       EATOM=-1661.6185
 kinetic energy error for atom=    0.0498 (will be added to EATOM!!)
  PAW_PBE Br 06Sep2000                  :
 energy of atom  3       EATOM= -368.4488
 kinetic energy error for atom=    0.0072 (will be added to EATOM!!)


 POSCAR: Cs2 Pb2 Br6                             
  positions in direct lattice
  velocities in cartesian coordinates

 METAGGA = SCAN     LMAXTAU =  6    LMIXTAU =  F

 exchange correlation table for  LEXCH =        8
   RHO(1)=    0.500       N(1)  =     2000
   RHO(2)=  100.500       N(2)  =     4000

 VTST: version 3.2, (02/03/18)

 CHAIN: initializing optimizer
 
 OPT: Using VASP Conjugate-Gradient optimizer
 CHAIN: Read ICHAIN            0

 POSCAR: Cs2 Pb2 Br6                             
  positions in direct lattice
  velocities in cartesian coordinates



--------------------------------------------------------------------------------------------------------


 ion  position               nearest neighbor table
   1  0.748  0.752  0.740-
   2  0.252  0.248  0.260-
   3  0.000  0.000  0.000-   9 2.99  10 2.99   5 2.99   6 2.99   7 2.99   8 2.99
   4  0.500  0.500  0.500-   9 2.99  10 2.99   5 2.99   6 2.99   7 2.99   8 2.99
   5  0.204  0.704  0.296-   3 2.99   4 2.99
   6  0.796  0.296  0.704-   3 2.99   4 2.99
   7  0.291  0.791  0.709-   3 2.99   4 2.99
   8  0.709  0.209  0.291-   3 2.99   4 2.99
   9  0.256  0.244  0.828-   4 2.99   3 2.99
  10  0.744  0.756  0.172-   4 2.99   3 2.99

  LATTYP: Found a base centered monoclinic cell.
 ALAT       =    11.7605790849
 B/A-ratio  =     0.9908772161
 C/A-ratio  =     2.5382874501
 COS(beta)  =    -0.6963237438
  
  Lattice vectors:
  
 A1 = (  -5.8266449318,   5.8798831787,  -0.0691296455)
 A2 = (   5.8266449318,   5.8798831787,  -0.0691296455)
 A3 = (   0.0000000000, -29.3300719230,  -5.5563191708)


Analysis of symmetry for initial positions (statically):
=====================================================================
 Subroutine PRICEL returns:
 Original cell was already a primitive cell.
 

 Routine SETGRP: Setting up the symmetry group for a 
 base centered monoclinic supercell.


 Subroutine GETGRP returns: Found  4 space group operations
 (whereof  2 operations were pure point group operations)
 out of a pool of  4 trial point group operations.


The static configuration has the point symmetry S_2 .
 The point group associated with its full space group is C_2h.


Analysis of symmetry for dynamics (positions and initial velocities):
=====================================================================
 Subroutine PRICEL returns:
 Original cell was already a primitive cell.
 

 Routine SETGRP: Setting up the symmetry group for a 
 base centered monoclinic supercell.


 Subroutine GETGRP returns: Found  4 space group operations
 (whereof  2 operations were pure point group operations)
 out of a pool of  4 trial point group operations.


The dynamic configuration has the point symmetry S_2 .
 The point group associated with its full space group is C_2h.


 Subroutine INISYM returns: Found  4 space group operations
 (whereof  2 operations are pure point group operations),
 and found     1 'primitive' translations



 KPOINTS: 1x1x1                                   

Automatic generation of k-mesh.
Space group operators:
 irot       det(A)        alpha          n_x          n_y          n_z        tau_x        tau_y        tau_z
    1     1.000000     0.000000     1.000000     0.000000     0.000000     0.000000     0.000000     0.000000
    2    -1.000000     0.000000     1.000000     0.000000     0.000000     0.000000     0.000000     0.000000
    3     1.000000   180.000000     1.000000     0.000000     0.000000     0.500000    -0.500000     0.500000
    4    -1.000000   180.000000     1.000000     0.000000     0.000000     0.500000    -0.500000     0.500000
 
 Subroutine IBZKPT returns following result:
 ===========================================
 
 Found     10 irreducible k-points:
 
 Following reciprocal coordinates:
            Coordinates               Weight
  0.000000  0.000000  0.000000      1.000000
  0.333333  0.000000  0.000000      4.000000
  0.333333  0.333333  0.000000      2.000000
 -0.333333  0.333333  0.000000      2.000000
  0.000000  0.000000  0.333333      4.000000
  0.333333  0.000000  0.333333      2.000000
 -0.333333  0.000000  0.333333      4.000000
  0.000000  0.333333  0.333333      2.000000
 -0.333333  0.333333  0.333333      4.000000
 -0.333333 -0.333333  0.333333      2.000000
 
 Following cartesian coordinates:
            Coordinates               Weight
  0.000000  0.000000 -0.000000      1.000000
  0.028604  0.028681  0.028576      4.000000
  0.057208  0.000000 -0.000000      2.000000
 -0.000000 -0.057362 -0.057152      2.000000
 -0.028604  0.028017 -0.027910      4.000000
  0.000000  0.056698  0.000666      2.000000
 -0.057208 -0.000664 -0.056486      4.000000
  0.000000 -0.000664 -0.056486      2.000000
 -0.028604 -0.029345 -0.085062      4.000000
 -0.085813  0.028017 -0.027910      2.000000
 


--------------------------------------------------------------------------------------------------------




 Dimension of arrays:
   k-points           NKPTS =     10   k-points in BZ     NKDIM =     10   number of bands    NBANDS=     56
   number of dos      NEDOS =    301   number of ions     NIONS =     10
   non local maximal  LDIM  =      6   non local SUM 2l+1 LMDIM =     18
   total plane-waves  NPLWV = 110592
   max r-space proj   IRMAX =   7280   max aug-charges    IRDMAX= 116355
   dimension x,y,z NGX =    48 NGY =   48 NGZ =   48
   dimension x,y,z NGXF=    96 NGYF=   96 NGZF=   96
   support grid    NGXF=   192 NGYF=  192 NGZF=  192
   ions per type =               2   2   6
   NGX,Y,Z   is equivalent  to a cutoff of   9.64,  9.62,  9.47 a.u.
   NGXF,Y,Z  is equivalent  to a cutoff of  19.28, 19.24, 18.93 a.u.

 SYSTEM =  CsPbBr3 cubic bulk                      
 POSCAR =  Cs2 Pb2 Br6                             

 Startparameter for this run:
   NWRITE =      2    write-flag & timer
   PREC   = accura    normal or accurate (medium, high low for compatibility)
   ISTART =      0    job   : 0-new  1-cont  2-samecut
   ICHARG =      2    charge: 1-file 2-atom 10-const
   ISPIN  =      1    spin polarized calculation?
   LNONCOLLINEAR =      F non collinear calculations
   LSORBIT =      F    spin-orbit coupling
   INIWAV =      1    electr: 0-lowe 1-rand  2-diag
   LASPH  =      T    aspherical Exc in radial PAW
   METAGGA=      F    non-selfconsistent MetaGGA calc.

 Electronic Relaxation 1
   ENCUT  =  300.0 eV  22.05 Ry    4.70 a.u.  11.69 11.71 11.90*2*pi/ulx,y,z
   ENINI  =  300.0     initial cutoff
   ENAUG  =  503.9 eV  augmentation charge cutoff
   NELM   =    200;   NELMIN=  2; NELMDL=  0     # of ELM steps 
   EDIFF  = 0.1E-05   stopping-criterion for ELM
   LREAL  =      T    real-space projection
   NLSPLINE    = F    spline interpolate recip. space projectors
   LCOMPAT=      F    compatible to vasp.4.4
   GGA_COMPAT  = T    GGA compatible to vasp.4.4-vasp.4.6
   LMAXPAW     = -100 max onsite density
   LMAXMIX     =    2 max onsite mixed and CHGCAR
   VOSKOWN=      0    Vosko Wilk Nusair interpolation
   ROPT   =   -0.00025  -0.00025  -0.00025
 Ionic relaxation
   EDIFFG = -.1E-01   stopping-criterion for IOM
   NSW    =      0    number of steps for IOM
   NBLOCK =      1;   KBLOCK =      1    inner block; outer block 
   IBRION =     -1    ionic relax: 0-MD 1-quasi-New 2-CG
   NFREE  =      1    steps in history (QN), initial steepest desc. (CG)
   ISIF   =      3    stress and relaxation
   IWAVPR =     10    prediction:  0-non 1-charg 2-wave 3-comb
   ISYM   =      2    0-nonsym 1-usesym 2-fastsym
   LCORR  =      T    Harris-Foulkes like correction to forces

   POTIM  = 0.5000    time-step for ionic-motion
   TEIN   =    0.0    initial temperature
   TEBEG  =    0.0;   TEEND  =   0.0 temperature during run
   SMASS  =  -3.00    Nose mass-parameter (am)
   estimated Nose-frequenzy (Omega)   =  0.10E-29 period in steps =****** mass=  -0.157E-26a.u.
   SCALEE = 1.0000    scale energy and forces
   NPACO  =    256;   APACO  = 16.0  distance and # of slots for P.C.
   PSTRESS=    0.0 pullay stress

  Mass of Ions in am
   POMASS = 132.90207.20 79.90
  Ionic Valenz
   ZVAL   =   9.00 14.00  7.00
  Atomic Wigner-Seitz radii
   RWIGS  =  -1.00 -1.00 -1.00
  virtual crystal weights 
   VCA    =   1.00  1.00  1.00
   NELECT =      88.0000    total number of electrons
   NUPDOWN=      -1.0000    fix difference up-down

 DOS related values:
   EMIN   =  10.00;   EMAX   =-10.00  energy-range for DOS
   EFERMI =   0.00
   ISMEAR =     0;   SIGMA  =   0.01  broadening in eV -4-tet -1-fermi 0-gaus

 Electronic relaxation 2 (details)
   IALGO  =     38    algorithm
   LDIAG  =      T    sub-space diagonalisation (order eigenvalues)
   LSUBROT=      F    optimize rotation matrix (better conditioning)
   TURBO    =      0    0=normal 1=particle mesh
   IRESTART =      0    0=no restart 2=restart with 2 vectors
   NREBOOT  =      0    no. of reboots
   NMIN     =      0    reboot dimension
   EREF     =   0.00    reference energy to select bands
   IMIX   =      4    mixing-type and parameters
     AMIX     =   0.40;   BMIX     =  1.00
     AMIX_MAG =   1.60;   BMIX_MAG =  1.00
     AMIN     =   0.10
     WC   =   100.;   INIMIX=   1;  MIXPRE=   1;  MAXMIX= -45

 Intra band minimization:
   WEIMIN = 0.0000     energy-eigenvalue tresh-hold
   EBREAK =  0.45E-08  absolut break condition
   DEPER  =   0.30     relativ break condition  

   TIME   =   0.40     timestep for ELM

  volume/ion in A,a.u.               =      40.43       272.87
  Fermi-wavevector in a.u.,A,eV,Ry     =   0.984731  1.860872 13.193509  0.969696
  Thomas-Fermi vector in A             =   2.115986

 Write flags
   LWAVE        =      F    write WAVECAR
   LDOWNSAMPLE  =      F    k-point downsampling of WAVECAR
   LCHARG       =      F    write CHGCAR
   LVTOT        =      F    write LOCPOT, total local potential
   LVHAR        =      T    write LOCPOT, Hartree potential only
   LELF         =      F    write electronic localiz. function (ELF)
   LORBIT       =     10    0 simple, 1 ext, 2 COOP (PROOUT), +10 PAW based schemes


 Dipole corrections
   LMONO  =      F    monopole corrections only (constant potential shift)
   LDIPOL =      F    correct potential (dipole corrections)
   IDIPOL =      0    1-x, 2-y, 3-z, 4-all directions 
   EPSILON=  1.0000000 bulk dielectric constant

 Exchange correlation treatment:
   GGA     =    --    GGA type
   LEXCH   =     8    internal setting for exchange type
   VOSKOWN=      0    Vosko Wilk Nusair interpolation
   LHFCALC =     F    Hartree Fock is set to
   LHFONE  =     F    Hartree Fock one center treatment
   AEXX    =    0.0000 exact exchange contribution

 Linear response parameters
   LEPSILON=     F    determine dielectric tensor
   LRPA    =     F    only Hartree local field effects (RPA)
   LNABLA  =     F    use nabla operator in PAW spheres
   LVEL    =     F    velocity operator in full k-point grid
   LINTERFAST=   F  fast interpolation
   KINTER  =     0    interpolate to denser k-point grid
   CSHIFT  =0.1000    complex shift for real part using Kramers Kronig
   OMEGAMAX=  -1.0    maximum frequency
   DEG_THRESHOLD= 0.2000000E-02 threshold for treating states as degnerate
   RTIME   =   -0.100 relaxation time in fs
  (WPLASMAI=    0.000 imaginary part of plasma frequency in eV, 0.658/RTIME)
   DFIELD  = 0.0000000 0.0000000 0.0000000 field for delta impulse in time

 Orbital magnetization related:
   ORBITALMAG=     F  switch on orbital magnetization
   LCHIMAG   =     F  perturbation theory with respect to B field
   DQ        =  0.001000  dq finite difference perturbation B field
   LLRAUG    =     F  two centre corrections for induced B field



--------------------------------------------------------------------------------------------------------


 Static calculation
 charge density and potential will be updated during run
 non-spin polarized calculation
 Variant of blocked Davidson
 Davidson routine will perform the subspace rotation
 perform sub-space diagonalisation
    after iterative eigenvector-optimisation
 modified Broyden-mixing scheme, WC =      100.0
 initial mixing is a Kerker type mixing with AMIX =  0.4000 and BMIX =      1.0000
 Hartree-type preconditioning will be used
 using additional bands           12
 real space projection scheme for non local part
 use partial core corrections
 calculate Harris-corrections to forces   (improved forces if not selfconsistent)
 use gradient corrections 
 use of overlap-Matrix (Vanderbilt PP)
 Gauss-broadening in eV      SIGMA  =   0.01


--------------------------------------------------------------------------------------------------------


  energy-cutoff  :      300.00
  volume of cell :      404.35
      direct lattice vectors                 reciprocal lattice vectors
     5.826644932  5.879883179 -0.069129645     0.085812677  0.086043611  0.085728465
     5.826644932  0.069343970 -5.901967398     0.085812677 -0.086043611 -0.085728465
     0.000000000  5.949227149 -5.971097044    -0.085812677  0.084051292 -0.083729969

  length of vectors
     8.278139662  8.293842229  8.428956257     0.148716805  0.148716805  0.146421115



 k-points in units of 2pi/SCALE and weight: 1x1x1                                   
   0.00000000  0.00000000 -0.00000000       0.037
   0.02860423  0.02868120  0.02857616       0.148
   0.05720845  0.00000000 -0.00000000       0.074
  -0.00000000 -0.05736241 -0.05715231       0.074
  -0.02860423  0.02801710 -0.02790999       0.148
   0.00000000  0.05669830  0.00066617       0.074
  -0.05720845 -0.00066411 -0.05648614       0.148
   0.00000000 -0.00066411 -0.05648614       0.074
  -0.02860423 -0.02934531 -0.08506230       0.148
  -0.08581268  0.02801710 -0.02790999       0.074

 k-points in reciprocal lattice and weights: 1x1x1                                   
   0.00000000  0.00000000  0.00000000       0.037
   0.33333333  0.00000000  0.00000000       0.148
   0.33333333  0.33333333  0.00000000       0.074
  -0.33333333  0.33333333  0.00000000       0.074
   0.00000000  0.00000000  0.33333333       0.148
   0.33333333  0.00000000  0.33333333       0.074
  -0.33333333  0.00000000  0.33333333       0.148
   0.00000000  0.33333333  0.33333333       0.074
  -0.33333333  0.33333333  0.33333333       0.148
  -0.33333333 -0.33333333  0.33333333       0.074

 position of ions in fractional coordinates (direct lattice) 
   0.74827598  0.75172402  0.73996803
   0.25172402  0.24827598  0.26003197
   0.00000000  0.00000000  0.00000000
   0.50000000  0.50000000  0.50000000
   0.20400291  0.70400291  0.29599709
   0.79599709  0.29599709  0.70400291
   0.29079641  0.79079641  0.70920359
   0.70920359  0.20920359  0.29079641
   0.25649619  0.24350381  0.82826793
   0.74350381  0.75649619  0.17173207

 position of ions in cartesian coordinates  (Angst):
   8.73996740  8.85414077 -8.90679959
   2.91332247  3.04431353 -3.03539449
   0.00000000  0.00000000 -0.00000000
   5.82664493  5.94922715 -5.97109704
   5.29062746  3.00928556 -5.93653222
   6.36266241  8.88916874 -6.00566187
   6.30205735  5.98389913 -8.92208074
   5.35123251  5.91455516 -3.02011334
   2.91332247  6.45260720 -6.40055127
   8.73996740  5.44584710 -5.54164282



--------------------------------------------------------------------------------------------------------


 k-point  1 :   0.0000 0.0000 0.0000  plane waves:    4761
 k-point  2 :   0.3333 0.0000 0.0000  plane waves:    4766
 k-point  3 :   0.3333 0.3333 0.0000  plane waves:    4760
 k-point  4 :  -0.3333 0.3333 0.0000  plane waves:    4778
 k-point  5 :   0.0000 0.0000 0.3333  plane waves:    4776
 k-point  6 :   0.3333 0.0000 0.3333  plane waves:    4767
 k-point  7 :  -0.3333 0.0000 0.3333  plane waves:    4773
 k-point  8 :   0.0000 0.3333 0.3333  plane waves:    4774
 k-point  9 :  -0.3333 0.3333 0.3333  plane waves:    4771
 k-point 10 :  -0.3333-0.3333 0.3333  plane waves:    4781

 maximum and minimum number of plane-waves per node :       618      576

 maximum number of plane-waves:      4781
 maximum index in each direction: 
   IXMAX=   12   IYMAX=   12   IZMAX=   11
   IXMIN=  -12   IYMIN=  -12   IZMIN=  -12


 real space projection operators:
  total allocation   :       5433.86 KBytes
  max/ min on nodes  :        685.77        675.48


 parallel 3D FFT for wavefunctions:
    minimum data exchange during FFTs selected (reduces bandwidth)
 parallel 3D FFT for charge:
    minimum data exchange during FFTs selected (reduces bandwidth)


 total amount of memory used by VASP MPI-rank0    37665. kBytes
=======================================================================

   base      :      30000. kBytes
   nonlr-proj:       2071. kBytes
   fftplans  :       2500. kBytes
   grid      :       2347. kBytes
   one-center:         31. kBytes
   wavefun   :        716. kBytes

     INWAV:  cpu time    0.0000: real time    0.0000
 Broyden mixing: mesh for mixing (old mesh)
   NGX = 23   NGY = 23   NGZ = 23
  (NGX  = 96   NGY  = 96   NGZ  = 96)
  gives a total of  12167 points

 initial charge density was supplied:
 charge density of overlapping atoms calculated
 number of electron      88.0000000 magnetization 
 keeping initial charge density in first step


--------------------------------------------------------------------------------------------------------


 Maximum index for non-local projection operator          858
 Maximum index for augmentation-charges         2571 (set IRDMAX)


--------------------------------------------------------------------------------------------------------


 First call to EWALD:  gamma=   0.240
 Maximum number of real-space cells 3x 3x 3
 Maximum number of reciprocal cells 3x 3x 3

    FEWALD:  cpu time    0.0016: real time    0.0016


--------------------------------------- Iteration      1(   1)  ---------------------------------------


    POTLOK:  cpu time    0.0926: real time    0.1062
    SETDIJ:  cpu time    1.1377: real time    1.1377
     EDDAV:  cpu time    1.6389: real time    1.6443
       DOS:  cpu time    0.0005: real time    0.0005
    --------------------------------------------
      LOOP:  cpu time    2.8697: real time    2.8888

 eigenvalue-minimisations  :  1160
 total energy-change (2. order) : 0.3260660E+03  (-0.2810677E+04)
 number of electron      88.0000000 magnetization 
 augmentation part       88.0000000 magnetization 

 Free energy of the ion-electron system (eV)
  ---------------------------------------------------
  alpha Z        PSCENC =       223.08133454
  Ewald energy   TEWEN  =     -4595.06878074
  -Hartree energ DENC   =     -1841.76103423
  -exchange      EXHF   =         0.00000000
  -V(xc)+E(xc)   XCENC  =       231.03280070
  PAW double counting   =      5408.49043633    -5676.98046350
  entropy T*S    EENTRO =        -0.00066948
  eigenvalues    EBANDS =       -67.86771110
  atomic energy  EATOM  =      6645.14004964
  Solvation  Ediel_sol  =         0.00000000
  ---------------------------------------------------
  free energy    TOTEN  =       326.06596214 eV

  energy without entropy =      326.06663162  energy(sigma->0) =      326.06629688


--------------------------------------------------------------------------------------------------------




--------------------------------------- Iteration      1(   2)  ---------------------------------------


     EDDAV:  cpu time    1.8504: real time    1.8533
       DOS:  cpu time    0.0003: real time    0.0003
    --------------------------------------------
      LOOP:  cpu time    1.8506: real time    1.8535

 eigenvalue-minimisations  :  1344
 total energy-change (2. order) :-0.6184622E+03  (-0.5986518E+03)
 number of electron      88.0000000 magnetization 
 augmentation part       88.0000000 magnetization 

 Free energy of the ion-electron system (eV)
  ---------------------------------------------------
  alpha Z        PSCENC =       223.08133454
  Ewald energy   TEWEN  =     -4595.06878074
  -Hartree energ DENC   =     -1841.76103423
  -exchange      EXHF   =         0.00000000
  -V(xc)+E(xc)   XCENC  =       231.03280070
  PAW double counting   =      5408.49043633    -5676.98046350
  entropy T*S    EENTRO =        -0.00000000
  eigenvalues    EBANDS =      -686.33058914
  atomic energy  EATOM  =      6645.14004964
  Solvation  Ediel_sol  =         0.00000000
  ---------------------------------------------------
  free energy    TOTEN  =      -292.39624641 eV

  energy without entropy =     -292.39624641  energy(sigma->0) =     -292.39624641


--------------------------------------------------------------------------------------------------------




--------------------------------------- Iteration      1(   3)  ---------------------------------------


     EDDAV:  cpu time    1.8942: real time    1.9289
       DOS:  cpu time    0.0003: real time    0.0003
    --------------------------------------------
      LOOP:  cpu time    1.8944: real time    1.9292

 eigenvalue-minimisations  :  1440
 total energy-change (2. order) :-0.8205682E+02  (-0.8162843E+02)
 number of electron      88.0000000 magnetization 
 augmentation part       88.0000000 magnetization 

 Free energy of the ion-electron system (eV)
  ---------------------------------------------------
  alpha Z        PSCENC =       223.08133454
  Ewald energy   TEWEN  =     -4595.06878074
  -Hartree energ DENC   =     -1841.76103423
  -exchange      EXHF   =         0.00000000
  -V(xc)+E(xc)   XCENC  =       231.03280070
  PAW double counting   =      5408.49043633    -5676.98046350
  entropy T*S    EENTRO =        -0.00000000
  eigenvalues    EBANDS =      -768.38740946
  atomic energy  EATOM  =      6645.14004964
  Solvation  Ediel_sol  =         0.00000000
  ---------------------------------------------------
  free energy    TOTEN  =      -374.45306673 eV

  energy without entropy =     -374.45306673  energy(sigma->0) =     -374.45306673


--------------------------------------------------------------------------------------------------------




--------------------------------------- Iteration      1(   4)  ---------------------------------------


     EDDAV:  cpu time    1.8629: real time    1.8654
       DOS:  cpu time    0.0003: real time    0.0003
    --------------------------------------------
      LOOP:  cpu time    1.8632: real time    1.8656

 eigenvalue-minimisations  :  1360
 total energy-change (2. order) :-0.2705895E+01  (-0.2695224E+01)
 number of electron      88.0000000 magnetization 
 augmentation part       88.0000000 magnetization 

 Free energy of the ion-electron system (eV)
  ---------------------------------------------------
  alpha Z        PSCENC =       223.08133454
  Ewald energy   TEWEN  =     -4595.06878074
  -Hartree energ DENC   =     -1841.76103423
  -exchange      EXHF   =         0.00000000
  -V(xc)+E(xc)   XCENC  =       231.03280070
  PAW double counting   =      5408.49043633    -5676.98046350
  entropy T*S    EENTRO =        -0.00000000
  eigenvalues    EBANDS =      -771.09330418
  atomic energy  EATOM  =      6645.14004964
  Solvation  Ediel_sol  =         0.00000000
  ---------------------------------------------------
  free energy    TOTEN  =      -377.15896146 eV

  energy without entropy =     -377.15896146  energy(sigma->0) =     -377.15896146


--------------------------------------------------------------------------------------------------------




--------------------------------------- Iteration      1(   5)  ---------------------------------------


     EDDAV:  cpu time    1.9311: real time    1.9551
       DOS:  cpu time    0.0003: real time    0.0003
    CHARGE:  cpu time    0.4023: real time    0.4023
    MIXING:  cpu time    0.0005: real time    0.0005
    --------------------------------------------
      LOOP:  cpu time    2.3341: real time    2.3582

 eigenvalue-minimisations  :  1448
 total energy-change (2. order) :-0.1161917E+00  (-0.1161270E+00)
 number of electron      88.0000000 magnetization 
 augmentation part       -1.6310116 magnetization 

 Broyden mixing:
  rms(total) = 0.50431E+00    rms(broyden)= 0.50414E+00
  rms(prec ) = 0.95778E+00
  weight for this iteration     100.00

 Free energy of the ion-electron system (eV)
  ---------------------------------------------------
  alpha Z        PSCENC =       223.08133454
  Ewald energy   TEWEN  =     -4595.06878074
  -Hartree energ DENC   =     -1841.76103423
  -exchange      EXHF   =         0.00000000
  -V(xc)+E(xc)   XCENC  =       231.03280070
  PAW double counting   =      5408.49043633    -5676.98046350
  entropy T*S    EENTRO =        -0.00000000
  eigenvalues    EBANDS =      -771.20949592
  atomic energy  EATOM  =      6645.14004964
  Solvation  Ediel_sol  =         0.00000000
  ---------------------------------------------------
  free energy    TOTEN  =      -377.27515319 eV

  energy without entropy =     -377.27515319  energy(sigma->0) =     -377.27515319


--------------------------------------------------------------------------------------------------------




--------------------------------------- Iteration      1(   6)  ---------------------------------------


    POTLOK:  cpu time    0.1339: real time    0.1524
    SETDIJ:  cpu time    1.1395: real time    1.1396
     EDDAV:  cpu time    1.8738: real time    1.8738
       DOS:  cpu time    0.0005: real time    0.0005
    CHARGE:  cpu time    0.3756: real time    0.3757
    MIXING:  cpu time    0.0007: real time    0.0007
    --------------------------------------------
      LOOP:  cpu time    3.5240: real time    3.5426

 eigenvalue-minimisations  :  1440
 total energy-change (2. order) : 0.1980903E+02  (-0.5866215E+00)
 number of electron      88.0000000 magnetization 
 augmentation part       -1.2679530 magnetization 

 Broyden mixing:
  rms(total) = 0.35852E+00    rms(broyden)= 0.35846E+00
  rms(prec ) = 0.57331E+00
  weight for this iteration     100.00

 eigenvalues of (default mixing * dielectric matrix)
  average eigenvalue GAMMA=   1.1867
  1.1867

 Free energy of the ion-electron system (eV)
  ---------------------------------------------------
  alpha Z        PSCENC =       223.08133454
  Ewald energy   TEWEN  =     -4595.06878074
  -Hartree energ DENC   =     -1837.38574681
  -exchange      EXHF   =         0.00000000
  -V(xc)+E(xc)   XCENC  =       238.71152746
  PAW double counting   =      5487.79129837    -5755.92852349
  entropy T*S    EENTRO =        -0.00000000
  eigenvalues    EBANDS =      -763.80727858
  atomic energy  EATOM  =      6645.14004964
  Solvation  Ediel_sol  =         0.00000000
  ---------------------------------------------------
  free energy    TOTEN  =      -357.46611963 eV

  energy without entropy =     -357.46611963  energy(sigma->0) =     -357.46611963


--------------------------------------------------------------------------------------------------------




--------------------------------------- Iteration      1(   7)  ---------------------------------------


    POTLOK:  cpu time    0.1509: real time    0.1524
    SETDIJ:  cpu time    1.1382: real time    1.1382
     EDDAV:  cpu time    1.8550: real time    1.8551
       DOS:  cpu time    0.0003: real time    0.0003
    CHARGE:  cpu time    0.3753: real time    0.3753
    MIXING:  cpu time    0.0006: real time    0.0006
    --------------------------------------------
      LOOP:  cpu time    3.5204: real time    3.5220

 eigenvalue-minimisations  :  1424
 total energy-change (2. order) : 0.1176732E+00  (-0.2047369E+00)
 number of electron      88.0000000 magnetization 
 augmentation part       -1.1310485 magnetization 

 Broyden mixing:
  rms(total) = 0.17857E+00    rms(broyden)= 0.17855E+00
  rms(prec ) = 0.22267E+00
  weight for this iteration     100.00

 eigenvalues of (default mixing * dielectric matrix)
  average eigenvalue GAMMA=   1.3204
  1.3204  1.3204

 Free energy of the ion-electron system (eV)
  ---------------------------------------------------
  alpha Z        PSCENC =       223.08133454
  Ewald energy   TEWEN  =     -4595.06878074
  -Hartree energ DENC   =     -1848.42816629
  -exchange      EXHF   =         0.00000000
  -V(xc)+E(xc)   XCENC  =       240.12496795
  PAW double counting   =      5654.67052326    -5922.37821155
  entropy T*S    EENTRO =        -0.00000000
  eigenvalues    EBANDS =      -754.49016323
  atomic energy  EATOM  =      6645.14004964
  Solvation  Ediel_sol  =         0.00000000
  ---------------------------------------------------
  free energy    TOTEN  =      -357.34844641 eV

  energy without entropy =     -357.34844641  energy(sigma->0) =     -357.34844641


--------------------------------------------------------------------------------------------------------




--------------------------------------- Iteration      1(   8)  ---------------------------------------


    POTLOK:  cpu time    0.1143: real time    0.1311
    SETDIJ:  cpu time    1.1412: real time    1.1413
     EDDAV:  cpu time    1.8300: real time    1.8301
       DOS:  cpu time    0.0003: real time    0.0003
    CHARGE:  cpu time    0.3749: real time    0.3749
    MIXING:  cpu time    0.0007: real time    0.0007
    --------------------------------------------
      LOOP:  cpu time    3.4614: real time    3.4783

 eigenvalue-minimisations  :  1392
 total energy-change (2. order) :-0.4372729E-01  (-0.9130902E-02)
 number of electron      88.0000000 magnetization 
 augmentation part       -1.1530747 magnetization 

 Broyden mixing:
  rms(total) = 0.10614E+00    rms(broyden)= 0.10614E+00
  rms(prec ) = 0.13499E+00
  weight for this iteration     100.00

 eigenvalues of (default mixing * dielectric matrix)
  average eigenvalue GAMMA=   1.7122
  1.0728  1.4194  2.6444

 Free energy of the ion-electron system (eV)
  ---------------------------------------------------
  alpha Z        PSCENC =       223.08133454
  Ewald energy   TEWEN  =     -4595.06878074
  -Hartree energ DENC   =     -1849.14730894
  -exchange      EXHF   =         0.00000000
  -V(xc)+E(xc)   XCENC  =       240.25403581
  PAW double counting   =      5711.70149996    -5979.52613496
  entropy T*S    EENTRO =        -0.00000000
  eigenvalues    EBANDS =      -753.82686900
  atomic energy  EATOM  =      6645.14004964
  Solvation  Ediel_sol  =         0.00000000
  ---------------------------------------------------
  free energy    TOTEN  =      -357.39217370 eV

  energy without entropy =     -357.39217370  energy(sigma->0) =     -357.39217370


--------------------------------------------------------------------------------------------------------




--------------------------------------- Iteration      1(   9)  ---------------------------------------


    POTLOK:  cpu time    0.1083: real time    0.1466
    SETDIJ:  cpu time    1.1414: real time    1.1414
     EDDAV:  cpu time    1.7210: real time    1.7211
       DOS:  cpu time    0.0003: real time    0.0003
    CHARGE:  cpu time    0.3795: real time    0.3795
    MIXING:  cpu time    0.0007: real time    0.0007
    --------------------------------------------
      LOOP:  cpu time    3.3511: real time    3.3896

 eigenvalue-minimisations  :  1272
 total energy-change (2. order) :-0.2079737E-01  (-0.3740102E-02)
 number of electron      88.0000000 magnetization 
 augmentation part       -1.1670380 magnetization 

 Broyden mixing:
  rms(total) = 0.23633E-01    rms(broyden)= 0.23631E-01
  rms(prec ) = 0.27917E-01
  weight for this iteration     100.00

 eigenvalues of (default mixing * dielectric matrix)
  average eigenvalue GAMMA=   1.4686
  2.5367  1.2525  1.2525  0.8329

 Free energy of the ion-electron system (eV)
  ---------------------------------------------------
  alpha Z        PSCENC =       223.08133454
  Ewald energy   TEWEN  =     -4595.06878074
  -Hartree energ DENC   =     -1850.40432950
  -exchange      EXHF   =         0.00000000
  -V(xc)+E(xc)   XCENC  =       240.74550033
  PAW double counting   =      5798.73402164    -6066.77011675
  entropy T*S    EENTRO =        -0.00000000
  eigenvalues    EBANDS =      -752.87065024
  atomic energy  EATOM  =      6645.14004964
  Solvation  Ediel_sol  =         0.00000000
  ---------------------------------------------------
  free energy    TOTEN  =      -357.41297107 eV

  energy without entropy =     -357.41297107  energy(sigma->0) =     -357.41297107


--------------------------------------------------------------------------------------------------------




--------------------------------------- Iteration      1(  10)  ---------------------------------------


    POTLOK:  cpu time    0.1379: real time    0.1430
    SETDIJ:  cpu time    1.1410: real time    1.1411
     EDDAV:  cpu time    1.9612: real time    1.9613
       DOS:  cpu time    0.0004: real time    0.0004
    CHARGE:  cpu time    0.3774: real time    0.3774
    MIXING:  cpu time    0.0007: real time    0.0007
    --------------------------------------------
      LOOP:  cpu time    3.6186: real time    3.6237

 eigenvalue-minimisations  :  1536
 total energy-change (2. order) :-0.3123639E-03  (-0.1849714E-03)
 number of electron      88.0000000 magnetization 
 augmentation part       -1.1633229 magnetization 

 Broyden mixing:
  rms(total) = 0.13241E-01    rms(broyden)= 0.13241E-01
  rms(prec ) = 0.16677E-01
  weight for this iteration     100.00

 eigenvalues of (default mixing * dielectric matrix)
  average eigenvalue GAMMA=   1.7028
  2.6537  2.6537  1.1658  1.1658  0.8752

 Free energy of the ion-electron system (eV)
  ---------------------------------------------------
  alpha Z        PSCENC =       223.08133454
  Ewald energy   TEWEN  =     -4595.06878074
  -Hartree energ DENC   =     -1849.99407423
  -exchange      EXHF   =         0.00000000
  -V(xc)+E(xc)   XCENC  =       240.70115026
  PAW double counting   =      5789.29953487    -6057.34771920
  entropy T*S    EENTRO =        -0.00000000
  eigenvalues    EBANDS =      -753.22477857
  atomic energy  EATOM  =      6645.14004964
  Solvation  Ediel_sol  =         0.00000000
  ---------------------------------------------------
  free energy    TOTEN  =      -357.41328343 eV

  energy without entropy =     -357.41328343  energy(sigma->0) =     -357.41328343


--------------------------------------------------------------------------------------------------------




--------------------------------------- Iteration      1(  11)  ---------------------------------------


    POTLOK:  cpu time    0.1204: real time    0.1394
    SETDIJ:  cpu time    1.1390: real time    1.1391
     EDDAV:  cpu time    1.7299: real time    1.7300
       DOS:  cpu time    0.0003: real time    0.0003
    CHARGE:  cpu time    0.3750: real time    0.3749
    MIXING:  cpu time    0.0007: real time    0.0007
    --------------------------------------------
      LOOP:  cpu time    3.3654: real time    3.3845

 eigenvalue-minimisations  :  1288
 total energy-change (2. order) :-0.9992002E-03  (-0.1218924E-03)
 number of electron      88.0000000 magnetization 
 augmentation part       -1.1620281 magnetization 

 Broyden mixing:
  rms(total) = 0.60381E-02    rms(broyden)= 0.60376E-02
  rms(prec ) = 0.84285E-02
  weight for this iteration     100.00

 eigenvalues of (default mixing * dielectric matrix)
  average eigenvalue GAMMA=   1.6088
  2.6603  2.6603  1.2429  1.2429  0.9231  0.9231

 Free energy of the ion-electron system (eV)
  ---------------------------------------------------
  alpha Z        PSCENC =       223.08133454
  Ewald energy   TEWEN  =     -4595.06878074
  -Hartree energ DENC   =     -1849.21313800
  -exchange      EXHF   =         0.00000000
  -V(xc)+E(xc)   XCENC  =       240.67597572
  PAW double counting   =      5777.99019356    -6046.11906561
  entropy T*S    EENTRO =        -0.00000000
  eigenvalues    EBANDS =      -753.90085174
  atomic energy  EATOM  =      6645.14004964
  Solvation  Ediel_sol  =         0.00000000
  ---------------------------------------------------
  free energy    TOTEN  =      -357.41428263 eV

  energy without entropy =     -357.41428263  energy(sigma->0) =     -357.41428263


--------------------------------------------------------------------------------------------------------




--------------------------------------- Iteration      1(  12)  ---------------------------------------


    POTLOK:  cpu time    0.1276: real time    0.1548
    SETDIJ:  cpu time    1.1393: real time    1.1393
     EDDAV:  cpu time    1.8954: real time    1.8955
       DOS:  cpu time    0.0003: real time    0.0003
    CHARGE:  cpu time    0.3758: real time    0.3758
    MIXING:  cpu time    0.0007: real time    0.0007
    --------------------------------------------
      LOOP:  cpu time    3.5392: real time    3.5665

 eigenvalue-minimisations  :  1464
 total energy-change (2. order) : 0.1937680E-03  (-0.2230177E-04)
 number of electron      88.0000000 magnetization 
 augmentation part       -1.1634360 magnetization 

 Broyden mixing:
  rms(total) = 0.15531E-02    rms(broyden)= 0.15523E-02
  rms(prec ) = 0.21270E-02
  weight for this iteration     100.00

 eigenvalues of (default mixing * dielectric matrix)
  average eigenvalue GAMMA=   1.6681
  3.0734  2.3815  1.9550  0.9826  0.9826  1.1509  1.1509

 Free energy of the ion-electron system (eV)
  ---------------------------------------------------
  alpha Z        PSCENC =       223.08133454
  Ewald energy   TEWEN  =     -4595.06878074
  -Hartree energ DENC   =     -1849.44447286
  -exchange      EXHF   =         0.00000000
  -V(xc)+E(xc)   XCENC  =       240.70531742
  PAW double counting   =      5782.08527948    -6050.21786396
  entropy T*S    EENTRO =        -0.00000000
  eigenvalues    EBANDS =      -753.69495239
  atomic energy  EATOM  =      6645.14004964
  Solvation  Ediel_sol  =         0.00000000
  ---------------------------------------------------
  free energy    TOTEN  =      -357.41408887 eV

  energy without entropy =     -357.41408887  energy(sigma->0) =     -357.41408887


--------------------------------------------------------------------------------------------------------




--------------------------------------- Iteration      1(  13)  ---------------------------------------


    POTLOK:  cpu time    0.1115: real time    0.1545
    SETDIJ:  cpu time    1.1382: real time    1.1382
     EDDAV:  cpu time    1.8802: real time    1.8805
       DOS:  cpu time    0.0003: real time    0.0003
    CHARGE:  cpu time    0.3742: real time    0.3742
    MIXING:  cpu time    0.0010: real time    0.0010
    --------------------------------------------
      LOOP:  cpu time    3.5055: real time    3.5488

 eigenvalue-minimisations  :  1448
 total energy-change (2. order) : 0.7565644E-05  (-0.2578588E-05)
 number of electron      88.0000000 magnetization 
 augmentation part       -1.1633346 magnetization 

 Broyden mixing:
  rms(total) = 0.28894E-03    rms(broyden)= 0.28588E-03
  rms(prec ) = 0.37551E-03
  weight for this iteration     100.00

 eigenvalues of (default mixing * dielectric matrix)
  average eigenvalue GAMMA=   1.5997
  3.0306  2.4279  1.8757  1.1879  1.1879  0.9222  1.0829  1.0829

 Free energy of the ion-electron system (eV)
  ---------------------------------------------------
  alpha Z        PSCENC =       223.08133454
  Ewald energy   TEWEN  =     -4595.06878074
  -Hartree energ DENC   =     -1849.53956626
  -exchange      EXHF   =         0.00000000
  -V(xc)+E(xc)   XCENC  =       240.71189664
  PAW double counting   =      5781.40020907    -6049.53286694
  entropy T*S    EENTRO =        -0.00000000
  eigenvalues    EBANDS =      -753.60635725
  atomic energy  EATOM  =      6645.14004964
  Solvation  Ediel_sol  =         0.00000000
  ---------------------------------------------------
  free energy    TOTEN  =      -357.41408130 eV

  energy without entropy =     -357.41408130  energy(sigma->0) =     -357.41408130


--------------------------------------------------------------------------------------------------------




--------------------------------------- Iteration      1(  14)  ---------------------------------------


    POTLOK:  cpu time    0.0929: real time    0.1501
    SETDIJ:  cpu time    1.1393: real time    1.1393
     EDDAV:  cpu time    1.4155: real time    1.4156
       DOS:  cpu time    0.0003: real time    0.0003
    CHARGE:  cpu time    0.3752: real time    0.3752
    MIXING:  cpu time    0.0008: real time    0.0008
    --------------------------------------------
      LOOP:  cpu time    3.0241: real time    3.0815

 eigenvalue-minimisations  :   896
 total energy-change (2. order) :-0.7118317E-05  (-0.9033268E-07)
 number of electron      88.0000000 magnetization 
 augmentation part       -1.1632770 magnetization 

 Broyden mixing:
  rms(total) = 0.11101E-03    rms(broyden)= 0.10305E-03
  rms(prec ) = 0.16329E-03
  weight for this iteration     100.00

 eigenvalues of (default mixing * dielectric matrix)
  average eigenvalue GAMMA=   1.6780
  2.9102  2.8375  2.2433  1.8230  1.1239  1.1239  0.9253  1.0573  1.0573

 Free energy of the ion-electron system (eV)
  ---------------------------------------------------
  alpha Z        PSCENC =       223.08133454
  Ewald energy   TEWEN  =     -4595.06878074
  -Hartree energ DENC   =     -1849.53273245
  -exchange      EXHF   =         0.00000000
  -V(xc)+E(xc)   XCENC  =       240.71114270
  PAW double counting   =      5781.36120877    -6049.49329701
  entropy T*S    EENTRO =        -0.00000000
  eigenvalues    EBANDS =      -753.61301386
  atomic energy  EATOM  =      6645.14004964
  Solvation  Ediel_sol  =         0.00000000
  ---------------------------------------------------
  free energy    TOTEN  =      -357.41408842 eV

  energy without entropy =     -357.41408842  energy(sigma->0) =     -357.41408842


--------------------------------------------------------------------------------------------------------




--------------------------------------- Iteration      1(  15)  ---------------------------------------


    POTLOK:  cpu time    0.1435: real time    0.1505
    SETDIJ:  cpu time    1.1404: real time    1.1404
     EDDAV:  cpu time    1.3295: real time    1.3296
       DOS:  cpu time    0.0007: real time    0.0007
    CHARGE:  cpu time    0.3770: real time    0.3770
    MIXING:  cpu time    0.0009: real time    0.0009
    --------------------------------------------
      LOOP:  cpu time    2.9921: real time    2.9991

 eigenvalue-minimisations  :   792
 total energy-change (2. order) :-0.2612171E-05  (-0.2828656E-07)
 number of electron      88.0000000 magnetization 
 augmentation part       -1.1632653 magnetization 

 Broyden mixing:
  rms(total) = 0.76053E-04    rms(broyden)= 0.63903E-04
  rms(prec ) = 0.79149E-04
  weight for this iteration     100.00
  WARNING: grid for Broyden might be to small

 eigenvalues of (default mixing * dielectric matrix)
  average eigenvalue GAMMA=   1.6516
  3.0598  2.8403  2.4058  1.8376  1.1731  1.1731  1.0946  1.0946  0.9251  0.9125

 Free energy of the ion-electron system (eV)
  ---------------------------------------------------
  alpha Z        PSCENC =       223.08133454
  Ewald energy   TEWEN  =     -4595.06878074
  -Hartree energ DENC   =     -1849.53290577
  -exchange      EXHF   =         0.00000000
  -V(xc)+E(xc)   XCENC  =       240.71116998
  PAW double counting   =      5781.33583126    -6049.46710081
  entropy T*S    EENTRO =        -0.00000000
  eigenvalues    EBANDS =      -753.61368913
  atomic energy  EATOM  =      6645.14004964
  Solvation  Ediel_sol  =         0.00000000
  ---------------------------------------------------
  free energy    TOTEN  =      -357.41409103 eV

  energy without entropy =     -357.41409103  energy(sigma->0) =     -357.41409103


--------------------------------------------------------------------------------------------------------




--------------------------------------- Iteration      1(  16)  ---------------------------------------


    POTLOK:  cpu time    0.1150: real time    0.1593
    SETDIJ:  cpu time    1.1378: real time    1.1378
     EDDAV:  cpu time    1.3239: real time    1.3240
       DOS:  cpu time    0.0004: real time    0.0004
    CHARGE:  cpu time    0.3741: real time    0.3741
    MIXING:  cpu time    0.0009: real time    0.0009
    --------------------------------------------
      LOOP:  cpu time    2.9520: real time    2.9965

 eigenvalue-minimisations  :   784
 total energy-change (2. order) : 0.1382214E-05  (-0.7312715E-08)
 number of electron      88.0000000 magnetization 
 augmentation part       -1.1632787 magnetization 

 Broyden mixing:
  rms(total) = 0.51722E-04    rms(broyden)= 0.31231E-04
  rms(prec ) = 0.36586E-04
  weight for this iteration     100.00
  WARNING: grid for Broyden might be to small

 eigenvalues of (default mixing * dielectric matrix)
  average eigenvalue GAMMA=   1.6386
  3.0563  2.9368  2.4622  1.8017  1.4828  1.2004  1.2004  0.9255  0.9944  0.9823
  0.9823

 Free energy of the ion-electron system (eV)
  ---------------------------------------------------
  alpha Z        PSCENC =       223.08133454
  Ewald energy   TEWEN  =     -4595.06878074
  -Hartree energ DENC   =     -1849.53327236
  -exchange      EXHF   =         0.00000000
  -V(xc)+E(xc)   XCENC  =       240.71118707
  PAW double counting   =      5781.35382256    -6049.48524375
  entropy T*S    EENTRO =        -0.00000000
  eigenvalues    EBANDS =      -753.61318661
  atomic energy  EATOM  =      6645.14004964
  Solvation  Ediel_sol  =         0.00000000
  ---------------------------------------------------
  free energy    TOTEN  =      -357.41408965 eV

  energy without entropy =     -357.41408965  energy(sigma->0) =     -357.41408965


--------------------------------------------------------------------------------------------------------




--------------------------------------- Iteration      1(  17)  ---------------------------------------


    POTLOK:  cpu time    0.0961: real time    0.1406
    SETDIJ:  cpu time    1.1379: real time    1.1379
     EDDAV:  cpu time    1.3329: real time    1.3330
       DOS:  cpu time    0.0003: real time    0.0003
    CHARGE:  cpu time    0.3744: real time    0.3744
    MIXING:  cpu time    0.0010: real time    0.0010
    --------------------------------------------
      LOOP:  cpu time    2.9427: real time    2.9872

 eigenvalue-minimisations  :   792
 total energy-change (2. order) : 0.1145300E-05  (-0.2715918E-08)
 number of electron      88.0000000 magnetization 
 augmentation part       -1.1632810 magnetization 

 Broyden mixing:
  rms(total) = 0.42829E-04    rms(broyden)= 0.11601E-04
  rms(prec ) = 0.14161E-04
  weight for this iteration     100.00
  WARNING: grid for Broyden might be to small

 eigenvalues of (default mixing * dielectric matrix)
  average eigenvalue GAMMA=   1.7027
  3.4212  2.9951  2.7158  2.2637  1.8571  1.1947  1.1947  1.0601  1.0601  0.9496
  0.9332  0.7872

 Free energy of the ion-electron system (eV)
  ---------------------------------------------------
  alpha Z        PSCENC =       223.08133454
  Ewald energy   TEWEN  =     -4595.06878074
  -Hartree energ DENC   =     -1849.53349724
  -exchange      EXHF   =         0.00000000
  -V(xc)+E(xc)   XCENC  =       240.71118417
  PAW double counting   =      5781.36141522    -6049.49263124
  entropy T*S    EENTRO =        -0.00000000
  eigenvalues    EBANDS =      -753.61316284
  atomic energy  EATOM  =      6645.14004964
  Solvation  Ediel_sol  =         0.00000000
  ---------------------------------------------------
  free energy    TOTEN  =      -357.41408850 eV

  energy without entropy =     -357.41408850  energy(sigma->0) =     -357.41408850


--------------------------------------------------------------------------------------------------------




--------------------------------------- Iteration      1(  18)  ---------------------------------------


    POTLOK:  cpu time    0.1348: real time    0.1550
    SETDIJ:  cpu time    1.1392: real time    1.1392
     EDDAV:  cpu time    1.3230: real time    1.3231
       DOS:  cpu time    0.0003: real time    0.0003
    --------------------------------------------
      LOOP:  cpu time    2.5972: real time    2.6175

 eigenvalue-minimisations  :   784
 total energy-change (2. order) : 0.4034496E-07  (-0.1061876E-07)
 number of electron      88.0000000 magnetization 
 augmentation part       -1.1632810 magnetization 

 Free energy of the ion-electron system (eV)
  ---------------------------------------------------
  alpha Z        PSCENC =       223.08133454
  Ewald energy   TEWEN  =     -4595.06878074
  -Hartree energ DENC   =     -1849.53338590
  -exchange      EXHF   =         0.00000000
  -V(xc)+E(xc)   XCENC  =       240.71118270
  PAW double counting   =      5781.35990520    -6049.49216835
  entropy T*S    EENTRO =        -0.00000000
  eigenvalues    EBANDS =      -753.61222555
  atomic energy  EATOM  =      6645.14004964
  Solvation  Ediel_sol  =         0.00000000
  ---------------------------------------------------
  free energy    TOTEN  =      -357.41408846 eV

  energy without entropy =     -357.41408846  energy(sigma->0) =     -357.41408846


--------------------------------------------------------------------------------------------------------




 average (electrostatic) potential at core
  the test charge radii are     1.1312  1.1541  1.0178
  (the norm of the test charge is              1.0000)
       1 -55.3674       2 -55.3674       3-101.6041       4-101.6041       5 -68.9933
       6 -68.9933       7 -69.0002       8 -69.0002       9 -68.9675      10 -68.9675



 E-fermi :   0.6693     XC(G=0):  -8.0433     alpha+bet : -6.9996


 k-point     1 :       0.0000    0.0000    0.0000
  band No.  band energies     occupation 
      1     -20.8876      2.00000
      2     -20.8834      2.00000
      3     -16.4352      2.00000
      4     -16.4315      2.00000
      5     -16.3404      2.00000
      6     -16.3367      2.00000
      7     -16.2704      2.00000
      8     -16.2685      2.00000
      9     -16.2684      2.00000
     10     -16.2672      2.00000
     11     -16.2601      2.00000
     12     -16.2581      2.00000
     13     -14.3585      2.00000
     14     -14.0449      2.00000
     15     -13.9981      2.00000
     16     -13.9880      2.00000
     17     -13.7403      2.00000
     18     -13.7240      2.00000
     19      -8.1880      2.00000
     20      -7.3333      2.00000
     21      -7.2965      2.00000
     22      -7.2796      2.00000
     23      -7.2726      2.00000
     24      -7.2670      2.00000
     25      -7.2660      2.00000
     26      -6.4788      2.00000
     27      -3.4039      2.00000
     28      -3.2726      2.00000
     29      -3.2293      2.00000
     30      -1.9166      2.00000
     31      -1.9084      2.00000
     32      -1.8956      2.00000
     33      -1.5131      2.00000
     34      -1.4382      2.00000
     35      -1.4329      2.00000
     36      -1.3653      2.00000
     37      -1.2131      2.00000
     38      -1.2070      2.00000
     39      -1.1567      2.00000
     40      -1.0886      2.00000
     41      -0.9681      2.00000
     42      -0.9043      2.00000
     43      -0.8881      2.00000
     44       0.5436      2.00000
     45       2.7566      0.00000
     46       2.7922      0.00000
     47       2.8622      0.00000
     48       4.7190      0.00000
     49       5.7298      0.00000
     50       6.0746      0.00000
     51       6.2774      0.00000
     52       6.4619      0.00000
     53       6.4910      0.00000
     54       6.5042      0.00000
     55       6.5324      0.00000
     56       6.7856      0.00000

 k-point     2 :       0.3333    0.0000    0.0000
  band No.  band energies     occupation 
      1     -20.8864      2.00000
      2     -20.8844      2.00000
      3     -16.4129      2.00000
      4     -16.4092      2.00000
      5     -16.3657      2.00000
      6     -16.3619      2.00000
      7     -16.2700      2.00000
      8     -16.2690      2.00000
      9     -16.2682      2.00000
     10     -16.2674      2.00000
     11     -16.2597      2.00000
     12     -16.2586      2.00000
     13     -14.2783      2.00000
     14     -14.0978      2.00000
     15     -13.9683      2.00000
     16     -13.9244      2.00000
     17     -13.8163      2.00000
     18     -13.7911      2.00000
     19      -7.8455      2.00000
     20      -7.3050      2.00000
     21      -7.2816      2.00000
     22      -7.2703      2.00000
     23      -7.2652      2.00000
     24      -7.2586      2.00000
     25      -7.2519      2.00000
     26      -7.0285      2.00000
     27      -3.0256      2.00000
     28      -2.9357      2.00000
     29      -2.5914      2.00000
     30      -2.1403      2.00000
     31      -2.0802      2.00000
     32      -1.9811      2.00000
     33      -1.7588      2.00000
     34      -1.7377      2.00000
     35      -1.4351      2.00000
     36      -1.4168      2.00000
     37      -1.3904      2.00000
     38      -1.3672      2.00000
     39      -1.2204      2.00000
     40      -1.1393      2.00000
     41      -1.0741      2.00000
     42      -1.0372      2.00000
     43      -0.8688      2.00000
     44      -0.3706      2.00000
     45       3.6993      0.00000
     46       3.8172      0.00000
     47       3.8754      0.00000
     48       5.1197      0.00000
     49       5.4458      0.00000
     50       5.6720      0.00000
     51       5.8879      0.00000
     52       6.2519      0.00000
     53       6.3735      0.00000
     54       6.6322      0.00000
     55       6.6692      0.00000
     56       6.7812      0.00000

 k-point     3 :       0.3333    0.3333    0.0000
  band No.  band energies     occupation 
      1     -20.8866      2.00000
      2     -20.8841      2.00000
      3     -16.4348      2.00000
      4     -16.3874      2.00000
      5     -16.3867      2.00000
      6     -16.3404      2.00000
      7     -16.2697      2.00000
      8     -16.2691      2.00000
      9     -16.2685      2.00000
     10     -16.2671      2.00000
     11     -16.2593      2.00000
     12     -16.2588      2.00000
     13     -14.2525      2.00000
     14     -14.0512      2.00000
     15     -14.0093      2.00000
     16     -13.9414      2.00000
     17     -13.8994      2.00000
     18     -13.7306      2.00000
     19      -7.8346      2.00000
     20      -7.2869      2.00000
     21      -7.2774      2.00000
     22      -7.2647      2.00000
     23      -7.2613      2.00000
     24      -7.2581      2.00000
     25      -7.2433      2.00000
     26      -6.9787      2.00000
     27      -3.3322      2.00000
     28      -3.1687      2.00000
     29      -2.6892      2.00000
     30      -2.1510      2.00000
     31      -2.0876      2.00000
     32      -1.7800      2.00000
     33      -1.6950      2.00000
     34      -1.5329      2.00000
     35      -1.4959      2.00000
     36      -1.3959      2.00000
     37      -1.3303      2.00000
     38      -1.2778      2.00000
     39      -1.2487      2.00000
     40      -1.1766      2.00000
     41      -1.1408      2.00000
     42      -0.9569      2.00000
     43      -0.8807      2.00000
     44      -0.0464      2.00000
     45       3.0404      0.00000
     46       3.1047      0.00000
     47       4.3104      0.00000
     48       4.9733      0.00000
     49       5.7889      0.00000
     50       5.9672      0.00000
     51       6.3337      0.00000
     52       6.3342      0.00000
     53       6.7008      0.00000
     54       6.7607      0.00000
     55       6.8374      0.00000
     56       7.0616      0.00000

 k-point     4 :      -0.3333    0.3333    0.0000
  band No.  band energies     occupation 
      1     -20.8856      2.00000
      2     -20.8851      2.00000
      3     -16.4128      2.00000
      4     -16.4099      2.00000
      5     -16.3657      2.00000
      6     -16.3632      2.00000
      7     -16.2698      2.00000
      8     -16.2692      2.00000
      9     -16.2682      2.00000
     10     -16.2674      2.00000
     11     -16.2594      2.00000
     12     -16.2589      2.00000
     13     -14.1565      2.00000
     14     -14.1346      2.00000
     15     -13.9976      2.00000
     16     -13.9754      2.00000
     17     -13.8212      2.00000
     18     -13.8075      2.00000
     19      -7.4627      2.00000
     20      -7.4298      2.00000
     21      -7.2732      2.00000
     22      -7.2681      2.00000
     23      -7.2662      2.00000
     24      -7.2582      2.00000
     25      -7.2496      2.00000
     26      -7.2322      2.00000
     27      -3.1238      2.00000
     28      -2.9311      2.00000
     29      -2.6806      2.00000
     30      -2.2222      2.00000
     31      -2.1272      2.00000
     32      -1.9457      2.00000
     33      -1.7811      2.00000
     34      -1.5446      2.00000
     35      -1.4386      2.00000
     36      -1.3859      2.00000
     37      -1.3360      2.00000
     38      -1.3055      2.00000
     39      -1.2940      2.00000
     40      -1.2509      2.00000
     41      -1.2191      2.00000
     42      -1.0326      2.00000
     43      -0.6420      2.00000
     44      -0.5864      2.00000
     45       3.4008      0.00000
     46       4.0493      0.00000
     47       4.0829      0.00000
     48       5.1198      0.00000
     49       5.4206      0.00000
     50       5.8855      0.00000
     51       6.4366      0.00000
     52       6.4759      0.00000
     53       6.6970      0.00000
     54       6.7438      0.00000
     55       6.8773      0.00000
     56       7.0960      0.00000

 k-point     5 :       0.0000    0.0000    0.3333
  band No.  band energies     occupation 
      1     -20.8865      2.00000
      2     -20.8843      2.00000
      3     -16.4128      2.00000
      4     -16.4092      2.00000
      5     -16.3655      2.00000
      6     -16.3620      2.00000
      7     -16.2700      2.00000
      8     -16.2690      2.00000
      9     -16.2682      2.00000
     10     -16.2676      2.00000
     11     -16.2596      2.00000
     12     -16.2585      2.00000
     13     -14.2865      2.00000
     14     -14.1233      2.00000
     15     -13.9350      2.00000
     16     -13.9309      2.00000
     17     -13.8051      2.00000
     18     -13.7917      2.00000
     19      -7.8556      2.00000
     20      -7.3159      2.00000
     21      -7.2869      2.00000
     22      -7.2657      2.00000
     23      -7.2639      2.00000
     24      -7.2557      2.00000
     25      -7.2506      2.00000
     26      -7.0317      2.00000
     27      -2.9874      2.00000
     28      -2.9110      2.00000
     29      -2.6619      2.00000
     30      -2.1528      2.00000
     31      -2.1174      2.00000
     32      -2.0501      2.00000
     33      -1.7581      2.00000
     34      -1.7445      2.00000
     35      -1.5197      2.00000
     36      -1.4208      2.00000
     37      -1.3578      2.00000
     38      -1.1867      2.00000
     39      -1.1719      2.00000
     40      -1.0813      2.00000
     41      -1.0211      2.00000
     42      -0.9726      2.00000
     43      -0.9013      2.00000
     44      -0.4602      2.00000
     45       3.6562      0.00000
     46       3.7327      0.00000
     47       3.9322      0.00000
     48       5.2361      0.00000
     49       5.3135      0.00000
     50       5.5056      0.00000
     51       5.8631      0.00000
     52       6.0855      0.00000
     53       6.4962      0.00000
     54       6.5551      0.00000
     55       6.7981      0.00000
     56       6.9410      0.00000

 k-point     6 :       0.3333    0.0000    0.3333
  band No.  band energies     occupation 
      1     -20.8863      2.00000
      2     -20.8844      2.00000
      3     -16.4325      2.00000
      4     -16.3896      2.00000
      5     -16.3894      2.00000
      6     -16.3379      2.00000
      7     -16.2701      2.00000
      8     -16.2688      2.00000
      9     -16.2680      2.00000
     10     -16.2677      2.00000
     11     -16.2597      2.00000
     12     -16.2585      2.00000
     13     -14.2524      2.00000
     14     -14.0300      2.00000
     15     -13.9955      2.00000
     16     -13.9682      2.00000
     17     -13.9178      2.00000
     18     -13.7203      2.00000
     19      -7.8198      2.00000
     20      -7.3056      2.00000
     21      -7.2735      2.00000
     22      -7.2644      2.00000
     23      -7.2589      2.00000
     24      -7.2576      2.00000
     25      -7.2503      2.00000
     26      -6.9828      2.00000
     27      -3.2737      2.00000
     28      -3.2117      2.00000
     29      -2.7042      2.00000
     30      -2.1538      2.00000
     31      -2.0773      2.00000
     32      -1.7555      2.00000
     33      -1.7521      2.00000
     34      -1.5063      2.00000
     35      -1.4597      2.00000
     36      -1.3743      2.00000
     37      -1.3561      2.00000
     38      -1.2580      2.00000
     39      -1.2343      2.00000
     40      -1.1896      2.00000
     41      -1.1806      2.00000
     42      -1.0696      2.00000
     43      -0.7897      2.00000
     44      -0.0074      2.00000
     45       3.0571      0.00000
     46       3.1270      0.00000
     47       4.3145      0.00000
     48       5.0008      0.00000
     49       5.6654      0.00000
     50       6.1645      0.00000
     51       6.2627      0.00000
     52       6.2757      0.00000
     53       6.4814      0.00000
     54       6.7474      0.00000
     55       6.8171      0.00000
     56       6.9838      0.00000

 k-point     7 :      -0.3333    0.0000    0.3333
  band No.  band energies     occupation 
      1     -20.8855      2.00000
      2     -20.8851      2.00000
      3     -16.4126      2.00000
      4     -16.4102      2.00000
      5     -16.3655      2.00000
      6     -16.3631      2.00000
      7     -16.2697      2.00000
      8     -16.2693      2.00000
      9     -16.2680      2.00000
     10     -16.2676      2.00000
     11     -16.2593      2.00000
     12     -16.2589      2.00000
     13     -14.1659      2.00000
     14     -14.1305      2.00000
     15     -14.0272      2.00000
     16     -13.9419      2.00000
     17     -13.8359      2.00000
     18     -13.7895      2.00000
     19      -7.4588      2.00000
     20      -7.4437      2.00000
     21      -7.2847      2.00000
     22      -7.2673      2.00000
     23      -7.2618      2.00000
     24      -7.2550      2.00000
     25      -7.2481      2.00000
     26      -7.2306      2.00000
     27      -3.1665      2.00000
     28      -2.8928      2.00000
     29      -2.7191      2.00000
     30      -2.2194      2.00000
     31      -2.0874      2.00000
     32      -1.9834      2.00000
     33      -1.7243      2.00000
     34      -1.6184      2.00000
     35      -1.4737      2.00000
     36      -1.3988      2.00000
     37      -1.3486      2.00000
     38      -1.3101      2.00000
     39      -1.2561      2.00000
     40      -1.1738      2.00000
     41      -1.1663      2.00000
     42      -1.0336      2.00000
     43      -0.6576      2.00000
     44      -0.5359      2.00000
     45       3.3596      0.00000
     46       3.9904      0.00000
     47       4.1069      0.00000
     48       5.2293      0.00000
     49       5.2944      0.00000
     50       5.9182      0.00000
     51       6.2410      0.00000
     52       6.4604      0.00000
     53       6.7222      0.00000
     54       6.8136      0.00000
     55       6.8833      0.00000
     56       7.0003      0.00000

 k-point     8 :       0.0000    0.3333    0.3333
  band No.  band energies     occupation 
      1     -20.8863      2.00000
      2     -20.8845      2.00000
      3     -16.4321      2.00000
      4     -16.3901      2.00000
      5     -16.3900      2.00000
      6     -16.3374      2.00000
      7     -16.2701      2.00000
      8     -16.2689      2.00000
      9     -16.2680      2.00000
     10     -16.2676      2.00000
     11     -16.2598      2.00000
     12     -16.2584      2.00000
     13     -14.2529      2.00000
     14     -14.0236      2.00000
     15     -13.9937      2.00000
     16     -13.9743      2.00000
     17     -13.9203      2.00000
     18     -13.7192      2.00000
     19      -7.8160      2.00000
     20      -7.3062      2.00000
     21      -7.2802      2.00000
     22      -7.2646      2.00000
     23      -7.2610      2.00000
     24      -7.2562      2.00000
     25      -7.2472      2.00000
     26      -6.9849      2.00000
     27      -3.2657      2.00000
     28      -3.2179      2.00000
     29      -2.7094      2.00000
     30      -2.1460      2.00000
     31      -2.0807      2.00000
     32      -1.7569      2.00000
     33      -1.7530      2.00000
     34      -1.5042      2.00000
     35      -1.4559      2.00000
     36      -1.3918      2.00000
     37      -1.3418      2.00000
     38      -1.2609      2.00000
     39      -1.2496      2.00000
     40      -1.1737      2.00000
     41      -1.1613      2.00000
     42      -1.0943      2.00000
     43      -0.7750      2.00000
     44      -0.0020      2.00000
     45       3.0808      0.00000
     46       3.1274      0.00000
     47       4.3144      0.00000
     48       5.0068      0.00000
     49       5.6376      0.00000
     50       6.1799      0.00000
     51       6.2291      0.00000
     52       6.2635      0.00000
     53       6.4374      0.00000
     54       6.7555      0.00000
     55       6.8266      0.00000
     56       6.9548      0.00000

 k-point     9 :      -0.3333    0.3333    0.3333
  band No.  band energies     occupation 
      1     -20.8856      2.00000
      2     -20.8851      2.00000
      3     -16.4130      2.00000
      4     -16.4098      2.00000
      5     -16.3660      2.00000
      6     -16.3626      2.00000
      7     -16.2697      2.00000
      8     -16.2693      2.00000
      9     -16.2680      2.00000
     10     -16.2676      2.00000
     11     -16.2593      2.00000
     12     -16.2589      2.00000
     13     -14.1651      2.00000
     14     -14.1294      2.00000
     15     -14.0321      2.00000
     16     -13.9377      2.00000
     17     -13.8385      2.00000
     18     -13.7879      2.00000
     19      -7.4624      2.00000
     20      -7.4386      2.00000
     21      -7.2841      2.00000
     22      -7.2694      2.00000
     23      -7.2613      2.00000
     24      -7.2569      2.00000
     25      -7.2492      2.00000
     26      -7.2286      2.00000
     27      -3.1782      2.00000
     28      -2.8963      2.00000
     29      -2.7217      2.00000
     30      -2.2102      2.00000
     31      -2.0791      2.00000
     32      -1.9828      2.00000
     33      -1.7184      2.00000
     34      -1.6306      2.00000
     35      -1.4724      2.00000
     36      -1.3802      2.00000
     37      -1.3431      2.00000
     38      -1.3351      2.00000
     39      -1.2669      2.00000
     40      -1.1688      2.00000
     41      -1.1524      2.00000
     42      -1.0411      2.00000
     43      -0.6582      2.00000
     44      -0.5143      2.00000
     45       3.3471      0.00000
     46       3.9874      0.00000
     47       4.1045      0.00000
     48       5.2342      0.00000
     49       5.2954      0.00000
     50       5.9313      0.00000
     51       6.2310      0.00000
     52       6.4220      0.00000
     53       6.7293      0.00000
     54       6.7653      0.00000
     55       6.9161      0.00000
     56       7.0069      0.00000

 k-point    10 :      -0.3333   -0.3333    0.3333
  band No.  band energies     occupation 
      1     -20.8858      2.00000
      2     -20.8849      2.00000
      3     -16.4125      2.00000
      4     -16.4098      2.00000
      5     -16.3655      2.00000
      6     -16.3633      2.00000
      7     -16.2698      2.00000
      8     -16.2692      2.00000
      9     -16.2683      2.00000
     10     -16.2676      2.00000
     11     -16.2595      2.00000
     12     -16.2587      2.00000
     13     -14.1801      2.00000
     14     -14.1451      2.00000
     15     -13.9977      2.00000
     16     -13.9446      2.00000
     17     -13.8262      2.00000
     18     -13.7953      2.00000
     19      -7.4767      2.00000
     20      -7.4476      2.00000
     21      -7.2912      2.00000
     22      -7.2765      2.00000
     23      -7.2605      2.00000
     24      -7.2514      2.00000
     25      -7.2425      2.00000
     26      -7.2125      2.00000
     27      -3.1256      2.00000
     28      -2.8323      2.00000
     29      -2.7732      2.00000
     30      -2.2560      2.00000
     31      -2.1466      2.00000
     32      -2.0234      2.00000
     33      -1.7008      2.00000
     34      -1.5961      2.00000
     35      -1.5233      2.00000
     36      -1.3578      2.00000
     37      -1.3236      2.00000
     38      -1.3041      2.00000
     39      -1.2370      2.00000
     40      -1.1595      2.00000
     41      -1.1381      2.00000
     42      -0.9514      2.00000
     43      -0.7027      2.00000
     44      -0.6011      2.00000
     45       3.3688      0.00000
     46       3.9800      0.00000
     47       4.1495      0.00000
     48       5.0578      0.00000
     49       5.4099      0.00000
     50       5.8519      0.00000
     51       6.2557      0.00000
     52       6.3459      0.00000
     53       6.7303      0.00000
     54       6.7582      0.00000
     55       7.1080      0.00000
     56       7.1766      0.00000


--------------------------------------------------------------------------------------------------------


 soft charge-density along one line, spin component           1
         0         1         2         3         4         5         6         7         8         9
 total charge-density along one line

 pseudopotential strength for first ion, spin component:           1
 18.009  -4.715   0.001  -0.001  -0.000  -0.002   0.002   0.000
 -4.715   1.243  -0.000   0.000   0.000   0.000  -0.000  -0.000
  0.001  -0.000   2.281   0.001   0.000  -2.731  -0.001  -0.000
 -0.001   0.000   0.001   2.280  -0.000  -0.001  -2.731   0.000
 -0.000   0.000   0.000  -0.000   2.282  -0.000   0.000  -2.732
 -0.002   0.000  -2.731  -0.001  -0.000   3.239   0.001   0.000
  0.002  -0.000  -0.001  -2.731   0.000   0.001   3.239  -0.000
  0.000  -0.000  -0.000   0.000  -2.732   0.000  -0.000   3.241
  0.000  -0.000  -0.000   0.000   0.002   0.000  -0.000  -0.003
  0.001  -0.000   0.001  -0.001   0.000  -0.001   0.001  -0.000
 -0.001   0.000  -0.002  -0.001  -0.000   0.002   0.001   0.000
 -0.000   0.000   0.000  -0.000  -0.002  -0.000   0.000   0.003
  0.001  -0.000  -0.000  -0.001   0.000   0.000   0.002  -0.000
 total augmentation occupancy for first ion, spin component:           1
  1.909  -0.143   0.000  -0.000   0.000   0.001  -0.001  -0.000  -0.000   0.001  -0.001  -0.000   0.001
 -0.143   0.108   0.005  -0.004  -0.000  -0.002   0.002   0.000   0.000  -0.005   0.002   0.000  -0.002
  0.000   0.005   2.014   0.002  -0.000   0.002   0.001  -0.000  -0.000   0.002  -0.004  -0.000   0.000
 -0.000  -0.004   0.002   2.013  -0.000   0.001   0.001  -0.000  -0.000  -0.002  -0.001   0.000  -0.003
  0.000  -0.000  -0.000  -0.000   2.018  -0.000  -0.000   0.004   0.004  -0.000   0.000  -0.005   0.000
  0.001  -0.002   0.002   0.001  -0.000   0.007  -0.001  -0.000   0.000  -0.002   0.002   0.000  -0.001
 -0.001   0.002   0.001   0.001  -0.000  -0.001   0.008  -0.000   0.000   0.002   0.001  -0.000   0.003
  0.000   0.000  -0.000  -0.000   0.004  -0.000  -0.000   0.006  -0.003   0.000  -0.000   0.003  -0.000
 -0.000   0.000  -0.000  -0.000   0.004   0.000   0.000  -0.003   0.005  -0.000   0.000   0.000   0.000
  0.001  -0.005   0.002  -0.002  -0.000  -0.002   0.002   0.000  -0.000   0.005  -0.001  -0.000   0.001
 -0.001   0.002  -0.004  -0.001   0.000   0.002   0.001  -0.000   0.000  -0.001   0.004  -0.000   0.001
 -0.000   0.000  -0.000   0.000  -0.005   0.000  -0.000   0.003   0.000  -0.000  -0.000   0.005  -0.000
  0.001  -0.002   0.000  -0.003   0.000  -0.001   0.003  -0.000   0.000   0.001   0.001  -0.000   0.003


------------------------ aborting loop because EDIFF is reached ----------------------------------------





 total charge     

# of ion       s       p       d       tot
------------------------------------------
    1        1.784   4.718   0.016   6.519
    2        1.784   4.718   0.016   6.519
    3        1.553   0.426   9.834  11.813
    4        1.552   0.426   9.834  11.812
    5        1.614   3.284   0.006   4.905
    6        1.614   3.284   0.006   4.905
    7        1.614   3.284   0.006   4.905
    8        1.614   3.284   0.006   4.905
    9        1.614   3.283   0.006   4.904
   10        1.614   3.283   0.006   4.904
--------------------------------------------------
tot         16.360  29.990  19.739  66.089

    CHARGE:  cpu time    0.0695: real time    0.0695
    FORLOC:  cpu time    0.0019: real time    0.0019
    FORNL :  cpu time    0.2713: real time    0.2713
    STRESS:  cpu time    4.8792: real time    4.8794
    FORCOR:  cpu time    0.0743: real time    0.0743
    FORHAR:  cpu time    0.0070: real time    0.0071
    MIXING:  cpu time    0.0009: real time    0.0009
    OFIELD:  cpu time    0.0000: real time    0.0000

  FORCE on cell =-STRESS in cart. coord.  units (eV):
  Direction    XX          YY          ZZ          XY          YZ          ZX
  --------------------------------------------------------------------------------------
  Alpha Z   223.08133   223.08133   223.08133
  Ewald   -1522.60403 -1536.26786 -1536.20419    -0.00000   -47.05883    -0.00000
  Hartree   631.92768   610.80848   606.79626     0.00000   -26.95416    -0.00000
  E(xc)    -369.47798  -369.44904  -369.43658    -0.01079    -0.04370    -0.02963
  Local    -741.77405  -707.11632  -703.13833    -0.00030    73.46575     0.00030
  n-local   450.20756   450.12880   450.11684     0.04526    -0.32339     0.05782
  augment   203.19408   203.10264   203.08670    -0.00088    -0.19113     0.00105
  Kinetic  1125.02419  1125.33605  1125.35478    -0.31538     1.03505    -1.06100
  Fock        0.00000     0.00000     0.00000     0.00000     0.00000     0.00000
  -------------------------------------------------------------------------------------
  Total      -0.42122    -0.37592    -0.34317    -0.00000    -0.07042     0.00000
  in kB      -1.66902    -1.48955    -1.35979    -0.00000    -0.27902     0.00000
  external pressure =       -1.51 kB  Pullay stress =        0.00 kB


 VOLUME and BASIS-vectors are now :
 -----------------------------------------------------------------------------
  energy-cutoff  :      300.00
  volume of cell :      404.35
      direct lattice vectors                 reciprocal lattice vectors
     5.826644932  5.879883179 -0.069129645     0.085812677  0.086043611  0.085728465
     5.826644932  0.069343970 -5.901967398     0.085812677 -0.086043611 -0.085728465
     0.000000000  5.949227149 -5.971097044    -0.085812677  0.084051292 -0.083729969

  length of vectors
     8.278139662  8.293842229  8.428956257     0.148716805  0.148716805  0.146421115


 FORCES acting on ions
    electron-ion (+dipol)            ewald-force                    non-local-force                 convergence-correction
 -----------------------------------------------------------------------------------------------
   0.393E-04 -.132E+02 0.996E+01   0.550E-11 0.131E+02 -.985E+01   -.867E-18 0.148E+00 -.118E+00   -.128E-08 -.856E-04 -.361E-04
   -.393E-04 0.132E+02 -.996E+01   -.551E-11 -.131E+02 0.985E+01   0.867E-18 -.148E+00 0.118E+00   0.128E-08 0.856E-04 0.361E-04
   -.379E-12 -.294E-12 0.333E-12   0.142E-13 0.746E-13 -.462E-13   0.000E+00 0.265E-22 0.000E+00   -.382E-13 -.724E-14 0.148E-13
   -.198E-11 -.842E-12 0.452E-11   -.142E-13 -.107E-13 0.195E-13   0.000E+00 0.000E+00 0.000E+00   -.651E-13 -.265E-13 0.999E-14
   0.190E+02 -.285E-05 0.311E-05   -.193E+02 -.187E-11 -.378E-11   0.226E+00 -.139E-16 -.347E-16   -.594E-05 0.752E-09 0.167E-08
   -.190E+02 0.285E-05 -.311E-05   0.193E+02 0.180E-11 0.378E-11   -.226E+00 0.139E-16 0.347E-16   0.594E-05 -.752E-09 -.167E-08
   -.142E+02 0.129E-05 -.535E-05   0.144E+02 0.000E+00 0.178E-13   -.188E+00 0.347E-17 0.347E-16   0.355E-04 0.206E-08 0.564E-09
   0.142E+02 -.129E-05 0.535E-05   -.144E+02 -.235E-13 0.115E-13   0.188E+00 -.347E-17 -.312E-16   -.355E-04 -.206E-08 -.564E-09
   0.989E-05 -.293E+02 0.280E+02   0.140E-13 0.295E+02 -.282E+02   -.434E-18 -.187E+00 0.174E+00   -.263E-08 -.108E-04 0.470E-04
   -.989E-05 0.293E+02 -.280E+02   0.177E-13 -.295E+02 0.282E+02   0.434E-18 0.187E+00 -.174E+00   0.263E-08 0.108E-04 -.470E-04
 -----------------------------------------------------------------------------------------------
   -.115E-11 -.939E-11 0.800E-11   0.686E-14 -.711E-14 0.000E+00   -.278E-16 -.278E-16 0.000E+00   -.115E-12 -.151E-13 0.212E-13


 POSITION                                       TOTAL-FORCE (eV/Angst)
 -----------------------------------------------------------------------------------
      8.73997      8.85414     -8.90680         0.000000      0.004923     -0.005096
      2.91332      3.04431     -3.03539         0.000000     -0.004923      0.005096
      0.00000      0.00000     -0.00000         0.000000     -0.000000      0.000000
      5.82664      5.94923     -5.97110         0.000000      0.000000      0.000000
      5.29063      3.00929     -5.93653         0.009839      0.000000     -0.000000
      6.36266      8.88917     -6.00566        -0.009839      0.000000      0.000000
      6.30206      5.98390     -8.92208        -0.002680      0.000000      0.000000
      5.35123      5.91456     -3.02011         0.002680     -0.000000     -0.000000
      2.91332      6.45261     -6.40055        -0.000000      0.011042      0.007510
      8.73997      5.44585     -5.54164         0.000000     -0.011042     -0.007510
 -----------------------------------------------------------------------------------
    total drift:                               -0.000000     -0.000000      0.000000


--------------------------------------------------------------------------------------------------------



  FREE ENERGIE OF THE ION-ELECTRON SYSTEM (eV)
  ---------------------------------------------------
  free  energy   TOTEN  =      -357.41408846 eV

  energy  without entropy=     -357.41408846  energy(sigma->0) =     -357.41408846



--------------------------------------------------------------------------------------------------------


    POTLOK:  cpu time    1.2135: real time    1.2135


--------------------------------------------------------------------------------------------------------


 stress matrix after NEB project (eV)
     -0.42122     -0.00000      0.00000
     -0.00000     -0.37592     -0.07042
      0.00000     -0.07042     -0.34317
  FORCES: max atom, RMS     0.013353    0.008155
  FORCE total and by dimension    0.025788    0.011042
  Stress total and by dimension    0.668151    0.421215
     LOOP+:  cpu time   60.9159: real time   61.4752
    4ORBIT:  cpu time    0.0000: real time    0.0000



 total charge     

# of ion       s       p       d       tot
------------------------------------------
    1        1.784   4.718   0.016   6.519
    2        1.784   4.718   0.016   6.519
    3        1.553   0.426   9.834  11.813
    4        1.552   0.426   9.834  11.812
    5        1.614   3.284   0.006   4.905
    6        1.614   3.284   0.006   4.905
    7        1.614   3.284   0.006   4.905
    8        1.614   3.284   0.006   4.905
    9        1.614   3.283   0.006   4.904
   10        1.614   3.283   0.006   4.904
--------------------------------------------------
tot         16.360  29.990  19.739  66.089


 total amount of memory used by VASP MPI-rank0    37665. kBytes
=======================================================================

   base      :      30000. kBytes
   nonlr-proj:       2071. kBytes
   fftplans  :       2500. kBytes
   grid      :       2347. kBytes
   one-center:         31. kBytes
   wavefun   :        716. kBytes

  
  
 General timing and accounting informations for this job:
 ========================================================
  
                  Total CPU time used (sec):       65.885
                            User time (sec):       65.165
                          System time (sec):        0.720
                         Elapsed time (sec):       66.672
  
                   Maximum memory used (kb):       66360.
                   Average memory used (kb):           0.
  
                          Minor page faults:        15914
                          Major page faults:            1
                 Voluntary context switches:         1458
