PROCAR new format
# of k-points:   10         # of bands:   56         # of ions:   10

 k-point     1 :    0.00000000 0.00000000 0.00000000     weight = 0.03703704

band     1 # energy  -20.88755866 # occ.  2.00000000

ion      s      p      d    tot
    1  0.444  0.000  0.000  0.444
    2  0.444  0.000  0.000  0.444
    3  0.000  0.000  0.000  0.000
    4  0.000  0.000  0.000  0.000
    5  0.000  0.000  0.000  0.000
    6  0.000  0.000  0.000  0.000
    7  0.000  0.000  0.000  0.000
    8  0.000  0.000  0.000  0.000
    9  0.000  0.000  0.000  0.000
   10  0.000  0.000  0.000  0.000
tot    0.887  0.000  0.000  0.887

band     2 # energy  -20.88340005 # occ.  2.00000000

ion      s      p      d    tot
    1  0.444  0.000  0.000  0.444
    2  0.444  0.000  0.000  0.444
    3  0.000  0.000  0.000  0.000
    4  0.000  0.000  0.000  0.000
    5  0.000  0.000  0.000  0.000
    6  0.000  0.000  0.000  0.000
    7  0.000  0.000  0.000  0.000
    8  0.000  0.000  0.000  0.000
    9  0.000  0.000  0.000  0.000
   10  0.000  0.000  0.000  0.000
tot    0.888  0.000  0.000  0.888

band     3 # energy  -16.43520905 # occ.  2.00000000

ion      s      p      d    tot
    1  0.000  0.000  0.000  0.000
    2  0.000  0.000  0.000  0.000
    3  0.000  0.000  0.462  0.462
    4  0.000  0.000  0.459  0.459
    5  0.009  0.000  0.000  0.009
    6  0.009  0.000  0.000  0.009
    7  0.010  0.000  0.000  0.011
    8  0.010  0.000  0.000  0.011
    9  0.000  0.000  0.000  0.000
   10  0.000  0.000  0.000  0.000
tot    0.039  0.000  0.921  0.960

band     4 # energy  -16.43152936 # occ.  2.00000000

ion      s      p      d    tot
    1  0.000  0.000  0.000  0.000
    2  0.000  0.000  0.000  0.000
    3  0.000  0.000  0.459  0.459
    4  0.000  0.000  0.462  0.462
    5  0.004  0.000  0.000  0.004
    6  0.004  0.000  0.000  0.004
    7  0.003  0.000  0.000  0.003
    8  0.003  0.000  0.000  0.003
    9  0.013  0.000  0.000  0.013
   10  0.013  0.000  0.000  0.013
tot    0.039  0.000  0.921  0.960

band     5 # energy  -16.34037429 # occ.  2.00000000

ion      s      p      d    tot
    1  0.000  0.000  0.000  0.000
    2  0.000  0.000  0.000  0.000
    3  0.000  0.000  0.484  0.484
    4  0.000  0.000  0.487  0.487
    5  0.000  0.001  0.000  0.001
    6  0.000  0.001  0.000  0.001
    7  0.000  0.001  0.000  0.001
    8  0.000  0.001  0.000  0.001
    9  0.000  0.000  0.000  0.000
   10  0.000  0.000  0.000  0.000
tot    0.000  0.003  0.972  0.974

band     6 # energy  -16.33665914 # occ.  2.00000000

ion      s      p      d    tot
    1  0.000  0.000  0.000  0.000
    2  0.000  0.000  0.000  0.000
    3  0.000  0.000  0.487  0.487
    4  0.000  0.000  0.485  0.485
    5  0.000  0.000  0.000  0.000
    6  0.000  0.000  0.000  0.000
    7  0.000  0.000  0.000  0.000
    8  0.000  0.000  0.000  0.000
    9  0.000  0.001  0.000  0.001
   10  0.000  0.001  0.000  0.001
tot    0.000  0.003  0.972  0.974

band     7 # energy  -16.27035443 # occ.  2.00000000

ion      s      p      d    tot
    1  0.000  0.000  0.000  0.000
    2  0.000  0.000  0.000  0.000
    3  0.000  0.000  0.404  0.404
    4  0.000  0.000  0.574  0.574
    5  0.000  0.000  0.000  0.000
    6  0.000  0.000  0.000  0.000
    7  0.000  0.000  0.000  0.000
    8  0.000  0.000  0.000  0.000
    9  0.000  0.000  0.000  0.000
   10  0.000  0.000  0.000  0.000
tot    0.000  0.000  0.977  0.978

band     8 # energy  -16.26849411 # occ.  2.00000000

ion      s      p      d    tot
    1  0.000  0.000  0.000  0.000
    2  0.000  0.000  0.000  0.000
    3  0.000  0.000  0.569  0.569
    4  0.000  0.000  0.408  0.408
    5  0.000  0.000  0.000  0.000
    6  0.000  0.000  0.000  0.000
    7  0.000  0.000  0.000  0.000
    8  0.000  0.000  0.000  0.000
    9  0.000  0.000  0.000  0.000
   10  0.000  0.000  0.000  0.000
tot    0.000  0.000  0.978  0.978

band     9 # energy  -16.26839589 # occ.  2.00000000

ion      s      p      d    tot
    1  0.000  0.000  0.000  0.000
    2  0.000  0.000  0.000  0.000
    3  0.000  0.000  0.474  0.474
    4  0.000  0.000  0.503  0.503
    5  0.000  0.000  0.000  0.000
    6  0.000  0.000  0.000  0.000
    7  0.000  0.000  0.000  0.000
    8  0.000  0.000  0.000  0.000
    9  0.000  0.000  0.000  0.000
   10  0.000  0.000  0.000  0.000
tot    0.000  0.000  0.977  0.977

band    10 # energy  -16.26719428 # occ.  2.00000000

ion      s      p      d    tot
    1  0.000  0.000  0.000  0.000
    2  0.000  0.000  0.000  0.000
    3  0.000  0.000  0.508  0.508
    4  0.000  0.000  0.470  0.470
    5  0.000  0.000  0.000  0.000
    6  0.000  0.000  0.000  0.000
    7  0.000  0.000  0.000  0.000
    8  0.000  0.000  0.000  0.000
    9  0.000  0.000  0.000  0.000
   10  0.000  0.000  0.000  0.000
tot    0.000  0.000  0.978  0.978

band    11 # energy  -16.26008005 # occ.  2.00000000

ion      s      p      d    tot
    1  0.000  0.000  0.000  0.000
    2  0.000  0.000  0.000  0.000
    3  0.000  0.000  0.571  0.571
    4  0.000  0.000  0.406  0.406
    5  0.000  0.000  0.000  0.000
    6  0.000  0.000  0.000  0.000
    7  0.000  0.000  0.000  0.000
    8  0.000  0.000  0.000  0.000
    9  0.000  0.000  0.000  0.000
   10  0.000  0.000  0.000  0.000
tot    0.000  0.000  0.977  0.978

band    12 # energy  -16.25810644 # occ.  2.00000000

ion      s      p      d    tot
    1  0.000  0.000  0.000  0.000
    2  0.000  0.000  0.000  0.000
    3  0.000  0.000  0.407  0.407
    4  0.000  0.000  0.571  0.571
    5  0.000  0.000  0.000  0.000
    6  0.000  0.000  0.000  0.000
    7  0.000  0.000  0.000  0.000
    8  0.000  0.000  0.000  0.000
    9  0.000  0.000  0.000  0.000
   10  0.000  0.000  0.000  0.000
tot    0.000  0.000  0.978  0.978

band    13 # energy  -14.35850330 # occ.  2.00000000

ion      s      p      d    tot
    1  0.001  0.000  0.000  0.001
    2  0.001  0.000  0.000  0.001
    3  0.016  0.000  0.000  0.016
    4  0.016  0.000  0.000  0.016
    5  0.126  0.000  0.000  0.126
    6  0.126  0.000  0.000  0.126
    7  0.128  0.000  0.000  0.128
    8  0.128  0.000  0.000  0.128
    9  0.114  0.000  0.000  0.114
   10  0.114  0.000  0.000  0.114
tot    0.770  0.000  0.000  0.771

band    14 # energy  -14.04488587 # occ.  2.00000000

ion      s      p      d    tot
    1  0.000  0.000  0.000  0.000
    2  0.000  0.000  0.000  0.000
    3  0.000  0.002  0.000  0.002
    4  0.000  0.002  0.000  0.002
    5  0.169  0.000  0.000  0.169
    6  0.169  0.000  0.000  0.169
    7  0.227  0.000  0.000  0.227
    8  0.227  0.000  0.000  0.227
    9  0.000  0.000  0.000  0.000
   10  0.000  0.000  0.000  0.000
tot    0.792  0.005  0.000  0.797

band    15 # energy  -13.99810749 # occ.  2.00000000

ion      s      p      d    tot
    1  0.000  0.000  0.000  0.000
    2  0.000  0.000  0.000  0.000
    3  0.000  0.002  0.000  0.002
    4  0.000  0.002  0.000  0.002
    5  0.228  0.000  0.000  0.228
    6  0.228  0.000  0.000  0.228
    7  0.170  0.000  0.000  0.170
    8  0.170  0.000  0.000  0.170
    9  0.000  0.000  0.000  0.000
   10  0.000  0.000  0.000  0.000
tot    0.797  0.004  0.000  0.801

band    16 # energy  -13.98803128 # occ.  2.00000000

ion      s      p      d    tot
    1  0.000  0.000  0.000  0.000
    2  0.000  0.000  0.000  0.000
    3  0.000  0.002  0.000  0.002
    4  0.000  0.002  0.000  0.002
    5  0.000  0.000  0.000  0.000
    6  0.000  0.000  0.000  0.000
    7  0.000  0.000  0.000  0.000
    8  0.000  0.000  0.000  0.000
    9  0.397  0.000  0.000  0.397
   10  0.397  0.000  0.000  0.397
tot    0.795  0.005  0.000  0.799

band    17 # energy  -13.74033318 # occ.  2.00000000

ion      s      p      d    tot
    1  0.000  0.000  0.000  0.000
    2  0.000  0.000  0.000  0.000
    3  0.000  0.000  0.029  0.029
    4  0.000  0.000  0.029  0.029
    5  0.182  0.000  0.000  0.182
    6  0.182  0.000  0.000  0.182
    7  0.202  0.000  0.000  0.202
    8  0.202  0.000  0.000  0.202
    9  0.001  0.000  0.000  0.001
   10  0.001  0.000  0.000  0.001
tot    0.771  0.000  0.059  0.830

band    18 # energy  -13.72400421 # occ.  2.00000000

ion      s      p      d    tot
    1  0.000  0.000  0.000  0.000
    2  0.000  0.000  0.000  0.000
    3  0.000  0.000  0.029  0.029
    4  0.000  0.000  0.029  0.029
    5  0.071  0.000  0.000  0.071
    6  0.071  0.000  0.000  0.071
    7  0.049  0.000  0.000  0.049
    8  0.049  0.000  0.000  0.049
    9  0.265  0.000  0.000  0.265
   10  0.265  0.000  0.000  0.265
tot    0.770  0.001  0.059  0.829

band    19 # energy   -8.18798165 # occ.  2.00000000

ion      s      p      d    tot
    1  0.000  0.000  0.000  0.000
    2  0.000  0.000  0.000  0.000
    3  0.284  0.000  0.000  0.284
    4  0.284  0.000  0.000  0.284
    5  0.000  0.017  0.000  0.017
    6  0.000  0.017  0.000  0.017
    7  0.000  0.017  0.000  0.017
    8  0.000  0.017  0.000  0.017
    9  0.000  0.016  0.000  0.016
   10  0.000  0.016  0.000  0.016
tot    0.568  0.100  0.000  0.669

band    20 # energy   -7.33334236 # occ.  2.00000000

ion      s      p      d    tot
    1  0.000  0.379  0.000  0.379
    2  0.000  0.379  0.000  0.379
    3  0.000  0.000  0.000  0.000
    4  0.000  0.000  0.000  0.000
    5  0.000  0.001  0.000  0.002
    6  0.000  0.001  0.000  0.002
    7  0.000  0.001  0.000  0.001
    8  0.000  0.001  0.000  0.001
    9  0.000  0.000  0.000  0.000
   10  0.000  0.000  0.000  0.000
tot    0.000  0.764  0.000  0.764

band    21 # energy   -7.29647126 # occ.  2.00000000

ion      s      p      d    tot
    1  0.000  0.381  0.000  0.381
    2  0.000  0.381  0.000  0.381
    3  0.000  0.000  0.000  0.000
    4  0.000  0.000  0.000  0.000
    5  0.000  0.000  0.000  0.000
    6  0.000  0.000  0.000  0.000
    7  0.000  0.001  0.000  0.002
    8  0.000  0.001  0.000  0.002
    9  0.000  0.001  0.000  0.001
   10  0.000  0.001  0.000  0.001
tot    0.001  0.766  0.000  0.768

band    22 # energy   -7.27955937 # occ.  2.00000000

ion      s      p      d    tot
    1  0.000  0.379  0.000  0.379
    2  0.000  0.379  0.000  0.379
    3  0.000  0.000  0.000  0.000
    4  0.000  0.000  0.000  0.000
    5  0.000  0.001  0.000  0.002
    6  0.000  0.001  0.000  0.002
    7  0.000  0.000  0.000  0.000
    8  0.000  0.000  0.000  0.000
    9  0.001  0.002  0.000  0.002
   10  0.001  0.002  0.000  0.002
tot    0.003  0.765  0.000  0.768

band    23 # energy   -7.27259750 # occ.  2.00000000

ion      s      p      d    tot
    1  0.000  0.384  0.000  0.384
    2  0.000  0.384  0.000  0.384
    3  0.000  0.000  0.000  0.000
    4  0.000  0.000  0.000  0.000
    5  0.000  0.001  0.000  0.001
    6  0.000  0.001  0.000  0.001
    7  0.000  0.001  0.000  0.001
    8  0.000  0.001  0.000  0.001
    9  0.000  0.000  0.000  0.000
   10  0.000  0.000  0.000  0.000
tot    0.000  0.773  0.000  0.773

band    24 # energy   -7.26700347 # occ.  2.00000000

ion      s      p      d    tot
    1  0.000  0.382  0.000  0.382
    2  0.000  0.382  0.000  0.382
    3  0.000  0.000  0.000  0.000
    4  0.000  0.000  0.000  0.000
    5  0.000  0.001  0.000  0.001
    6  0.000  0.001  0.000  0.001
    7  0.000  0.001  0.000  0.001
    8  0.000  0.001  0.000  0.001
    9  0.000  0.001  0.000  0.002
   10  0.000  0.001  0.000  0.002
tot    0.001  0.770  0.000  0.771

band    25 # energy   -7.26601888 # occ.  2.00000000

ion      s      p      d    tot
    1  0.000  0.386  0.000  0.386
    2  0.000  0.386  0.000  0.386
    3  0.000  0.000  0.000  0.000
    4  0.000  0.000  0.000  0.000
    5  0.000  0.001  0.000  0.001
    6  0.000  0.001  0.000  0.001
    7  0.000  0.001  0.000  0.001
    8  0.000  0.001  0.000  0.001
    9  0.000  0.000  0.000  0.000
   10  0.000  0.000  0.000  0.000
tot    0.001  0.775  0.000  0.776

band    26 # energy   -6.47883221 # occ.  2.00000000

ion      s      p      d    tot
    1  0.000  0.000  0.000  0.000
    2  0.000  0.000  0.000  0.000
    3  0.355  0.000  0.000  0.355
    4  0.355  0.000  0.000  0.355
    5  0.012  0.001  0.001  0.014
    6  0.012  0.001  0.001  0.014
    7  0.012  0.001  0.001  0.014
    8  0.012  0.001  0.001  0.014
    9  0.012  0.002  0.001  0.015
   10  0.012  0.002  0.001  0.015
tot    0.783  0.008  0.005  0.796

band    27 # energy   -3.40388412 # occ.  2.00000000

ion      s      p      d    tot
    1  0.000  0.005  0.000  0.005
    2  0.000  0.005  0.000  0.005
    3  0.000  0.047  0.000  0.047
    4  0.000  0.047  0.000  0.047
    5  0.000  0.094  0.000  0.094
    6  0.000  0.094  0.000  0.094
    7  0.000  0.103  0.000  0.103
    8  0.000  0.103  0.000  0.103
    9  0.000  0.015  0.000  0.015
   10  0.000  0.015  0.000  0.015
tot    0.000  0.527  0.000  0.527

band    28 # energy   -3.27258602 # occ.  2.00000000

ion      s      p      d    tot
    1  0.000  0.004  0.000  0.004
    2  0.000  0.004  0.000  0.004
    3  0.000  0.047  0.000  0.047
    4  0.000  0.047  0.000  0.047
    5  0.000  0.016  0.000  0.016
    6  0.000  0.016  0.000  0.016
    7  0.000  0.015  0.000  0.016
    8  0.000  0.015  0.000  0.016
    9  0.000  0.182  0.000  0.182
   10  0.000  0.182  0.000  0.182
tot    0.000  0.528  0.000  0.528

band    29 # energy   -3.22926847 # occ.  2.00000000

ion      s      p      d    tot
    1  0.000  0.005  0.000  0.005
    2  0.000  0.005  0.000  0.005
    3  0.000  0.046  0.000  0.046
    4  0.000  0.046  0.000  0.046
    5  0.000  0.103  0.000  0.103
    6  0.000  0.103  0.000  0.103
    7  0.000  0.094  0.000  0.095
    8  0.000  0.094  0.000  0.095
    9  0.000  0.016  0.000  0.017
   10  0.000  0.016  0.000  0.017
tot    0.000  0.531  0.000  0.531

band    30 # energy   -1.91659471 # occ.  2.00000000

ion      s      p      d    tot
    1  0.000  0.016  0.000  0.017
    2  0.000  0.016  0.000  0.017
    3  0.000  0.000  0.003  0.003
    4  0.000  0.000  0.003  0.003
    5  0.000  0.082  0.000  0.082
    6  0.000  0.082  0.000  0.082
    7  0.000  0.057  0.000  0.057
    8  0.000  0.057  0.000  0.057
    9  0.000  0.115  0.000  0.115
   10  0.000  0.115  0.000  0.115
tot    0.000  0.543  0.006  0.549

band    31 # energy   -1.90842896 # occ.  2.00000000

ion      s      p      d    tot
    1  0.000  0.017  0.000  0.017
    2  0.000  0.017  0.000  0.017
    3  0.000  0.000  0.002  0.002
    4  0.000  0.000  0.002  0.002
    5  0.000  0.128  0.000  0.128
    6  0.000  0.128  0.000  0.128
    7  0.000  0.129  0.000  0.129
    8  0.000  0.129  0.000  0.129
    9  0.000  0.001  0.000  0.001
   10  0.000  0.001  0.000  0.001
tot    0.000  0.548  0.006  0.554

band    32 # energy   -1.89558007 # occ.  2.00000000

ion      s      p      d    tot
    1  0.000  0.014  0.000  0.015
    2  0.000  0.014  0.000  0.015
    3  0.000  0.000  0.002  0.002
    4  0.000  0.000  0.002  0.002
    5  0.000  0.049  0.000  0.049
    6  0.000  0.049  0.000  0.049
    7  0.000  0.075  0.000  0.075
    8  0.000  0.075  0.000  0.075
    9  0.000  0.133  0.000  0.133
   10  0.000  0.133  0.000  0.133
tot    0.000  0.542  0.005  0.547

band    33 # energy   -1.51305745 # occ.  2.00000000

ion      s      p      d    tot
    1  0.001  0.000  0.000  0.002
    2  0.001  0.000  0.000  0.002
    3  0.000  0.004  0.000  0.004
    4  0.000  0.004  0.000  0.004
    5  0.000  0.093  0.000  0.093
    6  0.000  0.093  0.000  0.093
    7  0.000  0.094  0.000  0.094
    8  0.000  0.094  0.000  0.094
    9  0.000  0.097  0.000  0.098
   10  0.000  0.097  0.000  0.098
tot    0.004  0.575  0.000  0.578

band    34 # energy   -1.43823230 # occ.  2.00000000

ion      s      p      d    tot
    1  0.000  0.000  0.000  0.000
    2  0.000  0.000  0.000  0.000
    3  0.000  0.000  0.013  0.013
    4  0.000  0.000  0.013  0.013
    5  0.000  0.183  0.000  0.183
    6  0.000  0.183  0.000  0.183
    7  0.000  0.118  0.000  0.118
    8  0.000  0.118  0.000  0.118
    9  0.000  0.007  0.000  0.007
   10  0.000  0.007  0.000  0.007
tot    0.000  0.617  0.026  0.644

band    35 # energy   -1.43294062 # occ.  2.00000000

ion      s      p      d    tot
    1  0.000  0.000  0.000  0.000
    2  0.000  0.000  0.000  0.000
    3  0.000  0.000  0.013  0.013
    4  0.000  0.000  0.013  0.013
    5  0.000  0.023  0.000  0.023
    6  0.000  0.023  0.000  0.023
    7  0.000  0.089  0.000  0.089
    8  0.000  0.089  0.000  0.089
    9  0.000  0.196  0.000  0.196
   10  0.000  0.196  0.000  0.196
tot    0.000  0.616  0.027  0.643

band    36 # energy   -1.36527995 # occ.  2.00000000

ion      s      p      d    tot
    1  0.000  0.000  0.000  0.000
    2  0.000  0.000  0.000  0.000
    3  0.000  0.006  0.000  0.006
    4  0.000  0.006  0.000  0.006
    5  0.000  0.134  0.000  0.134
    6  0.000  0.134  0.000  0.134
    7  0.000  0.154  0.000  0.155
    8  0.000  0.154  0.000  0.155
    9  0.000  0.000  0.000  0.000
   10  0.000  0.000  0.000  0.000
tot    0.001  0.589  0.001  0.591

band    37 # energy   -1.21307479 # occ.  2.00000000

ion      s      p      d    tot
    1  0.000  0.003  0.000  0.004
    2  0.000  0.003  0.000  0.004
    3  0.000  0.001  0.000  0.001
    4  0.000  0.001  0.000  0.001
    5  0.000  0.014  0.000  0.014
    6  0.000  0.014  0.000  0.014
    7  0.000  0.119  0.000  0.119
    8  0.000  0.119  0.000  0.119
    9  0.000  0.166  0.000  0.166
   10  0.000  0.166  0.000  0.166
tot    0.000  0.608  0.001  0.608

band    38 # energy   -1.20701796 # occ.  2.00000000

ion      s      p      d    tot
    1  0.000  0.005  0.000  0.005
    2  0.000  0.005  0.000  0.005
    3  0.000  0.003  0.000  0.003
    4  0.000  0.003  0.000  0.003
    5  0.000  0.120  0.000  0.120
    6  0.000  0.120  0.000  0.120
    7  0.000  0.014  0.000  0.014
    8  0.000  0.014  0.000  0.014
    9  0.000  0.165  0.000  0.165
   10  0.000  0.165  0.000  0.165
tot    0.000  0.613  0.001  0.614

band    39 # energy   -1.15666651 # occ.  2.00000000

ion      s      p      d    tot
    1  0.000  0.004  0.000  0.004
    2  0.000  0.004  0.000  0.004
    3  0.000  0.004  0.000  0.004
    4  0.000  0.004  0.000  0.004
    5  0.000  0.136  0.000  0.136
    6  0.000  0.136  0.000  0.136
    7  0.000  0.116  0.000  0.116
    8  0.000  0.116  0.000  0.116
    9  0.000  0.052  0.000  0.052
   10  0.000  0.052  0.000  0.052
tot    0.000  0.623  0.001  0.624

band    40 # energy   -1.08859332 # occ.  2.00000000

ion      s      p      d    tot
    1  0.000  0.005  0.000  0.005
    2  0.000  0.005  0.000  0.005
    3  0.000  0.002  0.000  0.002
    4  0.000  0.002  0.000  0.002
    5  0.000  0.097  0.000  0.097
    6  0.000  0.097  0.000  0.097
    7  0.000  0.097  0.000  0.097
    8  0.000  0.097  0.000  0.097
    9  0.000  0.113  0.000  0.113
   10  0.000  0.113  0.000  0.113
tot    0.000  0.627  0.000  0.627

band    41 # energy   -0.96809876 # occ.  2.00000000

ion      s      p      d    tot
    1  0.000  0.000  0.001  0.001
    2  0.000  0.000  0.001  0.001
    3  0.000  0.000  0.000  0.000
    4  0.000  0.000  0.000  0.000
    5  0.000  0.085  0.000  0.085
    6  0.000  0.085  0.000  0.085
    7  0.000  0.076  0.000  0.076
    8  0.000  0.076  0.000  0.076
    9  0.000  0.147  0.000  0.147
   10  0.000  0.147  0.000  0.147
tot    0.000  0.617  0.003  0.620

band    42 # energy   -0.90426271 # occ.  2.00000000

ion      s      p      d    tot
    1  0.000  0.000  0.001  0.001
    2  0.000  0.000  0.001  0.001
    3  0.000  0.000  0.001  0.001
    4  0.000  0.000  0.001  0.001
    5  0.000  0.159  0.000  0.159
    6  0.000  0.159  0.000  0.159
    7  0.000  0.158  0.000  0.158
    8  0.000  0.158  0.000  0.158
    9  0.000  0.000  0.000  0.000
   10  0.000  0.000  0.000  0.000
tot    0.000  0.633  0.003  0.636

band    43 # energy   -0.88810429 # occ.  2.00000000

ion      s      p      d    tot
    1  0.001  0.000  0.001  0.002
    2  0.001  0.000  0.001  0.002
    3  0.007  0.000  0.000  0.007
    4  0.007  0.000  0.000  0.007
    5  0.000  0.064  0.000  0.064
    6  0.000  0.064  0.000  0.064
    7  0.000  0.073  0.000  0.073
    8  0.000  0.073  0.000  0.073
    9  0.000  0.169  0.000  0.170
   10  0.000  0.169  0.000  0.170
tot    0.017  0.614  0.002  0.633

band    44 # energy    0.54355244 # occ.  2.00000000

ion      s      p      d    tot
    1  0.000  0.000  0.000  0.000
    2  0.000  0.000  0.000  0.000
    3  0.129  0.000  0.000  0.129
    4  0.129  0.000  0.000  0.129
    5  0.000  0.086  0.000  0.086
    6  0.000  0.086  0.000  0.086
    7  0.000  0.085  0.000  0.085
    8  0.000  0.085  0.000  0.085
    9  0.000  0.089  0.000  0.089
   10  0.000  0.089  0.000  0.089
tot    0.257  0.520  0.001  0.778

band    45 # energy    2.75656883 # occ.  0.00000000

ion      s      p      d    tot
    1  0.000  0.000  0.001  0.001
    2  0.000  0.000  0.001  0.001
    3  0.000  0.186  0.000  0.186
    4  0.000  0.186  0.000  0.186
    5  0.001  0.000  0.003  0.005
    6  0.001  0.000  0.003  0.005
    7  0.022  0.004  0.008  0.034
    8  0.022  0.004  0.008  0.034
    9  0.000  0.000  0.003  0.003
   10  0.000  0.000  0.003  0.003
tot    0.046  0.383  0.032  0.460

band    46 # energy    2.79216842 # occ.  0.00000000

ion      s      p      d    tot
    1  0.000  0.000  0.002  0.002
    2  0.000  0.000  0.002  0.002
    3  0.000  0.181  0.000  0.181
    4  0.000  0.181  0.000  0.181
    5  0.021  0.008  0.008  0.037
    6  0.021  0.008  0.008  0.037
    7  0.001  0.003  0.003  0.006
    8  0.001  0.003  0.003  0.006
    9  0.000  0.000  0.003  0.003
   10  0.000  0.000  0.003  0.003
tot    0.044  0.383  0.031  0.458

band    47 # energy    2.86224757 # occ.  0.00000000

ion      s      p      d    tot
    1  0.000  0.000  0.002  0.002
    2  0.000  0.000  0.002  0.002
    3  0.000  0.181  0.000  0.181
    4  0.000  0.181  0.000  0.181
    5  0.000  0.001  0.003  0.004
    6  0.000  0.001  0.003  0.004
    7  0.000  0.001  0.003  0.004
    8  0.000  0.001  0.003  0.004
    9  0.022  0.008  0.008  0.038
   10  0.022  0.008  0.008  0.038
tot    0.045  0.385  0.031  0.460

band    48 # energy    4.71899260 # occ.  0.00000000

ion      s      p      d    tot
    1  0.022  0.000  0.002  0.024
    2  0.022  0.000  0.002  0.024
    3  0.004  0.000  0.000  0.004
    4  0.004  0.000  0.000  0.004
    5  0.010  0.000  0.002  0.012
    6  0.010  0.000  0.002  0.012
    7  0.011  0.000  0.002  0.013
    8  0.011  0.000  0.002  0.013
    9  0.008  0.001  0.001  0.010
   10  0.008  0.001  0.001  0.010
tot    0.108  0.002  0.015  0.125

band    49 # energy    5.72983369 # occ.  0.00000000

ion      s      p      d    tot
    1  0.000  0.000  0.060  0.060
    2  0.000  0.000  0.060  0.060
    3  0.000  0.000  0.000  0.000
    4  0.000  0.000  0.000  0.000
    5  0.000  0.003  0.005  0.008
    6  0.000  0.003  0.005  0.008
    7  0.000  0.004  0.007  0.010
    8  0.000  0.004  0.007  0.010
    9  0.007  0.000  0.002  0.009
   10  0.007  0.000  0.002  0.009
tot    0.016  0.014  0.146  0.176

band    50 # energy    6.07461889 # occ.  0.00000000

ion      s      p      d    tot
    1  0.000  0.000  0.060  0.060
    2  0.000  0.000  0.060  0.060
    3  0.000  0.000  0.000  0.000
    4  0.000  0.000  0.000  0.000
    5  0.005  0.002  0.004  0.011
    6  0.005  0.002  0.004  0.011
    7  0.004  0.001  0.002  0.007
    8  0.004  0.001  0.002  0.007
    9  0.000  0.011  0.007  0.019
   10  0.000  0.011  0.007  0.019
tot    0.018  0.027  0.148  0.194

band    51 # energy    6.27735196 # occ.  0.00000000

ion      s      p      d    tot
    1  0.000  0.000  0.002  0.002
    2  0.000  0.000  0.002  0.002
    3  0.000  0.186  0.000  0.186
    4  0.000  0.186  0.000  0.186
    5  0.000  0.059  0.003  0.061
    6  0.000  0.059  0.003  0.061
    7  0.000  0.054  0.003  0.056
    8  0.000  0.054  0.003  0.056
    9  0.000  0.008  0.000  0.008
   10  0.000  0.008  0.000  0.008
tot    0.000  0.612  0.016  0.628

band    52 # energy    6.46189262 # occ.  0.00000000

ion      s      p      d    tot
    1  0.000  0.000  0.010  0.010
    2  0.000  0.000  0.010  0.010
    3  0.000  0.161  0.000  0.161
    4  0.000  0.161  0.000  0.161
    5  0.001  0.008  0.002  0.011
    6  0.001  0.008  0.002  0.011
    7  0.001  0.008  0.002  0.011
    8  0.001  0.008  0.002  0.011
    9  0.000  0.106  0.002  0.107
   10  0.000  0.106  0.002  0.107
tot    0.004  0.564  0.032  0.600

band    53 # energy    6.49100100 # occ.  0.00000000

ion      s      p      d    tot
    1  0.000  0.002  0.065  0.067
    2  0.000  0.002  0.065  0.067
    3  0.000  0.000  0.007  0.007
    4  0.000  0.000  0.007  0.007
    5  0.000  0.002  0.008  0.010
    6  0.000  0.002  0.008  0.010
    7  0.000  0.003  0.008  0.011
    8  0.000  0.003  0.008  0.011
    9  0.000  0.002  0.007  0.009
   10  0.000  0.002  0.007  0.009
tot    0.000  0.018  0.189  0.207

band    54 # energy    6.50415770 # occ.  0.00000000

ion      s      p      d    tot
    1  0.000  0.001  0.059  0.061
    2  0.000  0.001  0.059  0.061
    3  0.000  0.000  0.009  0.010
    4  0.000  0.000  0.009  0.010
    5  0.000  0.002  0.009  0.011
    6  0.000  0.002  0.009  0.011
    7  0.000  0.003  0.009  0.012
    8  0.000  0.003  0.009  0.012
    9  0.000  0.001  0.008  0.009
   10  0.000  0.001  0.008  0.009
tot    0.003  0.013  0.188  0.204

band    55 # energy    6.53235067 # occ.  0.00000000

ion      s      p      d    tot
    1  0.031  0.000  0.001  0.032
    2  0.031  0.000  0.001  0.032
    3  0.000  0.000  0.000  0.000
    4  0.000  0.000  0.000  0.000
    5  0.000  0.001  0.008  0.009
    6  0.000  0.001  0.008  0.009
    7  0.000  0.001  0.008  0.009
    8  0.000  0.001  0.008  0.009
    9  0.000  0.004  0.008  0.012
   10  0.000  0.004  0.008  0.012
tot    0.062  0.013  0.048  0.123

band    56 # energy    6.78558565 # occ.  0.00000000

ion      s      p      d    tot
    1  0.000  0.000  0.072  0.072
    2  0.000  0.000  0.069  0.070
    3  0.000  0.018  0.005  0.022
    4  0.000  0.017  0.005  0.022
    5  0.000  0.008  0.006  0.014
    6  0.000  0.007  0.005  0.012
    7  0.000  0.009  0.006  0.015
    8  0.000  0.008  0.005  0.013
    9  0.002  0.001  0.009  0.012
   10  0.002  0.001  0.009  0.012
tot    0.004  0.069  0.190  0.263


 k-point     2 :    0.33333333 0.00000000 0.00000000     weight = 0.14814815

band     1 # energy  -20.88640350 # occ.  2.00000000

ion      s      p      d    tot
    1  0.444  0.000  0.000  0.444
    2  0.444  0.000  0.000  0.444
    3  0.000  0.000  0.000  0.000
    4  0.000  0.000  0.000  0.000
    5  0.000  0.000  0.000  0.000
    6  0.000  0.000  0.000  0.000
    7  0.000  0.000  0.000  0.000
    8  0.000  0.000  0.000  0.000
    9  0.000  0.000  0.000  0.000
   10  0.000  0.000  0.000  0.000
tot    0.888  0.000  0.000  0.888

band     2 # energy  -20.88436794 # occ.  2.00000000

ion      s      p      d    tot
    1  0.444  0.000  0.000  0.444
    2  0.444  0.000  0.000  0.444
    3  0.000  0.000  0.000  0.000
    4  0.000  0.000  0.000  0.000
    5  0.000  0.000  0.000  0.000
    6  0.000  0.000  0.000  0.000
    7  0.000  0.000  0.000  0.000
    8  0.000  0.000  0.000  0.000
    9  0.000  0.000  0.000  0.000
   10  0.000  0.000  0.000  0.000
tot    0.888  0.000  0.000  0.888

band     3 # energy  -16.41291853 # occ.  2.00000000

ion      s      p      d    tot
    1  0.000  0.000  0.000  0.000
    2  0.000  0.000  0.000  0.000
    3  0.000  0.000  0.469  0.469
    4  0.000  0.000  0.463  0.463
    5  0.007  0.000  0.000  0.007
    6  0.007  0.000  0.000  0.007
    7  0.008  0.000  0.000  0.009
    8  0.008  0.000  0.000  0.009
    9  0.000  0.000  0.000  0.000
   10  0.000  0.000  0.000  0.000
tot    0.031  0.001  0.932  0.963

band     4 # energy  -16.40916295 # occ.  2.00000000

ion      s      p      d    tot
    1  0.000  0.000  0.000  0.000
    2  0.000  0.000  0.000  0.000
    3  0.000  0.000  0.464  0.464
    4  0.000  0.000  0.468  0.468
    5  0.003  0.000  0.000  0.003
    6  0.003  0.000  0.000  0.003
    7  0.002  0.000  0.000  0.002
    8  0.002  0.000  0.000  0.002
    9  0.010  0.000  0.000  0.010
   10  0.010  0.000  0.000  0.010
tot    0.031  0.001  0.932  0.963

band     5 # energy  -16.36568609 # occ.  2.00000000

ion      s      p      d    tot
    1  0.000  0.000  0.000  0.000
    2  0.000  0.000  0.000  0.000
    3  0.000  0.000  0.475  0.475
    4  0.000  0.000  0.481  0.481
    5  0.003  0.000  0.000  0.003
    6  0.003  0.000  0.000  0.003
    7  0.003  0.001  0.000  0.004
    8  0.003  0.001  0.000  0.004
    9  0.000  0.000  0.000  0.000
   10  0.000  0.000  0.000  0.000
tot    0.011  0.002  0.957  0.970

band     6 # energy  -16.36190546 # occ.  2.00000000

ion      s      p      d    tot
    1  0.000  0.000  0.000  0.000
    2  0.000  0.000  0.000  0.000
    3  0.000  0.000  0.481  0.481
    4  0.000  0.000  0.476  0.476
    5  0.001  0.000  0.000  0.001
    6  0.001  0.000  0.000  0.001
    7  0.001  0.000  0.000  0.001
    8  0.001  0.000  0.000  0.001
    9  0.004  0.001  0.000  0.004
   10  0.004  0.001  0.000  0.004
tot    0.011  0.002  0.957  0.970

band     7 # energy  -16.26996693 # occ.  2.00000000

ion      s      p      d    tot
    1  0.000  0.000  0.000  0.000
    2  0.000  0.000  0.000  0.000
    3  0.000  0.000  0.330  0.330
    4  0.000  0.000  0.647  0.647
    5  0.000  0.000  0.000  0.000
    6  0.000  0.000  0.000  0.000
    7  0.000  0.000  0.000  0.000
    8  0.000  0.000  0.000  0.000
    9  0.000  0.000  0.000  0.000
   10  0.000  0.000  0.000  0.000
tot    0.000  0.000  0.977  0.978

band     8 # energy  -16.26898340 # occ.  2.00000000

ion      s      p      d    tot
    1  0.000  0.000  0.000  0.000
    2  0.000  0.000  0.000  0.000
    3  0.000  0.000  0.647  0.647
    4  0.000  0.000  0.330  0.330
    5  0.000  0.000  0.000  0.000
    6  0.000  0.000  0.000  0.000
    7  0.000  0.000  0.000  0.000
    8  0.000  0.000  0.000  0.000
    9  0.000  0.000  0.000  0.000
   10  0.000  0.000  0.000  0.000
tot    0.000  0.000  0.978  0.978

band     9 # energy  -16.26819209 # occ.  2.00000000

ion      s      p      d    tot
    1  0.000  0.000  0.000  0.000
    2  0.000  0.000  0.000  0.000
    3  0.000  0.000  0.459  0.459
    4  0.000  0.000  0.518  0.518