 running on   64 total cores
 distrk:  each k-point on   64 cores,    1 groups
 distr:  one band on    8 cores,    8 groups
 using from now: INCAR     
 vasp.5.4.4.18Apr17-6-g9f103f2a35 (build Jun 22 2020 09:27:21) complex           
 POSCAR found type information on POSCAR  Cs Pb Br
 POSCAR found :  3 types and      10 ions
 scaLAPACK will be used
 LDA part: xc-table for Pade appr. of Perdew
 POSCAR found type information on POSCAR  Cs Pb Br
 POSCAR found :  3 types and      10 ions
 POSCAR, INCAR and KPOINTS ok, starting setup
 FFT: planning ...
 WAVECAR not read
 WARNING: random wavefunctions but no delay for mixing, default for NELMDL
 entering main loop
       N       E                     dE             d eps       ncg     rms          rms(c)
DAV:   1     0.326065962138E+03    0.32607E+03   -0.28107E+04  1160   0.915E+02
DAV:   2    -0.292396246413E+03   -0.61846E+03   -0.59865E+03  1344   0.284E+02
DAV:   3    -0.374453066731E+03   -0.82057E+02   -0.81628E+02  1440   0.122E+02
DAV:   4    -0.377158961457E+03   -0.27059E+01   -0.26952E+01  1360   0.285E+01
DAV:   5    -0.377275153195E+03   -0.11619E+00   -0.11613E+00  1448   0.496E+00    0.504E+00
DAV:   6    -0.357466119632E+03    0.19809E+02   -0.58662E+00  1440   0.281E+01    0.359E+00
DAV:   7    -0.357348446414E+03    0.11767E+00   -0.20474E+00  1424   0.498E+00    0.179E+00
DAV:   8    -0.357392173699E+03   -0.43727E-01   -0.91309E-02  1392   0.167E+00    0.106E+00
DAV:   9    -0.357412971070E+03   -0.20797E-01   -0.37401E-02  1272   0.118E+00    0.236E-01
DAV:  10    -0.357413283434E+03   -0.31236E-03   -0.18497E-03  1536   0.304E-01    0.132E-01
DAV:  11    -0.357414282634E+03   -0.99920E-03   -0.12189E-03  1288   0.215E-01    0.604E-02
DAV:  12    -0.357414088866E+03    0.19377E-03   -0.22302E-04  1464   0.111E-01    0.155E-02
DAV:  13    -0.357414081300E+03    0.75656E-05   -0.25786E-05  1448   0.255E-02    0.289E-03
DAV:  14    -0.357414088419E+03   -0.71183E-05   -0.90333E-07   896   0.633E-03    0.111E-03
DAV:  15    -0.357414091031E+03   -0.26122E-05   -0.28287E-07   792   0.325E-03    0.761E-04
DAV:  16    -0.357414089649E+03    0.13822E-05   -0.73127E-08   784   0.198E-03    0.517E-04
DAV:  17    -0.357414088503E+03    0.11453E-05   -0.27159E-08   792   0.101E-03    0.428E-04
DAV:  18    -0.357414088463E+03    0.40345E-07   -0.10619E-07   784   0.114E-03
   1 F= -.35741409E+03 E0= -.35741409E+03  d E =-.498058E-72
Application 1865615 resources: utime ~4182s, stime ~63s, Rss ~66500, inblocks ~1422, outblocks ~33808
