CsPbBr3 cubic bulk                      
           1
     5.826645    5.879883   -0.069130
     5.826645    0.069344   -5.901967
     0.000000    5.949227   -5.971097
   Cs   Pb   Br
   2   2   6
Direct configuration=     1
   0.74827598  0.75172402  0.73996803
   0.25172402  0.24827598  0.26003197
   0.00000000  0.00000000  0.00000000
   0.50000000  0.50000000  0.50000000
   0.20400291  0.70400291  0.29599709
   0.79599709  0.29599709  0.70400291
   0.29079641  0.79079641  0.70920359
   0.70920359  0.20920359  0.29079641
   0.25649619  0.24350381  0.82826793
   0.74350381  0.75649619  0.17173207
