       N       E                     dE             d eps       ncg     rms          rms(c)
DAV:   1     0.132913281548E+04    0.13291E+04   -0.11059E+05  3456   0.972E+02
DAV:   2    -0.111634206631E+04   -0.24455E+04   -0.23655E+04  4072   0.300E+02
DAV:   3    -0.147531215755E+04   -0.35897E+03   -0.35709E+03  4448   0.136E+02
DAV:   4    -0.148693594167E+04   -0.11624E+02   -0.11588E+02  3904   0.325E+01
DAV:   5    -0.148746639385E+04   -0.53045E+00   -0.53020E+00  4416   0.546E+00    0.100E+01
DAV:   6    -0.140976222096E+04    0.77704E+02   -0.23684E+01  4312   0.313E+01    0.717E+00
DAV:   7    -0.140924096102E+04    0.52126E+00   -0.86002E+00  4096   0.561E+00    0.373E+00
DAV:   8    -0.140941557304E+04   -0.17461E+00   -0.45243E-01  3952   0.205E+00    0.216E+00
DAV:   9    -0.140948139592E+04   -0.65823E-01   -0.18376E-01  3768   0.135E+00    0.455E-01
DAV:  10    -0.140948520435E+04   -0.38084E-02   -0.24855E-02  4392   0.442E-01    0.333E-01
DAV:  11    -0.140948713298E+04   -0.19286E-02   -0.29856E-03  3728   0.160E-01    0.156E-01
DAV:  12    -0.140948993228E+04   -0.27993E-02   -0.53632E-03  3592   0.191E-01    0.105E-01
DAV:  13    -0.140948957222E+04    0.36006E-03   -0.15716E-03  4448   0.114E-01    0.484E-02
DAV:  14    -0.140948953467E+04    0.37552E-04   -0.43196E-04  3848   0.395E-02    0.256E-02
DAV:  15    -0.140948952743E+04    0.72387E-05   -0.33710E-05  3952   0.157E-02    0.142E-02
DAV:  16    -0.140948957935E+04   -0.51923E-04   -0.34313E-05  3768   0.165E-02    0.650E-03
DAV:  17    -0.140948958296E+04   -0.36081E-05   -0.88115E-06  3872   0.765E-03    0.382E-03
DAV:  18    -0.140948957844E+04    0.45236E-05   -0.21431E-06  2832   0.311E-03    0.170E-03
DAV:  19    -0.140948957253E+04    0.59017E-05   -0.22613E-07  2176   0.160E-03    0.977E-04
DAV:  20    -0.140948957062E+04    0.19117E-05   -0.12311E-07  2064   0.109E-03    0.732E-04
DAV:  21    -0.140948957090E+04   -0.28086E-06   -0.39861E-08  2000   0.747E-04
   1 F= -.14094896E+04 E0= -.14094896E+04  d E =-.947784E-18
