 vasp.5.4.4.18Apr17-6-g9f103f2a35 (build Jun 22 2020 09:27:21) complex           
 executed on tx2_gcc-7.3_libsci-1 date 2021.10.12  03:03:02
 running on   64 total cores
 distrk:  each k-point on   64 cores,    1 groups
 distr:  one band on NCORES_PER_BAND=   8 cores,    8 groups


--------------------------------------------------------------------------------------------------------


 INCAR:
 POTCAR:    PAW_PBE Cs_sv 08Apr2002               
 POTCAR:    PAW_PBE Pb_d 06Sep2000                
 POTCAR:    PAW_PBE Br 06Sep2000                  
 POTCAR:    PAW_PBE Cs_sv 08Apr2002               
   SHA256 =  c1463496f0f6037ed62c6012a8013a89ee9ad6ffb38599dcd6c079e7ed31779b Cs
   COPYR  = (c) Copyright 08Apr2002 Georg Kresse                                
   COPYR  = This file is part of the software VASP. Any use, copying, and all ot
   COPYR  = If you do not have a valid VASP license, you may not use, copy or di
   VRHFIN =Cs: 5s5p6s                                                           
   LEXCH  = PE                                                                  
   EATOM  =   555.6835 eV,   40.8416 Ry                                         
                                                                                
   TITEL  = PAW_PBE Cs_sv 08Apr2002                                             
   LULTRA =        F    use ultrasoft PP ?                                      
   IUNSCR =        1    unscreen: 0-lin 1-nonlin 2-no                           
   RPACOR =    2.200    partial core radius                                     
   POMASS =  132.900; ZVAL   =    9.000    mass and valenz                      
   RCORE  =    2.500    outmost cutoff radius                                   
   RWIGS  =    2.500; RWIGS  =    1.323    wigner-seitz radius (au A)           
   ENMAX  =  220.318; ENMIN  =  165.238 eV                                      
   RCLOC  =    2.207    cutoff for local pot                                    
   LCOR   =        T    correct aug charges                                     
   LPAW   =        T    paw PP                                                  
   EAUG   =  407.933                                                            
   DEXC   =    0.000                                                            
   RMAX   =    2.554    core radius for proj-oper                               
   RAUG   =    1.300    factor for augmentation sphere                          
   RDEP   =    2.590    radius for radial grids                                 
   RDEPT  =    2.117    core radius for aug-charge                              
                                                                                
   Atomic configuration                                                         
   13 entries                                                                   
     n  l   j            E        occ.                                          
     1  0  0.50    -35790.1377   2.0000                                         
     2  0  0.50     -5613.6201   2.0000                                         
     2  1  1.50     -5035.0101   6.0000                                         
     3  0  0.50     -1167.0767   2.0000                                         
     3  1  1.50      -980.9754   6.0000                                         
     3  2  2.50      -708.0703  10.0000                                         
     4  0  0.50      -220.2386   2.0000                                         
     4  1  1.50      -160.7596   6.0000                                         
     4  2  2.50       -74.2354  10.0000                                         
     5  0  0.50       -26.7287   2.0000                                         
     6  0  0.50        -2.0862   1.0000                                         
     5  1  1.50       -13.5159   6.0000                                         
     5  2  2.50        -0.4136   0.0000                                         
   Description                                                                  
     l       E           TYP  RCUT    TYP  RCUT                                 
     0    -26.7287425     23  1.900                                             
     0     -2.0862306     23  1.900                                             
     1    -13.5158719     23  2.500                                             
     1     -2.7211652     23  2.500                                             
     2     -0.4136171     23  2.500                                             
  local pseudopotential read in
  partial core-charges read in
  partial kinetic energy density read in
  atomic valenz-charges read in
  non local Contribution for L=           0  read in
    real space projection operators read in
  non local Contribution for L=           0  read in
    real space projection operators read in
  non local Contribution for L=           1  read in
    real space projection operators read in
  non local Contribution for L=           1  read in
    real space projection operators read in
  non local Contribution for L=           2  read in
    real space projection operators read in
    PAW grid and wavefunctions read in

   number of l-projection  operators is LMAX  =           5
   number of lm-projection operators is LMMAX =          13

 POTCAR:    PAW_PBE Pb_d 06Sep2000                
   SHA256 =  fb885b08f0fba73a15f6a6b0e39bd200c13ec96ef97cf3ecd8e63bade5137abd Pb
   COPYR  = (c) Copyright 06Sep2000 Georg Kresse                                
   COPYR  = This file is part of the software VASP. Any use, copying, and all ot
   COPYR  = If you do not have a valid VASP license, you may not use, copy or di
   VRHFIN =Pb:                                                                  
   LEXCH  = PE                                                                  
   EATOM  =  1661.6185 eV,  122.1255 Ry                                         
                                                                                
   TITEL  = PAW_PBE Pb_d 06Sep2000                                              
   LULTRA =        F    use ultrasoft PP ?                                      
   IUNSCR =        1    unscreen: 0-lin 1-nonlin 2-no                           
   RPACOR =    2.200    partial core radius                                     
   POMASS =  207.200; ZVAL   =   14.000    mass and valenz                      
   RCORE  =    2.500    outmost cutoff radius                                   
   RWIGS  =    3.260; RWIGS  =    1.725    wigner-seitz radius (au A)           
   ENMAX  =  237.835; ENMIN  =  178.376 eV                                      
   ICORE  =        3    local potential                                         
   LCOR   =        T    correct aug charges                                     
   LPAW   =        T    paw PP                                                  
   EAUG   =  391.914                                                            
   DEXC   =    0.000                                                            
   RMAX   =    2.565    core radius for proj-oper                               
   RAUG   =    1.300    factor for augmentation sphere                          
   RDEP   =    2.643    radius for radial grids                                 
   RDEPT  =    2.092    core radius for aug-charge                              
                                                                                
   Atomic configuration                                                         
   16 entries                                                                   
     n  l   j            E        occ.                                          
     1  0  0.50    -88091.8466   2.0000                                         
     2  0  0.50    -15753.4197   2.0000                                         
     2  1  1.50    -13508.1797   6.0000                                         
     3  0  0.50     -3781.7194   2.0000                                         
     3  1  1.50     -3138.2529   6.0000                                         
     3  2  2.50     -2483.2977  10.0000                                         
     4  0  0.50      -856.2895   2.0000                                         
     4  1  1.50      -645.4942   6.0000                                         
     4  2  2.50      -401.8768  10.0000                                         
     4  3  3.50      -132.9059  14.0000                                         
     5  0  0.50      -144.0950   2.0000                                         
     5  1  1.50       -85.7879   6.0000                                         
     5  2  2.50       -21.1769  10.0000                                         
     6  0  0.50       -12.0372   2.0000                                         
     6  1  1.50        -3.4971   2.0000                                         
     5  3  2.50        -2.7212   0.0000                                         
   Description                                                                  
     l       E           TYP  RCUT    TYP  RCUT                                 
     2    -21.1768523     23  2.500                                             
     2      1.3605826     23  2.500                                             
     0    -12.0371562     23  2.500                                             
     0     13.6058260     23  2.500                                             
     1     -3.4971339     23  2.500                                             
     1     13.6058260     23  2.500                                             
     3     -1.3605826      7  2.500                                             
  local pseudopotential read in
  partial core-charges read in
  partial kinetic energy density read in
  atomic valenz-charges read in
  non local Contribution for L=           2  read in
    real space projection operators read in
  non local Contribution for L=           2  read in
    real space projection operators read in
  non local Contribution for L=           0  read in
    real space projection operators read in
  non local Contribution for L=           0  read in
    real space projection operators read in
  non local Contribution for L=           1  read in
    real space projection operators read in
  non local Contribution for L=           1  read in
    real space projection operators read in
    PAW grid and wavefunctions read in

   number of l-projection  operators is LMAX  =           6
   number of lm-projection operators is LMMAX =          18

 POTCAR:    PAW_PBE Br 06Sep2000                  
   SHA256 =  96a73d2954943bbee26f4990d676cc6c3bf44b8dd2c75cd4b3b825d8403f0103 Br
   COPYR  = (c) Copyright 06Sep2000 Georg Kresse                                
   COPYR  = This file is part of the software VASP. Any use, copying, and all ot
   COPYR  = If you do not have a valid VASP license, you may not use, copy or di
   VRHFIN =Br: s2p5                                                             
   LEXCH  = PE                                                                  
   EATOM  =   368.4488 eV,   27.0802 Ry                                         
                                                                                
   TITEL  = PAW_PBE Br 06Sep2000                                                
   LULTRA =        F    use ultrasoft PP ?                                      
   IUNSCR =        1    unscreen: 0-lin 1-nonlin 2-no                           
   RPACOR =    1.900    partial core radius                                     
   POMASS =   79.904; ZVAL   =    7.000    mass and valenz                      
   RCORE  =    2.100    outmost cutoff radius                                   
   RWIGS  =    2.200; RWIGS  =    1.164    wigner-seitz radius (au A)           
   ENMAX  =  216.285; ENMIN  =  162.214 eV                                      
   ICORE  =        3    local potential                                         
   LCOR   =        T    correct aug charges                                     
   LPAW   =        T    paw PP                                                  
   EAUG   =  503.852                                                            
   DEXC   =    0.000                                                            
   RMAX   =    2.139    core radius for proj-oper                               
   RAUG   =    1.300    factor for augmentation sphere                          
   RDEP   =    2.186    radius for radial grids                                 
   RDEPT  =    1.890    core radius for aug-charge                              
                                                                                
   Atomic configuration                                                         
   10 entries                                                                   
     n  l   j            E        occ.                                          
     1  0  0.50    -13316.2796   2.0000                                         
     2  0  0.50     -1732.8239   2.0000                                         
     2  1  1.50     -1528.2193   6.0000                                         
     3  0  0.50      -238.0460   2.0000                                         
     3  1  1.50      -173.4609   6.0000                                         
     3  2  2.50       -66.7132  10.0000                                         
     4  0  0.50       -20.1334   2.0000                                         
     4  1  0.50        -7.8591   5.0000                                         
     4  2  2.50        -8.1635   0.0000                                         
     4  3  2.50        -8.1635   0.0000                                         
   Description                                                                  
     l       E           TYP  RCUT    TYP  RCUT                                 
     0    -20.1333652     23  2.100                                             
     0    -21.4939478     23  2.100                                             
     1     -7.8591052     23  2.100                                             
     1     -3.1608434     23  2.100                                             
     2     -8.1634956     23  2.100                                             
     3     -1.3605826      7  2.100                                             
  local pseudopotential read in
  partial core-charges read in
  partial kinetic energy density read in
  atomic valenz-charges read in
  non local Contribution for L=           0  read in
    real space projection operators read in
  non local Contribution for L=           0  read in
    real space projection operators read in
  non local Contribution for L=           1  read in
    real space projection operators read in
  non local Contribution for L=           1  read in
    real space projection operators read in
  non local Contribution for L=           2  read in
    real space projection operators read in
    PAW grid and wavefunctions read in

   number of l-projection  operators is LMAX  =           5
   number of lm-projection operators is LMMAX =          13

 Optimization of the real space projectors (new method)

 maximal supplied QI-value         = 15.12
 optimisation between [QCUT,QGAM] = [  8.77, 17.69] = [ 21.53, 87.61] Ry 
 Optimized for a Real-space Cutoff    1.85 Angstroem

   l    n(q)    QCUT    max X(q) W(low)/X(q) W(high)/X(q)  e(spline) 
   0     10     8.768    25.322    0.81E-04    0.51E-04    0.48E-06
   0     10     8.768    99.187    0.78E-04    0.50E-04    0.47E-06
   1      9     8.768    11.761    0.21E-03    0.20E-03    0.37E-06
   1      9     8.768     8.275    0.24E-03    0.22E-03    0.41E-06
   2      9     8.768     3.829    0.23E-04    0.15E-03    0.18E-06
 Optimization of the real space projectors (new method)

 maximal supplied QI-value         = 15.12
 optimisation between [QCUT,QGAM] = [  8.77, 17.69] = [ 21.53, 87.61] Ry 
 Optimized for a Real-space Cutoff    1.59 Angstroem

   l    n(q)    QCUT    max X(q) W(low)/X(q) W(high)/X(q)  e(spline) 
   2      7     8.768     3.846    0.48E-04    0.11E-03    0.11E-06
   2      7     8.768     8.593    0.20E-03    0.22E-04    0.24E-06
   0      8     8.768    20.082    0.68E-04    0.88E-04    0.41E-07
   0      8     8.768     8.597    0.89E-04    0.13E-03    0.59E-07
   1      8     8.768    33.223    0.15E-03    0.53E-04    0.87E-07
   1      8     8.768    15.899    0.14E-03    0.44E-04    0.78E-07
 Optimization of the real space projectors (new method)

 maximal supplied QI-value         = 17.95
 optimisation between [QCUT,QGAM] = [  8.80, 17.59] = [ 21.67, 86.68] Ry 
 Optimized for a Real-space Cutoff    1.59 Angstroem

   l    n(q)    QCUT    max X(q) W(low)/X(q) W(high)/X(q)  e(spline) 
   0      8     8.797   175.082    0.82E-04    0.14E-03    0.89E-07
   0      8     8.797   174.004    0.79E-04    0.14E-03    0.86E-07
   1      8     8.797    54.315    0.16E-03    0.14E-04    0.30E-06
   1      8     8.797    42.441    0.16E-03    0.14E-04    0.30E-06
   2      7     8.797     3.596    0.92E-04    0.15E-03    0.85E-07
  PAW_PBE Cs_sv 08Apr2002               :
 energy of atom  1       EATOM= -555.6835
 kinetic energy error for atom=    0.0069 (will be added to EATOM!!)
  PAW_PBE Pb_d 06Sep2000                :
 energy of atom  2       EATOM=-1661.6185
 kinetic energy error for atom=    0.0498 (will be added to EATOM!!)
  PAW_PBE Br 06Sep2000                  :
 energy of atom  3       EATOM= -368.4488
 kinetic energy error for atom=    0.0072 (will be added to EATOM!!)


 POSCAR: Cs8 Pb8 Br23                            
  positions in direct lattice
  No initial velocities read in

 METAGGA = SCAN     LMAXTAU =  6    LMIXTAU =  F

 exchange correlation table for  LEXCH =        8
   RHO(1)=    0.500       N(1)  =     2000
   RHO(2)=  100.500       N(2)  =     4000

 VTST: version 3.2, (02/03/18)

 CHAIN: initializing optimizer
 
 OPT: Using VASP Conjugate-Gradient optimizer
 CHAIN: Read ICHAIN            0

 POSCAR: Cs8 Pb8 Br23                            
  positions in direct lattice
  No initial velocities read in



--------------------------------------------------------------------------------------------------------


 ion  position               nearest neighbor table
   1  0.266  0.245  0.199-
   2  0.778  0.243  0.714-
   3  0.722  0.752  0.263-
   4  0.200  0.756  0.778-
   5  0.292  0.236  0.749-
   6  0.793  0.250  0.227-
   7  0.734  0.748  0.808-
   8  0.227  0.751  0.257-
   9  0.994  0.001  0.999-  19 2.95  21 2.97  32 2.98  30 2.99  35 3.00  29 3.01
  10  0.492  0.002  0.501-  20 2.86  34 2.97  28 2.98  33 2.99  31 2.99
  11  0.499  0.995  0.000-  30 2.95  17 2.97  22 2.98  32 3.00  34 3.02  28 3.03
  12  0.000  0.006  0.500-  31 2.95  18 2.98  29 2.98  35 3.02  23 3.03  33 3.09
  13  0.501  0.496  0.000-  26 2.96  22 2.97  17 2.98  36 2.99  24 3.00  37 3.09
  14  0.009  0.507  0.501-  25 2.84  23 2.96  18 2.98  38 3.00  27 3.00
  15  1.000  0.498  1.000-  19 2.96  21 2.96  24 2.99  36 3.00  27 3.02  38 3.03
  16  0.514  0.485  0.498-  39 2.80  37 2.93  20 3.01  26 3.02  25 3.08
  17  0.468  0.746  0.964-  11 2.97  13 2.98
  18  0.983  0.756  0.456-  14 2.98  12 2.98
  19  0.970  0.250  0.969-   9 2.95  15 2.96
  20  0.442  0.239  0.474-  10 2.86  16 3.01
  21  0.009  0.749  0.025-  15 2.96   9 2.97
  22  0.525  0.246  0.034-  13 2.97  11 2.98
  23  0.036  0.259  0.541-  14 2.96  12 3.03
  24  0.247  0.471  0.948-  15 2.99  13 3.00
  25  0.770  0.482  0.447-  14 2.84  16 3.08
  26  0.459  0.528  0.246-  13 2.96  16 3.02
  27  0.950  0.536  0.746-  14 3.00  15 3.02
  28  0.552  0.026  0.751-  10 2.98  11 3.03
  29  0.045  0.036  0.252-  12 2.98   9 3.01
  30  0.748  0.972  0.053-  11 2.95   9 2.99
  31  0.247  0.977  0.561-  12 2.95  10 2.99
  32  0.244  0.019  0.960-   9 2.98  11 3.00
  33  0.739  0.037  0.454-  10 2.99  12 3.09
  34  0.456  0.958  0.250-  10 2.97  11 3.02
  35  0.946  0.966  0.747-   9 3.00  12 3.02
  36  0.752  0.526  0.052-  13 2.99  15 3.00
  37  0.554  0.458  0.747-  16 2.93  13 3.09
  38  0.058  0.469  0.254-  14 3.00  15 3.03
  39  0.362  0.664  0.535-  16 2.80


IMPORTANT INFORMATION: All symmetrisations will be switched off!
NOSYMM: (Re-)initialisation of all symmetry stuff for point group C_1.



 KPOINTS: 1x1x1                                   

Automatic generation of k-mesh.
Space group operators:
 irot       det(A)        alpha          n_x          n_y          n_z        tau_x        tau_y        tau_z
    1     1.000000     0.000001     1.000000     0.000000     0.000000     0.000000     0.000000     0.000000
 
 Subroutine IBZKPT returns following result:
 ===========================================
 
 Found      8 irreducible k-points:
 
 Following reciprocal coordinates:
            Coordinates               Weight
  0.000000  0.000000  0.000000      1.000000
  0.500000  0.000000  0.000000      1.000000
  0.000000  0.500000  0.000000      1.000000
  0.500000  0.500000  0.000000      1.000000
  0.000000  0.000000  0.500000      1.000000
  0.500000  0.000000  0.500000      1.000000
  0.000000  0.500000  0.500000      1.000000
  0.500000  0.500000  0.500000      1.000000
 
 Following cartesian coordinates:
            Coordinates               Weight
 -0.000000  0.000000  0.000000      1.000000
  0.029563  0.000000  0.031093      1.000000
 -0.000000  0.042626  0.000000      1.000000
  0.029563  0.042626  0.031093      1.000000
 -0.029563  0.000000  0.031093      1.000000
  0.000000  0.000000  0.062187      1.000000
 -0.029563  0.042626  0.031093      1.000000
  0.000000  0.042626  0.062187      1.000000
 


--------------------------------------------------------------------------------------------------------




 Dimension of arrays:
   k-points           NKPTS =      8   k-points in BZ     NKDIM =      8   number of bands    NBANDS=    208
   number of dos      NEDOS =    301   number of ions     NIONS =     39
   non local maximal  LDIM  =      6   non local SUM 2l+1 LMDIM =     18
   total plane-waves  NPLWV = 343000
   max r-space proj   IRMAX =   5734   max aug-charges    IRDMAX=  91523
   dimension x,y,z NGX =    70 NGY =   70 NGZ =   70
   dimension x,y,z NGXF=   140 NGYF=  140 NGZF=  140
   support grid    NGXF=   280 NGYF=  280 NGZF=  280
   ions per type =               8   8  23
   NGX,Y,Z   is equivalent  to a cutoff of   9.97,  9.92,  9.97 a.u.
   NGXF,Y,Z  is equivalent  to a cutoff of  19.95, 19.84, 19.95 a.u.

 SYSTEM =  CsPbBr3 cubic bulk                      
 POSCAR =  Cs8 Pb8 Br23                            

 Startparameter for this run:
   NWRITE =      2    write-flag & timer
   PREC   = accura    normal or accurate (medium, high low for compatibility)
   ISTART =      0    job   : 0-new  1-cont  2-samecut
   ICHARG =      2    charge: 1-file 2-atom 10-const
   ISPIN  =      1    spin polarized calculation?
   LNONCOLLINEAR =      F non collinear calculations
   LSORBIT =      F    spin-orbit coupling
   INIWAV =      1    electr: 0-lowe 1-rand  2-diag
   LASPH  =      T    aspherical Exc in radial PAW
   METAGGA=      F    non-selfconsistent MetaGGA calc.

 Electronic Relaxation 1
   ENCUT  =  300.0 eV  22.05 Ry    4.70 a.u.  16.48 16.57 16.48*2*pi/ulx,y,z
   ENINI  =  300.0     initial cutoff
   ENAUG  =  503.9 eV  augmentation charge cutoff
   NELM   =    200;   NELMIN=  2; NELMDL= -5     # of ELM steps 
   EDIFF  = 0.1E-05   stopping-criterion for ELM
   LREAL  =      T    real-space projection
   NLSPLINE    = F    spline interpolate recip. space projectors
   LCOMPAT=      F    compatible to vasp.4.4
   GGA_COMPAT  = T    GGA compatible to vasp.4.4-vasp.4.6
   LMAXPAW     = -100 max onsite density
   LMAXMIX     =    2 max onsite mixed and CHGCAR
   VOSKOWN=      0    Vosko Wilk Nusair interpolation
   ROPT   =   -0.00025  -0.00025  -0.00025
 Ionic relaxation
   EDIFFG = -.1E-01   stopping-criterion for IOM
   NSW    =      0    number of steps for IOM
   NBLOCK =      1;   KBLOCK =      1    inner block; outer block 
   IBRION =     -1    ionic relax: 0-MD 1-quasi-New 2-CG
   NFREE  =      1    steps in history (QN), initial steepest desc. (CG)
   ISIF   =      2    stress and relaxation
   IWAVPR =     10    prediction:  0-non 1-charg 2-wave 3-comb
   ISYM   =      0    0-nonsym 1-usesym 2-fastsym
   LCORR  =      T    Harris-Foulkes like correction to forces

   POTIM  = 0.5000    time-step for ionic-motion
   TEIN   =    0.0    initial temperature
   TEBEG  =    0.0;   TEEND  =   0.0 temperature during run
   SMASS  =  -3.00    Nose mass-parameter (am)
   estimated Nose-frequenzy (Omega)   =  0.10E-29 period in steps =****** mass=  -0.311E-26a.u.
   SCALEE = 1.0000    scale energy and forces
   NPACO  =    256;   APACO  = 16.0  distance and # of slots for P.C.
   PSTRESS=    0.0 pullay stress

  Mass of Ions in am
   POMASS = 132.90207.20 79.90
  Ionic Valenz
   ZVAL   =   9.00 14.00  7.00
  Atomic Wigner-Seitz radii
   RWIGS  =  -1.00 -1.00 -1.00
  virtual crystal weights 
   VCA    =   1.00  1.00  1.00
   NELECT =     344.0000    total number of electrons
   NUPDOWN=       0.0000    fix difference up-down

 DOS related values:
   EMIN   =  10.00;   EMAX   =-10.00  energy-range for DOS
   EFERMI =   0.00
   ISMEAR =     0;   SIGMA  =   0.01  broadening in eV -4-tet -1-fermi 0-gaus

 Electronic relaxation 2 (details)
   IALGO  =     38    algorithm
   LDIAG  =      T    sub-space diagonalisation (order eigenvalues)
   LSUBROT=      F    optimize rotation matrix (better conditioning)
   TURBO    =      0    0=normal 1=particle mesh
   IRESTART =      0    0=no restart 2=restart with 2 vectors
   NREBOOT  =      0    no. of reboots
   NMIN     =      0    reboot dimension
   EREF     =   0.00    reference energy to select bands
   IMIX   =      4    mixing-type and parameters
     AMIX     =   0.40;   BMIX     =  1.00
     AMIX_MAG =   1.60;   BMIX_MAG =  1.00
     AMIN     =   0.10
     WC   =   100.;   INIMIX=   1;  MIXPRE=   1;  MAXMIX= -45

 Intra band minimization:
   WEIMIN = 0.0000     energy-eigenvalue tresh-hold
   EBREAK =  0.12E-08  absolut break condition
   DEPER  =   0.30     relativ break condition  

   TIME   =   0.40     timestep for ELM

  volume/ion in A,a.u.               =      40.90       276.00
  Fermi-wavevector in a.u.,A,eV,Ry     =   0.981747  1.855232 13.113654  0.963826
  Thomas-Fermi vector in A             =   2.112777

 Write flags
   LWAVE        =      F    write WAVECAR
   LDOWNSAMPLE  =      F    k-point downsampling of WAVECAR
   LCHARG       =      F    write CHGCAR
   LVTOT        =      F    write LOCPOT, total local potential
   LVHAR        =      T    write LOCPOT, Hartree potential only
   LELF         =      F    write electronic localiz. function (ELF)
   LORBIT       =     10    0 simple, 1 ext, 2 COOP (PROOUT), +10 PAW based schemes


 Dipole corrections
   LMONO  =      F    monopole corrections only (constant potential shift)
   LDIPOL =      F    correct potential (dipole corrections)
   IDIPOL =      0    1-x, 2-y, 3-z, 4-all directions 
   EPSILON=  1.0000000 bulk dielectric constant

 Exchange correlation treatment:
   GGA     =    --    GGA type
   LEXCH   =     8    internal setting for exchange type
   VOSKOWN=      0    Vosko Wilk Nusair interpolation
   LHFCALC =     F    Hartree Fock is set to
   LHFONE  =     F    Hartree Fock one center treatment
   AEXX    =    0.0000 exact exchange contribution

 Linear response parameters
   LEPSILON=     F    determine dielectric tensor
   LRPA    =     F    only Hartree local field effects (RPA)
   LNABLA  =     F    use nabla operator in PAW spheres
   LVEL    =     F    velocity operator in full k-point grid
   LINTERFAST=   F  fast interpolation
   KINTER  =     0    interpolate to denser k-point grid
   CSHIFT  =0.1000    complex shift for real part using Kramers Kronig
   OMEGAMAX=  -1.0    maximum frequency
   DEG_THRESHOLD= 0.2000000E-02 threshold for treating states as degnerate
   RTIME   =   -0.100 relaxation time in fs
  (WPLASMAI=    0.000 imaginary part of plasma frequency in eV, 0.658/RTIME)
   DFIELD  = 0.0000000 0.0000000 0.0000000 field for delta impulse in time

 Orbital magnetization related:
   ORBITALMAG=     F  switch on orbital magnetization
   LCHIMAG   =     F  perturbation theory with respect to B field
   DQ        =  0.001000  dq finite difference perturbation B field
   LLRAUG    =     F  two centre corrections for induced B field



--------------------------------------------------------------------------------------------------------


 Static calculation
 charge density and potential will be updated during run
 non-spin polarized calculation
 Variant of blocked Davidson
 Davidson routine will perform the subspace rotation
 perform sub-space diagonalisation
    after iterative eigenvector-optimisation
 modified Broyden-mixing scheme, WC =      100.0
 initial mixing is a Kerker type mixing with AMIX =  0.4000 and BMIX =      1.0000
 Hartree-type preconditioning will be used
 using additional bands           36
 real space projection scheme for non local part
 use partial core corrections
 calculate Harris-corrections to forces   (improved forces if not selfconsistent)
 use gradient corrections 
 use of overlap-Matrix (Vanderbilt PP)
 Gauss-broadening in eV      SIGMA  =   0.01


--------------------------------------------------------------------------------------------------------


  energy-cutoff  :      300.00
  volume of cell :     1595.09
      direct lattice vectors                 reciprocal lattice vectors
     8.456489000  0.000000000  8.040301000     0.059126193 -0.000000000  0.062186727
     0.000000000 11.729847000  0.000000000     0.000000000  0.085252604 -0.000000000
    -8.456489000  0.000000000  8.040301000    -0.059126193  0.000000000  0.062186727

  length of vectors
    11.668703715 11.729847000 11.668703715     0.085808482  0.085252604  0.085808482



 k-points in units of 2pi/SCALE and weight: 1x1x1                                   
  -0.00000000  0.00000000  0.00000000       0.125
   0.02956310  0.00000000  0.03109336       0.125
  -0.00000000  0.04262630  0.00000000       0.125
   0.02956310  0.04262630  0.03109336       0.125
  -0.02956310  0.00000000  0.03109336       0.125
   0.00000000  0.00000000  0.06218673       0.125
  -0.02956310  0.04262630  0.03109336       0.125
   0.00000000  0.04262630  0.06218673       0.125

 k-points in reciprocal lattice and weights: 1x1x1                                   
   0.00000000  0.00000000  0.00000000       0.125
   0.50000000  0.00000000  0.00000000       0.125
   0.00000000  0.50000000  0.00000000       0.125
   0.50000000  0.50000000  0.00000000       0.125
   0.00000000  0.00000000  0.50000000       0.125
   0.50000000  0.00000000  0.50000000       0.125
   0.00000000  0.50000000  0.50000000       0.125
   0.50000000  0.50000000  0.50000000       0.125

 position of ions in fractional coordinates (direct lattice) 
   0.26574600  0.24493500  0.19891600
   0.77823100  0.24349600  0.71407900
   0.72216400  0.75221500  0.26290600
   0.19960600  0.75558500  0.77766200
   0.29160200  0.23563600  0.74911100
   0.79251000  0.24990000  0.22659900
   0.73437900  0.74845000  0.80844100
   0.22716200  0.75138300  0.25696000
   0.99433200  0.00085000  0.99946500
   0.49180600  0.00157200  0.50073300
   0.49931700  0.99529000  0.00028200
   0.00002500  0.00563100  0.49968500
   0.50062400  0.49645400  0.00011600
   0.00888900  0.50680000  0.50058600
   0.99987500  0.49843100  0.99961200
   0.51436300  0.48484500  0.49838300
   0.46841300  0.74634400  0.96398300
   0.98278100  0.75576900  0.45608900
   0.97003700  0.24983100  0.96944400
   0.44193600  0.23923700  0.47378500
   0.00866500  0.74942800  0.02541000
   0.52457900  0.24617400  0.03364900
   0.03612900  0.25876700  0.54099300
   0.24711300  0.47146800  0.94768000
   0.77042000  0.48208600  0.44706600
   0.45875400  0.52847200  0.24631100
   0.95048200  0.53574800  0.74615200
   0.55242100  0.02613400  0.75105600
   0.04544400  0.03581200  0.25236300
   0.74817400  0.97187500  0.05263800
   0.24662300  0.97683400  0.56091900
   0.24425600  0.01937900  0.96037100
   0.73911100  0.03731700  0.45376800
   0.45649000  0.95803500  0.25033400
   0.94649500  0.96559500  0.74718500
   0.75204800  0.52601700  0.05248200
   0.55423800  0.45816700  0.74663400
   0.05797400  0.46874800  0.25384700
   0.36232500  0.66436100  0.53466300

 position of ions in cartesian coordinates  (Angst):
   0.56514716  2.87305007  3.73602234
   0.54250068  2.85617083 11.99862159
   3.88371023  8.82336686  7.92025931
  -4.88832421  8.86289645  7.85752888
  -3.86891983  2.76397423  8.36764577
   4.78562015  2.93128877  8.19394311
  -0.62630449  8.77920399 12.40473719
  -0.25198646  8.81360763  3.89248660
  -0.04340716  0.00997037 16.03072801
  -0.07549108  0.01843932  7.98031231
   4.22008399 11.67459942  4.01692634
  -4.22536929  0.06605077  4.01781881
   4.23254040  5.82332946  4.02610032
  -4.15803027  5.94468646  4.09633235
   0.00222406  5.84651937 16.07647733
   0.13513469  5.68715767  8.14278268
  -4.19078225  8.75450093 11.51689499
   4.45396510  8.86505474 11.56894790
   0.00501470  2.93047941 15.59401102
  -0.26933072  2.80621341  7.36267247
  -0.14160391  8.79067578  0.27397326
   4.15154414  2.88758336  4.48832115
  -4.26937686  3.03529732  4.64023459
  -5.92433713  5.53024751  9.60649535
   2.73443954  5.65479502  9.78895390
   1.79652189  6.19889570  5.66893482
   1.72791440  6.28424207 13.64144805
  -1.67975469  0.30654782 10.48034743
  -1.74980825  0.42006928  2.39445792
   5.88179253 11.39994505  6.43876952
  -2.65784067 11.45811336  6.49288075
  -6.05581862  0.22731271  9.68556367
   2.41299994  0.43772270  9.59110622
   1.74335595 11.23760397  5.68307771
   1.68546282 11.32628161 13.61769700
   5.91587218  6.17009893  6.46866336
  -1.62699466  5.37422881 10.45940244
  -1.65639787  5.49834232  2.50713470
  -1.45737440  7.79285288  7.21205351



--------------------------------------------------------------------------------------------------------


 k-point  1 :   0.0000 0.0000 0.0000  plane waves:   18809
 k-point  2 :   0.5000 0.0000 0.0000  plane waves:   18808
 k-point  3 :   0.0000 0.5000 0.0000  plane waves:   18794
 k-point  4 :   0.5000 0.5000 0.0000  plane waves:   18804
 k-point  5 :   0.0000 0.0000 0.5000  plane waves:   18808
 k-point  6 :   0.5000 0.0000 0.5000  plane waves:   18790
 k-point  7 :   0.0000 0.5000 0.5000  plane waves:   18804
 k-point  8 :   0.5000 0.5000 0.5000  plane waves:   18800

 maximum and minimum number of plane-waves per node :      2389     2304

 maximum number of plane-waves:     18809
 maximum index in each direction: 
   IXMAX=   16   IYMAX=   16   IZMAX=   16
   IXMIN=  -16   IYMIN=  -17   IZMIN=  -16


 real space projection operators:
  total allocation   :      16740.41 KBytes
  max/ min on nodes  :       2189.30       1823.91


 parallel 3D FFT for wavefunctions:
    minimum data exchange during FFTs selected (reduces bandwidth)
 parallel 3D FFT for charge:
    minimum data exchange during FFTs selected (reduces bandwidth)


 total amount of memory used by VASP MPI-rank0    60651. kBytes
=======================================================================

   base      :      30000. kBytes
   nonlr-proj:       6486. kBytes
   fftplans  :       8423. kBytes
   grid      :       7465. kBytes
   one-center:         77. kBytes
   wavefun   :       8200. kBytes

     INWAV:  cpu time    0.0000: real time    0.0000
 Broyden mixing: mesh for mixing (old mesh)
   NGX = 33   NGY = 33   NGZ = 33
  (NGX  =140   NGY  =140   NGZ  =140)
  gives a total of  35937 points

 initial charge density was supplied:
 charge density of overlapping atoms calculated
 number of electron     345.0000000 magnetization 
 keeping initial charge density in first step


--------------------------------------------------------------------------------------------------------


 Maximum index for non-local projection operator          733
 Maximum index for augmentation-charges         3217 (set IRDMAX)


--------------------------------------------------------------------------------------------------------


 First call to EWALD:  gamma=   0.152
 Maximum number of real-space cells 3x 3x 3
 Maximum number of reciprocal cells 3x 3x 3

    FEWALD:  cpu time    0.0038: real time    0.0038


--------------------------------------- Iteration      1(   1)  ---------------------------------------


    POTLOK:  cpu time    0.2615: real time    0.2796
    SETDIJ:  cpu time    1.2282: real time    1.2283
     EDDAV:  cpu time   16.6126: real time   16.6204
       DOS:  cpu time    0.0008: real time    0.0008
    --------------------------------------------
      LOOP:  cpu time   18.1031: real time   18.1290

 eigenvalue-minimisations  :  3456
 total energy-change (2. order) : 0.1329133E+04  (-0.1105901E+05)
 number of electron     345.0000000 magnetization 
 augmentation part      345.0000000 magnetization 

 Free energy of the ion-electron system (eV)
  ---------------------------------------------------
  alpha Z        PSCENC =       872.70583573
  Ewald energy   TEWEN  =    -17932.98754311
  -Hartree energ DENC   =     -7424.79659658
  -exchange      EXHF   =         0.00000000
  -V(xc)+E(xc)   XCENC  =       908.06249291
  PAW double counting   =     21345.28103884   -22405.85761495
  entropy T*S    EENTRO =        -0.00120638
  eigenvalues    EBANDS =      -245.39220666
  atomic energy  EATOM  =     26212.11861568
  Solvation  Ediel_sol  =         0.00000000
  ---------------------------------------------------
  free energy    TOTEN  =      1329.13281548 eV

  energy without entropy =     1329.13402186  energy(sigma->0) =     1329.13341867


--------------------------------------------------------------------------------------------------------




--------------------------------------- Iteration      1(   2)  ---------------------------------------


     EDDAV:  cpu time   18.4572: real time   18.4714
       DOS:  cpu time    0.0004: real time    0.0004
    --------------------------------------------
      LOOP:  cpu time   18.4576: real time   18.4718

 eigenvalue-minimisations  :  4072
 total energy-change (2. order) :-0.2445475E+04  (-0.2365477E+04)
 number of electron     345.0000000 magnetization 
 augmentation part      345.0000000 magnetization 

 Free energy of the ion-electron system (eV)
  ---------------------------------------------------
  alpha Z        PSCENC =       872.70583573
  Ewald energy   TEWEN  =    -17932.98754311
  -Hartree energ DENC   =     -7424.79659658
  -exchange      EXHF   =         0.00000000
  -V(xc)+E(xc)   XCENC  =       908.06249291
  PAW double counting   =     21345.28103884   -22405.85761495
  entropy T*S    EENTRO =        -0.00000000
  eigenvalues    EBANDS =     -2690.86829484
  atomic energy  EATOM  =     26212.11861568
  Solvation  Ediel_sol  =         0.00000000
  ---------------------------------------------------
  free energy    TOTEN  =     -1116.34206631 eV

  energy without entropy =    -1116.34206631  energy(sigma->0) =    -1116.34206631


--------------------------------------------------------------------------------------------------------




--------------------------------------- Iteration      1(   3)  ---------------------------------------


     EDDAV:  cpu time   19.5202: real time   19.5749
       DOS:  cpu time    0.0004: real time    0.0004
    --------------------------------------------
      LOOP:  cpu time   19.5206: real time   19.5753

 eigenvalue-minimisations  :  4448
 total energy-change (2. order) :-0.3589701E+03  (-0.3570942E+03)
 number of electron     345.0000000 magnetization 
 augmentation part      345.0000000 magnetization 

 Free energy of the ion-electron system (eV)
  ---------------------------------------------------
  alpha Z        PSCENC =       872.70583573
  Ewald energy   TEWEN  =    -17932.98754311
  -Hartree energ DENC   =     -7424.79659658
  -exchange      EXHF   =         0.00000000
  -V(xc)+E(xc)   XCENC  =       908.06249291
  PAW double counting   =     21345.28103884   -22405.85761495
  entropy T*S    EENTRO =        -0.00000000
  eigenvalues    EBANDS =     -3049.83838607
  atomic energy  EATOM  =     26212.11861568
  Solvation  Ediel_sol  =         0.00000000
  ---------------------------------------------------
  free energy    TOTEN  =     -1475.31215755 eV

  energy without entropy =    -1475.31215755  energy(sigma->0) =    -1475.31215755


--------------------------------------------------------------------------------------------------------




--------------------------------------- Iteration      1(   4)  ---------------------------------------


     EDDAV:  cpu time   17.9272: real time   17.9878
       DOS:  cpu time    0.0004: real time    0.0004
    --------------------------------------------
      LOOP:  cpu time   17.9275: real time   17.9882

 eigenvalue-minimisations  :  3904
 total energy-change (2. order) :-0.1162378E+02  (-0.1158820E+02)
 number of electron     345.0000000 magnetization 
 augmentation part      345.0000000 magnetization 

 Free energy of the ion-electron system (eV)
  ---------------------------------------------------
  alpha Z        PSCENC =       872.70583573
  Ewald energy   TEWEN  =    -17932.98754311
  -Hartree energ DENC   =     -7424.79659658
  -exchange      EXHF   =         0.00000000
  -V(xc)+E(xc)   XCENC  =       908.06249291
  PAW double counting   =     21345.28103884   -22405.85761495
  entropy T*S    EENTRO =        -0.00000000
  eigenvalues    EBANDS =     -3061.46217020
  atomic energy  EATOM  =     26212.11861568
  Solvation  Ediel_sol  =         0.00000000
  ---------------------------------------------------
  free energy    TOTEN  =     -1486.93594167 eV

  energy without entropy =    -1486.93594167  energy(sigma->0) =    -1486.93594167


--------------------------------------------------------------------------------------------------------




--------------------------------------- Iteration      1(   5)  ---------------------------------------


     EDDAV:  cpu time   19.4197: real time   19.4760
       DOS:  cpu time    0.0004: real time    0.0004
    CHARGE:  cpu time    2.7034: real time    2.7036
    MIXING:  cpu time    0.0015: real time    0.0015
    --------------------------------------------
      LOOP:  cpu time   22.1250: real time   22.1814

 eigenvalue-minimisations  :  4416
 total energy-change (2. order) :-0.5304522E+00  (-0.5301961E+00)
 number of electron     343.9999998 magnetization 
 augmentation part       -5.0347066 magnetization 

 Broyden mixing:
  rms(total) = 0.10040E+01    rms(broyden)= 0.10034E+01
  rms(prec ) = 0.13979E+01
  weight for this iteration     100.00

 Free energy of the ion-electron system (eV)
  ---------------------------------------------------
  alpha Z        PSCENC =       872.70583573
  Ewald energy   TEWEN  =    -17932.98754311
  -Hartree energ DENC   =     -7424.79659658
  -exchange      EXHF   =         0.00000000
  -V(xc)+E(xc)   XCENC  =       908.06249291
  PAW double counting   =     21345.28103884   -22405.85761495
  entropy T*S    EENTRO =        -0.00000000
  eigenvalues    EBANDS =     -3061.99262238
  atomic energy  EATOM  =     26212.11861568
  Solvation  Ediel_sol  =         0.00000000
  ---------------------------------------------------
  free energy    TOTEN  =     -1487.46639385 eV

  energy without entropy =    -1487.46639385  energy(sigma->0) =    -1487.46639385


--------------------------------------------------------------------------------------------------------




--------------------------------------- Iteration      1(   6)  ---------------------------------------


    POTLOK:  cpu time    0.2799: real time    0.3150
    SETDIJ:  cpu time    1.2244: real time    1.2244
     EDDAV:  cpu time   19.1746: real time   19.1759
       DOS:  cpu time    0.0006: real time    0.0006
    CHARGE:  cpu time    2.6933: real time    2.6934
    MIXING:  cpu time    0.0016: real time    0.0016
    --------------------------------------------
      LOOP:  cpu time   23.3744: real time   23.4109

 eigenvalue-minimisations  :  4312
 total energy-change (2. order) : 0.7770417E+02  (-0.2368441E+01)
 number of electron     343.9999998 magnetization 
 augmentation part       -3.6380188 magnetization 

 Broyden mixing:
  rms(total) = 0.71747E+00    rms(broyden)= 0.71738E+00
  rms(prec ) = 0.90095E+00
  weight for this iteration     100.00

 eigenvalues of (default mixing * dielectric matrix)
  average eigenvalue GAMMA=   1.1770
  1.1770

 Free energy of the ion-electron system (eV)
  ---------------------------------------------------
  alpha Z        PSCENC =       872.70583573
  Ewald energy   TEWEN  =    -17932.98754311
  -Hartree energ DENC   =     -7404.83441594
  -exchange      EXHF   =         0.00000000
  -V(xc)+E(xc)   XCENC  =       936.02752454
  PAW double counting   =     21621.68327718   -22680.31220717
  entropy T*S    EENTRO =        -0.00000000
  eigenvalues    EBANDS =     -3034.16330788
  atomic energy  EATOM  =     26212.11861568
  Solvation  Ediel_sol  =         0.00000000
  ---------------------------------------------------
  free energy    TOTEN  =     -1409.76222096 eV

  energy without entropy =    -1409.76222096  energy(sigma->0) =    -1409.76222096


--------------------------------------------------------------------------------------------------------




--------------------------------------- Iteration      1(   7)  ---------------------------------------


    POTLOK:  cpu time    0.3120: real time    0.3180
    SETDIJ:  cpu time    1.2218: real time    1.2218
     EDDAV:  cpu time   18.5410: real time   18.5424
       DOS:  cpu time    0.0007: real time    0.0007
    CHARGE:  cpu time    2.6905: real time    2.6907
    MIXING:  cpu time    0.0016: real time    0.0016
    --------------------------------------------
      LOOP:  cpu time   22.7677: real time   22.7752

 eigenvalue-minimisations  :  4096
 total energy-change (2. order) : 0.5212599E+00  (-0.8600195E+00)
 number of electron     343.9999998 magnetization 
 augmentation part       -3.0800246 magnetization 

 Broyden mixing:
  rms(total) = 0.37283E+00    rms(broyden)= 0.37281E+00
  rms(prec ) = 0.41619E+00
  weight for this iteration     100.00

 eigenvalues of (default mixing * dielectric matrix)
  average eigenvalue GAMMA=   1.3005
  1.3005  1.3005

 Free energy of the ion-electron system (eV)
  ---------------------------------------------------
  alpha Z        PSCENC =       872.70583573
  Ewald energy   TEWEN  =    -17932.98754311
  -Hartree energ DENC   =     -7446.25838803
  -exchange      EXHF   =         0.00000000
  -V(xc)+E(xc)   XCENC  =       940.99829865
  PAW double counting   =     22225.59466469   -23282.20275002
  entropy T*S    EENTRO =        -0.00000000
  eigenvalues    EBANDS =     -2999.20969462
  atomic energy  EATOM  =     26212.11861568
  Solvation  Ediel_sol  =         0.00000000
  ---------------------------------------------------
  free energy    TOTEN  =     -1409.24096102 eV

  energy without entropy =    -1409.24096102  energy(sigma->0) =    -1409.24096102


--------------------------------------------------------------------------------------------------------




--------------------------------------- Iteration      1(   8)  ---------------------------------------


    POTLOK:  cpu time    0.2500: real time    0.3136
    SETDIJ:  cpu time    1.2305: real time    1.2306
     EDDAV:  cpu time   18.1098: real time   18.1108
       DOS:  cpu time    0.0004: real time    0.0004
    CHARGE:  cpu time    2.6929: real time    2.6931
    MIXING:  cpu time    0.0016: real time    0.0016
    --------------------------------------------
      LOOP:  cpu time   22.2851: real time   22.3501

 eigenvalue-minimisations  :  3952
 total energy-change (2. order) :-0.1746120E+00  (-0.4524300E-01)
 number of electron     343.9999998 magnetization 
 augmentation part       -3.1727119 magnetization 

 Broyden mixing:
  rms(total) = 0.21583E+00    rms(broyden)= 0.21583E+00
  rms(prec ) = 0.24617E+00
  weight for this iteration     100.00

 eigenvalues of (default mixing * dielectric matrix)
  average eigenvalue GAMMA=   1.6804
  1.1444  1.2753  2.6216

 Free energy of the ion-electron system (eV)
  ---------------------------------------------------
  alpha Z        PSCENC =       872.70583573
  Ewald energy   TEWEN  =    -17932.98754311
  -Hartree energ DENC   =     -7452.20770933
  -exchange      EXHF   =         0.00000000
  -V(xc)+E(xc)   XCENC  =       941.70046196
  PAW double counting   =     22457.38314574   -23514.34350461
  entropy T*S    EENTRO =        -0.00000000
  eigenvalues    EBANDS =     -2993.78487510
  atomic energy  EATOM  =     26212.11861568
  Solvation  Ediel_sol  =         0.00000000
  ---------------------------------------------------
  free energy    TOTEN  =     -1409.41557304 eV

  energy without entropy =    -1409.41557304  energy(sigma->0) =    -1409.41557304


--------------------------------------------------------------------------------------------------------




--------------------------------------- Iteration      1(   9)  ---------------------------------------


    POTLOK:  cpu time    0.2861: real time    0.3137
    SETDIJ:  cpu time    1.2245: real time    1.2246
     EDDAV:  cpu time   17.5816: real time   17.5827
       DOS:  cpu time    0.0004: real time    0.0004
    CHARGE:  cpu time    2.6971: real time    2.6972
    MIXING:  cpu time    0.0016: real time    0.0016
    --------------------------------------------
      LOOP:  cpu time   21.7912: real time   21.8201

 eigenvalue-minimisations  :  3768
 total energy-change (2. order) :-0.6582288E-01  (-0.1837551E-01)
 number of electron     343.9999998 magnetization 
 augmentation part       -3.2096218 magnetization 

 Broyden mixing:
  rms(total) = 0.45503E-01    rms(broyden)= 0.45499E-01
  rms(prec ) = 0.55451E-01
  weight for this iteration     100.00

 eigenvalues of (default mixing * dielectric matrix)
  average eigenvalue GAMMA=   1.4636
  2.5264  1.2431  1.2431  0.8420

 Free energy of the ion-electron system (eV)
  ---------------------------------------------------
  alpha Z        PSCENC =       872.70583573
  Ewald energy   TEWEN  =    -17932.98754311
  -Hartree energ DENC   =     -7459.45310840
  -exchange      EXHF   =         0.00000000
  -V(xc)+E(xc)   XCENC  =       943.60583208
  PAW double counting   =     22786.94223761   -23844.70967300
  entropy T*S    EENTRO =        -0.00000000
  eigenvalues    EBANDS =     -2987.70359251
  atomic energy  EATOM  =     26212.11861568
  Solvation  Ediel_sol  =         0.00000000
  ---------------------------------------------------
  free energy    TOTEN  =     -1409.48139592 eV

  energy without entropy =    -1409.48139592  energy(sigma->0) =    -1409.48139592


--------------------------------------------------------------------------------------------------------




--------------------------------------- Iteration      1(  10)  ---------------------------------------


    POTLOK:  cpu time    0.3036: real time    0.3199
    SETDIJ:  cpu time    1.2245: real time    1.2245
     EDDAV:  cpu time   19.3872: real time   19.3884
       DOS:  cpu time    0.0004: real time    0.0004
    CHARGE:  cpu time    2.6919: real time    2.6920
    MIXING:  cpu time    0.0016: real time    0.0016
    --------------------------------------------
      LOOP:  cpu time   23.6090: real time   23.6268

 eigenvalue-minimisations  :  4392
 total energy-change (2. order) :-0.3808425E-02  (-0.2485488E-02)
 number of electron     343.9999998 magnetization 
 augmentation part       -3.1973949 magnetization 

 Broyden mixing:
  rms(total) = 0.33253E-01    rms(broyden)= 0.33251E-01
  rms(prec ) = 0.42030E-01
  weight for this iteration     100.00

 eigenvalues of (default mixing * dielectric matrix)
  average eigenvalue GAMMA=   1.3016
  2.4185  1.3114  1.3114  0.8234  0.6435

 Free energy of the ion-electron system (eV)
  ---------------------------------------------------
  alpha Z        PSCENC =       872.70583573
  Ewald energy   TEWEN  =    -17932.98754311
  -Hartree energ DENC   =     -7457.82217818
  -exchange      EXHF   =         0.00000000
  -V(xc)+E(xc)   XCENC  =       943.46513977
  PAW double counting   =     22759.80715696   -23817.64823756
  entropy T*S    EENTRO =        -0.00000000
  eigenvalues    EBANDS =     -2989.12399364
  atomic energy  EATOM  =     26212.11861568
  Solvation  Ediel_sol  =         0.00000000
  ---------------------------------------------------
  free energy    TOTEN  =     -1409.48520435 eV

  energy without entropy =    -1409.48520435  energy(sigma->0) =    -1409.48520435


--------------------------------------------------------------------------------------------------------




--------------------------------------- Iteration      1(  11)  ---------------------------------------


    POTLOK:  cpu time    0.2897: real time    0.3046
    SETDIJ:  cpu time    1.2307: real time    1.2307
     EDDAV:  cpu time   17.4691: real time   17.4702
       DOS:  cpu time    0.0005: real time    0.0005
    CHARGE:  cpu time    2.7119: real time    2.7120
    MIXING:  cpu time    0.0017: real time    0.0017
    --------------------------------------------
      LOOP:  cpu time   21.7036: real time   21.7197

 eigenvalue-minimisations  :  3728
 total energy-change (2. order) :-0.1928637E-02  (-0.2985599E-03)
 number of electron     343.9999998 magnetization 
 augmentation part       -3.1964800 magnetization 

 Broyden mixing:
  rms(total) = 0.15565E-01    rms(broyden)= 0.15565E-01
  rms(prec ) = 0.23646E-01
  weight for this iteration     100.00

 eigenvalues of (default mixing * dielectric matrix)
  average eigenvalue GAMMA=   1.5961
  2.7453  2.7453  1.1973  1.1973  0.8457  0.8457

 Free energy of the ion-electron system (eV)
  ---------------------------------------------------
  alpha Z        PSCENC =       872.70583573
  Ewald energy   TEWEN  =    -17932.98754311
  -Hartree energ DENC   =     -7456.50399956
  -exchange      EXHF   =         0.00000000
  -V(xc)+E(xc)   XCENC  =       943.40197912
  PAW double counting   =     22744.03957358   -23802.06886243
  entropy T*S    EENTRO =        -0.00000000
  eigenvalues    EBANDS =     -2990.19273200
  atomic energy  EATOM  =     26212.11861568
  Solvation  Ediel_sol  =         0.00000000
  ---------------------------------------------------
  free energy    TOTEN  =     -1409.48713298 eV

  energy without entropy =    -1409.48713298  energy(sigma->0) =    -1409.48713298


--------------------------------------------------------------------------------------------------------




--------------------------------------- Iteration      1(  12)  ---------------------------------------


    POTLOK:  cpu time    0.2576: real time    0.3100
    SETDIJ:  cpu time    1.2296: real time    1.2297
     EDDAV:  cpu time   17.0573: real time   17.0582
       DOS:  cpu time    0.0008: real time    0.0008
    CHARGE:  cpu time    2.6986: real time    2.6987
    MIXING:  cpu time    0.0017: real time    0.0017
    --------------------------------------------
      LOOP:  cpu time   21.2456: real time   21.2993

 eigenvalue-minimisations  :  3592
 total energy-change (2. order) :-0.2799294E-02  (-0.5363177E-03)
 number of electron     343.9999998 magnetization 
 augmentation part       -3.1997343 magnetization 

 Broyden mixing:
  rms(total) = 0.10541E-01    rms(broyden)= 0.10540E-01
  rms(prec ) = 0.13486E-01
  weight for this iteration     100.00

 eigenvalues of (default mixing * dielectric matrix)
  average eigenvalue GAMMA=   1.5961
  2.8111  2.8111  1.3489  1.3489  0.8929  0.9800  0.9800

 Free energy of the ion-electron system (eV)
  ---------------------------------------------------
  alpha Z        PSCENC =       872.70583573
  Ewald energy   TEWEN  =    -17932.98754311
  -Hartree energ DENC   =     -7455.74232699
  -exchange      EXHF   =         0.00000000
  -V(xc)+E(xc)   XCENC  =       943.43477814
  PAW double counting   =     22738.36320345   -23796.68247677
  entropy T*S    EENTRO =        -0.00000000
  eigenvalues    EBANDS =     -2990.70001841
  atomic energy  EATOM  =     26212.11861568
  Solvation  Ediel_sol  =         0.00000000
  ---------------------------------------------------
  free energy    TOTEN  =     -1409.48993228 eV

  energy without entropy =    -1409.48993228  energy(sigma->0) =    -1409.48993228


--------------------------------------------------------------------------------------------------------




--------------------------------------- Iteration      1(  13)  ---------------------------------------


    POTLOK:  cpu time    0.2614: real time    0.3120
    SETDIJ:  cpu time    1.2306: real time    1.2307
     EDDAV:  cpu time   19.5532: real time   19.5546
       DOS:  cpu time    0.0005: real time    0.0005
    CHARGE:  cpu time    2.7121: real time    2.7121
    MIXING:  cpu time    0.0021: real time    0.0022
    --------------------------------------------
      LOOP:  cpu time   23.7600: real time   23.8120

 eigenvalue-minimisations  :  4448
 total energy-change (2. order) : 0.3600594E-03  (-0.1571604E-03)
 number of electron     343.9999998 magnetization 
 augmentation part       -3.2006610 magnetization 

 Broyden mixing:
  rms(total) = 0.48402E-02    rms(broyden)= 0.48396E-02
  rms(prec ) = 0.57574E-02
  weight for this iteration     100.00

 eigenvalues of (default mixing * dielectric matrix)
  average eigenvalue GAMMA=   1.5559
  3.1948  2.4545  1.6448  1.0986  1.0986  1.1733  0.9873  0.7951

 Free energy of the ion-electron system (eV)
  ---------------------------------------------------
  alpha Z        PSCENC =       872.70583573
  Ewald energy   TEWEN  =    -17932.98754311
  -Hartree energ DENC   =     -7456.81843463
  -exchange      EXHF   =         0.00000000
  -V(xc)+E(xc)   XCENC  =       943.49870474
  PAW double counting   =     22737.70640323   -23795.97302400
  entropy T*S    EENTRO =        -0.00000000
  eigenvalues    EBANDS =     -2989.74012986
  atomic energy  EATOM  =     26212.11861568
  Solvation  Ediel_sol  =         0.00000000
  ---------------------------------------------------
  free energy    TOTEN  =     -1409.48957222 eV

  energy without entropy =    -1409.48957222  energy(sigma->0) =    -1409.48957222


--------------------------------------------------------------------------------------------------------




--------------------------------------- Iteration      1(  14)  ---------------------------------------


    POTLOK:  cpu time    0.2820: real time    0.3197
    SETDIJ:  cpu time    1.2319: real time    1.2320
     EDDAV:  cpu time   17.8128: real time   17.8137
       DOS:  cpu time    0.0005: real time    0.0005
    CHARGE:  cpu time    2.7003: real time    2.7004
    MIXING:  cpu time    0.0018: real time    0.0018
    --------------------------------------------
      LOOP:  cpu time   22.0293: real time   22.0682

 eigenvalue-minimisations  :  3848
 total energy-change (2. order) : 0.3755164E-04  (-0.4319590E-04)
 number of electron     343.9999998 magnetization 
 augmentation part       -3.1997156 magnetization 

 Broyden mixing:
  rms(total) = 0.25645E-02    rms(broyden)= 0.25634E-02
  rms(prec ) = 0.33644E-02
  weight for this iteration     100.00

 eigenvalues of (default mixing * dielectric matrix)
  average eigenvalue GAMMA=   1.5521
  3.2090  2.2688  2.2688  1.0940  1.0940  1.1453  1.1453  0.8716  0.8716

 Free energy of the ion-electron system (eV)
  ---------------------------------------------------
  alpha Z        PSCENC =       872.70583573
  Ewald energy   TEWEN  =    -17932.98754311
  -Hartree energ DENC   =     -7457.07140642
  -exchange      EXHF   =         0.00000000
  -V(xc)+E(xc)   XCENC  =       943.51517737
  PAW double counting   =     22739.36367231   -23797.61024014
  entropy T*S    EENTRO =        -0.00000000
  eigenvalues    EBANDS =     -2989.52364609
  atomic energy  EATOM  =     26212.11861568
  Solvation  Ediel_sol  =         0.00000000
  ---------------------------------------------------
  free energy    TOTEN  =     -1409.48953467 eV

  energy without entropy =    -1409.48953467  energy(sigma->0) =    -1409.48953467


--------------------------------------------------------------------------------------------------------




--------------------------------------- Iteration      1(  15)  ---------------------------------------


    POTLOK:  cpu time    0.2924: real time    0.3107
    SETDIJ:  cpu time    1.2330: real time    1.2330
     EDDAV:  cpu time   18.1033: real time   18.1043
       DOS:  cpu time    0.0004: real time    0.0004
    CHARGE:  cpu time    2.6904: real time    2.6905
    MIXING:  cpu time    0.0019: real time    0.0019
    --------------------------------------------
      LOOP:  cpu time   22.3214: real time   22.3408

 eigenvalue-minimisations  :  3952
 total energy-change (2. order) : 0.7238733E-05  (-0.3371034E-05)
 number of electron     343.9999998 magnetization 
 augmentation part       -3.1997206 magnetization 

 Broyden mixing:
  rms(total) = 0.14233E-02    rms(broyden)= 0.14221E-02
  rms(prec ) = 0.20149E-02
  weight for this iteration     100.00

 eigenvalues of (default mixing * dielectric matrix)
  average eigenvalue GAMMA=   1.6357
  3.7693  2.4873  2.4873  1.3026  1.3026  1.1901  1.1901  0.7995  0.9141  0.9141

 Free energy of the ion-electron system (eV)
  ---------------------------------------------------
  alpha Z        PSCENC =       872.70583573
  Ewald energy   TEWEN  =    -17932.98754311
  -Hartree energ DENC   =     -7457.20483042
  -exchange      EXHF   =         0.00000000
  -V(xc)+E(xc)   XCENC  =       943.51889022
  PAW double counting   =     22739.74355788   -23797.98268433
  entropy T*S    EENTRO =        -0.00000000
  eigenvalues    EBANDS =     -2989.40136909
  atomic energy  EATOM  =     26212.11861568
  Solvation  Ediel_sol  =         0.00000000
  ---------------------------------------------------
  free energy    TOTEN  =     -1409.48952743 eV

  energy without entropy =    -1409.48952743  energy(sigma->0) =    -1409.48952743


--------------------------------------------------------------------------------------------------------




--------------------------------------- Iteration      1(  16)  ---------------------------------------


    POTLOK:  cpu time    0.3104: real time    0.3131
    SETDIJ:  cpu time    1.2256: real time    1.2257
     EDDAV:  cpu time   17.5832: real time   17.5842
       DOS:  cpu time    0.0004: real time    0.0004
    CHARGE:  cpu time    2.6965: real time    2.6966
    MIXING:  cpu time    0.0023: real time    0.0023
    --------------------------------------------
      LOOP:  cpu time   21.8185: real time   21.8224

 eigenvalue-minimisations  :  3768
 total energy-change (2. order) :-0.5192280E-04  (-0.3431271E-05)
 number of electron     343.9999998 magnetization 
 augmentation part       -3.1993694 magnetization 

 Broyden mixing:
  rms(total) = 0.64988E-03    rms(broyden)= 0.64736E-03
  rms(prec ) = 0.79575E-03
  weight for this iteration     100.00

 eigenvalues of (default mixing * dielectric matrix)
  average eigenvalue GAMMA=   1.6959
  4.2651  2.8243  2.3259  1.9706  1.1413  1.1413  1.1349  1.1349  0.8188  0.9487
  0.9487

 Free energy of the ion-electron system (eV)
  ---------------------------------------------------
  alpha Z        PSCENC =       872.70583573
  Ewald energy   TEWEN  =    -17932.98754311
  -Hartree energ DENC   =     -7457.24159938
  -exchange      EXHF   =         0.00000000
  -V(xc)+E(xc)   XCENC  =       943.51197920
  PAW double counting   =     22739.13663161   -23797.37170445
  entropy T*S    EENTRO =        -0.00000000
  eigenvalues    EBANDS =     -2989.36179464
  atomic energy  EATOM  =     26212.11861568
  Solvation  Ediel_sol  =         0.00000000
  ---------------------------------------------------
  free energy    TOTEN  =     -1409.48957935 eV

  energy without entropy =    -1409.48957935  energy(sigma->0) =    -1409.48957935


--------------------------------------------------------------------------------------------------------




--------------------------------------- Iteration      1(  17)  ---------------------------------------


    POTLOK:  cpu time    0.2699: real time    0.3143
    SETDIJ:  cpu time    1.2240: real time    1.2240
     EDDAV:  cpu time   17.9122: real time   17.9130
       DOS:  cpu time    0.0004: real time    0.0004
    CHARGE:  cpu time    2.6903: real time    2.6906
    MIXING:  cpu time    0.0021: real time    0.0022
    --------------------------------------------
      LOOP:  cpu time   22.0989: real time   22.1444

 eigenvalue-minimisations  :  3872
 total energy-change (2. order) :-0.3608062E-05  (-0.8811482E-06)
 number of electron     343.9999998 magnetization 
 augmentation part       -3.1992807 magnetization 

 Broyden mixing:
  rms(total) = 0.38244E-03    rms(broyden)= 0.37820E-03
  rms(prec ) = 0.41698E-03
  weight for this iteration     100.00

 eigenvalues of (default mixing * dielectric matrix)
  average eigenvalue GAMMA=   1.6719
  4.3847  3.0084  2.1711  2.1711  1.2369  1.2369  1.1436  1.1436  0.9759  0.9759
  0.8076  0.8076

 Free energy of the ion-electron system (eV)
  ---------------------------------------------------
  alpha Z        PSCENC =       872.70583573
  Ewald energy   TEWEN  =    -17932.98754311
  -Hartree energ DENC   =     -7457.23591298
  -exchange      EXHF   =         0.00000000
  -V(xc)+E(xc)   XCENC  =       943.50869087
  PAW double counting   =     22739.12404317   -23797.35595181
  entropy T*S    EENTRO =        -0.00000000
  eigenvalues    EBANDS =     -2989.36736052
  atomic energy  EATOM  =     26212.11861568
  Solvation  Ediel_sol  =         0.00000000
  ---------------------------------------------------
  free energy    TOTEN  =     -1409.48958296 eV

  energy without entropy =    -1409.48958296  energy(sigma->0) =    -1409.48958296


--------------------------------------------------------------------------------------------------------




--------------------------------------- Iteration      1(  18)  ---------------------------------------


    POTLOK:  cpu time    0.3005: real time    0.3099
    SETDIJ:  cpu time    1.2242: real time    1.2242
     EDDAV:  cpu time   14.9227: real time   14.9236
       DOS:  cpu time    0.0004: real time    0.0004
    CHARGE:  cpu time    2.6952: real time    2.6954
    MIXING:  cpu time    0.0022: real time    0.0022
    --------------------------------------------
      LOOP:  cpu time   19.1451: real time   19.1558

 eigenvalue-minimisations  :  2832
 total energy-change (2. order) : 0.4523624E-05  (-0.2143061E-06)
 number of electron     343.9999998 magnetization 
 augmentation part       -3.1993325 magnetization 

 Broyden mixing:
  rms(total) = 0.17037E-03    rms(broyden)= 0.16064E-03
  rms(prec ) = 0.18693E-03
  weight for this iteration     100.00

 eigenvalues of (default mixing * dielectric matrix)
  average eigenvalue GAMMA=   1.6686
  4.5803  2.9656  2.4526  2.0104  1.3211  1.3211  1.1322  1.1322  1.0442  1.0442
  0.8055  0.9408  0.9408

 Free energy of the ion-electron system (eV)
  ---------------------------------------------------
  alpha Z        PSCENC =       872.70583573
  Ewald energy   TEWEN  =    -17932.98754311
  -Hartree energ DENC   =     -7457.23536287
  -exchange      EXHF   =         0.00000000
  -V(xc)+E(xc)   XCENC  =       943.50844544
  PAW double counting   =     22739.15969345   -23797.39094851
  entropy T*S    EENTRO =        -0.00000000
  eigenvalues    EBANDS =     -2989.36831426
  atomic energy  EATOM  =     26212.11861568
  Solvation  Ediel_sol  =         0.00000000
  ---------------------------------------------------
  free energy    TOTEN  =     -1409.48957844 eV

  energy without entropy =    -1409.48957844  energy(sigma->0) =    -1409.48957844


--------------------------------------------------------------------------------------------------------




--------------------------------------- Iteration      1(  19)  ---------------------------------------


    POTLOK:  cpu time    0.3001: real time    0.3208
    SETDIJ:  cpu time    1.2233: real time    1.2233
     EDDAV:  cpu time   13.0620: real time   13.0631
       DOS:  cpu time    0.0004: real time    0.0004
    CHARGE:  cpu time    2.6945: real time    2.6946
    MIXING:  cpu time    0.0021: real time    0.0021
    --------------------------------------------
      LOOP:  cpu time   17.2823: real time   17.3043

 eigenvalue-minimisations  :  2176
 total energy-change (2. order) : 0.5901710E-05  (-0.2261301E-07)
 number of electron     343.9999998 magnetization 
 augmentation part       -3.1993489 magnetization 

 Broyden mixing:
  rms(total) = 0.97723E-04    rms(broyden)= 0.79616E-04
  rms(prec ) = 0.92548E-04
  weight for this iteration     100.00
  WARNING: grid for Broyden might be to small

 eigenvalues of (default mixing * dielectric matrix)
  average eigenvalue GAMMA=   1.6898
  4.6979  3.0437  2.4458  1.9933  1.9933  1.2642  1.2642  1.1562  1.1562  1.0196
  1.0196  0.9655  0.8190  0.8190

 Free energy of the ion-electron system (eV)
  ---------------------------------------------------
  alpha Z        PSCENC =       872.70583573
  Ewald energy   TEWEN  =    -17932.98754311
  -Hartree energ DENC   =     -7457.24127130
  -exchange      EXHF   =         0.00000000
  -V(xc)+E(xc)   XCENC  =       943.50885833
  PAW double counting   =     22739.27534141   -23797.50622612
  entropy T*S    EENTRO =        -0.00000000
  eigenvalues    EBANDS =     -2989.36318316
  atomic energy  EATOM  =     26212.11861568
  Solvation  Ediel_sol  =         0.00000000
  ---------------------------------------------------
  free energy    TOTEN  =     -1409.48957253 eV

  energy without entropy =    -1409.48957253  energy(sigma->0) =    -1409.48957253


--------------------------------------------------------------------------------------------------------




--------------------------------------- Iteration      1(  20)  ---------------------------------------


    POTLOK:  cpu time    0.2542: real time    0.3114
    SETDIJ:  cpu time    1.2268: real time    1.2268
     EDDAV:  cpu time   12.7322: real time   12.7334
       DOS:  cpu time    0.0004: real time    0.0004
    CHARGE:  cpu time    2.6916: real time    2.6917
    MIXING:  cpu time    0.0021: real time    0.0021
    --------------------------------------------
      LOOP:  cpu time   16.9074: real time   16.9658

 eigenvalue-minimisations  :  2064
 total energy-change (2. order) : 0.1911696E-05  (-0.1231096E-07)
 number of electron     343.9999998 magnetization 
 augmentation part       -3.1993461 magnetization 

 Broyden mixing:
  rms(total) = 0.73155E-04    rms(broyden)= 0.46269E-04
  rms(prec ) = 0.52517E-04
  weight for this iteration     100.00
  WARNING: grid for Broyden might be to small

 eigenvalues of (default mixing * dielectric matrix)
  average eigenvalue GAMMA=   1.6249
  4.7203  3.0472  2.4538  2.0465  2.0465  1.2556  1.2556  1.1381  1.1381  1.0167
  1.0167  0.9557  0.7881  0.7476  0.7476

 Free energy of the ion-electron system (eV)
  ---------------------------------------------------
  alpha Z        PSCENC =       872.70583573
  Ewald energy   TEWEN  =    -17932.98754311
  -Hartree energ DENC   =     -7457.24469486
  -exchange      EXHF   =         0.00000000
  -V(xc)+E(xc)   XCENC  =       943.50897468
  PAW double counting   =     22739.27383254   -23797.50393070
  entropy T*S    EENTRO =        -0.00000000
  eigenvalues    EBANDS =     -2989.36066058
  atomic energy  EATOM  =     26212.11861568
  Solvation  Ediel_sol  =         0.00000000
  ---------------------------------------------------
  free energy    TOTEN  =     -1409.48957062 eV

  energy without entropy =    -1409.48957062  energy(sigma->0) =    -1409.48957062


--------------------------------------------------------------------------------------------------------




--------------------------------------- Iteration      1(  21)  ---------------------------------------


    POTLOK:  cpu time    0.3037: real time    0.3157
    SETDIJ:  cpu time    1.2289: real time    1.2289
     EDDAV:  cpu time   12.5600: real time   12.5607
       DOS:  cpu time    0.0004: real time    0.0004
    --------------------------------------------
      LOOP:  cpu time   14.0930: real time   14.1057

 eigenvalue-minimisations  :  2000
 total energy-change (2. order) :-0.2808583E-06  (-0.3986106E-08)
 number of electron     343.9999998 magnetization 
 augmentation part       -3.1993461 magnetization 

 Free energy of the ion-electron system (eV)
  ---------------------------------------------------
  alpha Z        PSCENC =       872.70583573
  Ewald energy   TEWEN  =    -17932.98754311
  -Hartree energ DENC   =     -7457.24407895
  -exchange      EXHF   =         0.00000000
  -V(xc)+E(xc)   XCENC  =       943.50896373
  PAW double counting   =     22739.28015345   -23797.51058807
  entropy T*S    EENTRO =        -0.00000000
  eigenvalues    EBANDS =     -2989.36092937
  atomic energy  EATOM  =     26212.11861568
  Solvation  Ediel_sol  =         0.00000000
  ---------------------------------------------------
  free energy    TOTEN  =     -1409.48957090 eV

  energy without entropy =    -1409.48957090  energy(sigma->0) =    -1409.48957090


--------------------------------------------------------------------------------------------------------




 average (electrostatic) potential at core
  the test charge radii are     1.1312  1.1541  1.0178
  (the norm of the test charge is              1.0000)
       1 -55.1951       2 -55.1977       3 -55.3830       4 -55.1472       5 -55.2896
       6 -55.2455       7 -55.3471       8 -55.1027       9-101.5964      10-101.9220
      11-101.6211      12-101.6299      13-101.6141      14-101.8837      15-101.6352
      16-101.9616      17 -68.9888      18 -68.9977      19 -69.0523      20 -69.4997
      21 -69.0450      22 -68.9813      23 -68.9855      24 -68.9857      25 -69.4452
      26 -69.0088      27 -69.0016      28 -69.0235      29 -68.9514      30 -69.0438
      31 -68.9662      32 -69.0186      33 -68.9385      34 -69.0214      35 -68.9360
      36 -68.9852      37 -69.0337      38 -69.0000      39 -68.9383



 E-fermi :   0.4373     XC(G=0):  -7.9592     alpha+bet : -6.9586


 k-point     1 :       0.0000    0.0000    0.0000
  band No.  band energies     occupation 
      1     -20.9081      2.00000
      2     -20.8756      2.00000
      3     -20.8208      2.00000
      4     -20.7712      2.00000
      5     -20.7292      2.00000
      6     -20.7278      2.00000
      7     -20.6813      2.00000
      8     -20.6373      2.00000
      9     -16.7465      2.00000
     10     -16.7161      2.00000
     11     -16.6895      2.00000
     12     -16.6714      2.00000
     13     -16.6562      2.00000
     14     -16.6550      2.00000
     15     -16.6545      2.00000
     16     -16.6341      2.00000
     17     -16.5915      2.00000
     18     -16.5807      2.00000
     19     -16.5495      2.00000
     20     -16.5468      2.00000
     21     -16.5433      2.00000
     22     -16.5386      2.00000
     23     -16.5092      2.00000
     24     -16.4569      2.00000
     25     -16.4347      2.00000
     26     -16.4257      2.00000
     27     -16.4149      2.00000
     28     -16.4058      2.00000
     29     -16.3937      2.00000
     30     -16.3725      2.00000
     31     -16.3686      2.00000
     32     -16.3519      2.00000
     33     -16.3462      2.00000
     34     -16.3030      2.00000
     35     -16.2965      2.00000
     36     -16.2918      2.00000
     37     -16.2893      2.00000
     38     -16.2886      2.00000
     39     -16.2856      2.00000
     40     -16.2833      2.00000
     41     -16.2807      2.00000
     42     -16.2801      2.00000
     43     -16.2743      2.00000
     44     -16.2730      2.00000
     45     -16.2683      2.00000
     46     -16.2651      2.00000
     47     -16.2629      2.00000
     48     -16.2536      2.00000
     49     -14.5431      2.00000
     50     -14.4518      2.00000
     51     -14.3127      2.00000
     52     -14.1700      2.00000
     53     -14.1312      2.00000
     54     -14.1169      2.00000
     55     -14.0834      2.00000
     56     -14.0632      2.00000
     57     -14.0425      2.00000
     58     -14.0418      2.00000
     59     -14.0255      2.00000
     60     -14.0248      2.00000
     61     -14.0175      2.00000
     62     -14.0092      2.00000
     63     -13.9911      2.00000
     64     -13.9734      2.00000
     65     -13.9538      2.00000
     66     -13.8957      2.00000
     67     -13.8728      2.00000
     68     -13.7600      2.00000
     69     -13.7540      2.00000
     70     -13.7330      2.00000
     71     -13.7251      2.00000
     72      -8.2086      2.00000
     73      -7.7913      2.00000
     74      -7.7638      2.00000
     75      -7.7173      2.00000
     76      -7.3513      2.00000
     77      -7.3441      2.00000
     78      -7.3107      2.00000
     79      -7.2890      2.00000
     80      -7.2682      2.00000
     81      -7.2630      2.00000
     82      -7.2529      2.00000
     83      -7.2384      2.00000
     84      -7.2279      2.00000
     85      -7.2237      2.00000
     86      -7.2089      2.00000
     87      -7.1838      2.00000
     88      -7.1668      2.00000
     89      -7.1550      2.00000
     90      -7.1542      2.00000
     91      -7.1535      2.00000
     92      -7.1379      2.00000
     93      -7.1265      2.00000
     94      -7.1200      2.00000
     95      -7.1186      2.00000
     96      -7.1024      2.00000
     97      -7.0940      2.00000
     98      -7.0869      2.00000
     99      -7.0671      2.00000
    100      -7.0498      2.00000
    101      -7.0406      2.00000
    102      -7.0009      2.00000
    103      -6.5838      2.00000
    104      -3.3991      2.00000
    105      -3.3108      2.00000
    106      -3.2853      2.00000
    107      -3.2583      2.00000
    108      -3.2151      2.00000
    109      -3.1982      2.00000
    110      -3.1783      2.00000
    111      -3.1567      2.00000
    112      -3.1146      2.00000
    113      -3.0371      2.00000
    114      -2.9510      2.00000
    115      -2.9063      2.00000
    116      -2.2515      2.00000
    117      -2.1981      2.00000
    118      -2.1632      2.00000
    119      -2.0561      2.00000
    120      -2.0369      2.00000
    121      -1.9978      2.00000
    122      -1.9224      2.00000
    123      -1.9046      2.00000
    124      -1.8739      2.00000
    125      -1.8167      2.00000
    126      -1.7469      2.00000
    127      -1.7250      2.00000
    128      -1.6927      2.00000
    129      -1.6561      2.00000
    130      -1.6194      2.00000
    131      -1.5970      2.00000
    132      -1.5806      2.00000
    133      -1.5488      2.00000
    134      -1.5431      2.00000
    135      -1.5249      2.00000
    136      -1.5132      2.00000
    137      -1.4852      2.00000
    138      -1.4756      2.00000
    139      -1.4633      2.00000
    140      -1.4412      2.00000
    141      -1.4173      2.00000
    142      -1.4162      2.00000
    143      -1.3970      2.00000
    144      -1.3834      2.00000
    145      -1.3736      2.00000
    146      -1.3708      2.00000
    147      -1.3469      2.00000
    148      -1.3367      2.00000
    149      -1.3228      2.00000
    150      -1.3198      2.00000
    151      -1.3169      2.00000
    152      -1.3030      2.00000
    153      -1.2823      2.00000
[...]


--------------------------------------------------------------------------------------------------------


 soft charge-density along one line, spin component           1
         0         1         2         3         4         5         6         7         8         9
 total charge-density along one line

 pseudopotential strength for first ion, spin component:           1
 17.934  -4.695   0.001   0.001  -0.000  -0.001  -0.001   0.000
 -4.695   1.238  -0.000  -0.000   0.000   0.000   0.000   0.000
  0.001  -0.000   2.249  -0.000  -0.000  -2.686   0.000   0.000
  0.001  -0.000  -0.000   2.250  -0.001   0.000  -2.688   0.001
 -0.000   0.000  -0.000  -0.001   2.248   0.000   0.001  -2.686
 -0.001   0.000  -2.686   0.000   0.000   3.176  -0.000  -0.000
 -0.001   0.000   0.000  -2.688   0.001  -0.000   3.178  -0.002
  0.000   0.000   0.000   0.001  -2.686  -0.000  -0.002   3.175
 -0.000   0.000   0.001  -0.000   0.000  -0.001   0.000  -0.000
 -0.000   0.000   0.001   0.000  -0.000  -0.002  -0.000   0.000
  0.001  -0.000  -0.000  -0.001   0.001   0.000   0.001  -0.001
 -0.001   0.000  -0.000   0.001   0.001   0.000  -0.001  -0.001
 -0.000   0.000  -0.001  -0.000  -0.001   0.001   0.000   0.001
 total augmentation occupancy for first ion, spin component:           1
  1.912  -0.137   0.000   0.000   0.000   0.000   0.000  -0.000  -0.000  -0.000   0.001  -0.002  -0.000
 -0.137   0.119   0.002   0.001  -0.000  -0.001  -0.002   0.001  -0.000   0.001  -0.003   0.005   0.002
  0.000   0.002   2.017  -0.000  -0.000   0.004  -0.000  -0.000   0.002   0.003  -0.000  -0.000  -0.000
  0.000   0.001  -0.000   2.021  -0.003  -0.000   0.006  -0.002  -0.000   0.001  -0.003   0.000  -0.001
  0.000  -0.000  -0.000  -0.003   2.017  -0.000  -0.002   0.004   0.001  -0.000   0.000   0.002  -0.003
  0.000  -0.001   0.004  -0.000  -0.000   0.008   0.000  -0.000  -0.002  -0.003  -0.000   0.000  -0.000
  0.000  -0.002  -0.000   0.006  -0.002   0.000   0.007   0.001   0.000  -0.000   0.002  -0.001   0.001
 -0.000   0.001  -0.000  -0.002   0.004  -0.000   0.001   0.009  -0.000   0.000  -0.001  -0.001   0.003
 -0.000  -0.000   0.002  -0.000   0.001  -0.002   0.000  -0.000   0.007   0.002   0.000   0.000   0.000
 -0.000   0.001   0.003   0.001  -0.000  -0.003  -0.000   0.000   0.002   0.005  -0.000   0.000  -0.000
  0.001  -0.003  -0.000  -0.003   0.000  -0.000   0.002  -0.001   0.000  -0.000   0.005  -0.002  -0.001
 -0.002   0.005  -0.000   0.000   0.002   0.000  -0.001  -0.001   0.000   0.000  -0.002   0.004   0.001
 -0.000   0.002  -0.000  -0.001  -0.003  -0.000   0.001   0.003   0.000  -0.000  -0.001   0.001   0.004


------------------------ aborting loop because EDIFF is reached ----------------------------------------





 total charge     

# of ion       s       p       d       tot
------------------------------------------
    1        1.786   4.717   0.019   6.521
    2        1.786   4.717   0.018   6.521
    3        1.785   4.716   0.017   6.518
    4        1.786   4.717   0.019   6.522
    5        1.786   4.717   0.018   6.521
    6        1.785   4.716   0.017   6.518
    7        1.785   4.716   0.018   6.520
    8        1.786   4.717   0.019   6.522
    9        1.554   0.424   9.835  11.813
   10        1.534   0.430   9.831  11.795
   11        1.554   0.420   9.834  11.808
   12        1.552   0.412   9.832  11.796
   13        1.553   0.417   9.833  11.803
   14        1.529   0.440   9.832  11.801
   15        1.554   0.418   9.834  11.806
   16        1.540   0.441   9.828  11.810
   17        1.614   3.283   0.007   4.904
   18        1.614   3.281   0.006   4.902
   19        1.615   3.286   0.007   4.908
   20        1.616   3.272   0.007   4.895
   21        1.615   3.289   0.007   4.911
   22        1.614   3.283   0.007   4.904
   23        1.614   3.279   0.006   4.899
   24        1.614   3.281   0.006   4.901
   25        1.616   3.271   0.007   4.894
   26        1.614   3.276   0.006   4.896
   27        1.614   3.280   0.006   4.900
   28        1.614   3.278   0.006   4.898
   29        1.614   3.282   0.006   4.902
   30        1.615   3.286   0.007   4.908
   31        1.615   3.279   0.007   4.900
   32        1.614   3.287   0.006   4.907
   33        1.613   3.277   0.005   4.896
   34        1.614   3.280   0.006   4.901
   35        1.614   3.282   0.006   4.902
   36        1.614   3.283   0.006   4.903
   37        1.614   3.277   0.006   4.897
   38        1.614   3.279   0.006   4.898
   39        1.615   3.269   0.006   4.890
--------------------------------------------------
tot         63.788 116.574  78.950 259.312

    CHARGE:  cpu time    0.3900: real time    0.3901
    FORLOC:  cpu time    0.0113: real time    0.0113
    FORNL :  cpu time    1.9076: real time    1.9078
    STRESS:  cpu time   49.6877: real time   49.6912
    FORCOR:  cpu time    0.2413: real time    0.2413
    FORHAR:  cpu time    0.0273: real time    0.0273
    MIXING:  cpu time    0.0021: real time    0.0022
    OFIELD:  cpu time    0.0000: real time    0.0000

  FORCE on cell =-STRESS in cart. coord.  units (eV):
  Direction    XX          YY          ZZ          XY          YZ          ZX
  --------------------------------------------------------------------------------------
  Alpha Z   872.70584   872.70584   872.70584
  Ewald   -5913.01037 -5914.48298 -6105.57338   -76.11094   -53.80172   -96.67295
  Hartree  2543.30946  2504.48598  2409.44798   -41.80969   -27.44122   -67.43916
  E(xc)   -1449.19998 -1449.14264 -1449.31204    -0.08956    -0.07538    -0.04876
  Local   -3021.70344 -2978.96788 -2695.90141   118.27297    81.44219   164.87571
  n-local  1747.94150  1748.29737  1746.70382    -1.56840    -1.18323    -0.55130
  augment   818.25663   817.34205   817.28284    -0.26951    -0.20712    -0.52396
  Kinetic  4394.76101  4394.61531  4398.51588     1.43356     0.80846     0.07720
  Fock        0.00000     0.00000     0.00000     0.00000     0.00000     0.00000
  -------------------------------------------------------------------------------------
  Total      -6.93934    -5.14695    -6.13048    -0.14157    -0.45803    -0.28323
  in kB      -6.97018    -5.16983    -6.15772    -0.14220    -0.46006    -0.28449
  external pressure =       -6.10 kB  Pullay stress =        0.00 kB


 VOLUME and BASIS-vectors are now :
 -----------------------------------------------------------------------------
  energy-cutoff  :      300.00
  volume of cell :     1595.09
      direct lattice vectors                 reciprocal lattice vectors
     8.456489000  0.000000000  8.040301000     0.059126193 -0.000000000  0.062186727
     0.000000000 11.729847000  0.000000000     0.000000000  0.085252604 -0.000000000
    -8.456489000  0.000000000  8.040301000    -0.059126193  0.000000000  0.062186727

  length of vectors
    11.668703715 11.729847000 11.668703715     0.085808482  0.085252604  0.085808482


 FORCES acting on ions
    electron-ion (+dipol)            ewald-force                    non-local-force                 convergence-correction
 -----------------------------------------------------------------------------------------------
   0.355E+02 -.161E+02 -.384E+02   -.354E+02 0.161E+02 0.383E+02   -.409E-01 0.488E-01 0.698E-01   0.616E-04 -.196E-04 0.332E-05
   0.196E+02 -.144E+02 0.151E+02   -.195E+02 0.143E+02 -.149E+02   -.636E-01 0.128E+00 -.246E+00   -.564E-04 0.297E-04 -.698E-04
   0.450E+02 0.438E+01 -.283E+02   -.445E+02 -.431E+01 0.282E+02   -.508E+00 -.581E-01 0.702E-01   0.380E-04 -.703E-04 -.533E-04
   -.560E+02 0.338E+02 -.271E+00   0.560E+02 -.336E+02 0.405E+00   -.105E-01 -.239E+00 -.140E+00   -.282E-04 0.624E-04 0.775E-04
   -.812E+00 -.458E+02 0.339E+02   0.749E+00 0.455E+02 -.339E+02   0.624E-01 0.360E+00 -.844E-02   0.103E-03 -.364E-04 0.148E-03
   0.502E+02 -.715E+01 0.809E+00   -.499E+02 0.705E+01 -.949E+00   -.234E+00 0.104E+00 0.129E+00   -.341E-04 0.440E-04 -.121E-04
   -.463E+02 0.904E+01 0.866E+02   0.461E+02 -.900E+01 -.861E+02   0.173E+00 -.486E-01 -.549E+00   -.497E-04 -.527E-04 0.110E-05
   -.940E+01 0.141E+02 -.290E+02   0.925E+01 -.141E+02 0.291E+02   0.151E+00 0.189E-01 -.136E+00   0.640E-04 0.254E-04 -.301E-04
   -.159E+01 -.721E+01 0.284E+01   0.146E+01 0.717E+01 -.275E+01   0.114E+00 0.504E-01 -.102E+00   0.558E-04 -.186E-03 -.219E-04
   -.211E+02 0.117E+03 -.299E+02   0.212E+02 -.122E+03 0.307E+02   -.201E-01 0.572E+01 -.752E+00   -.109E-03 0.843E-03 -.125E-03
   -.399E+01 0.379E+01 0.497E+01   0.376E+01 -.351E+01 -.564E+01   0.236E+00 -.291E+00 0.675E+00   0.174E-04 -.147E-03 -.696E-04
   0.158E+02 0.148E+01 0.193E+02   -.170E+02 -.658E+00 -.204E+02   0.121E+01 -.802E+00 0.107E+01   -.662E-05 -.164E-03 0.867E-04
   -.125E+02 -.565E+01 0.204E+02   0.136E+02 0.557E+01 -.214E+02   -.116E+01 0.819E-01 0.105E+01   0.590E-04 0.143E-03 -.153E-04
   -.574E+02 -.141E+02 -.102E+03   0.609E+02 0.152E+02 0.108E+03   -.353E+01 -.106E+01 -.536E+01   -.559E-03 0.531E-04 -.825E-03
   -.131E+02 0.808E+01 -.263E+01   0.130E+02 -.810E+01 0.285E+01   0.980E-01 0.212E-01 -.205E+00   -.158E-04 0.196E-03 -.380E-04
   0.599E+01 -.348E+02 -.420E+01   -.264E+01 0.329E+02 0.515E+01   -.336E+01 0.190E+01 -.943E+00   -.421E-04 0.323E-04 0.151E-03
   -.310E+01 0.102E+02 0.447E+02   0.300E+01 -.103E+02 -.451E+02   0.946E-01 0.260E-01 0.334E+00   0.298E-04 -.341E-04 -.227E-04
   0.119E+02 0.127E+02 0.258E+02   -.118E+02 -.127E+02 -.260E+02   -.924E-01 0.173E-01 0.257E+00   -.404E-04 0.262E-04 0.116E-04
   -.155E+02 -.806E+01 0.351E+02   0.156E+02 0.808E+01 -.353E+02   -.113E+00 -.938E-02 0.246E+00   0.448E-05 0.113E-04 0.433E-06
   0.932E+01 -.428E+02 0.452E+02   -.943E+01 0.432E+02 -.457E+02   0.986E-01 -.342E+00 0.496E+00   0.369E-04 -.321E-04 0.983E-04
   0.155E+02 0.619E+01 -.271E+02   -.157E+02 -.618E+01 0.272E+02   0.210E+00 -.879E-02 -.102E+00   0.301E-04 -.111E-04 -.121E-04
   -.660E+01 -.527E+01 -.359E+02   0.669E+01 0.525E+01 0.362E+02   -.820E-01 0.167E-01 -.277E+00   0.276E-05 0.384E-04 -.565E-04
   -.186E+02 -.137E+02 -.435E+02   0.187E+02 0.136E+02 0.439E+02   -.632E-01 0.894E-01 -.296E+00   -.401E-04 -.602E-04 -.733E-04
   -.400E+02 0.720E+01 0.330E+02   0.402E+02 -.731E+01 -.332E+02   -.220E+00 0.109E+00 0.218E+00   0.227E-04 0.102E-03 0.821E-04
   0.216E+02 -.465E+01 0.498E+02   -.217E+02 0.449E+01 -.505E+02   0.818E-01 0.154E+00 0.678E+00   -.746E-04 0.655E-04 0.356E-04
   0.473E+02 -.243E+02 -.435E+01   -.477E+02 0.246E+02 0.421E+01   0.362E+00 -.275E+00 0.144E+00   0.387E-04 0.380E-04 -.744E-05
   -.417E+00 -.162E+02 0.384E+02   0.179E+00 0.164E+02 -.387E+02   0.223E+00 -.143E+00 0.240E+00   -.926E-04 0.871E-04 -.707E-04
   -.399E+02 0.495E+01 -.139E+02   0.402E+02 -.481E+01 0.142E+02   -.233E+00 -.136E+00 -.308E+00   -.191E-04 -.280E-04 -.941E-05
   -.104E+02 -.176E+02 -.360E+02   0.107E+02 0.178E+02 0.362E+02   -.219E+00 -.145E+00 -.183E+00   0.207E-04 -.846E-04 0.411E-04
   0.284E+02 0.885E+01 -.250E+02   -.286E+02 -.896E+01 0.253E+02   0.187E+00 0.112E+00 -.315E+00   0.197E-04 -.828E-04 -.613E-04
   0.384E+01 0.270E+02 -.334E+02   -.405E+01 -.272E+02 0.337E+02   0.194E+00 0.236E+00 -.352E+00   0.214E-05 -.413E-04 -.108E-04
   -.235E+02 -.783E+01 0.145E+02   0.237E+02 0.789E+01 -.147E+02   -.151E+00 -.653E-01 0.120E+00   0.169E-04 -.101E-03 0.280E-04
   -.855E+01 0.156E+01 0.203E+02   0.883E+01 -.144E+01 -.205E+02   -.255E+00 -.124E+00 0.121E+00   -.486E-04 -.205E-04 0.415E-04
   0.279E+02 0.328E+02 -.471E+01   -.281E+02 -.330E+02 0.452E+01   0.121E+00 0.206E+00 0.173E+00   -.637E-05 -.301E-04 -.587E-04
   0.108E+02 0.255E+02 0.480E+02   -.110E+02 -.257E+02 -.483E+02   0.148E+00 0.201E+00 0.260E+00   0.218E-05 -.871E-04 -.182E-04
   0.278E+02 -.890E+01 -.204E+02   -.280E+02 0.904E+01 0.206E+02   0.195E+00 -.139E+00 -.259E+00   -.393E-06 0.672E-04 -.741E-04
   -.177E+02 -.102E+01 -.738E+01   0.177E+02 0.851E+00 0.777E+01   0.516E-02 0.158E+00 -.356E+00   0.155E-04 0.799E-04 0.586E-05
   -.143E+02 0.169E+02 -.533E+02   0.145E+02 -.171E+02 0.536E+02   -.200E+00 0.175E+00 -.198E+00   0.188E-04 0.852E-04 -.494E-04
   0.503E+02 -.544E+02 0.543E+01   -.508E+02 0.552E+02 -.571E+01   0.460E+00 -.716E+00 0.261E+00   0.415E-04 0.118E-04 0.103E-03
 -----------------------------------------------------------------------------------------------
   0.611E+01 -.530E+01 0.455E+01   -.426E-13 0.199E-12 0.135E-12   -.613E+01 0.533E+01 -.447E+01   -.521E-03 0.753E-03 -.868E-03


 POSITION                                       TOTAL-FORCE (eV/Angst)
 -----------------------------------------------------------------------------------
      0.56515      2.87305      3.73602        -0.000570     -0.000899     -0.000547
      0.54250      2.85617     11.99862         0.000410      0.000037      0.000306
      3.88371      8.82337      7.92026         0.000879     -0.000051     -0.001236
     -4.88832      8.86290      7.85753         0.000934      0.001105     -0.000336
     -3.86892      2.76397      8.36765         0.001334     -0.000253     -0.001649
      4.78562      2.93129      8.19394        -0.000386      0.000182     -0.000269
     -0.62630      8.77920     12.40474        -0.000506      0.000998      0.000172
     -0.25199      8.81361      3.89249         0.000638      0.001461     -0.000697
     -0.04341      0.00997     16.03073        -0.001186      0.001953     -0.006059
     -0.07549      0.01844      7.98031         0.002698      0.007476     -0.007646
      4.22008     11.67460      4.01693         0.000485      0.000708      0.005023
     -4.22537      0.06605      4.01782        -0.006837      0.002909      0.006409
      4.23254      5.82333      4.02610        -0.005551     -0.004549     -0.001319
     -4.15803      5.94469      4.09633         0.001732     -0.001991     -0.004964
      0.00222      5.84652     16.07648         0.000405     -0.005906      0.003608
      0.13513      5.68716      8.14278         0.003420     -0.010229     -0.001888
     -4.19078      8.75450     11.51689         0.001356     -0.002990      0.000468
      4.45397      8.86505     11.56895        -0.000828     -0.001463     -0.000084
      0.00501      2.93048     15.59401        -0.000594      0.002306      0.001176
     -0.26933      2.80621      7.36267         0.000312     -0.002652      0.003136
     -0.14160      8.79068      0.27397        -0.001053     -0.000398      0.000448
      4.15154      2.88758      4.48832         0.000419     -0.000366     -0.000821
     -4.26938      3.03530      4.64023         0.000560      0.002896     -0.001542
     -5.92434      5.53025      9.60650        -0.000489      0.000940      0.000655
      2.73444      5.65480      9.78895         0.004509      0.002233      0.007230
      1.79652      6.19890      5.66893        -0.000286     -0.000590      0.000032
      1.72791      6.28424     13.64145         0.000383      0.000949     -0.001352
     -1.67975      0.30655     10.48035         0.003392     -0.000546     -0.001622
     -1.74981      0.42007      2.39446         0.000387     -0.001252      0.001770
      5.88179     11.39995      6.43877        -0.000116      0.000043     -0.000578
     -2.65784     11.45811      6.49288         0.000624      0.000904      0.000501
     -6.05582      0.22731      9.68556         0.001309     -0.000947      0.001321
      2.41300      0.43772      9.59111        -0.000851     -0.000305     -0.000231
      1.74336     11.23760      5.68308        -0.001210      0.000188      0.001437
      1.68546     11.32628     13.61770         0.000258      0.000588     -0.002313
      5.91587      6.17010      6.46866         0.000110      0.000461      0.000632
     -1.62699      5.37423     10.45940        -0.001170     -0.000368     -0.001883
     -1.65640      5.49834      2.50713        -0.003486      0.001464      0.002068
     -1.45737      7.79285      7.21205        -0.001434      0.005955      0.000644
 -----------------------------------------------------------------------------------
    total drift:                               -0.021911      0.025575      0.075153


--------------------------------------------------------------------------------------------------------



  FREE ENERGIE OF THE ION-ELECTRON SYSTEM (eV)
  ---------------------------------------------------
  free  energy   TOTEN  =     -1409.48957090 eV

  energy  without entropy=    -1409.48957090  energy(sigma->0) =    -1409.48957090



--------------------------------------------------------------------------------------------------------


    POTLOK:  cpu time    1.4608: real time    1.4609


--------------------------------------------------------------------------------------------------------


 stress matrix after NEB project (eV)
     -6.93934     -0.14172     -0.28323
     -0.14157     -5.14695     -0.45806
     -0.28324     -0.45803     -6.13048
  FORCES: max atom, RMS     0.011028    0.004488
  FORCE total and by dimension    0.028029    0.010229
  Stress total and by dimension   10.623020    6.939342
     LOOP+:  cpu time  487.4511: real time  488.1810
    4ORBIT:  cpu time    0.0000: real time    0.0000



 total charge     

# of ion       s       p       d       tot
------------------------------------------
    1        1.786   4.717   0.019   6.521
    2        1.786   4.717   0.018   6.521
    3        1.785   4.716   0.017   6.518
    4        1.786   4.717   0.019   6.522
    5        1.786   4.717   0.018   6.521
    6        1.785   4.716   0.017   6.518
    7        1.785   4.716   0.018   6.520
    8        1.786   4.717   0.019   6.522
    9        1.554   0.424   9.835  11.813
   10        1.534   0.430   9.831  11.795
   11        1.554   0.420   9.834  11.808
   12        1.552   0.412   9.832  11.796
   13        1.553   0.417   9.833  11.803
   14        1.529   0.440   9.832  11.801
   15        1.554   0.418   9.834  11.806
   16        1.540   0.441   9.828  11.810
   17        1.614   3.283   0.007   4.904
   18        1.614   3.281   0.006   4.902
   19        1.615   3.286   0.007   4.908
   20        1.616   3.272   0.007   4.895
   21        1.615   3.289   0.007   4.911
   22        1.614   3.283   0.007   4.904
   23        1.614   3.279   0.006   4.899
   24        1.614   3.281   0.006   4.901
   25        1.616   3.271   0.007   4.894
   26        1.614   3.276   0.006   4.896
   27        1.614   3.280   0.006   4.900
   28        1.614   3.278   0.006   4.898
   29        1.614   3.282   0.006   4.902
   30        1.615   3.286   0.007   4.908
   31        1.615   3.279   0.007   4.900
   32        1.614   3.287   0.006   4.907
   33        1.613   3.277   0.005   4.896
   34        1.614   3.280   0.006   4.901
   35        1.614   3.282   0.006   4.902
   36        1.614   3.283   0.006   4.903
   37        1.614   3.277   0.006   4.897
   38        1.614   3.279   0.006   4.898
   39        1.615   3.269   0.006   4.890
--------------------------------------------------
tot         63.788 116.574  78.950 259.312


 total amount of memory used by VASP MPI-rank0    60651. kBytes
=======================================================================

   base      :      30000. kBytes
   nonlr-proj:       6486. kBytes
   fftplans  :       8423. kBytes
   grid      :       7465. kBytes
   one-center:         77. kBytes
   wavefun   :       8200. kBytes

  
  
 General timing and accounting informations for this job:
 ========================================================
  
                  Total CPU time used (sec):      499.848
                            User time (sec):      498.136
                          System time (sec):        1.712
                         Elapsed time (sec):      501.293
  
                   Maximum memory used (kb):       78068.
                   Average memory used (kb):           0.
  
                          Minor page faults:        21056
                          Major page faults:            2
                 Voluntary context switches:         1763
