CsPbBr3 cubic bulk                      
           1
     8.456489    0.000000    8.040301
     0.000000   11.729847    0.000000
    -8.456489    0.000000    8.040301
   Cs   Pb   Br
   8   8  23
Direct configuration=     1
   0.26574600  0.24493500  0.19891600
   0.77823100  0.24349600  0.71407900
   0.72216400  0.75221500  0.26290600
   0.19960600  0.75558500  0.77766200
   0.29160200  0.23563600  0.74911100
   0.79251000  0.24990000  0.22659900
   0.73437900  0.74845000  0.80844100
   0.22716200  0.75138300  0.25696000
   0.99433200  0.00085000  0.99946500
   0.49180600  0.00157200  0.50073300
   0.49931700  0.99529000  0.00028200
   0.00002500  0.00563100  0.49968500
   0.50062400  0.49645400  0.00011600
   0.00888900  0.50680000  0.50058600
   0.99987500  0.49843100  0.99961200
   0.51436300  0.48484500  0.49838300
   0.46841300  0.74634400  0.96398300
   0.98278100  0.75576900  0.45608900
   0.97003700  0.24983100  0.96944400
   0.44193600  0.23923700  0.47378500
   0.00866500  0.74942800  0.02541000
   0.52457900  0.24617400  0.03364900
   0.03612900  0.25876700  0.54099300
   0.24711300  0.47146800  0.94768000
   0.77042000  0.48208600  0.44706600
   0.45875400  0.52847200  0.24631100
   0.95048200  0.53574800  0.74615200
   0.55242100  0.02613400  0.75105600
   0.04544400  0.03581200  0.25236300
   0.74817400  0.97187500  0.05263800
   0.24662300  0.97683400  0.56091900
   0.24425600  0.01937900  0.96037100
   0.73911100  0.03731700  0.45376800
   0.45649000  0.95803500  0.25033400
   0.94649500  0.96559500  0.74718500
   0.75204800  0.52601700  0.05248200
   0.55423800  0.45816700  0.74663400
   0.05797400  0.46874800  0.25384700
   0.36232500  0.66436100  0.53466300
