  39  39   1   0
  0.4089970E+02  0.1166870E-08  0.1172985E-08  0.1166870E-08  0.5000000E-15
   1.0000000000000000E-004
  CAR 
 CsPbBr3 cubic bulk                      
      8.07404496    -22.24891415  301      0.44276691      1.00000000
    -22.249  0.0000E+00  0.0000E+00
    -22.148  0.0000E+00  0.0000E+00
    -22.047  0.0000E+00  0.0000E+00
    -21.946  0.0000E+00  0.0000E+00
    -21.845  0.0000E+00  0.0000E+00
    -21.744  0.0000E+00  0.0000E+00
    -21.642  0.0000E+00  0.0000E+00
    -21.541  0.0000E+00  0.0000E+00
    -21.440  0.0000E+00  0.0000E+00
    -21.339  0.0000E+00  0.0000E+00
    -21.238  0.0000E+00  0.0000E+00
    -21.137  0.0000E+00  0.0000E+00
    -21.036  0.0000E+00  0.0000E+00
    -20.935  0.0000E+00  0.0000E+00
    -20.834  0.2771E+02  0.2801E+01
    -20.733  0.6290E+02  0.1036E+02
    -20.632  0.1979E+02  0.1600E+02
    -20.531  0.0000E+00  0.1600E+02
    -20.430  0.0000E+00  0.1600E+02
    -20.328  0.0000E+00  0.1600E+02
    -20.227  0.0000E+00  0.1600E+02
    -20.126  0.0000E+00  0.1600E+02
    -20.025  0.0000E+00  0.1600E+02
    -19.924  0.0000E+00  0.1600E+02
    -19.823  0.0000E+00  0.1600E+02
    -19.722  0.0000E+00  0.1600E+02
    -19.621  0.0000E+00  0.1600E+02
    -19.520  0.0000E+00  0.1600E+02
    -19.419  0.0000E+00  0.1600E+02
    -19.318  0.0000E+00  0.1600E+02
    -19.217  0.0000E+00  0.1600E+02
    -19.116  0.0000E+00  0.1600E+02
    -19.014  0.0000E+00  0.1600E+02
    -18.913  0.0000E+00  0.1600E+02
    -18.812  0.0000E+00  0.1600E+02
    -18.711  0.0000E+00  0.1600E+02
    -18.610  0.0000E+00  0.1600E+02
    -18.509  0.0000E+00  0.1600E+02
    -18.408  0.0000E+00  0.1600E+02
    -18.307  0.0000E+00  0.1600E+02
    -18.206  0.0000E+00  0.1600E+02
    -18.105  0.0000E+00  0.1600E+02
    -18.004  0.0000E+00  0.1600E+02
    -17.903  0.0000E+00  0.1600E+02
    -17.802  0.0000E+00  0.1600E+02
    -17.700  0.0000E+00  0.1600E+02
    -17.599  0.0000E+00  0.1600E+02
    -17.498  0.0000E+00  0.1600E+02
    -17.397  0.0000E+00  0.1600E+02
    -17.296  0.0000E+00  0.1600E+02
    -17.195  0.0000E+00  0.1600E+02
    -17.094  0.0000E+00  0.1600E+02
    -16.993  0.0000E+00  0.1600E+02
    -16.892  0.0000E+00  0.1600E+02
    -16.791  0.0000E+00  0.1600E+02
    -16.690  0.1704E+02  0.1772E+02
    -16.589  0.8116E+02  0.2820E+02
    -16.488  0.1187E+03  0.4400E+02
    -16.386  0.1478E+03  0.5894E+02
    -16.285  0.1398E+03  0.7663E+02
    -16.184  0.7913E+02  0.9600E+02
    -16.083  0.0000E+00  0.9600E+02
    -15.982  0.0000E+00  0.9600E+02
    -15.881  0.0000E+00  0.9600E+02
    -15.780  0.0000E+00  0.9600E+02
    -15.679  0.0000E+00  0.9600E+02
    -15.578  0.0000E+00  0.9600E+02
    -15.477  0.0000E+00  0.9600E+02
    -15.376  0.0000E+00  0.9600E+02
    -15.275  0.0000E+00  0.9600E+02
    -15.174  0.0000E+00  0.9600E+02
    -15.072  0.0000E+00  0.9600E+02
    -14.971  0.0000E+00  0.9600E+02
    -14.870  0.0000E+00  0.9600E+02
    -14.769  0.0000E+00  0.9600E+02
    -14.668  0.0000E+00  0.9600E+02
    -14.567  0.0000E+00  0.9600E+02
    -14.466  0.1964E+02  0.9799E+02
    -14.365  0.1979E+02  0.1000E+03
    -14.264  0.1946E+02  0.1020E+03
    -14.163  0.3873E+02  0.1064E+03
    -14.062  0.5475E+02  0.1130E+03
    -13.961  0.8806E+02  0.1247E+03
    -13.860  0.7148E+02  0.1325E+03
    -13.758  0.5223E+02  0.1400E+03
    -13.657  0.7418E+01  0.1420E+03
    -13.556  0.0000E+00  0.1420E+03
    -13.455  0.0000E+00  0.1420E+03
    -13.354  0.0000E+00  0.1420E+03
    -13.253  0.0000E+00  0.1420E+03
    -13.152  0.0000E+00  0.1420E+03
    -13.051  0.0000E+00  0.1420E+03
    -12.950  0.0000E+00  0.1420E+03
    -12.849  0.0000E+00  0.1420E+03
    -12.748  0.0000E+00  0.1420E+03
    -12.647  0.0000E+00  0.1420E+03
    -12.546  0.0000E+00  0.1420E+03
    -12.444  0.0000E+00  0.1420E+03
    -12.343  0.0000E+00  0.1420E+03
    -12.242  0.0000E+00  0.1420E+03
    -12.141  0.0000E+00  0.1420E+03
    -12.040  0.0000E+00  0.1420E+03
    -11.939  0.0000E+00  0.1420E+03
    -11.838  0.0000E+00  0.1420E+03
    -11.737  0.0000E+00  0.1420E+03
    -11.636  0.0000E+00  0.1420E+03
    -11.535  0.0000E+00  0.1420E+03
    -11.434  0.0000E+00  0.1420E+03
    -11.333  0.0000E+00  0.1420E+03
    -11.232  0.0000E+00  0.1420E+03
    -11.130  0.0000E+00  0.1420E+03
    -11.029  0.0000E+00  0.1420E+03
    -10.928  0.0000E+00  0.1420E+03
    -10.827  0.0000E+00  0.1420E+03
    -10.726  0.0000E+00  0.1420E+03
    -10.625  0.0000E+00  0.1420E+03
    -10.524  0.0000E+00  0.1420E+03
    -10.423  0.0000E+00  0.1420E+03
    -10.322  0.0000E+00  0.1420E+03
    -10.221  0.0000E+00  0.1420E+03
    -10.120  0.0000E+00  0.1420E+03
    -10.019  0.0000E+00  0.1420E+03
     -9.918  0.0000E+00  0.1420E+03
     -9.817  0.0000E+00  0.1420E+03
     -9.715  0.0000E+00  0.1420E+03
     -9.614  0.0000E+00  0.1420E+03
     -9.513  0.0000E+00  0.1420E+03
     -9.412  0.0000E+00  0.1420E+03
     -9.311  0.0000E+00  0.1420E+03
     -9.210  0.0000E+00  0.1420E+03
     -9.109  0.0000E+00  0.1420E+03
     -9.008  0.0000E+00  0.1420E+03
     -8.907  0.0000E+00  0.1420E+03
     -8.806  0.0000E+00  0.1420E+03
     -8.705  0.0000E+00  0.1420E+03
     -8.604  0.0000E+00  0.1420E+03
     -8.503  0.0000E+00  0.1420E+03
     -8.401  0.0000E+00  0.1420E+03
     -8.300  0.0000E+00  0.1420E+03
     -8.199  0.2254E+01  0.1422E+03
     -8.098  0.1044E-11  0.1423E+03
     -7.997  0.6086E+01  0.1429E+03
     -7.896  0.9849E+01  0.1442E+03
     -7.795  0.4454E+01  0.1450E+03
     -7.694  0.1951E+02  0.1475E+03
     -7.593  0.1015E+02  0.1488E+03
     -7.492  0.1139E+02  0.1502E+03
     -7.391  0.2226E+02  0.1530E+03
     -7.290  0.2529E+02  0.1556E+03
     -7.189  0.1559E+03  0.1720E+03
     -7.087  0.2328E+03  0.2008E+03
     -6.986  0.1488E+02  0.2045E+03
     -6.885  0.2562E+01  0.2050E+03
     -6.784  0.4947E+01  0.2057E+03
     -6.683  0.0000E+00  0.2058E+03
     -6.582  0.7441E+00  0.2058E+03
     -6.481  0.0000E+00  0.2060E+03
     -6.380  0.0000E+00  0.2060E+03
     -6.279  0.0000E+00  0.2060E+03
     -6.178  0.0000E+00  0.2060E+03
     -6.077  0.0000E+00  0.2060E+03
     -5.976  0.0000E+00  0.2060E+03
     -5.875  0.0000E+00  0.2060E+03
     -5.773  0.0000E+00  0.2060E+03
     -5.672  0.0000E+00  0.2060E+03
     -5.571  0.0000E+00  0.2060E+03
     -5.470  0.0000E+00  0.2060E+03
     -5.369  0.0000E+00  0.2060E+03
     -5.268  0.0000E+00  0.2060E+03
     -5.167  0.0000E+00  0.2060E+03
     -5.066  0.0000E+00  0.2060E+03
     -4.965  0.0000E+00  0.2060E+03
     -4.864  0.0000E+00  0.2060E+03
     -4.763  0.0000E+00  0.2060E+03
     -4.662  0.0000E+00  0.2060E+03
     -4.561  0.0000E+00  0.2060E+03
     -4.459  0.0000E+00  0.2060E+03
     -4.358  0.0000E+00  0.2060E+03
     -4.257  0.0000E+00  0.2060E+03
     -4.156  0.0000E+00  0.2060E+03
     -4.055  0.0000E+00  0.2060E+03
     -3.954  0.0000E+00  0.2060E+03
     -3.853  0.0000E+00  0.2060E+03
     -3.752  0.0000E+00  0.2060E+03
     -3.651  0.0000E+00  0.2060E+03
     -3.550  0.0000E+00  0.2060E+03
     -3.449  0.1273E-08  0.2060E+03
     -3.348  0.9626E+01  0.2070E+03
     -3.247  0.2687E+02  0.2097E+03
     -3.145  0.3723E+02  0.2143E+03
     -3.044  0.2023E+02  0.2170E+03
     -2.943  0.1962E+02  0.2195E+03
     -2.842  0.2473E+01  0.2200E+03
     -2.741  0.4513E-04  0.2200E+03
     -2.640  0.2467E+02  0.2225E+03
     -2.539  0.3863E+02  0.2272E+03
     -2.438  0.1854E+02  0.2301E+03
     -2.337  0.4101E+02  0.2351E+03
     -2.236  0.2764E+02  0.2388E+03
     -2.135  0.2329E+02  0.2416E+03
     -2.034  0.2957E+02  0.2452E+03
     -1.933  0.2712E+02  0.2492E+03
     -1.831  0.3457E+02  0.2535E+03
     -1.730  0.4135E+02  0.2592E+03
     -1.629  0.4980E+02  0.2650E+03
     -1.528  0.6717E+02  0.2733E+03
     -1.427  0.7628E+02  0.2832E+03
     -1.326  0.1074E+03  0.2964E+03
     -1.225  0.8012E+02  0.3068E+03
     -1.124  0.8150E+02  0.3170E+03
     -1.023  0.5472E+02  0.3255E+03
     -0.922  0.2697E+02  0.3295E+03
     -0.821  0.3137E+02  0.3337E+03
     -0.720  0.1287E+02  0.3356E+03
     -0.619  0.1415E+02  0.3372E+03
     -0.517  0.9490E+01  0.3385E+03
     -0.416  0.1468E+02  0.3402E+03
     -0.315  0.1153E+02  0.3414E+03
     -0.214  0.5990E+01  0.3421E+03
     -0.113  0.2448E+01  0.3425E+03
     -0.012  0.2474E+01  0.3430E+03
      0.089  0.7360E+01  0.3437E+03
      0.190  0.0000E+00  0.3438E+03
      0.291  0.0000E+00  0.3438E+03
      0.392  0.1634E+01  0.3439E+03
      0.493  0.0000E+00  0.3440E+03
      0.594  0.0000E+00  0.3440E+03
      0.695  0.0000E+00  0.3440E+03
      0.797  0.0000E+00  0.3440E+03
      0.898  0.0000E+00  0.3440E+03
      0.999  0.0000E+00  0.3440E+03
      1.100  0.0000E+00  0.3440E+03
      1.201  0.0000E+00  0.3440E+03
      1.302  0.0000E+00  0.3440E+03
      1.403  0.0000E+00  0.3440E+03
      1.504  0.0000E+00  0.3440E+03
      1.605  0.0000E+00  0.3440E+03
      1.706  0.0000E+00  0.3440E+03
      1.807  0.0000E+00  0.3440E+03
      1.908  0.0000E+00  0.3440E+03
      2.009  0.0000E+00  0.3440E+03
      2.111  0.0000E+00  0.3440E+03
      2.212  0.0000E+00  0.3440E+03
      2.313  0.0000E+00  0.3440E+03
      2.414  0.0000E+00  0.3440E+03
      2.515  0.2490E+01  0.3443E+03
      2.616  0.7894E+01  0.3453E+03
      2.717  0.2473E+01  0.3460E+03
      2.818  0.2474E+01  0.3463E+03
      2.919  0.7418E+01  0.3470E+03
      3.020  0.1237E+02  0.3488E+03
      3.121  0.1998E+02  0.3508E+03
      3.222  0.2050E+02  0.3531E+03
      3.323  0.1604E+02  0.3549E+03
      3.425  0.1400E+02  0.3567E+03
      3.526  0.9745E+01  0.3577E+03
      3.627  0.2473E+01  0.3580E+03
      3.728  0.0000E+00  0.3580E+03
      3.829  0.0000E+00  0.3580E+03
      3.930  0.2872E+00  0.3580E+03
      4.031  0.4649E+01  0.3587E+03
      4.132  0.4985E+01  0.3595E+03
      4.233  0.2519E+01  0.3600E+03
      4.334  0.2537E+02  0.3628E+03
      4.435  0.2848E+02  0.3659E+03
      4.536  0.2166E+02  0.3687E+03
      4.637  0.3441E+02  0.3730E+03
      4.739  0.1823E+02  0.3756E+03
      4.840  0.1774E+02  0.3780E+03
      4.941  0.2529E+02  0.3813E+03
      5.042  0.7416E+01  0.3822E+03
      5.143  0.0000E+00  0.3822E+03
      5.244  0.0000E+00  0.3822E+03
      5.345  0.4579E+01  0.3827E+03
      5.446  0.8170E-04  0.3828E+03
      5.547  0.6009E+01  0.3834E+03
      5.648  0.7542E+01  0.3843E+03
      5.749  0.1504E+02  0.3865E+03
      5.850  0.1596E+02  0.3884E+03
      5.951  0.1952E+02  0.3907E+03
      6.053  0.2797E+02  0.3943E+03
      6.154  0.2935E+02  0.3980E+03
      6.255  0.3067E+02  0.4011E+03
      6.356  0.3285E+02  0.4051E+03
      6.457  0.2617E+02  0.4084E+03
      6.558  0.2844E+02  0.4121E+03
      6.659  0.2488E+02  0.4153E+03
      6.760  0.2473E+01  0.4160E+03
      6.861  0.0000E+00  0.4160E+03
      6.962  0.0000E+00  0.4160E+03
      7.063  0.0000E+00  0.4160E+03
      7.164  0.0000E+00  0.4160E+03
      7.265  0.0000E+00  0.4160E+03
      7.367  0.0000E+00  0.4160E+03
      7.468  0.0000E+00  0.4160E+03
      7.569  0.0000E+00  0.4160E+03
      7.670  0.0000E+00  0.4160E+03
      7.771  0.0000E+00  0.4160E+03
      7.872  0.0000E+00  0.4160E+03
      7.973  0.0000E+00  0.4160E+03
      8.074  0.0000E+00  0.4160E+03
      8.07404496    -22.24891415  301      0.44276691      1.00000000
    -22.249  0.0000E+00  0.0000E+00  0.0000E+00
    -22.148  0.0000E+00  0.0000E+00  0.0000E+00
    -22.047  0.0000E+00  0.0000E+00  0.0000E+00
    -21.946  0.0000E+00  0.0000E+00  0.0000E+00
    -21.845  0.0000E+00  0.0000E+00  0.0000E+00
    -21.744  0.0000E+00  0.0000E+00  0.0000E+00
    -21.642  0.0000E+00  0.0000E+00  0.0000E+00
    -21.541  0.0000E+00  0.0000E+00  0.0000E+00
    -21.440  0.0000E+00  0.0000E+00  0.0000E+00
    -21.339  0.0000E+00  0.0000E+00  0.0000E+00
    -21.238  0.0000E+00  0.0000E+00  0.0000E+00
    -21.137  0.0000E+00  0.0000E+00  0.0000E+00
    -21.036  0.0000E+00  0.0000E+00  0.0000E+00
    -20.935  0.0000E+00  0.0000E+00  0.0000E+00
    -20.834  0.9535E-03  0.2366E-06  0.3032E-07
    -20.733  0.7571E+01  0.6873E-05  0.2871E-05
    -20.632  0.2071E-04  0.2066E-08  0.3051E-09
    -20.531  0.0000E+00  0.0000E+00  0.0000E+00
    -20.430  0.0000E+00  0.0000E+00  0.0000E+00
    -20.328  0.0000E+00  0.0000E+00  0.0000E+00
    -20.227  0.0000E+00  0.0000E+00  0.0000E+00
    -20.126  0.0000E+00  0.0000E+00  0.0000E+00
    -20.025  0.0000E+00  0.0000E+00  0.0000E+00
    -19.924  0.0000E+00  0.0000E+00  0.0000E+00
    -19.823  0.0000E+00  0.0000E+00  0.0000E+00
    -19.722  0.0000E+00  0.0000E+00  0.0000E+00
    -19.621  0.0000E+00  0.0000E+00  0.0000E+00
    -19.520  0.0000E+00  0.0000E+00  0.0000E+00
    -19.419  0.0000E+00  0.0000E+00  0.0000E+00
    -19.318  0.0000E+00  0.0000E+00  0.0000E+00
    -19.217  0.0000E+00  0.0000E+00  0.0000E+00
    -19.116  0.0000E+00  0.0000E+00  0.0000E+00
    -19.014  0.0000E+00  0.0000E+00  0.0000E+00
    -18.913  0.0000E+00  0.0000E+00  0.0000E+00
    -18.812  0.0000E+00  0.0000E+00  0.0000E+00
    -18.711  0.0000E+00  0.0000E+00  0.0000E+00
    -18.610  0.0000E+00  0.0000E+00  0.0000E+00
    -18.509  0.0000E+00  0.0000E+00  0.0000E+00
    -18.408  0.0000E+00  0.0000E+00  0.0000E+00
    -18.307  0.0000E+00  0.0000E+00  0.0000E+00
    -18.206  0.0000E+00  0.0000E+00  0.0000E+00
    -18.105  0.0000E+00  0.0000E+00  0.0000E+00
    -18.004  0.0000E+00  0.0000E+00  0.0000E+00
    -17.903  0.0000E+00  0.0000E+00  0.0000E+00
    -17.802  0.0000E+00  0.0000E+00  0.0000E+00
    -17.700  0.0000E+00  0.0000E+00  0.0000E+00
    -17.599  0.0000E+00  0.0000E+00  0.0000E+00
    -17.498  0.0000E+00  0.0000E+00  0.0000E+00
    -17.397  0.0000E+00  0.0000E+00  0.0000E+00
    -17.296  0.0000E+00  0.0000E+00  0.0000E+00
    -17.195  0.0000E+00  0.0000E+00  0.0000E+00
    -17.094  0.0000E+00  0.0000E+00  0.0000E+00
    -16.993  0.0000E+00  0.0000E+00  0.0000E+00
    -16.892  0.0000E+00  0.0000E+00  0.0000E+00
    -16.791  0.0000E+00  0.0000E+00  0.0000E+00
    -16.690  0.8247E-05  0.2544E-05  0.3152E-06
    -16.589  0.1930E-04  0.1086E-04  0.1822E-05
    -16.488  0.1160E-04  0.6419E-05  0.7496E-06
    -16.386  0.7539E-04  0.6959E-04  0.1568E-04
    -16.285  0.1887E-04  0.2134E-04  0.2423E-05
    -16.184  0.3362E-04  0.1936E-04  0.2414E-05
    -16.083  0.0000E+00  0.0000E+00  0.0000E+00
    -15.982  0.0000E+00  0.0000E+00  0.0000E+00
    -15.881  0.0000E+00  0.0000E+00  0.0000E+00
    -15.780  0.0000E+00  0.0000E+00  0.0000E+00
    -15.679  0.0000E+00  0.0000E+00  0.0000E+00
    -15.578  0.0000E+00  0.0000E+00  0.0000E+00
    -15.477  0.0000E+00  0.0000E+00  0.0000E+00
    -15.376  0.0000E+00  0.0000E+00  0.0000E+00
    -15.275  0.0000E+00  0.0000E+00  0.0000E+00
    -15.174  0.0000E+00  0.0000E+00  0.0000E+00
    -15.072  0.0000E+00  0.0000E+00  0.0000E+00
    -14.971  0.0000E+00  0.0000E+00  0.0000E+00
    -14.870  0.0000E+00  0.0000E+00  0.0000E+00
    -14.769  0.0000E+00  0.0000E+00  0.0000E+00
    -14.668  0.0000E+00  0.0000E+00  0.0000E+00
    -14.567  0.0000E+00  0.0000E+00  0.0000E+00
    -14.466  0.1799E-02  0.8731E-03  0.5036E-04
    -14.365  0.4943E-03  0.1612E-02  0.9337E-04
    -14.264  0.2161E-02  0.1365E-02  0.3702E-04
    -14.163  0.1462E-02  0.2374E-02  0.9146E-04
    -14.062  0.6254E-03  0.3753E-02  0.1864E-03
    -13.961  0.2854E-02  0.5990E-02  0.5361E-03
    -13.860  0.1026E-02  0.3750E-02  0.4028E-03
    -13.758  0.8056E-03  0.1933E-02  0.3343E-03
    -13.657  0.5463E-04  0.1447E-03  0.5492E-04
    -13.556  0.0000E+00  0.0000E+00  0.0000E+00
    -13.455  0.0000E+00  0.0000E+00  0.0000E+00
    -13.354  0.0000E+00  0.0000E+00  0.0000E+00
    -13.253  0.0000E+00  0.0000E+00  0.0000E+00
    -13.152  0.0000E+00  0.0000E+00  0.0000E+00
    -13.051  0.0000E+00  0.0000E+00  0.0000E+00
    -12.950  0.0000E+00  0.0000E+00  0.0000E+00
    -12.849  0.0000E+00  0.0000E+00  0.0000E+00
    -12.748  0.0000E+00  0.0000E+00  0.0000E+00
    -12.647  0.0000E+00  0.0000E+00  0.0000E+00
    -12.546  0.0000E+00  0.0000E+00  0.0000E+00
    -12.444  0.0000E+00  0.0000E+00  0.0000E+00
    -12.343  0.0000E+00  0.0000E+00  0.0000E+00
    -12.242  0.0000E+00  0.0000E+00  0.0000E+00
    -12.141  0.0000E+00  0.0000E+00  0.0000E+00
    -12.040  0.0000E+00  0.0000E+00  0.0000E+00
    -11.939  0.0000E+00  0.0000E+00  0.0000E+00
    -11.838  0.0000E+00  0.0000E+00  0.0000E+00
    -11.737  0.0000E+00  0.0000E+00  0.0000E+00
    -11.636  0.0000E+00  0.0000E+00  0.0000E+00
    -11.535  0.0000E+00  0.0000E+00  0.0000E+00
    -11.434  0.0000E+00  0.0000E+00  0.0000E+00
    -11.333  0.0000E+00  0.0000E+00  0.0000E+00
    -11.232  0.0000E+00  0.0000E+00  0.0000E+00
    -11.130  0.0000E+00  0.0000E+00  0.0000E+00
    -11.029  0.0000E+00  0.0000E+00  0.0000E+00
    -10.928  0.0000E+00  0.0000E+00  0.0000E+00
    -10.827  0.0000E+00  0.0000E+00  0.0000E+00
    -10.726  0.0000E+00  0.0000E+00  0.0000E+00
    -10.625  0.0000E+00  0.0000E+00  0.0000E+00
    -10.524  0.0000E+00  0.0000E+00  0.0000E+00
    -10.423  0.0000E+00  0.0000E+00  0.0000E+00
    -10.322  0.0000E+00  0.0000E+00  0.0000E+00
    -10.221  0.0000E+00  0.0000E+00  0.0000E+00
    -10.120  0.0000E+00  0.0000E+00  0.0000E+00
    -10.019  0.0000E+00  0.0000E+00  0.0000E+00
     -9.918  0.0000E+00  0.0000E+00  0.0000E+00
     -9.817  0.0000E+00  0.0000E+00  0.0000E+00
     -9.715  0.0000E+00  0.0000E+00  0.0000E+00
     -9.614  0.0000E+00  0.0000E+00  0.0000E+00
     -9.513  0.0000E+00  0.0000E+00  0.0000E+00
     -9.412  0.0000E+00  0.0000E+00  0.0000E+00
     -9.311  0.0000E+00  0.0000E+00  0.0000E+00
     -9.210  0.0000E+00  0.0000E+00  0.0000E+00
     -9.109  0.0000E+00  0.0000E+00  0.0000E+00
     -9.008  0.0000E+00  0.0000E+00  0.0000E+00
     -8.907  0.0000E+00  0.0000E+00  0.0000E+00
     -8.806  0.0000E+00  0.0000E+00  0.0000E+00
     -8.705  0.0000E+00  0.0000E+00  0.0000E+00
     -8.604  0.0000E+00  0.0000E+00  0.0000E+00
     -8.503  0.0000E+00  0.0000E+00  0.0000E+00
     -8.401  0.0000E+00  0.0000E+00  0.0000E+00
     -8.300  0.0000E+00  0.0000E+00  0.0000E+00
     -8.199  0.2089E-06  0.1110E-03  0.8396E-05
     -8.098  0.1421E-18  0.1441E-15  0.3956E-17
     -7.997  0.9566E-06  0.1602E-02  0.2038E-04
     -7.896  0.3266E-05  0.5757E-02  0.2363E-04
     -7.795  0.3455E-05  0.4761E-02  0.6806E-05
     -7.694  0.6287E-05  0.3209E-01  0.5701E-04
     -7.593  0.1703E-05  0.2505E-01  0.2393E-04
     -7.492  0.1378E-04  0.3326E-01  0.2401E-04
     -7.391  0.2369E-04  0.1099E+00  0.6645E-04
     -7.290  0.1096E-04  0.7162E-01  0.3288E-04
     -7.189  0.5495E-04  0.1591E+01  0.7365E-04
     -7.087  0.5052E-04  0.4010E+02  0.7582E-04
     -6.986  0.2924E-04  0.3537E+00  0.1055E-04
     -6.885  0.5220E-06  0.3581E-02  0.8373E-05
     -6.784  0.1658E-04  0.2695E-01  0.7772E-05
     -6.683  0.0000E+00  0.0000E+00  0.0000E+00
     -6.582  0.2210E-05  0.1406E-02  0.5653E-06
     -6.481  0.0000E+00  0.0000E+00  0.0000E+00
     -6.380  0.0000E+00  0.0000E+00  0.0000E+00
     -6.279  0.0000E+00  0.0000E+00  0.0000E+00
     -6.178  0.0000E+00  0.0000E+00  0.0000E+00
     -6.077  0.0000E+00  0.0000E+00  0.0000E+00
     -5.976  0.0000E+00  0.0000E+00  0.0000E+00
     -5.875  0.0000E+00  0.0000E+00  0.0000E+00
     -5.773  0.0000E+00  0.0000E+00  0.0000E+00
     -5.672  0.0000E+00  0.0000E+00  0.0000E+00
     -5.571  0.0000E+00  0.0000E+00  0.0000E+00
     -5.470  0.0000E+00  0.0000E+00  0.0000E+00
     -5.369  0.0000E+00  0.0000E+00  0.0000E+00
     -5.268  0.0000E+00  0.0000E+00  0.0000E+00
     -5.167  0.0000E+00  0.0000E+00  0.0000E+00
     -5.066  0.0000E+00  0.0000E+00  0.0000E+00
     -4.965  0.0000E+00  0.0000E+00  0.0000E+00
     -4.864  0.0000E+00  0.0000E+00  0.0000E+00
     -4.763  0.0000E+00  0.0000E+00  0.0000E+00
     -4.662  0.0000E+00  0.0000E+00  0.0000E+00
     -4.561  0.0000E+00  0.0000E+00  0.0000E+00
     -4.459  0.0000E+00  0.0000E+00  0.0000E+00
     -4.358  0.0000E+00  0.0000E+00  0.0000E+00
     -4.257  0.0000E+00  0.0000E+00  0.0000E+00
     -4.156  0.0000E+00  0.0000E+00  0.0000E+00
     -4.055  0.0000E+00  0.0000E+00  0.0000E+00
     -3.954  0.0000E+00  0.0000E+00  0.0000E+00
     -3.853  0.0000E+00  0.0000E+00  0.0000E+00
     -3.752  0.0000E+00  0.0000E+00  0.0000E+00
     -3.651  0.0000E+00  0.0000E+00  0.0000E+00
     -3.550  0.0000E+00  0.0000E+00  0.0000E+00
     -3.449  0.3729E-16  0.7170E-12  0.4618E-13
     -3.348  0.3377E-06  0.4146E-02  0.3122E-03
     -3.247  0.2307E-03  0.2163E-01  0.9993E-03
     -3.145  0.2214E-03  0.1812E-01  0.2063E-02
     -3.044  0.3035E-04  0.7517E-02  0.1084E-02
     -2.943  0.2328E-04  0.8130E-02  0.4510E-03
     -2.842  0.3280E-05  0.7261E-03  0.4348E-04
     -2.741  0.8245E-10  0.6225E-07  0.2481E-08
     -2.640  0.9639E-03  0.2479E-01  0.1242E-02
     -2.539  0.2743E-02  0.2107E-01  0.1639E-02
     -2.438  0.9521E-03  0.1822E-01  0.7337E-03
     -2.337  0.4826E-02  0.2134E-01  0.2909E-02
     -2.236  0.2062E-02  0.1148E-01  0.2693E-02
     -2.135  0.8164E-02  0.1334E-01  0.2919E-02
     -2.034  0.9728E-02  0.3432E-01  0.3677E-02
     -1.933  0.4640E-02  0.3708E-01  0.2695E-02
     -1.831  0.3518E-02  0.8875E-01  0.4782E-02
     -1.730  0.2010E-02  0.7492E-01  0.5378E-02
     -1.629  0.4147E-02  0.9878E-01  0.7949E-02
     -1.528  0.1991E-02  0.5836E-01  0.1156E-01
     -1.427  0.4594E-02  0.5247E-01  0.1431E-01
     -1.326  0.3630E-02  0.6846E-01  0.1948E-01
     -1.225  0.5734E-02  0.6938E-01  0.1265E-01
     -1.124  0.7514E-03  0.5487E-01  0.1141E-01
     -1.023  0.9080E-03  0.6239E-01  0.9355E-02
     -0.922  0.5637E-03  0.2007E-01  0.4621E-02
     -0.821  0.1408E-02  0.4014E-01  0.6528E-02
     -0.720  0.5942E-03  0.4375E-02  0.7788E-03
     -0.619  0.3771E-03  0.2628E-02  0.6937E-03
     -0.517  0.1542E-03  0.2021E-02  0.4668E-03
     -0.416  0.7419E-04  0.2584E-02  0.8753E-03
     -0.315  0.3690E-04  0.1892E-02  0.4418E-03
     -0.214  0.3396E-05  0.4924E-03  0.2955E-03
     -0.113  0.5605E-06  0.2801E-03  0.2225E-03
     -0.012  0.5236E-07  0.5005E-03  0.1878E-03
      0.089  0.5702E-05  0.4214E-03  0.3544E-03
      0.190  0.0000E+00  0.0000E+00  0.0000E+00
      0.291  0.0000E+00  0.0000E+00  0.0000E+00
      0.392  0.9449E-06  0.6710E-05  0.1361E-03
      0.493  0.0000E+00  0.0000E+00  0.0000E+00
      0.594  0.0000E+00  0.0000E+00  0.0000E+00
      0.695  0.0000E+00  0.0000E+00  0.0000E+00
      0.797  0.0000E+00  0.0000E+00  0.0000E+00
      0.898  0.0000E+00  0.0000E+00  0.0000E+00
      0.999  0.0000E+00  0.0000E+00  0.0000E+00
      1.100  0.0000E+00  0.0000E+00  0.0000E+00
      1.201  0.0000E+00  0.0000E+00  0.0000E+00
      1.302  0.0000E+00  0.0000E+00  0.0000E+00
      1.403  0.0000E+00  0.0000E+00  0.0000E+00
      1.504  0.0000E+00  0.0000E+00  0.0000E+00
      1.605  0.0000E+00  0.0000E+00  0.0000E+00
      1.706  0.0000E+00  0.0000E+00  0.0000E+00
      1.807  0.0000E+00  0.0000E+00  0.0000E+00
      1.908  0.0000E+00  0.0000E+00  0.0000E+00
      2.009  0.0000E+00  0.0000E+00  0.0000E+00
      2.111  0.0000E+00  0.0000E+00  0.0000E+00
      2.212  0.0000E+00  0.0000E+00  0.0000E+00
      2.313  0.0000E+00  0.0000E+00  0.0000E+00
      2.414  0.0000E+00  0.0000E+00  0.0000E+00
      2.515  0.5659E-04  0.2444E-03  0.1961E-03
      2.616  0.1900E-03  0.6191E-03  0.9078E-03
      2.717  0.1286E-03  0.2351E-03  0.1127E-03
      2.818  0.4833E-04  0.1440E-03  0.1303E-02
      2.919  0.2018E-03  0.2662E-03  0.2380E-02
      3.020  0.3864E-03  0.1556E-02  0.3181E-02
      3.121  0.7449E-03  0.3145E-02  0.4428E-02
      3.222  0.5576E-03  0.3412E-02  0.4397E-02
      3.323  0.3791E-03  0.2096E-02  0.3109E-02
      3.425  0.4671E-03  0.1880E-02  0.2520E-02
      3.526  0.4157E-03  0.1015E-02  0.1409E-02
      3.627  0.2843E-04  0.2166E-03  0.1021E-03
      3.728  0.0000E+00  0.0000E+00  0.0000E+00
      3.829  0.0000E+00  0.0000E+00  0.0000E+00
      3.930  0.1768E-05  0.3253E-04  0.4461E-04
      4.031  0.1767E-05  0.6685E-03  0.1190E-02
      4.132  0.4522E-04  0.4769E-03  0.6526E-03
      4.233  0.7075E-05  0.2260E-03  0.2784E-02
      4.334  0.1967E-03  0.2768E-02  0.1276E-01
      4.435  0.1272E-02  0.4233E-02  0.1499E-01
      4.536  0.9142E-03  0.4429E-02  0.9290E-02
      4.637  0.2991E-02  0.8519E-02  0.1242E-01
      4.739  0.3657E-02  0.2991E-02  0.6291E-02
      4.840  0.1317E-01  0.3470E-02  0.5205E-02
      4.941  0.5707E-02  0.5207E-02  0.1030E-01
      5.042  0.2349E-02  0.1220E-02  0.4481E-02
      5.143  0.0000E+00  0.0000E+00  0.0000E+00
      5.244  0.0000E+00  0.0000E+00  0.0000E+00
      5.345  0.1340E-01  0.4547E-02  0.3926E-02
      5.446  0.4474E-06  0.8091E-07  0.6872E-07
      5.547  0.1529E-01  0.3747E-02  0.7658E-02
      5.648  0.1109E-01  0.3186E-02  0.6780E-02
      5.749  0.1232E-01  0.6829E-02  0.1964E-01
      5.850  0.7694E-02  0.2842E-02  0.2858E-01
      5.951  0.2699E-02  0.2973E-02  0.3181E-01
      6.053  0.3045E-01  0.1912E-01  0.1127E+00
      6.154  0.3294E-01  0.5250E-02  0.1856E+00
      6.255  0.6082E-01  0.1425E-01  0.2225E+00
      6.356  0.3744E-01  0.1462E-01  0.2724E+00
      6.457  0.1828E-01  0.1522E-01  0.3625E+00
      6.558  0.1336E-01  0.1978E-01  0.2654E+00
      6.659  0.1504E-01  0.1836E-01  0.1912E+00
      6.760  0.4307E-04  0.5121E-02  0.5147E-01
      6.861  0.0000E+00  0.0000E+00  0.0000E+00
      6.962  0.0000E+00  0.0000E+00  0.0000E+00
      7.063  0.0000E+00  0.0000E+00  0.0000E+00
      7.164  0.0000E+00  0.0000E+00  0.0000E+00
      7.265  0.0000E+00  0.0000E+00  0.0000E+00
      7.367  0.0000E+00  0.0000E+00  0.0000E+00
      7.468  0.0000E+00  0.0000E+00  0.0000E+00
      7.569  0.0000E+00  0.0000E+00  0.0000E+00
      7.670  0.0000E+00  0.0000E+00  0.0000E+00
      7.771  0.0000E+00  0.0000E+00  0.0000E+00
      7.872  0.0000E+00  0.0000E+00  0.0000E+00
      7.973  0.0000E+00  0.0000E+00  0.0000E+00
      8.074  0.0000E+00  0.0000E+00  0.0000E+00
      8.07404496    -22.24891415  301      0.44276691      1.00000000
    -22.249  0.0000E+00  0.0000E+00  0.0000E+00
    -22.148  0.0000E+00  0.0000E+00  0.0000E+00
    -22.047  0.0000E+00  0.0000E+00  0.0000E+00
    -21.946  0.0000E+00  0.0000E+00  0.0000E+00
    -21.845  0.0000E+00  0.0000E+00  0.0000E+00
    -21.744  0.0000E+00  0.0000E+00  0.0000E+00
    -21.642  0.0000E+00  0.0000E+00  0.0000E+00
    -21.541  0.0000E+00  0.0000E+00  0.0000E+00
    -21.440  0.0000E+00  0.0000E+00  0.0000E+00
    -21.339  0.0000E+00  0.0000E+00  0.0000E+00
    -21.238  0.0000E+00  0.0000E+00  0.0000E+00
    -21.137  0.0000E+00  0.0000E+00  0.0000E+00
    -21.036  0.0000E+00  0.0000E+00  0.0000E+00
    -20.935  0.0000E+00  0.0000E+00  0.0000E+00
    -20.834  0.9629E-02  0.1208E-06  0.2311E-07
    -20.733  0.1755E+02  0.8969E-04  0.1757E-04
    -20.632  0.1340E-05  0.1966E-08  0.1149E-09
    -20.531  0.0000E+00  0.0000E+00  0.0000E+00
    -20.430  0.0000E+00  0.0000E+00  0.0000E+00
    -20.328  0.0000E+00  0.0000E+00  0.0000E+00
    -20.227  0.0000E+00  0.0000E+00  0.0000E+00
    -20.126  0.0000E+00  0.0000E+00  0.0000E+00
    -20.025  0.0000E+00  0.0000E+00  0.0000E+00
    -19.924  0.0000E+00  0.0000E+00  0.0000E+00
    -19.823  0.0000E+00  0.0000E+00  0.0000E+00
    -19.722  0.0000E+00  0.0000E+00  0.0000E+00
    -19.621  0.0000E+00  0.0000E+00  0.0000E+00
    -19.520  0.0000E+00  0.0000E+00  0.0000E+00
    -19.419  0.0000E+00  0.0000E+00  0.0000E+00
    -19.318  0.0000E+00  0.0000E+00  0.0000E+00
    -19.217  0.0000E+00  0.0000E+00  0.0000E+00
    -19.116  0.0000E+00  0.0000E+00  0.0000E+00
    -19.014  0.0000E+00  0.0000E+00  0.0000E+00
    -18.913  0.0000E+00  0.0000E+00  0.0000E+00
    -18.812  0.0000E+00  0.0000E+00  0.0000E+00
    -18.711  0.0000E+00  0.0000E+00  0.0000E+00
    -18.610  0.0000E+00  0.0000E+00  0.0000E+00
    -18.509  0.0000E+00  0.0000E+00  0.0000E+00
    -18.408  0.0000E+00  0.0000E+00  0.0000E+00
    -18.307  0.0000E+00  0.0000E+00  0.0000E+00
    -18.206  0.0000E+00  0.0000E+00  0.0000E+00
    -18.105  0.0000E+00  0.0000E+00  0.0000E+00
    -18.004  0.0000E+00  0.0000E+00  0.0000E+00
    -17.903  0.0000E+00  0.0000E+00  0.0000E+00
    -17.802  0.0000E+00  0.0000E+00  0.0000E+00
    -17.700  0.0000E+00  0.0000E+00  0.0000E+00
    -17.599  0.0000E+00  0.0000E+00  0.0000E+00
    -17.498  0.0000E+00  0.0000E+00  0.0000E+00
    -17.397  0.0000E+00  0.0000E+00  0.0000E+00
    -17.296  0.0000E+00  0.0000E+00  0.0000E+00
    -17.195  0.0000E+00  0.0000E+00  0.0000E+00
    -17.094  0.0000E+00  0.0000E+00  0.0000E+00
    -16.993  0.0000E+00  0.0000E+00  0.0000E+00
    -16.892  0.0000E+00  0.0000E+00  0.0000E+00
    -16.791  0.0000E+00  0.0000E+00  0.0000E+00
    -16.690  0.1040E-04  0.4017E-05  0.4144E-06
    -16.589  0.3357E-04  0.2925E-04  0.5725E-05
    -16.488  0.1377E-04  0.6940E-05  0.8716E-06
    -16.386  0.1096E-03  0.8015E-04  0.1375E-04
    -16.285  0.2731E-04  0.2402E-04  0.2865E-05
    -16.184  0.1198E-05  0.8313E-06  0.1163E-06
    -16.083  0.0000E+00  0.0000E+00  0.0000E+00
    -15.982  0.0000E+00  0.0000E+00  0.0000E+00
    -15.881  0.0000E+00  0.0000E+00  0.0000E+00
    -15.780  0.0000E+00  0.0000E+00  0.0000E+00
    -15.679  0.0000E+00  0.0000E+00  0.0000E+00
    -15.578  0.0000E+00  0.0000E+00  0.0000E+00
    -15.477  0.0000E+00  0.0000E+00  0.0000E+00
    -15.376  0.0000E+00  0.0000E+00  0.0000E+00
    -15.275  0.0000E+00  0.0000E+00  0.0000E+00
    -15.174  0.0000E+00  0.0000E+00  0.0000E+00
    -15.072  0.0000E+00  0.0000E+00  0.0000E+00
    -14.971  0.0000E+00  0.0000E+00  0.0000E+00
    -14.870  0.0000E+00  0.0000E+00  0.0000E+00
    -14.769  0.0000E+00  0.0000E+00  0.0000E+00
    -14.668  0.0000E+00  0.0000E+00  0.0000E+00
    -14.567  0.0000E+00  0.0000E+00  0.0000E+00
    -14.466  0.7423E-03  0.4315E-03  0.9550E-05
    -14.365  0.6928E-03  0.4675E-03  0.1522E-04
    -14.264  0.2522E-02  0.1928E-02  0.6202E-04
    -14.163  0.1204E-02  0.2801E-02  0.1401E-03
    -14.062  0.1098E-02  0.4995E-02  0.3297E-03
    -13.961  0.1645E-02  0.4552E-02  0.4271E-03
    -13.860  0.1252E-02  0.3770E-02  0.4417E-03
    -13.758  0.6232E-03  0.1691E-02  0.2342E-03
    -13.657  0.1153E-03  0.2889E-03  0.1366E-04
    -13.556  0.0000E+00  0.0000E+00  0.0000E+00
    -13.455  0.0000E+00  0.0000E+00  0.0000E+00
    -13.354  0.0000E+00  0.0000E+00  0.0000E+00
    -13.253  0.0000E+00  0.0000E+00  0.0000E+00