<?xml version="1.0" encoding="ISO-8859-1"?>
<modeling>
 <generator>
  <i name="program" type="string">vasp </i>
  <i name="version" type="string">5.4.4.18Apr17-6-g9f103f2a35  </i>
  <i name="subversion" type="string">(build Jun 22 2020 09:27:21) complex            parallel </i>
  <i name="platform" type="string">tx2_gcc-7.3_libsci-18.07_cray-fftw-3.3.8 </i>
  <i name="date" type="string">2021 10 11 </i>
  <i name="time" type="string">20:34:16 </i>
 </generator>
 <incar>
  <i type="string" name="SYSTEM"> CsPbBr3 cubic bulk</i>
  <i type="string" name="PREC">accurate</i>
  <i type="string" name="ALGO"> NORMAL   ! Electronic minimisation algo</i>
  <i type="logical" name="ADDGRID"> T  </i>
  <i type="int" name="ISPIN">     1</i>
  <i type="int" name="NELM">   200</i>
  <i type="int" name="IBRION">     2</i>
  <i name="EDIFF">      0.00000100</i>
  <i name="EDIFFG">     -0.01000000</i>
  <i type="int" name="NSW">     0</i>
  <i type="int" name="ISIF">     2</i>
  <i type="int" name="ISYM">     0</i>
  <i name="ENCUT">    300.00000000</i>
  <i name="POTIM">      0.50000000</i>
  <i name="NUPDOWN">      0.00000000</i>
  <i name="NELECT">    344.00000000</i>
  <i type="string" name="LREAL"> AUTO</i>
  <i type="int" name="ISMEAR">     0</i>
  <i name="SIGMA">      0.01000000</i>
  <i type="logical" name="LWAVE"> F  </i>
  <i type="logical" name="LCHARG"> F  </i>
  <i type="logical" name="LVHAR"> T  </i>
  <i type="int" name="LORBIT">    10</i>
  <i type="logical" name="LASPH"> T  </i>
  <v type="int" name="KPOINT_BSE">    -1     0     0     0</v>
  <i type="int" name="NELM">   200</i>
  <i type="string" name="METAGGA"> SCAN       ! PBE exchange-correlation</i>
  <i type="logical" name="LASPH"> T  </i>
 </incar>
 <structure name="primitive_cell" >
  <crystal>
   <varray name="basis" >
    <v>       8.45648900       0.00000000       8.04030100 </v>
    <v>       0.00000000      11.72984700       0.00000000 </v>
    <v>      -8.45648900       0.00000000       8.04030100 </v>
   </varray>
   <i name="volume">   1595.08833419 </i>
   <varray name="rec_basis" >
    <v>       0.05912619      -0.00000000       0.06218673 </v>
    <v>       0.00000000       0.08525260      -0.00000000 </v>
    <v>      -0.05912619       0.00000000       0.06218673 </v>
   </varray>
  </crystal>
  <varray name="positions" >
   <v>       0.26969700       0.24976800       0.20414300 </v>
   <v>       0.05099800       0.03637200       0.25222300 </v>
   <v>      -0.47071900       0.24804900       0.04247400 </v>
   <v>       0.04864700       0.46607900       0.25398900 </v>
   <v>       0.47457700       0.23801000       0.46845800 </v>
   <v>       0.24889800       0.03063800      -0.05041000 </v>
   <v>       0.24717600       0.46975400      -0.05225300 </v>
   <v>       0.45101700      -0.46837800       0.25334100 </v>
   <v>       0.45399400      -0.04205800       0.24822000 </v>
   <v>      -0.02276200       0.25116100      -0.02735000 </v>
   <v>       0.49837000       0.49623100       0.00071500 </v>
   <v>       0.49845400      -0.00023000      -0.00059200 </v>
   <v>       0.00117700       0.00184600      -0.00017800 </v>
   <v>       0.00022300       0.49955200       0.00067500 </v>
   <v>       0.01428700       0.25941800      -0.46399700 </v>
   <v>       0.48259300       0.49270300      -0.49570500 </v>
   <v>      -0.49430400      -0.00241000       0.49792100 </v>
   <v>       0.25937400      -0.04116700      -0.45344100 </v>
   <v>       0.23694700      -0.45159400      -0.44877000 </v>
   <v>      -0.20197200       0.24785500       0.22680200 </v>
   <v>       0.00450100       0.00377800       0.49971600 </v>
   <v>       0.28045900       0.24420900      -0.27157400 </v>
   <v>      -0.00365500      -0.48842100      -0.49926800 </v>
   <v>       0.22251500      -0.24902500       0.27293400 </v>
   <v>      -0.24787800       0.03266300       0.44757000 </v>
   <v>      -0.46050000       0.45131500      -0.24744700 </v>
   <v>      -0.24810000      -0.47746000       0.05130300 </v>
   <v>      -0.24688300      -0.01367700       0.03983500 </v>
   <v>       0.01271400      -0.24891500       0.03202500 </v>
   <v>      -0.45296400       0.02538700      -0.25058400 </v>
   <v>       0.47345200      -0.25212700      -0.03503300 </v>
   <v>      -0.04761600      -0.03432100      -0.25298700 </v>
   <v>      -0.05241800      -0.46579700      -0.25348900 </v>
   <v>      -0.33693900      -0.36392200      -0.49095100 </v>
   <v>      -0.02735300      -0.24267100       0.45004100 </v>
   <v>       0.20132200      -0.24429600      -0.21676400 </v>
   <v>      -0.27973800      -0.23656100       0.24512100 </v>
   <v>      -0.22843300       0.23769500      -0.26791600 </v>
   <v>      -0.26466500      -0.24984000      -0.19539000 </v>
  </varray>
 </structure>
 <varray name="primitive_index" >
  <v type="int" >        1 </v>
  <v type="int" >       28 </v>
  <v type="int" >       22 </v>
  <v type="int" >       38 </v>
  <v type="int" >       20 </v>
  <v type="int" >       31 </v>
  <v type="int" >       24 </v>
  <v type="int" >       25 </v>
  <v type="int" >       33 </v>
  <v type="int" >       19 </v>
  <v type="int" >       13 </v>
  <v type="int" >       11 </v>
  <v type="int" >        9 </v>
  <v type="int" >       15 </v>
  <v type="int" >       23 </v>
  <v type="int" >       16 </v>
  <v type="int" >       10 </v>
  <v type="int" >       30 </v>
  <v type="int" >       36 </v>
  <v type="int" >        6 </v>
  <v type="int" >       12 </v>
  <v type="int" >        5 </v>
  <v type="int" >       14 </v>
  <v type="int" >        8 </v>
  <v type="int" >       32 </v>
  <v type="int" >       37 </v>
  <v type="int" >       35 </v>
  <v type="int" >       29 </v>
  <v type="int" >       21 </v>
  <v type="int" >       27 </v>
  <v type="int" >       17 </v>
  <v type="int" >       34 </v>
  <v type="int" >       26 </v>
  <v type="int" >       39 </v>
  <v type="int" >       18 </v>
  <v type="int" >        4 </v>
  <v type="int" >        3 </v>
  <v type="int" >        2 </v>
  <v type="int" >        7 </v>
 </varray>
 <kpoints>
  <generation param="Gamma">
   <v type="int" name="divisions">       2        2        2 </v>
   <v name="usershift">      0.00000000       0.00000000       0.00000000 </v>
   <v name="genvec1">      0.50000000       0.00000000       0.00000000 </v>
   <v name="genvec2">      0.00000000       0.50000000       0.00000000 </v>
   <v name="genvec3">      0.00000000       0.00000000       0.50000000 </v>
   <v name="shift">      0.00000000       0.00000000       0.00000000 </v>
  </generation>
  <varray name="kpointlist" >
   <v>       0.00000000       0.00000000       0.00000000 </v>
   <v>       0.50000000       0.00000000       0.00000000 </v>
   <v>       0.00000000       0.50000000       0.00000000 </v>
   <v>       0.50000000       0.50000000       0.00000000 </v>
   <v>       0.00000000       0.00000000       0.50000000 </v>
   <v>       0.50000000       0.00000000       0.50000000 </v>
   <v>       0.00000000       0.50000000       0.50000000 </v>
   <v>       0.50000000       0.50000000       0.50000000 </v>
  </varray>
  <varray name="weights" >
   <v>       0.12500000 </v>
   <v>       0.12500000 </v>
   <v>       0.12500000 </v>
   <v>       0.12500000 </v>
   <v>       0.12500000 </v>
   <v>       0.12500000 </v>
   <v>       0.12500000 </v>
   <v>       0.12500000 </v>
  </varray>
 </kpoints>
 <parameters>
  <separator name="general" >
   <i type="string" name="SYSTEM">CsPbBr3 cubic bulk</i>
   <i type="logical" name="LCOMPAT"> F  </i>
  </separator>
  <separator name="electronic" >
   <i type="string" name="PREC">accura</i>
   <i name="ENMAX">    300.00000000</i>
   <i name="ENAUG">    503.85200000</i>
   <i name="EDIFF">      0.00000100</i>
   <i type="int" name="IALGO">    38</i>
   <i type="int" name="IWAVPR">    10</i>
   <i type="int" name="NBANDS">   208</i>
   <i name="NELECT">    344.00000000</i>
   <i type="int" name="TURBO">     0</i>
   <i type="int" name="IRESTART">     0</i>
   <i type="int" name="NREBOOT">     0</i>
   <i type="int" name="NMIN">     0</i>
   <i name="EREF">      0.00000000</i>
   <separator name="electronic smearing" >
    <i type="int" name="ISMEAR">     0</i>
    <i name="SIGMA">      0.01000000</i>
    <i name="KSPACING">      0.50000000</i>
    <i type="logical" name="KGAMMA"> T  </i>
   </separator>
   <separator name="electronic projectors" >
    <i type="logical" name="LREAL"> T  </i>
    <v name="ROPT">     -0.00025000     -0.00025000     -0.00025000</v>
    <i type="int" name="LMAXPAW">  -100</i>
    <i type="int" name="LMAXMIX">     2</i>
    <i type="logical" name="NLSPLINE"> F  </i>
   </separator>
   <separator name="electronic startup" >
    <i type="int" name="ISTART">     0</i>
    <i type="int" name="ICHARG">     2</i>
    <i type="int" name="INIWAV">     1</i>
   </separator>
   <separator name="electronic spin" >
    <i type="int" name="ISPIN">     1</i>
    <i type="logical" name="LNONCOLLINEAR"> F  </i>
    <v name="MAGMOM">      0.00000000      0.00000000      0.00000000      0.00000000      0.00000000      0.00000000      0.00000000      0.00000000      0.00000000      0.00000000      0.00000000      0.00000000      0.00000000      0.00000000      0.00000000      0.00000000      0.00000000      0.00000000      0.00000000      0.00000000
      0.00000000      0.00000000      0.00000000      0.00000000      0.00000000      0.00000000      0.00000000      0.00000000      0.00000000      0.00000000      0.00000000      0.00000000      0.00000000      0.00000000      0.00000000      0.00000000      0.00000000      0.00000000      0.00000000</v>
    <i name="NUPDOWN">      0.00000000</i>
    <i type="logical" name="LSORBIT"> F  </i>
    <v name="SAXIS">      0.00000000      0.00000000      1.00000000</v>
    <i type="logical" name="LSPIRAL"> F  </i>
    <v name="QSPIRAL">      0.00000000      0.00000000      0.00000000</v>
    <i type="logical" name="LZEROZ"> F  </i>
   </separator>
   <separator name="electronic exchange-correlation" >
    <i type="logical" name="LASPH"> T  </i>
    <i type="logical" name="LMETAGGA"> F  </i>
   </separator>
   <separator name="electronic convergence" >
    <i type="int" name="NELM">   200</i>
    <i type="int" name="NELMDL">    -5</i>
    <i type="int" name="NELMIN">     2</i>
    <i name="ENINI">    300.00000000</i>
    <separator name="electronic convergence detail" >
     <i type="logical" name="LDIAG"> T  </i>
     <i type="logical" name="LSUBROT"> F  </i>
     <i name="WEIMIN">      0.00000000</i>
     <i name="EBREAK">      0.00000000</i>
     <i name="DEPER">      0.30000000</i>
     <i type="int" name="NRMM">     4</i>
     <i name="TIME">      0.40000000</i>
    </separator>
   </separator>
   <separator name="electronic mixer" >
    <i name="AMIX">      0.40000000</i>
    <i name="BMIX">      1.00000000</i>
    <i name="AMIN">      0.10000000</i>
    <i name="AMIX_MAG">      1.60000000</i>
    <i name="BMIX_MAG">      1.00000000</i>
    <separator name="electronic mixer details" >
     <i type="int" name="IMIX">     4</i>
     <i type="logical" name="MIXFIRST"> F  </i>
     <i type="int" name="MAXMIX">   -45</i>
     <i name="WC">    100.00000000</i>
     <i type="int" name="INIMIX">     1</i>
     <i type="int" name="MIXPRE">     1</i>
     <i type="int" name="MREMOVE">     5</i>
    </separator>
   </separator>
   <separator name="electronic dipolcorrection" >
    <i type="logical" name="LDIPOL"> F  </i>
    <i type="logical" name="LMONO"> F  </i>
    <i type="int" name="IDIPOL">     0</i>
    <i name="EPSILON">      1.00000000</i>
    <v name="DIPOL">   -100.00000000   -100.00000000   -100.00000000</v>
    <i name="EFIELD">      0.00000000</i>
   </separator>
  </separator>
  <separator name="grids" >
   <i type="int" name="NGX">    70</i>
   <i type="int" name="NGY">    70</i>
   <i type="int" name="NGZ">    70</i>
   <i type="int" name="NGXF">   140</i>
   <i type="int" name="NGYF">   140</i>
   <i type="int" name="NGZF">   140</i>
   <i type="logical" name="ADDGRID"> T  </i>
  </separator>
  <separator name="ionic" >
   <i type="int" name="NSW">     0</i>
   <i type="int" name="IBRION">    -1</i>
   <i type="int" name="MDALGO">     0</i>
   <i type="int" name="ISIF">     2</i>
   <i name="PSTRESS">      0.00000000</i>
   <i name="EDIFFG">     -0.01000000</i>
   <i type="int" name="NFREE">     1</i>
   <i name="POTIM">      0.50000000</i>
   <i name="SMASS">     -3.00000000</i>
   <i name="SCALEE">      1.00000000</i>
  </separator>
  <separator name="ionic md" >
   <i name="TEBEG">      0.00010000</i>
   <i name="TEEND">      0.00010000</i>
   <i type="int" name="NBLOCK">     1</i>
   <i type="int" name="KBLOCK">     1</i>
   <i type="int" name="NPACO">   256</i>
   <i name="APACO">     16.00000000</i>
  </separator>
  <separator name="symmetry" >
   <i type="int" name="ISYM">     0</i>
   <i name="SYMPREC">      0.00001000</i>
  </separator>
  <separator name="dos" >
   <i type="int" name="LORBIT">    10</i>
   <v name="RWIGS">     -1.00000000     -1.00000000     -1.00000000</v>
   <i type="int" name="NEDOS">   301</i>
   <i name="EMIN">     10.00000000</i>
   <i name="EMAX">    -10.00000000</i>
   <i name="EFERMI">      0.00000000</i>
  </separator>
  <separator name="writing" >
   <i type="int" name="NWRITE">     2</i>
   <i type="logical" name="LWAVE"> F  </i>
   <i type="logical" name="LDOWNSAMPLE"> F  </i>
   <i type="logical" name="LCHARG"> F  </i>
   <i type="logical" name="LPARD"> F  </i>
   <i type="logical" name="LVTOT"> F  </i>
   <i type="logical" name="LVHAR"> T  </i>
   <i type="logical" name="LELF"> F  </i>
   <i type="logical" name="LOPTICS"> F  </i>
   <v name="STM">      0.00000000      0.00000000      0.00000000      0.00000000      0.00000000      0.00000000      0.00000000</v>
  </separator>
  <separator name="performance" >
   <i type="int" name="NPAR">     8</i>
   <i type="int" name="NSIM">     4</i>
   <i type="int" name="NBLK">    -1</i>
   <i type="logical" name="LPLANE"> T  </i>
   <i type="logical" name="LSCALAPACK"> T  </i>
   <i type="logical" name="LSCAAWARE"> F  </i>
   <i type="logical" name="LSCALU"> F  </i>
   <i type="logical" name="LASYNC"> F  </i>
   <i type="logical" name="LORBITALREAL"> F  </i>
  </separator>
  <separator name="miscellaneous" >
   <i type="int" name="IDIOT">     3</i>
   <i type="int" name="ISPECIAL">     0</i>
   <i type="logical" name="LMUSIC"> F  </i>
   <v name="POMASS">    132.90000000    207.20000000     79.90400000</v>
   <v name="DARWINR">      0.00000000      0.00000000      0.00000000</v>
   <v name="DARWINV">      1.00000000      1.00000000      1.00000000</v>
   <i type="logical" name="LCORR"> T  </i>
  </separator>
  <i type="logical" name="GGA_COMPAT"> T  </i>
  <i type="logical" name="LBERRY"> F  </i>
  <i type="int" name="ICORELEVEL">     0</i>
  <i type="logical" name="LDAU"> F  </i>
  <i type="int" name="I_CONSTRAINED_M">     0</i>
  <separator name="electronic exchange-correlation" >
   <i type="string" name="GGA">--</i>
   <i type="int" name="VOSKOWN">     0</i>
   <i type="logical" name="LHFCALC"> F  </i>
   <i type="string" name="PRECFOCK"></i>
   <i type="logical" name="LSYMGRAD"> F  </i>
   <i type="logical" name="LHFONE"> F  </i>
   <i type="logical" name="LRHFCALC"> F  </i>
   <i type="logical" name="LTHOMAS"> F  </i>
   <i type="logical" name="LMODELHF"> F  </i>
   <i name="ENCUT4O">     -1.00000000</i>
   <i type="int" name="EXXOEP">     0</i>
   <i type="int" name="FOURORBIT">     0</i>
   <i name="AEXX">      0.00000000</i>
   <i name="HFALPHA">      0.00000000</i>
   <i name="MCALPHA">      0.00000000</i>
   <i name="ALDAX">      1.00000000</i>
   <i name="AGGAX">      1.00000000</i>
   <i name="ALDAC">      1.00000000</i>
   <i name="AGGAC">      1.00000000</i>
   <i type="int" name="NKREDX">     1</i>
   <i type="int" name="NKREDY">     1</i>
   <i type="int" name="NKREDZ">     1</i>
   <i type="logical" name="SHIFTRED"> F  </i>
   <i type="logical" name="ODDONLY"> F  </i>
   <i type="logical" name="EVENONLY"> F  </i>
   <i type="int" name="LMAXFOCK">     0</i>
   <i type="int" name="NMAXFOCKAE">     0</i>
   <i type="logical" name="LFOCKAEDFT"> F  </i>
   <i name="HFSCREEN">      0.00000000</i>
   <i name="HFSCREENC">      0.00000000</i>
   <i type="int" name="NBANDSGWLOW">     0</i>
  </separator>
  <separator name="vdW DFT" >
   <i type="logical" name="LUSE_VDW"> F  </i>
   <i name="Zab_VDW">     -0.84910000</i>
   <i name="PARAM1">      0.12340000</i>
   <i name="PARAM2">      1.00000000</i>
   <i name="PARAM3">      0.00000000</i>
  </separator>
  <separator name="model GW" >
   <i type="int" name="MODEL_GW">     0</i>
   <i name="MODEL_EPS0">     24.53982053</i>
   <i name="MODEL_ALPHA">      1.00000000</i>
  </separator>
  <separator name="linear response parameters" >
   <i type="logical" name="LEPSILON"> F  </i>
   <i type="logical" name="LRPA"> F  </i>
   <i type="logical" name="LNABLA"> F  </i>
   <i type="logical" name="LVEL"> F  </i>
   <i type="int" name="KINTER">     0</i>
   <i name="CSHIFT">      0.10000000</i>
   <i name="OMEGAMAX">     -1.00000000</i>
   <i name="DEG_THRESHOLD">      0.00200000</i>
   <i name="RTIME">     -0.10000000</i>
   <i name="WPLASMAI">      0.00000000</i>
   <v name="DFIELD">      0.00000000      0.00000000      0.00000000</v>
   <v name="WPLASMA">      0.00000000      0.00000000      0.00000000      0.00000000      0.00000000      0.00000000      0.00000000      0.00000000      0.00000000</v>
  </separator>
  <separator name="orbital magnetization" >
   <i type="logical" name="NUCIND"> F  </i>
   <v name="MAGPOS">      0.00000000      0.00000000      0.00000000</v>
   <i type="logical" name="LNICSALL"> T  </i>
   <i type="logical" name="ORBITALMAG"> F  </i>
   <i type="logical" name="LMAGBLOCH"> F  </i>
   <i type="logical" name="LCHIMAG"> F  </i>
   <i type="logical" name="LGAUGE"> T  </i>
   <i type="int" name="MAGATOM">     0</i>
   <v name="MAGDIPOL">      0.00000000      0.00000000      0.00000000</v>
   <v name="AVECCONST">      0.00000000      0.00000000      0.00000000</v>
  </separator>
  <separator name="response functions" >
   <i type="logical" name="LADDER"> F  </i>
   <i type="logical" name="LRPAFORCE"> F  </i>
   <i type="logical" name="LFXC"> F  </i>
   <i type="logical" name="LHARTREE"> T  </i>
   <i type="int" name="IBSE">     0</i>
   <v type="int" name="KPOINT">    -1     0     0     0</v>
   <i type="logical" name="LTCTE"> F  </i>
   <i type="logical" name="LTETE"> F  </i>
   <i type="logical" name="LTRIPLET"> F  </i>
   <i type="logical" name="LFXCEPS"> F  </i>
   <i type="logical" name="LFXHEG"> F  </i>
   <i type="int" name="NATURALO">     2</i>
   <i type="logical" name="L2ORDER"> F  </i>
   <i type="logical" name="LMP2LT"> F  </i>
   <i type="logical" name="LUSEW"> F  </i>
   <i name="ENCUTGW">     -2.00000000</i>
   <i name="ENCUTGWSOFT">     -2.00000000</i>
   <i name="ENCUTLF">     -1.00000000</i>
   <i type="int" name="LMAXMP2">    -1</i>
   <i name="SCISSOR">      0.00000000</i>
   <i type="int" name="NOMEGA">     0</i>
   <i type="int" name="NOMEGAR">     0</i>
   <i type="int" name="NBANDSGW">    -1</i>
   <i type="int" name="NBANDSO">    -1</i>
   <i type="int" name="NBANDSV">    -1</i>
   <i type="int" name="NELM">   200</i>
   <i type="int" name="NELMHF">     1</i>
   <i type="int" name="DIM">     3</i>
   <i type="int" name="ANTIRES">     0</i>
   <i name="OMEGAMAX">    -30.00000000</i>
   <i name="OMEGAMIN">    -30.00000000</i>
   <i name="OMEGATL">   -200.00000000</i>
   <i type="int" name="OMEGAGRID">   140</i>
   <i name="CSHIFT">     -0.10000000</i>
   <i type="logical" name="SELFENERGY"> F  </i>
   <i type="logical" name="LSPECTRAL"> F  </i>
   <i type="logical" name="LSPECTRALGW"> F  </i>
   <i type="logical" name="LSINGLES"> F  </i>
   <i type="logical" name="LFERMIGW"> F  </i>
   <i type="logical" name="ODDONLYGW"> F  </i>
   <i type="logical" name="EVENONLYGW"> F  </i>
   <i type="int" name="NKREDLFX">     1</i>
   <i type="int" name="NKREDLFY">     1</i>
   <i type="int" name="NKREDLFZ">     1</i>
   <i type="int" name="MAXMEM">  2800</i>
   <i type="int" name="TELESCOPE">     0</i>
   <i type="int" name="TAUPAR">     1</i>
   <i type="int" name="OMEGAPAR">    -1</i>
   <i name="LAMBDA">      1.00000000</i>
  </separator>
  <separator name="External order field" >
   <i name="OFIELD_KAPPA">      0.00000000</i>
   <v name="OFIELD_K">      0.00000000      0.00000000      0.00000000</v>
   <i name="OFIELD_Q6_NEAR">      0.00000000</i>
   <i name="OFIELD_Q6_FAR">      0.00000000</i>
   <i name="OFIELD_A">      0.00000000</i>
  </separator>
 </parameters>
 <atominfo>
  <atoms>      39 </atoms>
  <types>       3 </types>
  <array name="atoms" >
   <dimension dim="1">ion</dimension>
   <field type="string">element</field>
   <field type="int">atomtype</field>
   <set>
    <rc><c>Cs</c><c>   1</c></rc>
    <rc><c>Cs</c><c>   1</c></rc>
    <rc><c>Cs</c><c>   1</c></rc>
    <rc><c>Cs</c><c>   1</c></rc>
    <rc><c>Cs</c><c>   1</c></rc>
    <rc><c>Cs</c><c>   1</c></rc>
    <rc><c>Cs</c><c>   1</c></rc>
    <rc><c>Cs</c><c>   1</c></rc>
    <rc><c>Pb</c><c>   2</c></rc>
    <rc><c>Pb</c><c>   2</c></rc>
    <rc><c>Pb</c><c>   2</c></rc>
    <rc><c>Pb</c><c>   2</c></rc>
    <rc><c>Pb</c><c>   2</c></rc>
    <rc><c>Pb</c><c>   2</c></rc>
    <rc><c>Pb</c><c>   2</c></rc>
    <rc><c>Pb</c><c>   2</c></rc>
    <rc><c>Br</c><c>   3</c></rc>
    <rc><c>Br</c><c>   3</c></rc>
    <rc><c>Br</c><c>   3</c></rc>
    <rc><c>Br</c><c>   3</c></rc>
    <rc><c>Br</c><c>   3</c></rc>
    <rc><c>Br</c><c>   3</c></rc>
    <rc><c>Br</c><c>   3</c></rc>
    <rc><c>Br</c><c>   3</c></rc>
    <rc><c>Br</c><c>   3</c></rc>
    <rc><c>Br</c><c>   3</c></rc>
    <rc><c>Br</c><c>   3</c></rc>
    <rc><c>Br</c><c>   3</c></rc>
    <rc><c>Br</c><c>   3</c></rc>
    <rc><c>Br</c><c>   3</c></rc>
    <rc><c>Br</c><c>   3</c></rc>
    <rc><c>Br</c><c>   3</c></rc>
    <rc><c>Br</c><c>   3</c></rc>
    <rc><c>Br</c><c>   3</c></rc>
    <rc><c>Br</c><c>   3</c></rc>
    <rc><c>Br</c><c>   3</c></rc>
    <rc><c>Br</c><c>   3</c></rc>
    <rc><c>Br</c><c>   3</c></rc>
    <rc><c>Br</c><c>   3</c></rc>
   </set>
  </array>
  <array name="atomtypes" >
   <dimension dim="1">type</dimension>
   <field type="int">atomspertype</field>
   <field type="string">element</field>
   <field>mass</field>
   <field>valence</field>
   <field type="string">pseudopotential</field>
   <set>
    <rc><c>   8</c><c>Cs</c><c>    132.90000000</c><c>      9.00000000</c><c>  PAW_PBE Cs_sv 08Apr2002               </c></rc>
    <rc><c>   8</c><c>Pb</c><c>    207.20000000</c><c>     14.00000000</c><c>  PAW_PBE Pb_d 06Sep2000                </c></rc>
    <rc><c>  23</c><c>Br</c><c>     79.90400000</c><c>      7.00000000</c><c>  PAW_PBE Br 06Sep2000                  </c></rc>
   </set>
  </array>
 </atominfo>
 <structure name="initialpos" >
  <crystal>
   <varray name="basis" >
    <v>       8.45648900       0.00000000       8.04030100 </v>
    <v>       0.00000000      11.72984700       0.00000000 </v>
    <v>      -8.45648900       0.00000000       8.04030100 </v>
   </varray>
   <i name="volume">   1595.08833419 </i>
   <varray name="rec_basis" >
    <v>       0.05912619      -0.00000000       0.06218673 </v>
    <v>       0.00000000       0.08525260      -0.00000000 </v>
    <v>      -0.05912619       0.00000000       0.06218673 </v>
   </varray>
  </crystal>
  <varray name="positions" >
   <v>       0.26969700       0.24976800       0.20414300 </v>
   <v>       0.77156700       0.23769500       0.73208400 </v>
   <v>       0.72026200       0.76343900       0.24512100 </v>
   <v>       0.20132200       0.75570400       0.78323600 </v>
   <v>       0.28045900       0.24420900       0.72842600 </v>
   <v>       0.79802800       0.24785500       0.22680200 </v>
   <v>       0.73533500       0.75016000       0.80461000 </v>
   <v>       0.22251500       0.75097500       0.27293400 </v>
   <v>       0.00117700       0.00184600       0.99982200 </v>
   <v>       0.50569600       0.99759000       0.49792100 </v>
   <v>       0.49845400       0.99977000       0.99940800 </v>
   <v>       0.00450100       0.00377800       0.49971600 </v>
   <v>       0.49837000       0.49623100       0.00071500 </v>
   <v>       0.99634500       0.51157900       0.50073200 </v>
   <v>       0.00022300       0.49955200       0.00067500 </v>
   <v>       0.48259300       0.49270300       0.50429500 </v>
   <v>       0.47345200       0.74787300       0.96496700 </v>
   <v>       0.97264700       0.75732900       0.45004100 </v>
   <v>       0.97723800       0.25116100       0.97265000 </v>
   <v>       0.47457700       0.23801000       0.46845800 </v>
   <v>       0.01271400       0.75108500       0.03202500 </v>
   <v>       0.52928100       0.24804900       0.04247400 </v>
   <v>       0.01428700       0.25941800       0.53600300 </v>
   <v>       0.24717600       0.46975400       0.94774700 </v>
   <v>       0.45101700       0.53162200       0.25334100 </v>
   <v>       0.94758200       0.53420300       0.74651100 </v>
   <v>       0.54703600       0.02538700       0.74941600 </v>
   <v>       0.05099800       0.03637200       0.25222300 </v>
   <v>       0.75311700       0.98632300       0.03983500 </v>
   <v>       0.25937400       0.95883300       0.54655900 </v>
   <v>       0.24889800       0.03063800       0.94959000 </v>
   <v>       0.75212200       0.03266300       0.44757000 </v>
   <v>       0.45399400       0.95794200       0.24822000 </v>
   <v>       0.95238400       0.96567900       0.74701300 </v>
   <v>       0.75190000       0.52254000       0.05130300 </v>
   <v>       0.23694700       0.54840600       0.55123000 </v>
   <v>       0.53950000       0.45131500       0.75255300 </v>
   <v>       0.04864700       0.46607900       0.25398900 </v>
   <v>       0.66306100       0.63607800       0.50904900 </v>
  </varray>
 </structure>
 <calculation>
  <scstep>
   <time name="dav">   16.52   16.52</time>
   <time name="total">   18.00   18.02</time>
   <energy>
    <i name="alphaZ">    872.70583573 </i>
    <i name="ewald"> -17924.29489482 </i>
    <i name="hartreedc">  -7432.87307814 </i>
    <i name="XCdc">    908.14301287 </i>
    <i name="pawpsdc">  21345.28103884 </i>
    <i name="pawaedc"> -22405.85761495 </i>
    <i name="eentropy">     -0.00315770 </i>
    <i name="bandstr">   -241.60534617 </i>
    <i name="atom">  26212.11861568 </i>
    <i name="e_fr_energy">   1333.61441135 </i>
    <i name="e_wo_entrp">   1333.61756906 </i>
    <i name="e_0_energy">   1333.61599021 </i>
   </energy>
  </scstep>
  <scstep>
   <time name="dav">   18.47   18.50</time>
   <time name="total">   18.47   18.50</time>
   <energy>
    <i name="e_fr_energy">  -1116.88953131 </i>
    <i name="e_wo_entrp">  -1116.88953131 </i>
    <i name="e_0_energy">  -1116.88953131 </i>
   </energy>
  </scstep>
  <scstep>
   <time name="dav">   19.36   19.37</time>
   <time name="total">   19.36   19.37</time>
   <energy>
    <i name="e_fr_energy">  -1475.40092798 </i>
    <i name="e_wo_entrp">  -1475.40092798 </i>
    <i name="e_0_energy">  -1475.40092798 </i>
   </energy>
  </scstep>
  <scstep>
   <time name="dav">   17.83   17.89</time>
   <time name="total">   17.84   17.89</time>
   <energy>
    <i name="e_fr_energy">  -1486.87155873 </i>
    <i name="e_wo_entrp">  -1486.87155873 </i>
    <i name="e_0_energy">  -1486.87155873 </i>
   </energy>
  </scstep>
  <scstep>
   <time name="dav">   19.31   19.34</time>
   <time name="total">   22.04   22.07</time>
   <energy>
    <i name="e_fr_energy">  -1487.37813772 </i>
    <i name="e_wo_entrp">  -1487.37813772 </i>
    <i name="e_0_energy">  -1487.37813772 </i>
   </energy>
  </scstep>
  <scstep>
   <time name="dav">   18.99   18.99</time>
   <time name="total">   23.18   23.21</time>
   <energy>
    <i name="e_fr_energy">  -1409.71577308 </i>
    <i name="e_wo_entrp">  -1409.71577308 </i>
    <i name="e_0_energy">  -1409.71577308 </i>
   </energy>
  </scstep>
  <scstep>
   <time name="dav">   18.24   18.24</time>
   <time name="total">   22.44   22.45</time>
   <energy>
    <i name="e_fr_energy">  -1409.19642720 </i>
    <i name="e_wo_entrp">  -1409.19642720 </i>
    <i name="e_0_energy">  -1409.19642720 </i>
   </energy>
  </scstep>
  <scstep>
   <time name="dav">   18.21   18.21</time>
   <time name="total">   22.38   22.42</time>
   <energy>
    <i name="e_fr_energy">  -1409.37183491 </i>
    <i name="e_wo_entrp">  -1409.37183491 </i>
    <i name="e_0_energy">  -1409.37183491 </i>
   </energy>
  </scstep>
  <scstep>
   <time name="dav">   17.14   17.14</time>
   <time name="total">   21.33   21.35</time>
   <energy>
    <i name="e_fr_energy">  -1409.43803974 </i>
    <i name="e_wo_entrp">  -1409.43803974 </i>
    <i name="e_0_energy">  -1409.43803974 </i>
   </energy>
  </scstep>
  <scstep>
   <time name="dav">   19.05   19.06</time>
   <time name="total">   23.25   23.27</time>
   <energy>
    <i name="e_fr_energy">  -1409.44171686 </i>
    <i name="e_wo_entrp">  -1409.44171686 </i>
    <i name="e_0_energy">  -1409.44171686 </i>
   </energy>
  </scstep>
  <scstep>
   <time name="dav">   17.21   17.21</time>
   <time name="total">   21.41   21.44</time>
   <energy>
    <i name="e_fr_energy">  -1409.44357843 </i>
    <i name="e_wo_entrp">  -1409.44357843 </i>
    <i name="e_0_energy">  -1409.44357843 </i>
   </energy>
  </scstep>
  <scstep>
   <time name="dav">   16.90   16.90</time>
   <time name="total">   21.08   21.13</time>
   <energy>
    <i name="e_fr_energy">  -1409.44650957 </i>
    <i name="e_wo_entrp">  -1409.44650957 </i>
    <i name="e_0_energy">  -1409.44650957 </i>
   </energy>
  </scstep>
  <scstep>
   <time name="dav">   19.38   19.38</time>
   <time name="total">   23.60   23.62</time>
   <energy>
    <i name="e_fr_energy">  -1409.44619602 </i>
    <i name="e_wo_entrp">  -1409.44619602 </i>
    <i name="e_0_energy">  -1409.44619602 </i>
   </energy>
  </scstep>
  <scstep>
   <time name="dav">   17.61   17.61</time>
   <time name="total">   21.79   21.85</time>
   <energy>
    <i name="e_fr_energy">  -1409.44612054 </i>
    <i name="e_wo_entrp">  -1409.44612054 </i>
    <i name="e_0_energy">  -1409.44612054 </i>
   </energy>
  </scstep>
  <scstep>
   <time name="dav">   17.95   17.95</time>
   <time name="total">   22.13   22.17</time>
   <energy>
    <i name="e_fr_energy">  -1409.44610971 </i>
    <i name="e_wo_entrp">  -1409.44610971 </i>
    <i name="e_0_energy">  -1409.44610971 </i>
   </energy>
  </scstep>
  <scstep>
   <time name="dav">   17.13   17.13</time>
   <time name="total">   21.32   21.35</time>
   <energy>
    <i name="e_fr_energy">  -1409.44613851 </i>
    <i name="e_wo_entrp">  -1409.44613851 </i>
    <i name="e_0_energy">  -1409.44613851 </i>
   </energy>
  </scstep>
  <scstep>
   <time name="dav">   18.43   18.43</time>
   <time name="total">   22.62   22.65</time>
   <energy>
    <i name="e_fr_energy">  -1409.44616129 </i>
    <i name="e_wo_entrp">  -1409.44616129 </i>
    <i name="e_0_energy">  -1409.44616129 </i>
   </energy>
  </scstep>
  <scstep>
   <time name="dav">   13.45   13.45</time>
   <time name="total">   17.64   17.65</time>
   <energy>
    <i name="e_fr_energy">  -1409.44614883 </i>
    <i name="e_wo_entrp">  -1409.44614883 </i>
    <i name="e_0_energy">  -1409.44614883 </i>
   </energy>
  </scstep>
  <scstep>
   <time name="dav">   12.84   12.84</time>
   <time name="total">   17.05   17.05</time>
   <energy>
    <i name="e_fr_energy">  -1409.44614495 </i>
    <i name="e_wo_entrp">  -1409.44614495 </i>
    <i name="e_0_energy">  -1409.44614495 </i>
   </energy>
  </scstep>
  <scstep>
   <time name="dav">   12.51   12.51</time>
   <time name="total">   16.72   16.72</time>
   <energy>
    <i name="e_fr_energy">  -1409.44614248 </i>
    <i name="e_wo_entrp">  -1409.44614248 </i>
    <i name="e_0_energy">  -1409.44614248 </i>
   </energy>
  </scstep>
  <scstep>
   <time name="dav">   12.37   12.37</time>
   <time name="total">   13.85   13.89</time>
   <energy>
    <i name="alphaZ">    872.70583573 </i>
    <i name="ewald"> -17924.29489482 </i>
    <i name="hartreedc">  -7466.65728278 </i>
    <i name="XCdc">    943.68035984 </i>
    <i name="pawpsdc">  22762.92729055 </i>
    <i name="pawaedc"> -23821.38291694 </i>
    <i name="eentropy">     -0.00000000 </i>
    <i name="bandstr">  -2988.54314998 </i>
    <i name="atom">  26212.11861568 </i>
    <i name="e_fr_energy">  -1409.44614271 </i>
    <i name="e_wo_entrp">  -1409.44614271 </i>
    <i name="e_0_energy">  -1409.44614271 </i>
   </energy>
  </scstep>
  <structure>
   <crystal>
    <varray name="basis" >
     <v>       8.45648900       0.00000000       8.04030100 </v>
     <v>       0.00000000      11.72984700       0.00000000 </v>
     <v>      -8.45648900       0.00000000       8.04030100 </v>
    </varray>
    <i name="volume">   1595.08833419 </i>
    <varray name="rec_basis" >
     <v>       0.05912619      -0.00000000       0.06218673 </v>
     <v>       0.00000000       0.08525260      -0.00000000 </v>
     <v>      -0.05912619       0.00000000       0.06218673 </v>
    </varray>
   </crystal>
   <varray name="positions" >
    <v>       0.26969700       0.24976800       0.20414300 </v>
    <v>       0.77156700       0.23769500       0.73208400 </v>
    <v>       0.72026200       0.76343900       0.24512100 </v>
    <v>       0.20132200       0.75570400       0.78323600 </v>
    <v>       0.28045900       0.24420900       0.72842600 </v>
    <v>       0.79802800       0.24785500       0.22680200 </v>
    <v>       0.73533500       0.75016000       0.80461000 </v>
    <v>       0.22251500       0.75097500       0.27293400 </v>
    <v>       0.00117700       0.00184600       0.99982200 </v>
    <v>       0.50569600       0.99759000       0.49792100 </v>
    <v>       0.49845400       0.99977000       0.99940800 </v>
    <v>       0.00450100       0.00377800       0.49971600 </v>
    <v>       0.49837000       0.49623100       0.00071500 </v>
    <v>       0.99634500       0.51157900       0.50073200 </v>
    <v>       0.00022300       0.49955200       0.00067500 </v>
    <v>       0.48259300       0.49270300       0.50429500 </v>
    <v>       0.47345200       0.74787300       0.96496700 </v>
    <v>       0.97264700       0.75732900       0.45004100 </v>
    <v>       0.97723800       0.25116100       0.97265000 </v>
    <v>       0.47457700       0.23801000       0.46845800 </v>
    <v>       0.01271400       0.75108500       0.03202500 </v>
    <v>       0.52928100       0.24804900       0.04247400 </v>
    <v>       0.01428700       0.25941800       0.53600300 </v>
    <v>       0.24717600       0.46975400       0.94774700 </v>
    <v>       0.45101700       0.53162200       0.25334100 </v>
    <v>       0.94758200       0.53420300       0.74651100 </v>
    <v>       0.54703600       0.02538700       0.74941600 </v>
    <v>       0.05099800       0.03637200       0.25222300 </v>
    <v>       0.75311700       0.98632300       0.03983500 </v>
    <v>       0.25937400       0.95883300       0.54655900 </v>
    <v>       0.24889800       0.03063800       0.94959000 </v>
    <v>       0.75212200       0.03266300       0.44757000 </v>
    <v>       0.45399400       0.95794200       0.24822000 </v>
    <v>       0.95238400       0.96567900       0.74701300 </v>
    <v>       0.75190000       0.52254000       0.05130300 </v>
    <v>       0.23694700       0.54840600       0.55123000 </v>
    <v>       0.53950000       0.45131500       0.75255300 </v>
    <v>       0.04864700       0.46607900       0.25398900 </v>
    <v>       0.66306100       0.63607800       0.50904900 </v>
   </varray>
  </structure>
  <varray name="forces" >
   <v>       0.00478189       0.00917002       0.00778962 </v>
   <v>      -0.01115219      -0.00371406      -0.00478867 </v>
   <v>       0.06208808       0.03702409      -0.04380470 </v>
   <v>      -0.00740704      -0.00147937      -0.00359166 </v>
   <v>       0.00727271       0.01061321      -0.00455045 </v>
   <v>       0.00381640       0.00076029      -0.00264704 </v>
   <v>       0.01147975      -0.01846733      -0.02076247 </v>
   <v>       0.00325519      -0.00913272      -0.00907636 </v>
   <v>      -0.00186206       0.00148949      -0.00031928 </v>
   <v>       0.01615823       0.06786648      -0.00049242 </v>
   <v>      -0.00530446       0.00293121      -0.00060803 </v>
   <v>       0.01068003      -0.01345144       0.01194815 </v>
   <v>      -0.00585871       0.00435450      -0.00170125 </v>
   <v>       0.02307831       0.03946477       0.04952547 </v>
   <v>       0.00328663       0.00040866       0.00310003 </v>
   <v>      -0.25476157      -0.31820022      -0.27450548 </v>
   <v>       0.00162492       0.00796580      -0.00119845 </v>
   <v>       0.00203368       0.00013565       0.00502069 </v>
   <v>      -0.00444136       0.00070221      -0.00229342 </v>
   <v>       0.02221983      -0.22383292       0.03235367 </v>
   <v>      -0.00295058       0.00263423      -0.00051870 </v>
   <v>       0.00077767      -0.01117670      -0.00016899 </v>
   <v>      -0.00181034       0.01218745      -0.00458230 </v>
   <v>      -0.00668462       0.00060889      -0.00612903 </v>
   <v>       0.03778655      -0.00087793      -0.04951092 </v>
   <v>      -0.00152990       0.00121740      -0.01089274 </v>
   <v>       0.00531941      -0.00091477      -0.00529951 </v>
   <v>      -0.00587474       0.00183741       0.00086674 </v>
   <v>       0.00893842       0.00593725      -0.00133326 </v>
   <v>       0.01294040       0.00233062       0.00876200 </v>
   <v>      -0.00361900      -0.00236696      -0.00037350 </v>
   <v>       0.00545275       0.00535529       0.00385924 </v>
   <v>      -0.00230189      -0.00016336      -0.00136177 </v>
   <v>      -0.00014392       0.00032389      -0.00271106 </v>
   <v>       0.00771529      -0.00945438       0.00574944 </v>
   <v>      -0.14575431       0.03312635      -0.13689145 </v>
   <v>      -0.05509211      -0.01412996       0.04420110 </v>
   <v>      -0.01068004      -0.00175981       0.00003701 </v>
   <v>       0.27652271       0.38067675       0.41689976 </v>
  </varray>
  <varray name="stress" >
   <v>      -5.94944430       1.11185825       0.30605656 </v>
   <v>       1.11182113      -4.50083135       0.16024855 </v>
   <v>       0.30606496       0.16036053      -5.21123561 </v>
  </varray>
  <energy>
   <i name="e_fr_energy">  -1409.44614271 </i>
   <i name="e_wo_entrp">  -1409.44614271 </i>
   <i name="e_0_energy">     -0.00000000 </i>
  </energy>
  <time name="totalsc">  482.50  483.13</time>
  <eigenvalues>
   <array>
    <dimension dim="1">band</dimension>
    <dimension dim="2">kpoint</dimension>
    <dimension dim="3">spin</dimension>
    <field>eigene</field>
    <field>occ</field>
    <set>
     <set comment="spin 1">
      <set comment="kpoint 1">
       <r>  -20.8706    1.0000 </r>
       <r>  -20.8321    1.0000 </r>
       <r>  -20.8089    1.0000 </r>
       <r>  -20.7507    1.0000 </r>
       <r>  -20.7352    1.0000 </r>
       <r>  -20.7314    1.0000 </r>
       <r>  -20.7247    1.0000 </r>
       <r>  -20.7013    1.0000 </r>
       <r>  -16.6963    1.0000 </r>
       <r>  -16.6795    1.0000 </r>
       <r>  -16.6570    1.0000 </r>
       <r>  -16.6393    1.0000 </r>
       <r>  -16.6205    1.0000 </r>
       <r>  -16.6014    1.0000 </r>
       <r>  -16.5787    1.0000 </r>
       <r>  -16.5781    1.0000 </r>
       <r>  -16.5664    1.0000 </r>
       <r>  -16.5640    1.0000 </r>
       <r>  -16.5560    1.0000 </r>
       <r>  -16.5378    1.0000 </r>
       <r>  -16.5339    1.0000 </r>
       <r>  -16.5189    1.0000 </r>
       <r>  -16.4544    1.0000 </r>
       <r>  -16.4388    1.0000 </r>
       <r>  -16.4252    1.0000 </r>
       <r>  -16.4196    1.0000 </r>
       <r>  -16.4148    1.0000 </r>
       <r>  -16.4119    1.0000 </r>
       <r>  -16.4035    1.0000 </r>
       <r>  -16.3670    1.0000 </r>
       <r>  -16.3592    1.0000 </r>
       <r>  -16.3506    1.0000 </r>
       <r>  -16.3394    1.0000 </r>
       <r>  -16.3148    1.0000 </r>
       <r>  -16.3067    1.0000 </r>
       <r>  -16.3054    1.0000 </r>
       <r>  -16.2925    1.0000 </r>
       <r>  -16.2886    1.0000 </r>
       <r>  -16.2847    1.0000 </r>
       <r>  -16.2793    1.0000 </r>
       <r>  -16.2758    1.0000 </r>
       <r>  -16.2716    1.0000 </r>
       <r>  -16.2710    1.0000 </r>
       <r>  -16.2690    1.0000 </r>
       <r>  -16.2622    1.0000 </r>
       <r>  -16.2600    1.0000 </r>
       <r>  -16.2549    1.0000 </r>
       <r>  -16.2477    1.0000 </r>
       <r>  -14.4984    1.0000 </r>
       <r>  -14.3975    1.0000 </r>
       <r>  -14.3114    1.0000 </r>
       <r>  -14.1951    1.0000 </r>
       <r>  -14.1315    1.0000 </r>
       <r>  -14.1263    1.0000 </r>
       <r>  -14.1211    1.0000 </r>
       <r>  -14.0838    1.0000 </r>
       <r>  -14.0503    1.0000 </r>
       <r>  -14.0388    1.0000 </r>
       <r>  -14.0294    1.0000 </r>
       <r>  -14.0249    1.0000 </r>
       <r>  -14.0084    1.0000 </r>
       <r>  -14.0048    1.0000 </r>
       <r>  -13.9936    1.0000 </r>
       <r>  -13.9869    1.0000 </r>
       <r>  -13.9713    1.0000 </r>
       <r>  -13.9218    1.0000 </r>
       <r>  -13.8881    1.0000 </r>
       <r>  -13.7651    1.0000 </r>
       <r>  -13.7525    1.0000 </r>
       <r>  -13.7351    1.0000 </r>
       <r>  -13.7252    1.0000 </r>
       <r>   -8.2088    1.0000 </r>
       <r>   -7.7801    1.0000 </r>
       <r>   -7.7576    1.0000 </r>
       <r>   -7.7098    1.0000 </r>
       <r>   -7.3351    1.0000 </r>
       <r>   -7.2946    1.0000 </r>
       <r>   -7.2667    1.0000 </r>
       <r>   -7.2532    1.0000 </r>
       <r>   -7.2509    1.0000 </r>
       <r>   -7.2385    1.0000 </r>
       <r>   -7.2330    1.0000 </r>
       <r>   -7.2184    1.0000 </r>
       <r>   -7.2119    1.0000 </r>
       <r>   -7.1955    1.0000 </r>
       <r>   -7.1847    1.0000 </r>
       <r>   -7.1766    1.0000 </r>
       <r>   -7.1730    1.0000 </r>
       <r>   -7.1625    1.0000 </r>
       <r>   -7.1510    1.0000 </r>
       <r>   -7.1505    1.0000 </r>
       <r>   -7.1414    1.0000 </r>
       <r>   -7.1375    1.0000 </r>
       <r>   -7.1343    1.0000 </r>
       <r>   -7.1232    1.0000 </r>
       <r>   -7.1171    1.0000 </r>
       <r>   -7.1157    1.0000 </r>
       <r>   -7.1134    1.0000 </r>
       <r>   -7.1061    1.0000 </r>
       <r>   -7.0862    1.0000 </r>
       <r>   -7.0805    1.0000 </r>
       <r>   -7.0623    1.0000 </r>
       <r>   -6.5784    1.0000 </r>
       <r>   -3.4055    1.0000 </r>
       <r>   -3.3224    1.0000 </r>
       <r>   -3.2850    1.0000 </r>
       <r>   -3.2615    1.0000 </r>
       <r>   -3.2158    1.0000 </r>
       <r>   -3.1912    1.0000 </r>
       <r>   -3.1751    1.0000 </r>
       <r>   -3.1620    1.0000 </r>
       <r>   -3.1317    1.0000 </r>
       <r>   -3.0504    1.0000 </r>
       <r>   -2.9975    1.0000 </r>
       <r>   -2.9065    1.0000 </r>
       <r>   -2.2140    1.0000 </r>
       <r>   -2.1794    1.0000 </r>
       <r>   -2.1517    1.0000 </r>
       <r>   -2.0396    1.0000 </r>
       <r>   -2.0231    1.0000 </r>
       <r>   -2.0097    1.0000 </r>
       <r>   -1.9307    1.0000 </r>
       <r>   -1.9078    1.0000 </r>
       <r>   -1.8692    1.0000 </r>
       <r>   -1.8238    1.0000 </r>
       <r>   -1.7865    1.0000 </r>
       <r>   -1.7459    1.0000 </r>
       <r>   -1.7056    1.0000 </r>
       <r>   -1.6599    1.0000 </r>
       <r>   -1.6466    1.0000 </r>
       <r>   -1.5841    1.0000 </r>
       <r>   -1.5760    1.0000 </r>
       <r>   -1.5532    1.0000 </r>
       <r>   -1.5257    1.0000 </r>
       <r>   -1.5175    1.0000 </r>
       <r>   -1.5118    1.0000 </r>
       <r>   -1.4972    1.0000 </r>
       <r>   -1.4831    1.0000 </r>
       <r>   -1.4539    1.0000 </r>
       <r>   -1.4479    1.0000 </r>
       <r>   -1.4305    1.0000 </r>
       <r>   -1.4226    1.0000 </r>
       <r>   -1.4182    1.0000 </r>
       <r>   -1.3904    1.0000 </r>
       <r>   -1.3793    1.0000 </r>
       <r>   -1.3649    1.0000 </r>
       <r>   -1.3542    1.0000 </r>
       <r>   -1.3461    1.0000 </r>
       <r>   -1.3312    1.0000 </r>
       <r>   -1.3299    1.0000 </r>
       <r>   -1.3119    1.0000 </r>
       <r>   -1.3072    1.0000 </r>
       <r>   -1.2973    1.0000 </r>
       <r>   -1.2578    1.0000 </r>
       <r>   -1.2391    1.0000 </r>
       <r>   -1.1853    1.0000 </r>
       <r>   -1.1815    1.0000 </r>
       <r>   -1.1487    1.0000 </r>
       <r>   -1.1247    1.0000 </r>
       <r>   -1.1146    1.0000 </r>
       <r>   -1.0430    1.0000 </r>
       <r>   -1.0216    1.0000 </r>
       <r>   -0.9821    1.0000 </r>
       <r>   -0.9787    1.0000 </r>
       <r>   -0.8590    1.0000 </r>
       <r>   -0.8020    1.0000 </r>
       <r>   -0.7461    1.0000 </r>
       <r>   -0.6690    1.0000 </r>
       <r>   -0.3393    1.0000 </r>
       <r>   -0.2128    1.0000 </r>
       <r>   -0.1223    1.0000 </r>
       <r>    0.3893    1.0000 </r>
       <r>    2.5783    0.0000 </r>
       <r>    2.7524    0.0000 </r>
       <r>    2.8449    0.0000 </r>
       <r>    2.9123    0.0000 </r>
       <r>    3.0969    0.0000 </r>
       <r>    3.1147    0.0000 </r>
       <r>    3.1568    0.0000 </r>
       <r>    3.1940    0.0000 </r>
       <r>    3.2811    0.0000 </r>
       <r>    3.4500    0.0000 </r>
       <r>    3.5146    0.0000 </r>
       <r>    3.5712    0.0000 </r>
       <r>    4.2587    0.0000 </r>
       <r>    4.8021    0.0000 </r>
       <r>    4.9365    0.0000 </r>
       <r>    5.5053    0.0000 </r>
       <r>    5.6682    0.0000 </r>
       <r>    5.7926    0.0000 </r>
       <r>    5.8035    0.0000 </r>
       <r>    5.8222    0.0000 </r>
       <r>    5.8819    0.0000 </r>
       <r>    5.9709    0.0000 </r>
       <r>    6.0025    0.0000 </r>
       <r>    6.0328    0.0000 </r>
       <r>    6.1316    0.0000 </r>
       <r>    6.1377    0.0000 </r>
       <r>    6.1984    0.0000 </r>
       <r>    6.2565    0.0000 </r>
       <r>    6.2895    0.0000 </r>
       <r>    6.3911    0.0000 </r>
       <r>    6.3943    0.0000 </r>
       <r>    6.4301    0.0000 </r>
       <r>    6.5237    0.0000 </r>
       <r>    6.5708    0.0000 </r>
       <r>    6.6131    0.0000 </r>
       <r>    6.6702    0.0000 </r>
      </set>
      <set comment="kpoint 2">
       <r>  -20.8706    1.0000 </r>
       <r>  -20.8321    1.0000 </r>
       <r>  -20.8089    1.0000 </r>
       <r>  -20.7506    1.0000 </r>
       <r>  -20.7352    1.0000 </r>
       <r>  -20.7314    1.0000 </r>
       <r>  -20.7248    1.0000 </r>
       <r>  -20.7013    1.0000 </r>
       <r>  -16.6961    1.0000 </r>
       <r>  -16.6791    1.0000 </r>
       <r>  -16.6569    1.0000 </r>
       <r>  -16.6370    1.0000 </r>
       <r>  -16.6202    1.0000 </r>
       <r>  -16.6016    1.0000 </r>
       <r>  -16.5787    1.0000 </r>
       <r>  -16.5782    1.0000 </r>
       <r>  -16.5665    1.0000 </r>
       <r>  -16.5640    1.0000 </r>
       <r>  -16.5560    1.0000 </r>
       <r>  -16.5378    1.0000 </r>
       <r>  -16.5340    1.0000 </r>
       <r>  -16.5189    1.0000 </r>
       <r>  -16.4501    1.0000 </r>
       <r>  -16.4308    1.0000 </r>
       <r>  -16.4252    1.0000 </r>
       <r>  -16.4198    1.0000 </r>
       <r>  -16.4158    1.0000 </r>
       <r>  -16.3996    1.0000 </r>
       <r>  -16.3940    1.0000 </r>
       <r>  -16.3806    1.0000 </r>
       <r>  -16.3648    1.0000 </r>
       <r>  -16.3610    1.0000 </r>
       <r>  -16.3479    1.0000 </r>
       <r>  -16.3148    1.0000 </r>
       <r>  -16.3067    1.0000 </r>
       <r>  -16.3054    1.0000 </r>
       <r>  -16.2925    1.0000 </r>
       <r>  -16.2886    1.0000 </r>
       <r>  -16.2847    1.0000 </r>
       <r>  -16.2793    1.0000 </r>
       <r>  -16.2758    1.0000 </r>
       <r>  -16.2715    1.0000 </r>
       <r>  -16.2711    1.0000 </r>
       <r>  -16.2690    1.0000 </r>
       <r>  -16.2623    1.0000 </r>
       <r>  -16.2600    1.0000 </r>
       <r>  -16.2550    1.0000 </r>
       <r>  -16.2477    1.0000 </r>
       <r>  -14.4844    1.0000 </r>
       <r>  -14.4142    1.0000 </r>
       <r>  -14.2935    1.0000 </r>
       <r>  -14.2217    1.0000 </r>
       <r>  -14.1908    1.0000 </r>
       <r>  -14.1310    1.0000 </r>
       <r>  -14.1255    1.0000 </r>
       <r>  -14.0720    1.0000 </r>
       <r>  -14.0519    1.0000 </r>
       <r>  -14.0431    1.0000 </r>
       <r>  -14.0383    1.0000 </r>
       <r>  -14.0206    1.0000 </r>
       <r>  -14.0055    1.0000 </r>
       <r>  -14.0022    1.0000 </r>
       <r>  -13.9767    1.0000 </r>
       <r>  -13.9694    1.0000 </r>
       <r>  -13.9029    1.0000 </r>
       <r>  -13.8608    1.0000 </r>
       <r>  -13.8479    1.0000 </r>
       <r>  -13.8172    1.0000 </r>
       <r>  -13.7927    1.0000 </r>
       <r>  -13.7557    1.0000 </r>
       <r>  -13.7395    1.0000 </r>
       <r>   -8.0474    1.0000 </r>
       <r>   -7.9728    1.0000 </r>
       <r>   -7.6408    1.0000 </r>
       <r>   -7.5114    1.0000 </r>
       <r>   -7.4771    1.0000 </r>
       <r>   -7.4237    1.0000 </r>
       <r>   -7.3061    1.0000 </r>
       <r>   -7.2627    1.0000 </r>
       <r>   -7.2471    1.0000 </r>
       <r>   -7.2390    1.0000 </r>
       <r>   -7.2352    1.0000 </r>
       <r>   -7.2256    1.0000 </r>
       <r>   -7.2135    1.0000 </r>
       <r>   -7.1988    1.0000 </r>
       <r>   -7.1897    1.0000 </r>
       <r>   -7.1815    1.0000 </r>
       <r>   -7.1698    1.0000 </r>
       <r>   -7.1632    1.0000 </r>
       <r>   -7.1497    1.0000 </r>
       <r>   -7.1446    1.0000 </r>
       <r>   -7.1406    1.0000 </r>
       <r>   -7.1357    1.0000 </r>
       <r>   -7.1341    1.0000 </r>
       <r>   -7.1192    1.0000 </r>
       <r>   -7.1162    1.0000 </r>
       <r>   -7.1130    1.0000 </r>
       <r>   -7.1112    1.0000 </r>
       <r>   -7.1054    1.0000 </r>
       <r>   -7.0973    1.0000 </r>
       <r>   -7.0816    1.0000 </r>
       <r>   -6.9342    1.0000 </r>
       <r>   -6.8532    1.0000 </r>
       <r>   -3.3774    1.0000 </r>
       <r>   -3.2568    1.0000 </r>
       <r>   -3.2514    1.0000 </r>
       <r>   -3.2387    1.0000 </r>
       <r>   -3.2229    1.0000 </r>
       <r>   -3.1325    1.0000 </r>
       <r>   -3.1094    1.0000 </r>
       <r>   -3.0095    1.0000 </r>
       <r>   -2.9237    1.0000 </r>
       <r>   -2.5549    1.0000 </r>
       <r>   -2.5284    1.0000 </r>
       <r>   -2.4792    1.0000 </r>
       <r>   -2.4277    1.0000 </r>
       <r>   -2.3823    1.0000 </r>
       <r>   -2.3472    1.0000 </r>
       <r>   -2.1462    1.0000 </r>
       <r>   -2.1084    1.0000 </r>
       <r>   -2.0799    1.0000 </r>
       <r>   -2.0401    1.0000 </r>
       <r>   -2.0056    1.0000 </r>
       <r>   -1.9770    1.0000 </r>
       <r>   -1.9116    1.0000 </r>
       <r>   -1.8625    1.0000 </r>
       <r>   -1.8402    1.0000 </r>
       <r>   -1.8034    1.0000 </r>
       <r>   -1.7380    1.0000 </r>
       <r>   -1.7270    1.0000 </r>
       <r>   -1.6601    1.0000 </r>
       <r>   -1.6366    1.0000 </r>
       <r>   -1.5805    1.0000 </r>
       <r>   -1.5486    1.0000 </r>
       <r>   -1.5237    1.0000 </r>
       <r>   -1.4978    1.0000 </r>
       <r>   -1.4762    1.0000 </r>
       <r>   -1.4697    1.0000 </r>
       <r>   -1.4654    1.0000 </r>
       <r>   -1.4467    1.0000 </r>
       <r>   -1.4345    1.0000 </r>
       <r>   -1.4228    1.0000 </r>
       <r>   -1.4042    1.0000 </r>
       <r>   -1.4023    1.0000 </r>
       <r>   -1.3825    1.0000 </r>
       <r>   -1.3754    1.0000 </r>
       <r>   -1.3646    1.0000 </r>
       <r>   -1.3534    1.0000 </r>
       <r>   -1.3382    1.0000 </r>
       <r>   -1.3066    1.0000 </r>
       <r>   -1.2865    1.0000 </r>
       <r>   -1.2738    1.0000 </r>
       <r>   -1.2610    1.0000 </r>
       <r>   -1.2419    1.0000 </r>
       <r>   -1.2117    1.0000 </r>
       <r>   -1.1962    1.0000 </r>
       <r>   -1.1731    1.0000 </r>
       <r>   -1.1652    1.0000 </r>
       <r>   -1.1394    1.0000 </r>
       <r>   -1.1036    1.0000 </r>
       <r>   -1.0939    1.0000 </r>
       <r>   -1.0698    1.0000 </r>
       <r>   -1.0474    1.0000 </r>
       <r>   -0.9860    1.0000 </r>
       <r>   -0.8824    1.0000 </r>
       <r>   -0.8659    1.0000 </r>
       <r>   -0.7137    1.0000 </r>
       <r>   -0.6230    1.0000 </r>
       <r>   -0.5368    1.0000 </r>
       <r>   -0.4604    1.0000 </r>
       <r>   -0.0729    1.0000 </r>
       <r>    0.0587    1.0000 </r>
       <r>    2.4852    0.0000 </r>
       <r>    2.9265    0.0000 </r>
       <r>    2.9342    0.0000 </r>
       <r>    2.9720    0.0000 </r>
       <r>    3.1803    0.0000 </r>
       <r>    3.2856    0.0000 </r>
       <r>    3.2939    0.0000 </r>
       <r>    3.3685    0.0000 </r>
       <r>    3.4656    0.0000 </r>
       <r>    3.9807    0.0000 </r>
       <r>    4.3158    0.0000 </r>
       <r>    4.3867    0.0000 </r>
       <r>    4.5542    0.0000 </r>
       <r>    4.5907    0.0000 </r>
       <r>    4.8155    0.0000 </r>
       <r>    4.8550    0.0000 </r>
       <r>    4.9618    0.0000 </r>
       <r>    5.4743    0.0000 </r>
       <r>    5.6094    0.0000 </r>
       <r>    5.6632    0.0000 </r>
       <r>    5.7080    0.0000 </r>
       <r>    5.8728    0.0000 </r>
       <r>    5.9166    0.0000 </r>
       <r>    6.0137    0.0000 </r>
       <r>    6.0916    0.0000 </r>
       <r>    6.1354    0.0000 </r>
       <r>    6.1450    0.0000 </r>
       <r>    6.1903    0.0000 </r>
       <r>    6.3002    0.0000 </r>
       <r>    6.3289    0.0000 </r>
       <r>    6.3650    0.0000 </r>
       <r>    6.4339    0.0000 </r>
       <r>    6.4746    0.0000 </r>
       <r>    6.4882    0.0000 </r>
       <r>    6.5861    0.0000 </r>
       <r>    6.6292    0.0000 </r>
      </set>
      <set comment="kpoint 3">
       <r>  -20.8706    1.0000 </r>
       <r>  -20.8321    1.0000 </r>
       <r>  -20.8089    1.0000 </r>
       <r>  -20.7507    1.0000 </r>
       <r>  -20.7350    1.0000 </r>
       <r>  -20.7315    1.0000 </r>
       <r>  -20.7247    1.0000 </r>
       <r>  -20.7012    1.0000 </r>
       <r>  -16.6957    1.0000 </r>
       <r>  -16.6793    1.0000 </r>
       <r>  -16.6544    1.0000 </r>
       <r>  -16.6394    1.0000 </r>
       <r>  -16.6203    1.0000 </r>
       <r>  -16.6017    1.0000 </r>
       <r>  -16.5788    1.0000 </r>
       <r>  -16.5781    1.0000 </r>
       <r>  -16.5663    1.0000 </r>
       <r>  -16.5641    1.0000 </r>
       <r>  -16.5560    1.0000 </r>
       <r>  -16.5378    1.0000 </r>
       <r>  -16.5339    1.0000 </r>
       <r>  -16.5189    1.0000 </r>
       <r>  -16.4388    1.0000 </r>
       <r>  -16.4302    1.0000 </r>
       <r>  -16.4252    1.0000 </r>
       <r>  -16.4242    1.0000 </r>
       <r>  -16.4157    1.0000 </r>
       <r>  -16.4060    1.0000 </r>
       <r>  -16.3958    1.0000 </r>
       <r>  -16.3837    1.0000 </r>
       <r>  -16.3662    1.0000 </r>
       <r>  -16.3562    1.0000 </r>
       <r>  -16.3485    1.0000 </r>
       <r>  -16.3148    1.0000 </r>
       <r>  -16.3067    1.0000 </r>
       <r>  -16.3054    1.0000 </r>
       <r>  -16.2925    1.0000 </r>
       <r>  -16.2886    1.0000 </r>
       <r>  -16.2847    1.0000 </r>
       <r>  -16.2793    1.0000 </r>
       <r>  -16.2758    1.0000 </r>
       <r>  -16.2716    1.0000 </r>
       <r>  -16.2710    1.0000 </r>
       <r>  -16.2690    1.0000 </r>
       <r>  -16.2623    1.0000 </r>
       <r>  -16.2600    1.0000 </r>
       <r>  -16.2549    1.0000 </r>
       <r>  -16.2477    1.0000 </r>
       <r>  -14.4872    1.0000 </r>
       <r>  -14.4139    1.0000 </r>
       <r>  -14.2926    1.0000 </r>
       <r>  -14.2353    1.0000 </r>
       <r>  -14.1813    1.0000 </r>
       <r>  -14.1329    1.0000 </r>
       <r>  -14.0944    1.0000 </r>
       <r>  -14.0835    1.0000 </r>
       <r>  -14.0607    1.0000 </r>
       <r>  -14.0474    1.0000 </r>
       <r>  -14.0279    1.0000 </r>
       <r>  -14.0137    1.0000 </r>
       <r>  -14.0000    1.0000 </r>
       <r>  -13.9937    1.0000 </r>
       <r>  -13.9907    1.0000 </r>
       <r>  -13.9707    1.0000 </r>
       <r>  -13.9121    1.0000 </r>
       <r>  -13.8681    1.0000 </r>
       <r>  -13.8528    1.0000 </r>
       <r>  -13.8157    1.0000 </r>
       <r>  -13.7907    1.0000 </r>
       <r>  -13.7523    1.0000 </r>
       <r>  -13.7391    1.0000 </r>
       <r>   -8.0461    1.0000 </r>
       <r>   -7.9503    1.0000 </r>
       <r>   -7.6535    1.0000 </r>
       <r>   -7.5175    1.0000 </r>
       <r>   -7.4587    1.0000 </r>
       <r>   -7.4345    1.0000 </r>
       <r>   -7.3089    1.0000 </r>
       <r>   -7.2662    1.0000 </r>
       <r>   -7.2505    1.0000 </r>
       <r>   -7.2346    1.0000 </r>
       <r>   -7.2307    1.0000 </r>
       <r>   -7.2195    1.0000 </r>
       <r>   -7.2137    1.0000 </r>
       <r>   -7.2017    1.0000 </r>
       <r>   -7.1822    1.0000 </r>
       <r>   -7.1774    1.0000 </r>
       <r>   -7.1738    1.0000 </r>
       <r>   -7.1609    1.0000 </r>
       <r>   -7.1552    1.0000 </r>
       <r>   -7.1452    1.0000 </r>
       <r>   -7.1396    1.0000 </r>
       <r>   -7.1277    1.0000 </r>
       <r>   -7.1250    1.0000 </r>
       <r>   -7.1220    1.0000 </r>
       <r>   -7.1187    1.0000 </r>
       <r>   -7.1152    1.0000 </r>
       <r>   -7.1113    1.0000 </r>
       <r>   -7.1055    1.0000 </r>
       <r>   -7.0925    1.0000 </r>
       <r>   -7.0868    1.0000 </r>
       <r>   -6.9714    1.0000 </r>
       <r>   -6.8726    1.0000 </r>
       <r>   -3.3089    1.0000 </r>
       <r>   -3.2546    1.0000 </r>
       <r>   -3.2360    1.0000 </r>
       <r>   -3.1866    1.0000 </r>
       <r>   -3.1591    1.0000 </r>
       <r>   -3.1352    1.0000 </r>
       <r>   -3.1141    1.0000 </r>
       <r>   -3.0446    1.0000 </r>
       <r>   -2.9541    1.0000 </r>
       <r>   -2.5303    1.0000 </r>
       <r>   -2.5033    1.0000 </r>
       <r>   -2.4604    1.0000 </r>
       <r>   -2.4144    1.0000 </r>
       <r>   -2.3962    1.0000 </r>
       <r>   -2.3539    1.0000 </r>
       <r>   -2.1584    1.0000 </r>
       <r>   -2.1196    1.0000 </r>
       <r>   -2.0657    1.0000 </r>
       <r>   -2.0311    1.0000 </r>
       <r>   -1.9982    1.0000 </r>
       <r>   -1.9730    1.0000 </r>
       <r>   -1.9320    1.0000 </r>
       <r>   -1.8733    1.0000 </r>
       <r>   -1.8654    1.0000 </r>
       <r>   -1.7882    1.0000 </r>
       <r>   -1.7750    1.0000 </r>
       <r>   -1.7327    1.0000 </r>
       <r>   -1.6827    1.0000 </r>
       <r>   -1.6396    1.0000 </r>
       <r>   -1.6301    1.0000 </r>
       <r>   -1.5750    1.0000 </r>
       <r>   -1.5409    1.0000 </r>
       <r>   -1.5081    1.0000 </r>
       <r>   -1.4926    1.0000 </r>
       <r>   -1.4744    1.0000 </r>
       <r>   -1.4549    1.0000 </r>
       <r>   -1.4354    1.0000 </r>
       <r>   -1.4153    1.0000 </r>
       <r>   -1.4103    1.0000 </r>
       <r>   -1.3951    1.0000 </r>
       <r>   -1.3886    1.0000 </r>
       <r>   -1.3808    1.0000 </r>
       <r>   -1.3592    1.0000 </r>
       <r>   -1.3490    1.0000 </r>
       <r>   -1.3373    1.0000 </r>
       <r>   -1.3355    1.0000 </r>
       <r>   -1.3165    1.0000 </r>
       <r>   -1.2978    1.0000 </r>
       <r>   -1.2910    1.0000 </r>
       <r>   -1.2492    1.0000 </r>
       <r>   -1.2254    1.0000 </r>
       <r>   -1.2198    1.0000 </r>
       <r>   -1.1820    1.0000 </r>
       <r>   -1.1546    1.0000 </r>
       <r>   -1.1420    1.0000 </r>
       <r>   -1.1214    1.0000 </r>
       <r>   -1.1136    1.0000 </r>
       <r>   -1.0810    1.0000 </r>
       <r>   -1.0733    1.0000 </r>
       <r>   -1.0660    1.0000 </r>
       <r>   -1.0167    1.0000 </r>
       <r>   -0.8810    1.0000 </r>
       <r>   -0.8564    1.0000 </r>
       <r>   -0.7708    1.0000 </r>
       <r>   -0.6333    1.0000 </r>
       <r>   -0.5994    1.0000 </r>
       <r>   -0.5006    1.0000 </r>
       <r>   -0.1036    1.0000 </r>
       <r>    0.0125    1.0000 </r>
       <r>    2.5837    0.0000 </r>
       <r>    2.8678    0.0000 </r>
       <r>    2.9753    0.0000 </r>
       <r>    3.0783    0.0000 </r>
       <r>    3.1654    0.0000 </r>
       <r>    3.2768    0.0000 </r>
       <r>    3.3088    0.0000 </r>
       <r>    3.3419    0.0000 </r>
       <r>    3.5010    0.0000 </r>
       <r>    4.1100    0.0000 </r>
       <r>    4.4341    0.0000 </r>
       <r>    4.4898    0.0000 </r>
       <r>    4.6442    0.0000 </r>
       <r>    4.6555    0.0000 </r>
       <r>    4.6937    0.0000 </r>
       <r>    4.8658    0.0000 </r>
       <r>    4.8940    0.0000 </r>
       <r>    5.3376    0.0000 </r>
       <r>    5.6284    0.0000 </r>
       <r>    5.6612    0.0000 </r>
       <r>    5.7297    0.0000 </r>
       <r>    5.7529    0.0000 </r>
       <r>    5.9048    0.0000 </r>
       <r>    5.9947    0.0000 </r>
       <r>    6.0422    0.0000 </r>
       <r>    6.1111    0.0000 </r>
       <r>    6.2004    0.0000 </r>
       <r>    6.2152    0.0000 </r>
       <r>    6.2731    0.0000 </r>
       <r>    6.3103    0.0000 </r>
       <r>    6.3478    0.0000 </r>
       <r>    6.4544    0.0000 </r>
       <r>    6.5154    0.0000 </r>
       <r>    6.5250    0.0000 </r>
       <r>    6.5857    0.0000 </r>
       <r>    6.6957    0.0000 </r>
      </set>
      <set comment="kpoint 4">
       <r>  -20.8706    1.0000 </r>
       <r>  -20.8320    1.0000 </r>
       <r>  -20.8089    1.0000 </r>
       <r>  -20.7506    1.0000 </r>
       <r>  -20.7350    1.0000 </r>
       <r>  -20.7315    1.0000 </r>
       <r>  -20.7248    1.0000 </r>
       <r>  -20.7013    1.0000 </r>
       <r>  -16.6955    1.0000 </r>
       <r>  -16.6789    1.0000 </r>
       <r>  -16.6545    1.0000 </r>
       <r>  -16.6371    1.0000 </r>
       <r>  -16.6201    1.0000 </r>
       <r>  -16.6019    1.0000 </r>
       <r>  -16.5787    1.0000 </r>
       <r>  -16.5782    1.0000 </r>
       <r>  -16.5664    1.0000 </r>
       <r>  -16.5641    1.0000 </r>
       <r>  -16.5560    1.0000 </r>
       <r>  -16.5378    1.0000 </r>
       <r>  -16.5339    1.0000 </r>
       <r>  -16.5189    1.0000 </r>
       <r>  -16.4354    1.0000 </r>
       <r>  -16.4252    1.0000 </r>
       <r>  -16.4184    1.0000 </r>
       <r>  -16.4182    1.0000 </r>
       <r>  -16.4038    1.0000 </r>
       <r>  -16.4029    1.0000 </r>
       <r>  -16.3956    1.0000 </r>
       <r>  -16.3942    1.0000 </r>
       <r>  -16.3702    1.0000 </r>
       <r>  -16.3685    1.0000 </r>
       <r>  -16.3634    1.0000 </r>
       <r>  -16.3148    1.0000 </r>
       <r>  -16.3067    1.0000 </r>
       <r>  -16.3054    1.0000 </r>
       <r>  -16.2925    1.0000 </r>
       <r>  -16.2886    1.0000 </r>
       <r>  -16.2847    1.0000 </r>
       <r>  -16.2793    1.0000 </r>
       <r>  -16.2758    1.0000 </r>
       <r>  -16.2715    1.0000 </r>
       <r>  -16.2711    1.0000 </r>
       <r>  -16.2691    1.0000 </r>
       <r>  -16.2623    1.0000 </r>
       <r>  -16.2600    1.0000 </r>
       <r>  -16.2549    1.0000 </r>
       <r>  -16.2478    1.0000 </r>
       <r>  -14.4825    1.0000 </r>
       <r>  -14.4087    1.0000 </r>
       <r>  -14.2843    1.0000 </r>
       <r>  -14.2415    1.0000 </r>
       <r>  -14.2043    1.0000 </r>
       <r>  -14.1985    1.0000 </r>
       <r>  -14.1346    1.0000 </r>
       <r>  -14.0900    1.0000 </r>
       <r>  -14.0474    1.0000 </r>
       <r>  -14.0254    1.0000 </r>
       <r>  -14.0086    1.0000 </r>
       <r>  -14.0029    1.0000 </r>
       <r>  -13.9831    1.0000 </r>
       <r>  -13.9721    1.0000 </r>
       <r>  -13.9441    1.0000 </r>
       <r>  -13.8996    1.0000 </r>
       <r>  -13.8902    1.0000 </r>
       <r>  -13.8870    1.0000 </r>
       <r>  -13.8512    1.0000 </r>
       <r>  -13.8214    1.0000 </r>
       <r>  -13.8163    1.0000 </r>
       <r>  -13.7996    1.0000 </r>
       <r>  -13.7595    1.0000 </r>
       <r>   -7.9531    1.0000 </r>
       <r>   -7.8004    1.0000 </r>
       <r>   -7.7246    1.0000 </r>
       <r>   -7.6763    1.0000 </r>
       <r>   -7.3410    1.0000 </r>
       <r>   -7.3209    1.0000 </r>
       <r>   -7.2873    1.0000 </r>
       <r>   -7.2574    1.0000 </r>
       <r>   -7.2501    1.0000 </r>
       <r>   -7.2469    1.0000 </r>
       <r>   -7.2430    1.0000 </r>
       <r>   -7.2284    1.0000 </r>
       <r>   -7.2175    1.0000 </r>
       <r>   -7.2125    1.0000 </r>
       <r>   -7.2070    1.0000 </r>
       <r>   -7.1960    1.0000 </r>
       <r>   -7.1761    1.0000 </r>
       <r>   -7.1721    1.0000 </r>
       <r>   -7.1633    1.0000 </r>
       <r>   -7.1557    1.0000 </r>
       <r>   -7.1431    1.0000 </r>
       <r>   -7.1386    1.0000 </r>
       <r>   -7.1341    1.0000 </r>
       <r>   -7.1332    1.0000 </r>
       <r>   -7.1223    1.0000 </r>
       <r>   -7.1207    1.0000 </r>
       <r>   -7.1158    1.0000 </r>
       <r>   -7.1032    1.0000 </r>
       <r>   -7.0975    1.0000 </r>
       <r>   -7.0898    1.0000 </r>
       <r>   -7.0803    1.0000 </r>
       <r>   -7.0431    1.0000 </r>
       <r>   -3.2385    1.0000 </r>
       <r>   -3.2068    1.0000 </r>
       <r>   -3.1693    1.0000 </r>
       <r>   -3.1575    1.0000 </r>
       <r>   -3.0458    1.0000 </r>
       <r>   -2.9656    1.0000 </r>
       <r>   -2.6988    1.0000 </r>
       <r>   -2.6185    1.0000 </r>
       <r>   -2.5819    1.0000 </r>
       <r>   -2.5655    1.0000 </r>
       <r>   -2.5389    1.0000 </r>
       <r>   -2.4723    1.0000 </r>
       <r>   -2.3941    1.0000 </r>
       <r>   -2.3649    1.0000 </r>
       <r>   -2.3408    1.0000 </r>
       <r>   -2.3169    1.0000 </r>
       <r>   -2.2752    1.0000 </r>
       <r>   -2.2416    1.0000 </r>
       <r>   -2.1457    1.0000 </r>
       <r>   -2.0960    1.0000 </r>
       <r>   -2.0247    1.0000 </r>
       <r>   -1.9929    1.0000 </r>
       <r>   -1.9365    1.0000 </r>
       <r>   -1.8864    1.0000 </r>
       <r>   -1.8190    1.0000 </r>
       <r>   -1.8019    1.0000 </r>
       <r>   -1.7524    1.0000 </r>
       <r>   -1.7480    1.0000 </r>
       <r>   -1.6832    1.0000 </r>
       <r>   -1.6608    1.0000 </r>
       <r>   -1.6275    1.0000 </r>
       <r>   -1.6077    1.0000 </r>
       <r>   -1.6025    1.0000 </r>
       <r>   -1.5699    1.0000 </r>
       <r>   -1.5382    1.0000 </r>
       <r>   -1.5012    1.0000 </r>
       <r>   -1.4508    1.0000 </r>
       <r>   -1.4446    1.0000 </r>
       <r>   -1.4283    1.0000 </r>
       <r>   -1.4028    1.0000 </r>
       <r>   -1.3870    1.0000 </r>
       <r>   -1.3815    1.0000 </r>
       <r>   -1.3580    1.0000 </r>
       <r>   -1.3420    1.0000 </r>
       <r>   -1.3218    1.0000 </r>
       <r>   -1.3097    1.0000 </r>
       <r>   -1.2939    1.0000 </r>
       <r>   -1.2775    1.0000 </r>
       <r>   -1.2607    1.0000 </r>
       <r>   -1.2412    1.0000 </r>
       <r>   -1.2190    1.0000 </r>
       <r>   -1.1952    1.0000 </r>
       <r>   -1.1624    1.0000 </r>
       <r>   -1.1448    1.0000 </r>
       <r>   -1.1402    1.0000 </r>
       <r>   -1.1329    1.0000 </r>
       <r>   -1.1149    1.0000 </r>
       <r>   -1.0893    1.0000 </r>
       <r>   -1.0836    1.0000 </r>
       <r>   -1.0669    1.0000 </r>
       <r>   -0.9824    1.0000 </r>
       <r>   -0.9257    1.0000 </r>
       <r>   -0.9016    1.0000 </r>
       <r>   -0.8530    1.0000 </r>
       <r>   -0.8172    1.0000 </r>
       <r>   -0.5249    1.0000 </r>
       <r>   -0.4945    1.0000 </r>
       <r>   -0.4658    1.0000 </r>
       <r>   -0.2844    1.0000 </r>
       <r>    2.5905    0.0000 </r>
       <r>    3.0476    0.0000 </r>
       <r>    3.0798    0.0000 </r>
       <r>    3.1870    0.0000 </r>
       <r>    3.2108    0.0000 </r>
       <r>    3.3573    0.0000 </r>
       <r>    4.0998    0.0000 </r>
       <r>    4.2717    0.0000 </r>
       <r>    4.3374    0.0000 </r>
       <r>    4.3868    0.0000 </r>
       <r>    4.4445    0.0000 </r>
       <r>    4.5194    0.0000 </r>
       <r>    4.5685    0.0000 </r>
       <r>    4.6217    0.0000 </r>
       <r>    4.7153    0.0000 </r>
       <r>    4.7560    0.0000 </r>
       <r>    4.8161    0.0000 </r>
       <r>    4.8467    0.0000 </r>
       <r>    4.9224    0.0000 </r>
       <r>    4.9656    0.0000 </r>
       <r>    5.7044    0.0000 </r>
       <r>    5.7437    0.0000 </r>
       <r>    5.7849    0.0000 </r>
       <r>    5.8517    0.0000 </r>
       <r>    5.9571    0.0000 </r>
       <r>    5.9953    0.0000 </r>
       <r>    6.0205    0.0000 </r>
       <r>    6.0794    0.0000 </r>
       <r>    6.2291    0.0000 </r>
       <r>    6.2757    0.0000 </r>
       <r>    6.2851    0.0000 </r>
       <r>    6.3653    0.0000 </r>
       <r>    6.4073    0.0000 </r>
       <r>    6.5017    0.0000 </r>
       <r>    6.5200    0.0000 </r>
       <r>    6.5935    0.0000 </r>
      </set>
      <set comment="kpoint 5">
       <r>  -20.8706    1.0000 </r>
       <r>  -20.8321    1.0000 </r>
       <r>  -20.8089    1.0000 </r>
       <r>  -20.7506    1.0000 </r>
       <r>  -20.7352    1.0000 </r>
       <r>  -20.7314    1.0000 </r>
       <r>  -20.7247    1.0000 </r>
       <r>  -20.7013    1.0000 </r>
       <r>  -16.6958    1.0000 </r>
       <r>  -16.6788    1.0000 </r>
       <r>  -16.6549    1.0000 </r>
       <r>  -16.6370    1.0000 </r>
       <r>  -16.6203    1.0000 </r>
       <r>  -16.5990    1.0000 </r>
       <r>  -16.5788    1.0000 </r>
       <r>  -16.5781    1.0000 </r>
       <r>  -16.5664    1.0000 </r>
       <r>  -16.5640    1.0000 </r>
       <r>  -16.5560    1.0000 </r>
       <r>  -16.5378    1.0000 </r>
       <r>  -16.5339    1.0000 </r>
       <r>  -16.5189    1.0000 </r>
       <r>  -16.4543    1.0000 </r>
       <r>  -16.4281    1.0000 </r>
       <r>  -16.4252    1.0000 </r>
       <r>  -16.4180    1.0000 </r>
       <r>  -16.4175    1.0000 </r>
       <r>  -16.4116    1.0000 </r>
       <r>  -16.4066    1.0000 </r>
       <r>  -16.3734    1.0000 </r>
       <r>  -16.3665    1.0000 </r>
       <r>  -16.3543    1.0000 </r>
       <r>  -16.3395    1.0000 </r>
       <r>  -16.3149    1.0000 </r>
       <r>  -16.3067    1.0000 </r>
       <r>  -16.3054    1.0000 </r>
       <r>  -16.2925    1.0000 </r>
       <r>  -16.2886    1.0000 </r>
       <r>  -16.2847    1.0000 </r>
       <r>  -16.2793    1.0000 </r>
       <r>  -16.2758    1.0000 </r>
       <r>  -16.2716    1.0000 </r>
       <r>  -16.2710    1.0000 </r>
       <r>  -16.2690    1.0000 </r>
       <r>  -16.2622    1.0000 </r>
       <r>  -16.2600    1.0000 </r>
       <r>  -16.2549    1.0000 </r>
       <r>  -16.2477    1.0000 </r>
       <r>  -14.4912    1.0000 </r>
       <r>  -14.3955    1.0000 </r>
       <r>  -14.3278    1.0000 </r>
       <r>  -14.1864    1.0000 </r>
       <r>  -14.1564    1.0000 </r>
       <r>  -14.1534    1.0000 </r>
       <r>  -14.1307    1.0000 </r>
       <r>  -14.1160    1.0000 </r>
       <r>  -14.0813    1.0000 </r>
       <r>  -14.0442    1.0000 </r>
       <r>  -14.0190    1.0000 </r>
       <r>  -14.0072    1.0000 </r>
       <r>  -14.0038    1.0000 </r>
       <r>  -13.9918    1.0000 </r>
       <r>  -13.9774    1.0000 </r>
       <r>  -13.9695    1.0000 </r>
       <r>  -13.8621    1.0000 </r>
       <r>  -13.8472    1.0000 </r>
       <r>  -13.8431    1.0000 </r>
       <r>  -13.8241    1.0000 </r>
       <r>  -13.8040    1.0000 </r>
       <r>  -13.7916    1.0000 </r>
       <r>  -13.7333    1.0000 </r>
       <r>   -7.9961    1.0000 </r>
       <r>   -7.9825    1.0000 </r>
       <r>   -7.6153    1.0000 </r>
       <r>   -7.5839    1.0000 </r>
       <r>   -7.4617    1.0000 </r>
       <r>   -7.4278    1.0000 </r>
       <r>   -7.3079    1.0000 </r>
       <r>   -7.2590    1.0000 </r>
       <r>   -7.2464    1.0000 </r>
       <r>   -7.2436    1.0000 </r>
       <r>   -7.2347    1.0000 </r>
       <r>   -7.2194    1.0000 </r>
       <r>   -7.2134    1.0000 </r>
       <r>   -7.1982    1.0000 </r>
       <r>   -7.1877    1.0000 </r>
       <r>   -7.1823    1.0000 </r>
       <r>   -7.1760    1.0000 </r>
       <r>   -7.1606    1.0000 </r>
       <r>   -7.1584    1.0000 </r>
       <r>   -7.1469    1.0000 </r>
       <r>   -7.1419    1.0000 </r>
       <r>   -7.1386    1.0000 </r>
       <r>   -7.1300    1.0000 </r>
       <r>   -7.1275    1.0000 </r>
       <r>   -7.1195    1.0000 </r>
       <r>   -7.1129    1.0000 </r>
       <r>   -7.1083    1.0000 </r>
       <r>   -7.1042    1.0000 </r>
       <r>   -7.0948    1.0000 </r>
       <r>   -7.0717    1.0000 </r>
       <r>   -7.0116    1.0000 </r>
       <r>   -6.8112    1.0000 </r>
       <r>   -3.3884    1.0000 </r>
       <r>   -3.2923    1.0000 </r>
       <r>   -3.2639    1.0000 </r>
       <r>   -3.2004    1.0000 </r>
       <r>   -3.1869    1.0000 </r>
       <r>   -3.1151    1.0000 </r>
       <r>   -3.0472    1.0000 </r>
       <r>   -2.9632    1.0000 </r>
       <r>   -2.5749    1.0000 </r>
       <r>   -2.5461    1.0000 </r>
       <r>   -2.5108    1.0000 </r>
       <r>   -2.5022    1.0000 </r>
       <r>   -2.4359    1.0000 </r>
       <r>   -2.3965    1.0000 </r>
       <r>   -2.3662    1.0000 </r>
       <r>   -2.3025    1.0000 </r>
       <r>   -2.1676    1.0000 </r>
       <r>   -2.0942    1.0000 </r>
       <r>   -2.0691    1.0000 </r>
       <r>   -2.0180    1.0000 </r>
       <r>   -2.0030    1.0000 </r>
       <r>   -1.9096    1.0000 </r>
       <r>   -1.8600    1.0000 </r>
       <r>   -1.8429    1.0000 </r>
       <r>   -1.8249    1.0000 </r>
       <r>   -1.8221    1.0000 </r>
       <r>   -1.7336    1.0000 </r>
       <r>   -1.6692    1.0000 </r>
       <r>   -1.6318    1.0000 </r>
       <r>   -1.6082    1.0000 </r>
       <r>   -1.5799    1.0000 </r>
       <r>   -1.5539    1.0000 </r>
       <r>   -1.5317    1.0000 </r>
       <r>   -1.4969    1.0000 </r>
       <r>   -1.4846    1.0000 </r>
       <r>   -1.4622    1.0000 </r>
       <r>   -1.4303    1.0000 </r>
       <r>   -1.4119    1.0000 </r>
       <r>   -1.3944    1.0000 </r>
       <r>   -1.3892    1.0000 </r>
       <r>   -1.3803    1.0000 </r>
       <r>   -1.3669    1.0000 </r>
       <r>   -1.3451    1.0000 </r>
       <r>   -1.3339    1.0000 </r>
       <r>   -1.3313    1.0000 </r>
       <r>   -1.3073    1.0000 </r>
       <r>   -1.2978    1.0000 </r>
       <r>   -1.2835    1.0000 </r>
       <r>   -1.2788    1.0000 </r>
       <r>   -1.2581    1.0000 </r>
       <r>   -1.2515    1.0000 </r>
       <r>   -1.2150    1.0000 </r>
       <r>   -1.2059    1.0000 </r>
       <r>   -1.1812    1.0000 </r>
       <r>   -1.1627    1.0000 </r>
       <r>   -1.1494    1.0000 </r>
       <r>   -1.1045    1.0000 </r>
       <r>   -1.0780    1.0000 </r>
       <r>   -1.0578    1.0000 </r>
       <r>   -1.0176    1.0000 </r>
       <r>   -1.0112    1.0000 </r>
       <r>   -0.9340    1.0000 </r>
       <r>   -0.8856    1.0000 </r>
       <r>   -0.7901    1.0000 </r>
       <r>   -0.6640    1.0000 </r>
       <r>   -0.5317    1.0000 </r>
       <r>   -0.4604    1.0000 </r>
       <r>   -0.2458    1.0000 </r>
       <r>    0.0750    1.0000 </r>
       <r>    2.6754    0.0000 </r>
       <r>    2.9592    0.0000 </r>
       <r>    2.9697    0.0000 </r>
       <r>    2.9858    0.0000 </r>
       <r>    3.1078    0.0000 </r>
       <r>    3.3134    0.0000 </r>
       <r>    3.3516    0.0000 </r>
       <r>    3.4216    0.0000 </r>
       <r>    4.1471    0.0000 </r>
       <r>    4.1933    0.0000 </r>
       <r>    4.2999    0.0000 </r>
       <r>    4.4724    0.0000 </r>
       <r>    4.5373    0.0000 </r>
       <r>    4.5895    0.0000 </r>
       <r>    4.6208    0.0000 </r>
       <r>    4.7586    0.0000 </r>
       <r>    4.8693    0.0000 </r>
       <r>    4.9406    0.0000 </r>
       <r>    5.3224    0.0000 </r>
       <r>    5.5715    0.0000 </r>
       <r>    5.6878    0.0000 </r>
       <r>    5.8252    0.0000 </r>
       <r>    5.9227    0.0000 </r>
       <r>    5.9505    0.0000 </r>
       <r>    6.0657    0.0000 </r>
       <r>    6.0906    0.0000 </r>
       <r>    6.1281    0.0000 </r>
       <r>    6.1916    0.0000 </r>
       <r>    6.2255    0.0000 </r>
       <r>    6.3498    0.0000 </r>
       <r>    6.4045    0.0000 </r>
       <r>    6.4228    0.0000 </r>
       <r>    6.5356    0.0000 </r>
       <r>    6.5697    0.0000 </r>
       <r>    6.5954    0.0000 </r>
       <r>    6.6767    0.0000 </r>
      </set>
      <set comment="kpoint 6">
       <r>  -20.8706    1.0000 </r>
       <r>  -20.8320    1.0000 </r>
       <r>  -20.8089    1.0000 </r>
       <r>  -20.7506    1.0000 </r>
       <r>  -20.7352    1.0000 </r>
       <r>  -20.7314    1.0000 </r>
       <r>  -20.7247    1.0000 </r>
       <r>  -20.7013    1.0000 </r>
       <r>  -16.6956    1.0000 </r>
       <r>  -16.6783    1.0000 </r>
       <r>  -16.6549    1.0000 </r>
       <r>  -16.6348    1.0000 </r>
       <r>  -16.6200    1.0000 </r>
       <r>  -16.5992    1.0000 </r>
       <r>  -16.5787    1.0000 </r>
       <r>  -16.5782    1.0000 </r>
       <r>  -16.5664    1.0000 </r>
       <r>  -16.5640    1.0000 </r>
       <r>  -16.5560    1.0000 </r>
       <r>  -16.5378    1.0000 </r>
       <r>  -16.5339    1.0000 </r>
       <r>  -16.5189    1.0000 </r>
       <r>  -16.4486    1.0000 </r>
       <r>  -16.4253    1.0000 </r>
       <r>  -16.4203    1.0000 </r>
       <r>  -16.4175    1.0000 </r>
       <r>  -16.4150    1.0000 </r>
       <r>  -16.4027    1.0000 </r>
       <r>  -16.3965    1.0000 </r>
       <r>  -16.3881    1.0000 </r>
       <r>  -16.3702    1.0000 </r>
       <r>  -16.3670    1.0000 </r>
       <r>  -16.3491    1.0000 </r>
       <r>  -16.3148    1.0000 </r>
       <r>  -16.3067    1.0000 </r>
       <r>  -16.3054    1.0000 </r>
       <r>  -16.2925    1.0000 </r>
       <r>  -16.2886    1.0000 </r>
       <r>  -16.2847    1.0000 </r>
       <r>  -16.2793    1.0000 </r>
       <r>  -16.2758    1.0000 </r>
       <r>  -16.2715    1.0000 </r>
       <r>  -16.2711    1.0000 </r>
       <r>  -16.2691    1.0000 </r>
       <r>  -16.2623    1.0000 </r>
       <r>  -16.2600    1.0000 </r>
       <r>  -16.2549    1.0000 </r>
       <r>  -16.2478    1.0000 </r>
       <r>  -14.4811    1.0000 </r>
       <r>  -14.4070    1.0000 </r>
       <r>  -14.2969    1.0000 </r>
       <r>  -14.2470    1.0000 </r>
       <r>  -14.2061    1.0000 </r>
       <r>  -14.1478    1.0000 </r>
       <r>  -14.1278    1.0000 </r>
       <r>  -14.1080    1.0000 </r>
       <r>  -14.0894    1.0000 </r>
       <r>  -14.0482    1.0000 </r>
       <r>  -14.0441    1.0000 </r>
       <r>  -14.0047    1.0000 </r>
       <r>  -13.9915    1.0000 </r>
       <r>  -13.9219    1.0000 </r>
       <r>  -13.8977    1.0000 </r>
       <r>  -13.8788    1.0000 </r>
       <r>  -13.8782    1.0000 </r>
       <r>  -13.8678    1.0000 </r>
       <r>  -13.8540    1.0000 </r>
       <r>  -13.8318    1.0000 </r>
       <r>  -13.8267    1.0000 </r>
       <r>  -13.8169    1.0000 </r>
       <r>  -13.7795    1.0000 </r>
       <r>   -7.8954    1.0000 </r>
       <r>   -7.7766    1.0000 </r>
       <r>   -7.7496    1.0000 </r>
       <r>   -7.7116    1.0000 </r>
       <r>   -7.4665    1.0000 </r>
       <r>   -7.3215    1.0000 </r>
       <r>   -7.2808    1.0000 </r>
       <r>   -7.2614    1.0000 </r>
       <r>   -7.2456    1.0000 </r>
       <r>   -7.2381    1.0000 </r>
       <r>   -7.2310    1.0000 </r>
       <r>   -7.2272    1.0000 </r>
       <r>   -7.2161    1.0000 </r>
       <r>   -7.2044    1.0000 </r>
       <r>   -7.1967    1.0000 </r>
       <r>   -7.1895    1.0000 </r>
       <r>   -7.1791    1.0000 </r>
       <r>   -7.1648    1.0000 </r>
       <r>   -7.1566    1.0000 </r>
       <r>   -7.1543    1.0000 </r>
[...]
        <r>  0.0003  0.0015  0.0010 </r>
        <r>  0.0009  0.0060  0.0004 </r>
        <r>  0.0015  0.0015  0.0013 </r>
        <r>  0.0002  0.0019  0.0005 </r>
        <r>  0.0001  0.0007  0.0005 </r>
        <r>  0.0021  0.0015  0.0018 </r>
        <r>  0.0001  0.0028  0.0003 </r>
        <r>  0.0001  0.0024  0.0010 </r>
        <r>  0.0000  0.0003  0.0014 </r>
       </set>
       <set comment="band 199">
        <r>  0.0122  0.0024  0.0173 </r>
        <r>  0.0000  0.0002  0.0124 </r>
        <r>  0.0006  0.0001  0.0040 </r>
        <r>  0.0010  0.0001  0.0069 </r>
        <r>  0.0005  0.0017  0.0076 </r>
        <r>  0.0029  0.0005  0.0072 </r>
        <r>  0.0000  0.0001  0.0003 </r>
        <r>  0.0000  0.0007  0.0031 </r>
        <r>  0.0000  0.0010  0.0002 </r>
        <r>  0.0000  0.0014  0.0002 </r>
        <r>  0.0000  0.0046  0.0001 </r>
        <r>  0.0000  0.0086  0.0002 </r>
        <r>  0.0000  0.0029  0.0001 </r>
        <r>  0.0001  0.0061  0.0002 </r>
        <r>  0.0000  0.0030  0.0002 </r>
        <r>  0.0002  0.0072  0.0007 </r>
        <r>  0.0002  0.0004  0.0004 </r>
        <r>  0.0000  0.0038  0.0006 </r>
        <r>  0.0009  0.0008  0.0005 </r>
        <r>  0.0013  0.0049  0.0040 </r>
        <r>  0.0000  0.0009  0.0002 </r>
        <r>  0.0002  0.0020  0.0017 </r>
        <r>  0.0018  0.0046  0.0035 </r>
        <r>  0.0002  0.0013  0.0007 </r>
        <r>  0.0003  0.0026  0.0004 </r>
        <r>  0.0001  0.0030  0.0005 </r>
        <r>  0.0000  0.0013  0.0002 </r>
        <r>  0.0012  0.0031  0.0014 </r>
        <r>  0.0000  0.0010  0.0004 </r>
        <r>  0.0008  0.0028  0.0006 </r>
        <r>  0.0009  0.0009  0.0011 </r>
        <r>  0.0001  0.0002  0.0003 </r>
        <r>  0.0001  0.0008  0.0012 </r>
        <r>  0.0003  0.0026  0.0003 </r>
        <r>  0.0000  0.0037  0.0004 </r>
        <r>  0.0027  0.0015  0.0015 </r>
        <r>  0.0000  0.0013  0.0007 </r>
        <r>  0.0023  0.0032  0.0025 </r>
        <r>  0.0002  0.0018  0.0006 </r>
       </set>
       <set comment="band 200">
        <r>  0.0020  0.0003  0.0072 </r>
        <r>  0.0038  0.0008  0.0085 </r>
        <r>  0.0049  0.0007  0.0076 </r>
        <r>  0.0028  0.0007  0.0025 </r>
        <r>  0.0042  0.0008  0.0112 </r>
        <r>  0.0040  0.0010  0.0096 </r>
        <r>  0.0000  0.0008  0.0064 </r>
        <r>  0.0001  0.0005  0.0013 </r>
        <r>  0.0000  0.0013  0.0002 </r>
        <r>  0.0000  0.0004  0.0002 </r>
        <r>  0.0000  0.0071  0.0001 </r>
        <r>  0.0000  0.0013  0.0001 </r>
        <r>  0.0000  0.0001  0.0003 </r>
        <r>  0.0003  0.0049  0.0004 </r>
        <r>  0.0000  0.0041  0.0001 </r>
        <r>  0.0000  0.0238  0.0002 </r>
        <r>  0.0005  0.0042  0.0009 </r>
        <r>  0.0005  0.0003  0.0009 </r>
        <r>  0.0000  0.0050  0.0012 </r>
        <r>  0.0000  0.0016  0.0005 </r>
        <r>  0.0000  0.0018  0.0001 </r>
        <r>  0.0023  0.0023  0.0018 </r>
        <r>  0.0001  0.0023  0.0028 </r>
        <r>  0.0013  0.0026  0.0011 </r>
        <r>  0.0010  0.0053  0.0021 </r>
        <r>  0.0012  0.0032  0.0008 </r>
        <r>  0.0004  0.0019  0.0010 </r>
        <r>  0.0001  0.0008  0.0010 </r>
        <r>  0.0005  0.0025  0.0010 </r>
        <r>  0.0001  0.0002  0.0009 </r>
        <r>  0.0002  0.0007  0.0001 </r>
        <r>  0.0005  0.0005  0.0008 </r>
        <r>  0.0002  0.0023  0.0006 </r>
        <r>  0.0000  0.0008  0.0013 </r>
        <r>  0.0022  0.0035  0.0013 </r>
        <r>  0.0012  0.0048  0.0008 </r>
        <r>  0.0016  0.0047  0.0020 </r>
        <r>  0.0001  0.0011  0.0002 </r>
        <r>  0.0002  0.0006  0.0002 </r>
       </set>
       <set comment="band 201">
        <r>  0.0000  0.0005  0.0044 </r>
        <r>  0.0049  0.0001  0.0016 </r>
        <r>  0.0011  0.0011  0.0134 </r>
        <r>  0.0024  0.0010  0.0084 </r>
        <r>  0.0027  0.0004  0.0081 </r>
        <r>  0.0007  0.0003  0.0045 </r>
        <r>  0.0041  0.0006  0.0107 </r>
        <r>  0.0046  0.0012  0.0114 </r>
        <r>  0.0001  0.0039  0.0005 </r>
        <r>  0.0000  0.0079  0.0008 </r>
        <r>  0.0000  0.0005  0.0001 </r>
        <r>  0.0000  0.0017  0.0002 </r>
        <r>  0.0000  0.0113  0.0002 </r>
        <r>  0.0000  0.0042  0.0003 </r>
        <r>  0.0000  0.0049  0.0002 </r>
        <r>  0.0000  0.0006  0.0004 </r>
        <r>  0.0045  0.0006  0.0037 </r>
        <r>  0.0001  0.0011  0.0013 </r>
        <r>  0.0013  0.0009  0.0012 </r>
        <r>  0.0003  0.0005  0.0015 </r>
        <r>  0.0000  0.0095  0.0007 </r>
        <r>  0.0001  0.0045  0.0008 </r>
        <r>  0.0005  0.0009  0.0009 </r>
        <r>  0.0019  0.0001  0.0026 </r>
        <r>  0.0001  0.0052  0.0006 </r>
        <r>  0.0001  0.0013  0.0011 </r>
        <r>  0.0001  0.0026  0.0014 </r>
        <r>  0.0001  0.0005  0.0004 </r>
        <r>  0.0008  0.0001  0.0013 </r>
        <r>  0.0001  0.0002  0.0018 </r>
        <r>  0.0001  0.0034  0.0002 </r>
        <r>  0.0005  0.0007  0.0004 </r>
        <r>  0.0003  0.0049  0.0014 </r>
        <r>  0.0008  0.0008  0.0010 </r>
        <r>  0.0000  0.0048  0.0015 </r>
        <r>  0.0000  0.0005  0.0006 </r>
        <r>  0.0000  0.0028  0.0004 </r>
        <r>  0.0000  0.0023  0.0001 </r>
        <r>  0.0001  0.0015  0.0020 </r>
       </set>
       <set comment="band 202">
        <r>  0.0003  0.0005  0.0064 </r>
        <r>  0.0054  0.0007  0.0048 </r>
        <r>  0.0020  0.0007  0.0086 </r>
        <r>  0.0001  0.0008  0.0029 </r>
        <r>  0.0085  0.0003  0.0096 </r>
        <r>  0.0017  0.0011  0.0063 </r>
        <r>  0.0079  0.0001  0.0112 </r>
        <r>  0.0002  0.0004  0.0048 </r>
        <r>  0.0000  0.0074  0.0002 </r>
        <r>  0.0000  0.0066  0.0005 </r>
        <r>  0.0000  0.0047  0.0001 </r>
        <r>  0.0000  0.0019  0.0003 </r>
        <r>  0.0000  0.0095  0.0000 </r>
        <r>  0.0000  0.0068  0.0002 </r>
        <r>  0.0000  0.0025  0.0003 </r>
        <r>  0.0000  0.0034  0.0003 </r>
        <r>  0.0013  0.0011  0.0011 </r>
        <r>  0.0000  0.0025  0.0007 </r>
        <r>  0.0027  0.0021  0.0025 </r>
        <r>  0.0005  0.0003  0.0018 </r>
        <r>  0.0005  0.0052  0.0004 </r>
        <r>  0.0002  0.0031  0.0011 </r>
        <r>  0.0011  0.0021  0.0018 </r>
        <r>  0.0010  0.0071  0.0015 </r>
        <r>  0.0001  0.0005  0.0007 </r>
        <r>  0.0016  0.0010  0.0010 </r>
        <r>  0.0005  0.0006  0.0025 </r>
        <r>  0.0000  0.0002  0.0001 </r>
        <r>  0.0000  0.0054  0.0008 </r>
        <r>  0.0000  0.0002  0.0006 </r>
        <r>  0.0008  0.0017  0.0015 </r>
        <r>  0.0000  0.0013  0.0018 </r>
        <r>  0.0000  0.0028  0.0005 </r>
        <r>  0.0000  0.0015  0.0007 </r>
        <r>  0.0032  0.0029  0.0034 </r>
        <r>  0.0004  0.0009  0.0012 </r>
        <r>  0.0002  0.0014  0.0004 </r>
        <r>  0.0000  0.0028  0.0004 </r>
        <r>  0.0001  0.0038  0.0009 </r>
       </set>
       <set comment="band 203">
        <r>  0.0005  0.0010  0.0074 </r>
        <r>  0.0003  0.0010  0.0115 </r>
        <r>  0.0075  0.0006  0.0097 </r>
        <r>  0.0000  0.0001  0.0143 </r>
        <r>  0.0037  0.0005  0.0053 </r>
        <r>  0.0042  0.0004  0.0058 </r>
        <r>  0.0021  0.0008  0.0045 </r>
        <r>  0.0011  0.0010  0.0049 </r>
        <r>  0.0000  0.0059  0.0000 </r>
        <r>  0.0002  0.0113  0.0005 </r>
        <r>  0.0000  0.0058  0.0001 </r>
        <r>  0.0000  0.0027  0.0003 </r>
        <r>  0.0000  0.0100  0.0001 </r>
        <r>  0.0000  0.0082  0.0001 </r>
        <r>  0.0000  0.0005  0.0003 </r>
        <r>  0.0001  0.0015  0.0004 </r>
        <r>  0.0000  0.0032  0.0013 </r>
        <r>  0.0003  0.0036  0.0004 </r>
        <r>  0.0000  0.0016  0.0001 </r>
        <r>  0.0012  0.0051  0.0004 </r>
        <r>  0.0000  0.0008  0.0013 </r>
        <r>  0.0010  0.0007  0.0013 </r>
        <r>  0.0002  0.0016  0.0013 </r>
        <r>  0.0004  0.0001  0.0006 </r>
        <r>  0.0006  0.0048  0.0019 </r>
        <r>  0.0005  0.0010  0.0015 </r>
        <r>  0.0005  0.0072  0.0008 </r>
        <r>  0.0004  0.0014  0.0004 </r>
        <r>  0.0011  0.0023  0.0018 </r>
        <r>  0.0000  0.0023  0.0013 </r>
        <r>  0.0002  0.0044  0.0005 </r>
        <r>  0.0023  0.0013  0.0019 </r>
        <r>  0.0025  0.0005  0.0027 </r>
        <r>  0.0009  0.0009  0.0014 </r>
        <r>  0.0000  0.0011  0.0009 </r>
        <r>  0.0008  0.0002  0.0012 </r>
        <r>  0.0004  0.0019  0.0012 </r>
        <r>  0.0003  0.0003  0.0015 </r>
        <r>  0.0023  0.0004  0.0011 </r>
       </set>
       <set comment="band 204">
        <r>  0.0006  0.0005  0.0038 </r>
        <r>  0.0001  0.0008  0.0105 </r>
        <r>  0.0014  0.0007  0.0106 </r>
        <r>  0.0094  0.0002  0.0062 </r>
        <r>  0.0047  0.0002  0.0035 </r>
        <r>  0.0010  0.0003  0.0072 </r>
        <r>  0.0001  0.0018  0.0155 </r>
        <r>  0.0013  0.0018  0.0056 </r>
        <r>  0.0000  0.0043  0.0004 </r>
        <r>  0.0000  0.0121  0.0001 </r>
        <r>  0.0000  0.0056  0.0002 </r>
        <r>  0.0000  0.0048  0.0003 </r>
        <r>  0.0000  0.0062  0.0000 </r>
        <r>  0.0000  0.0050  0.0002 </r>
        <r>  0.0000  0.0018  0.0004 </r>
        <r>  0.0000  0.0102  0.0002 </r>
        <r>  0.0009  0.0061  0.0016 </r>
        <r>  0.0002  0.0036  0.0006 </r>
        <r>  0.0000  0.0051  0.0012 </r>
        <r>  0.0015  0.0073  0.0005 </r>
        <r>  0.0021  0.0012  0.0035 </r>
        <r>  0.0004  0.0019  0.0005 </r>
        <r>  0.0011  0.0004  0.0017 </r>
        <r>  0.0002  0.0030  0.0008 </r>
        <r>  0.0000  0.0005  0.0001 </r>
        <r>  0.0000  0.0007  0.0008 </r>
        <r>  0.0013  0.0008  0.0017 </r>
        <r>  0.0000  0.0029  0.0003 </r>
        <r>  0.0004  0.0049  0.0008 </r>
        <r>  0.0008  0.0018  0.0023 </r>
        <r>  0.0008  0.0003  0.0016 </r>
        <r>  0.0000  0.0048  0.0009 </r>
        <r>  0.0000  0.0034  0.0004 </r>
        <r>  0.0008  0.0009  0.0008 </r>
        <r>  0.0015  0.0011  0.0022 </r>
        <r>  0.0000  0.0033  0.0012 </r>
        <r>  0.0000  0.0016  0.0003 </r>
        <r>  0.0003  0.0004  0.0005 </r>
        <r>  0.0000  0.0005  0.0018 </r>
       </set>
       <set comment="band 205">
        <r>  0.0002  0.0004  0.0058 </r>
        <r>  0.0005  0.0014  0.0041 </r>
        <r>  0.0059  0.0015  0.0096 </r>
        <r>  0.0000  0.0007  0.0077 </r>
        <r>  0.0010  0.0009  0.0147 </r>
        <r>  0.0003  0.0005  0.0230 </r>
        <r>  0.0000  0.0019  0.0098 </r>
        <r>  0.0047  0.0002  0.0081 </r>
        <r>  0.0000  0.0015  0.0003 </r>
        <r>  0.0000  0.0008  0.0005 </r>
        <r>  0.0000  0.0015  0.0006 </r>
        <r>  0.0000  0.0061  0.0004 </r>
        <r>  0.0001  0.0025  0.0003 </r>
        <r>  0.0001  0.0099  0.0011 </r>
        <r>  0.0000  0.0067  0.0000 </r>
        <r>  0.0000  0.0049  0.0012 </r>
        <r>  0.0000  0.0029  0.0011 </r>
        <r>  0.0011  0.0019  0.0020 </r>
        <r>  0.0008  0.0023  0.0013 </r>
        <r>  0.0002  0.0015  0.0007 </r>
        <r>  0.0019  0.0017  0.0025 </r>
        <r>  0.0011  0.0011  0.0011 </r>
        <r>  0.0008  0.0042  0.0022 </r>
        <r>  0.0001  0.0001  0.0006 </r>
        <r>  0.0001  0.0025  0.0006 </r>
        <r>  0.0003  0.0010  0.0005 </r>
        <r>  0.0000  0.0022  0.0006 </r>
        <r>  0.0003  0.0003  0.0005 </r>
        <r>  0.0006  0.0008  0.0026 </r>
        <r>  0.0005  0.0002  0.0022 </r>
        <r>  0.0000  0.0007  0.0004 </r>
        <r>  0.0000  0.0020  0.0012 </r>
        <r>  0.0000  0.0022  0.0007 </r>
        <r>  0.0000  0.0002  0.0003 </r>
        <r>  0.0010  0.0063  0.0010 </r>
        <r>  0.0005  0.0010  0.0018 </r>
        <r>  0.0011  0.0016  0.0021 </r>
        <r>  0.0005  0.0022  0.0011 </r>
        <r>  0.0006  0.0011  0.0016 </r>
       </set>
       <set comment="band 206">
        <r>  0.0013  0.0002  0.0105 </r>
        <r>  0.0021  0.0002  0.0081 </r>
        <r>  0.0006  0.0003  0.0103 </r>
        <r>  0.0000  0.0002  0.0183 </r>
        <r>  0.0002  0.0004  0.0246 </r>
        <r>  0.0011  0.0002  0.0193 </r>
        <r>  0.0004  0.0002  0.0107 </r>
        <r>  0.0006  0.0004  0.0129 </r>
        <r>  0.0000  0.0127  0.0002 </r>
        <r>  0.0000  0.0106  0.0002 </r>
        <r>  0.0000  0.0007  0.0007 </r>
        <r>  0.0001  0.0019  0.0009 </r>
        <r>  0.0000  0.0034  0.0001 </r>
        <r>  0.0002  0.0087  0.0004 </r>
        <r>  0.0000  0.0018  0.0008 </r>
        <r>  0.0000  0.0000  0.0001 </r>
        <r>  0.0003  0.0006  0.0004 </r>
        <r>  0.0002  0.0026  0.0002 </r>
        <r>  0.0007  0.0007  0.0019 </r>
        <r>  0.0002  0.0003  0.0006 </r>
        <r>  0.0003  0.0003  0.0010 </r>
        <r>  0.0002  0.0004  0.0011 </r>
        <r>  0.0004  0.0012  0.0010 </r>
        <r>  0.0004  0.0011  0.0025 </r>
        <r>  0.0002  0.0010  0.0012 </r>
        <r>  0.0004  0.0008  0.0014 </r>
        <r>  0.0013  0.0001  0.0029 </r>
        <r>  0.0015  0.0010  0.0036 </r>
        <r>  0.0002  0.0011  0.0005 </r>
        <r>  0.0003  0.0038  0.0006 </r>
        <r>  0.0000  0.0010  0.0023 </r>
        <r>  0.0002  0.0026  0.0014 </r>
        <r>  0.0005  0.0026  0.0017 </r>
        <r>  0.0006  0.0030  0.0020 </r>
        <r>  0.0004  0.0007  0.0018 </r>
        <r>  0.0008  0.0019  0.0025 </r>
        <r>  0.0000  0.0002  0.0008 </r>
        <r>  0.0001  0.0003  0.0012 </r>
        <r>  0.0001  0.0002  0.0002 </r>
       </set>
       <set comment="band 207">
        <r>  0.0001  0.0003  0.0154 </r>
        <r>  0.0004  0.0013  0.0049 </r>
        <r>  0.0000  0.0006  0.0036 </r>
        <r>  0.0008  0.0003  0.0170 </r>
        <r>  0.0006  0.0005  0.0138 </r>
        <r>  0.0001  0.0001  0.0404 </r>
        <r>  0.0023  0.0002  0.0035 </r>
        <r>  0.0030  0.0004  0.0105 </r>
        <r>  0.0001  0.0021  0.0005 </r>
        <r>  0.0000  0.0025  0.0002 </r>
        <r>  0.0001  0.0067  0.0003 </r>
        <r>  0.0000  0.0044  0.0002 </r>
        <r>  0.0000  0.0012  0.0008 </r>
        <r>  0.0000  0.0038  0.0008 </r>
        <r>  0.0001  0.0049  0.0000 </r>
        <r>  0.0002  0.0109  0.0003 </r>
        <r>  0.0000  0.0010  0.0007 </r>
        <r>  0.0005  0.0010  0.0010 </r>
        <r>  0.0001  0.0008  0.0024 </r>
        <r>  0.0000  0.0015  0.0001 </r>
        <r>  0.0000  0.0006  0.0013 </r>
        <r>  0.0003  0.0028  0.0018 </r>
        <r>  0.0004  0.0015  0.0010 </r>
        <r>  0.0002  0.0009  0.0005 </r>
        <r>  0.0013  0.0017  0.0025 </r>
        <r>  0.0003  0.0003  0.0023 </r>
        <r>  0.0000  0.0014  0.0003 </r>
        <r>  0.0028  0.0013  0.0023 </r>
        <r>  0.0007  0.0011  0.0020 </r>
        <r>  0.0009  0.0002  0.0019 </r>
        <r>  0.0013  0.0015  0.0031 </r>
        <r>  0.0000  0.0017  0.0007 </r>
        <r>  0.0000  0.0007  0.0003 </r>
        <r>  0.0000  0.0002  0.0009 </r>
        <r>  0.0000  0.0013  0.0010 </r>
        <r>  0.0010  0.0042  0.0006 </r>
        <r>  0.0010  0.0005  0.0023 </r>
        <r>  0.0005  0.0039  0.0014 </r>
        <r>  0.0000  0.0016  0.0006 </r>
       </set>
       <set comment="band 208">
        <r>  0.0000  0.0002  0.0071 </r>
        <r>  0.0015  0.0009  0.0113 </r>
        <r>  0.0002  0.0003  0.0195 </r>
        <r>  0.0006  0.0004  0.0092 </r>
        <r>  0.0001  0.0018  0.0198 </r>
        <r>  0.0016  0.0004  0.0117 </r>
        <r>  0.0047  0.0012  0.0094 </r>
        <r>  0.0002  0.0002  0.0111 </r>
        <r>  0.0000  0.0011  0.0007 </r>
        <r>  0.0003  0.0056  0.0008 </r>
        <r>  0.0000  0.0069  0.0001 </r>
        <r>  0.0000  0.0129  0.0001 </r>
        <r>  0.0000  0.0022  0.0003 </r>
        <r>  0.0000  0.0038  0.0003 </r>
        <r>  0.0000  0.0070  0.0000 </r>
        <r>  0.0002  0.0054  0.0004 </r>
        <r>  0.0000  0.0019  0.0008 </r>
        <r>  0.0002  0.0017  0.0006 </r>
        <r>  0.0001  0.0017  0.0010 </r>
        <r>  0.0001  0.0027  0.0007 </r>
        <r>  0.0001  0.0020  0.0006 </r>
        <r>  0.0007  0.0001  0.0019 </r>
        <r>  0.0001  0.0005  0.0007 </r>
        <r>  0.0002  0.0012  0.0006 </r>
        <r>  0.0000  0.0007  0.0004 </r>
        <r>  0.0007  0.0021  0.0016 </r>
        <r>  0.0018  0.0015  0.0026 </r>
        <r>  0.0011  0.0047  0.0013 </r>
        <r>  0.0010  0.0008  0.0029 </r>
        <r>  0.0000  0.0002  0.0010 </r>
        <r>  0.0002  0.0034  0.0018 </r>
        <r>  0.0000  0.0027  0.0017 </r>
        <r>  0.0001  0.0012  0.0009 </r>
        <r>  0.0026  0.0020  0.0032 </r>
        <r>  0.0001  0.0003  0.0013 </r>
        <r>  0.0012  0.0005  0.0013 </r>
        <r>  0.0000  0.0015  0.0018 </r>
        <r>  0.0001  0.0008  0.0015 </r>
        <r>  0.0007  0.0007  0.0013 </r>
       </set>
      </set>
     </set>
    </set>
   </array>
  </projected>
 </calculation>
 <structure name="finalpos" >
  <crystal>
   <varray name="basis" >
    <v>       8.45648900       0.00000000       8.04030100 </v>
    <v>       0.00000000      11.72984700       0.00000000 </v>
    <v>      -8.45648900       0.00000000       8.04030100 </v>
   </varray>
   <i name="volume">   1595.08833419 </i>
   <varray name="rec_basis" >
    <v>       0.05912619      -0.00000000       0.06218673 </v>
    <v>       0.00000000       0.08525260      -0.00000000 </v>
    <v>      -0.05912619       0.00000000       0.06218673 </v>
   </varray>
  </crystal>
  <varray name="positions" >
   <v>       0.26969700       0.24976800       0.20414300 </v>
   <v>       0.77156700       0.23769500       0.73208400 </v>
   <v>       0.72026200       0.76343900       0.24512100 </v>
   <v>       0.20132200       0.75570400       0.78323600 </v>
   <v>       0.28045900       0.24420900       0.72842600 </v>
   <v>       0.79802800       0.24785500       0.22680200 </v>
   <v>       0.73533500       0.75016000       0.80461000 </v>
   <v>       0.22251500       0.75097500       0.27293400 </v>
   <v>       0.00117700       0.00184600       0.99982200 </v>
   <v>       0.50569600       0.99759000       0.49792100 </v>
   <v>       0.49845400       0.99977000       0.99940800 </v>
   <v>       0.00450100       0.00377800       0.49971600 </v>
   <v>       0.49837000       0.49623100       0.00071500 </v>
   <v>       0.99634500       0.51157900       0.50073200 </v>
   <v>       0.00022300       0.49955200       0.00067500 </v>
   <v>       0.48259300       0.49270300       0.50429500 </v>
   <v>       0.47345200       0.74787300       0.96496700 </v>
   <v>       0.97264700       0.75732900       0.45004100 </v>
   <v>       0.97723800       0.25116100       0.97265000 </v>
   <v>       0.47457700       0.23801000       0.46845800 </v>
   <v>       0.01271400       0.75108500       0.03202500 </v>
   <v>       0.52928100       0.24804900       0.04247400 </v>
   <v>       0.01428700       0.25941800       0.53600300 </v>
   <v>       0.24717600       0.46975400       0.94774700 </v>
   <v>       0.45101700       0.53162200       0.25334100 </v>
   <v>       0.94758200       0.53420300       0.74651100 </v>
   <v>       0.54703600       0.02538700       0.74941600 </v>
   <v>       0.05099800       0.03637200       0.25222300 </v>
   <v>       0.75311700       0.98632300       0.03983500 </v>
   <v>       0.25937400       0.95883300       0.54655900 </v>
   <v>       0.24889800       0.03063800       0.94959000 </v>
   <v>       0.75212200       0.03266300       0.44757000 </v>
   <v>       0.45399400       0.95794200       0.24822000 </v>
   <v>       0.95238400       0.96567900       0.74701300 </v>
   <v>       0.75190000       0.52254000       0.05130300 </v>
   <v>       0.23694700       0.54840600       0.55123000 </v>
   <v>       0.53950000       0.45131500       0.75255300 </v>
   <v>       0.04864700       0.46607900       0.25398900 </v>
   <v>       0.66306100       0.63607800       0.50904900 </v>
  </varray>
 </structure>
</modeling>
