CsPbBr3 cubic bulk                      
           1
     8.456489    0.000000    8.040301
     0.000000   11.729847    0.000000
    -8.456489    0.000000    8.040301
   Cs   Pb   Br
   8   8  23
Direct configuration=     1
   0.26969700  0.24976800  0.20414300
   0.77156700  0.23769500  0.73208400
   0.72026200  0.76343900  0.24512100
   0.20132200  0.75570400  0.78323600
   0.28045900  0.24420900  0.72842600
   0.79802800  0.24785500  0.22680200
   0.73533500  0.75016000  0.80461000
   0.22251500  0.75097500  0.27293400
   0.00117700  0.00184600  0.99982200
   0.50569600  0.99759000  0.49792100
   0.49845400  0.99977000  0.99940800
   0.00450100  0.00377800  0.49971600
   0.49837000  0.49623100  0.00071500
   0.99634500  0.51157900  0.50073200
   0.00022300  0.49955200  0.00067500
   0.48259300  0.49270300  0.50429500
   0.47345200  0.74787300  0.96496700
   0.97264700  0.75732900  0.45004100
   0.97723800  0.25116100  0.97265000
   0.47457700  0.23801000  0.46845800
   0.01271400  0.75108500  0.03202500
   0.52928100  0.24804900  0.04247400
   0.01428700  0.25941800  0.53600300
   0.24717600  0.46975400  0.94774700
   0.45101700  0.53162200  0.25334100
   0.94758200  0.53420300  0.74651100
   0.54703600  0.02538700  0.74941600
   0.05099800  0.03637200  0.25222300
   0.75311700  0.98632300  0.03983500
   0.25937400  0.95883300  0.54655900
   0.24889800  0.03063800  0.94959000
   0.75212200  0.03266300  0.44757000
   0.45399400  0.95794200  0.24822000
   0.95238400  0.96567900  0.74701300
   0.75190000  0.52254000  0.05130300
   0.23694700  0.54840600  0.55123000
   0.53950000  0.45131500  0.75255300
   0.04864700  0.46607900  0.25398900
   0.66306100  0.63607800  0.50904900
