 vasp.5.4.4.18Apr17-6-g9f103f2a35 (build Jun 22 2020 09:27:21) complex           
 executed on tx2_gcc-7.3_libsci-1 date 2021.10.12  05:43:27
 running on   64 total cores
 distrk:  each k-point on   64 cores,    1 groups
 distr:  one band on NCORES_PER_BAND=   8 cores,    8 groups


--------------------------------------------------------------------------------------------------------


 INCAR:
 POTCAR:    PAW_PBE Cs_sv 08Apr2002               
 POTCAR:    PAW_PBE Pb_d 06Sep2000                
 POTCAR:    PAW_PBE Br 06Sep2000                  
 POTCAR:    PAW_PBE Cs_sv 08Apr2002               
   SHA256 =  c1463496f0f6037ed62c6012a8013a89ee9ad6ffb38599dcd6c079e7ed31779b Cs
   COPYR  = (c) Copyright 08Apr2002 Georg Kresse                                
   COPYR  = This file is part of the software VASP. Any use, copying, and all ot
   COPYR  = If you do not have a valid VASP license, you may not use, copy or di
   VRHFIN =Cs: 5s5p6s                                                           
   LEXCH  = PE                                                                  
   EATOM  =   555.6835 eV,   40.8416 Ry                                         
                                                                                
   TITEL  = PAW_PBE Cs_sv 08Apr2002                                             
   LULTRA =        F    use ultrasoft PP ?                                      
   IUNSCR =        1    unscreen: 0-lin 1-nonlin 2-no                           
   RPACOR =    2.200    partial core radius                                     
   POMASS =  132.900; ZVAL   =    9.000    mass and valenz                      
   RCORE  =    2.500    outmost cutoff radius                                   
   RWIGS  =    2.500; RWIGS  =    1.323    wigner-seitz radius (au A)           
   ENMAX  =  220.318; ENMIN  =  165.238 eV                                      
   RCLOC  =    2.207    cutoff for local pot                                    
   LCOR   =        T    correct aug charges                                     
   LPAW   =        T    paw PP                                                  
   EAUG   =  407.933                                                            
   DEXC   =    0.000                                                            
   RMAX   =    2.554    core radius for proj-oper                               
   RAUG   =    1.300    factor for augmentation sphere                          
   RDEP   =    2.590    radius for radial grids                                 
   RDEPT  =    2.117    core radius for aug-charge                              
                                                                                
   Atomic configuration                                                         
   13 entries                                                                   
     n  l   j            E        occ.                                          
     1  0  0.50    -35790.1377   2.0000                                         
     2  0  0.50     -5613.6201   2.0000                                         
     2  1  1.50     -5035.0101   6.0000                                         
     3  0  0.50     -1167.0767   2.0000                                         
     3  1  1.50      -980.9754   6.0000                                         
     3  2  2.50      -708.0703  10.0000                                         
     4  0  0.50      -220.2386   2.0000                                         
     4  1  1.50      -160.7596   6.0000                                         
     4  2  2.50       -74.2354  10.0000                                         
     5  0  0.50       -26.7287   2.0000                                         
     6  0  0.50        -2.0862   1.0000                                         
     5  1  1.50       -13.5159   6.0000                                         
     5  2  2.50        -0.4136   0.0000                                         
   Description                                                                  
     l       E           TYP  RCUT    TYP  RCUT                                 
     0    -26.7287425     23  1.900                                             
     0     -2.0862306     23  1.900                                             
     1    -13.5158719     23  2.500                                             
     1     -2.7211652     23  2.500                                             
     2     -0.4136171     23  2.500                                             
  local pseudopotential read in
  partial core-charges read in
  partial kinetic energy density read in
  atomic valenz-charges read in
  non local Contribution for L=           0  read in
    real space projection operators read in
  non local Contribution for L=           0  read in
    real space projection operators read in
  non local Contribution for L=           1  read in
    real space projection operators read in
  non local Contribution for L=           1  read in
    real space projection operators read in
  non local Contribution for L=           2  read in
    real space projection operators read in
    PAW grid and wavefunctions read in

   number of l-projection  operators is LMAX  =           5
   number of lm-projection operators is LMMAX =          13

 POTCAR:    PAW_PBE Pb_d 06Sep2000                
   SHA256 =  fb885b08f0fba73a15f6a6b0e39bd200c13ec96ef97cf3ecd8e63bade5137abd Pb
   COPYR  = (c) Copyright 06Sep2000 Georg Kresse                                
   COPYR  = This file is part of the software VASP. Any use, copying, and all ot
   COPYR  = If you do not have a valid VASP license, you may not use, copy or di
   VRHFIN =Pb:                                                                  
   LEXCH  = PE                                                                  
   EATOM  =  1661.6185 eV,  122.1255 Ry                                         
                                                                                
   TITEL  = PAW_PBE Pb_d 06Sep2000                                              
   LULTRA =        F    use ultrasoft PP ?                                      
   IUNSCR =        1    unscreen: 0-lin 1-nonlin 2-no                           
   RPACOR =    2.200    partial core radius                                     
   POMASS =  207.200; ZVAL   =   14.000    mass and valenz                      
   RCORE  =    2.500    outmost cutoff radius                                   
   RWIGS  =    3.260; RWIGS  =    1.725    wigner-seitz radius (au A)           
   ENMAX  =  237.835; ENMIN  =  178.376 eV                                      
   ICORE  =        3    local potential                                         
   LCOR   =        T    correct aug charges                                     
   LPAW   =        T    paw PP                                                  
   EAUG   =  391.914                                                            
   DEXC   =    0.000                                                            
   RMAX   =    2.565    core radius for proj-oper                               
   RAUG   =    1.300    factor for augmentation sphere                          
   RDEP   =    2.643    radius for radial grids                                 
   RDEPT  =    2.092    core radius for aug-charge                              
                                                                                
   Atomic configuration                                                         
   16 entries                                                                   
     n  l   j            E        occ.                                          
     1  0  0.50    -88091.8466   2.0000                                         
     2  0  0.50    -15753.4197   2.0000                                         
     2  1  1.50    -13508.1797   6.0000                                         
     3  0  0.50     -3781.7194   2.0000                                         
     3  1  1.50     -3138.2529   6.0000                                         
     3  2  2.50     -2483.2977  10.0000                                         
     4  0  0.50      -856.2895   2.0000                                         
     4  1  1.50      -645.4942   6.0000                                         
     4  2  2.50      -401.8768  10.0000                                         
     4  3  3.50      -132.9059  14.0000                                         
     5  0  0.50      -144.0950   2.0000                                         
     5  1  1.50       -85.7879   6.0000                                         
     5  2  2.50       -21.1769  10.0000                                         
     6  0  0.50       -12.0372   2.0000                                         
     6  1  1.50        -3.4971   2.0000                                         
     5  3  2.50        -2.7212   0.0000                                         
   Description                                                                  
     l       E           TYP  RCUT    TYP  RCUT                                 
     2    -21.1768523     23  2.500                                             
     2      1.3605826     23  2.500                                             
     0    -12.0371562     23  2.500                                             
     0     13.6058260     23  2.500                                             
     1     -3.4971339     23  2.500                                             
     1     13.6058260     23  2.500                                             
     3     -1.3605826      7  2.500                                             
  local pseudopotential read in
  partial core-charges read in
  partial kinetic energy density read in
  atomic valenz-charges read in
  non local Contribution for L=           2  read in
    real space projection operators read in
  non local Contribution for L=           2  read in
    real space projection operators read in
  non local Contribution for L=           0  read in
    real space projection operators read in
  non local Contribution for L=           0  read in
    real space projection operators read in
  non local Contribution for L=           1  read in
    real space projection operators read in
  non local Contribution for L=           1  read in
    real space projection operators read in
    PAW grid and wavefunctions read in

   number of l-projection  operators is LMAX  =           6
   number of lm-projection operators is LMMAX =          18

 POTCAR:    PAW_PBE Br 06Sep2000                  
   SHA256 =  96a73d2954943bbee26f4990d676cc6c3bf44b8dd2c75cd4b3b825d8403f0103 Br
   COPYR  = (c) Copyright 06Sep2000 Georg Kresse                                
   COPYR  = This file is part of the software VASP. Any use, copying, and all ot
   COPYR  = If you do not have a valid VASP license, you may not use, copy or di
   VRHFIN =Br: s2p5                                                             
   LEXCH  = PE                                                                  
   EATOM  =   368.4488 eV,   27.0802 Ry                                         
                                                                                
   TITEL  = PAW_PBE Br 06Sep2000                                                
   LULTRA =        F    use ultrasoft PP ?                                      
   IUNSCR =        1    unscreen: 0-lin 1-nonlin 2-no                           
   RPACOR =    1.900    partial core radius                                     
   POMASS =   79.904; ZVAL   =    7.000    mass and valenz                      
   RCORE  =    2.100    outmost cutoff radius                                   
   RWIGS  =    2.200; RWIGS  =    1.164    wigner-seitz radius (au A)           
   ENMAX  =  216.285; ENMIN  =  162.214 eV                                      
   ICORE  =        3    local potential                                         
   LCOR   =        T    correct aug charges                                     
   LPAW   =        T    paw PP                                                  
   EAUG   =  503.852                                                            
   DEXC   =    0.000                                                            
   RMAX   =    2.139    core radius for proj-oper                               
   RAUG   =    1.300    factor for augmentation sphere                          
   RDEP   =    2.186    radius for radial grids                                 
   RDEPT  =    1.890    core radius for aug-charge                              
                                                                                
   Atomic configuration                                                         
   10 entries                                                                   
     n  l   j            E        occ.                                          
     1  0  0.50    -13316.2796   2.0000                                         
     2  0  0.50     -1732.8239   2.0000                                         
     2  1  1.50     -1528.2193   6.0000                                         
     3  0  0.50      -238.0460   2.0000                                         
     3  1  1.50      -173.4609   6.0000                                         
     3  2  2.50       -66.7132  10.0000                                         
     4  0  0.50       -20.1334   2.0000                                         
     4  1  0.50        -7.8591   5.0000                                         
     4  2  2.50        -8.1635   0.0000                                         
     4  3  2.50        -8.1635   0.0000                                         
   Description                                                                  
     l       E           TYP  RCUT    TYP  RCUT                                 
     0    -20.1333652     23  2.100                                             
     0    -21.4939478     23  2.100                                             
     1     -7.8591052     23  2.100                                             
     1     -3.1608434     23  2.100                                             
     2     -8.1634956     23  2.100                                             
     3     -1.3605826      7  2.100                                             
  local pseudopotential read in
  partial core-charges read in
  partial kinetic energy density read in
  atomic valenz-charges read in
  non local Contribution for L=           0  read in
    real space projection operators read in
  non local Contribution for L=           0  read in
    real space projection operators read in
  non local Contribution for L=           1  read in
    real space projection operators read in
  non local Contribution for L=           1  read in
    real space projection operators read in
  non local Contribution for L=           2  read in
    real space projection operators read in
    PAW grid and wavefunctions read in

   number of l-projection  operators is LMAX  =           5
   number of lm-projection operators is LMMAX =          13

 Optimization of the real space projectors (new method)

 maximal supplied QI-value         = 15.12
 optimisation between [QCUT,QGAM] = [  8.77, 17.69] = [ 21.53, 87.61] Ry 
 Optimized for a Real-space Cutoff    1.85 Angstroem

   l    n(q)    QCUT    max X(q) W(low)/X(q) W(high)/X(q)  e(spline) 
   0     10     8.768    25.322    0.81E-04    0.51E-04    0.48E-06
   0     10     8.768    99.187    0.78E-04    0.50E-04    0.47E-06
   1      9     8.768    11.761    0.21E-03    0.20E-03    0.37E-06
   1      9     8.768     8.275    0.24E-03    0.22E-03    0.41E-06
   2      9     8.768     3.829    0.23E-04    0.15E-03    0.18E-06
 Optimization of the real space projectors (new method)

 maximal supplied QI-value         = 15.12
 optimisation between [QCUT,QGAM] = [  8.77, 17.69] = [ 21.53, 87.61] Ry 
 Optimized for a Real-space Cutoff    1.59 Angstroem

   l    n(q)    QCUT    max X(q) W(low)/X(q) W(high)/X(q)  e(spline) 
   2      7     8.768     3.846    0.48E-04    0.11E-03    0.11E-06
   2      7     8.768     8.593    0.20E-03    0.22E-04    0.24E-06
   0      8     8.768    20.082    0.68E-04    0.88E-04    0.41E-07
   0      8     8.768     8.597    0.89E-04    0.13E-03    0.59E-07
   1      8     8.768    33.223    0.15E-03    0.53E-04    0.87E-07
   1      8     8.768    15.899    0.14E-03    0.44E-04    0.78E-07
 Optimization of the real space projectors (new method)

 maximal supplied QI-value         = 17.95
 optimisation between [QCUT,QGAM] = [  8.80, 17.59] = [ 21.67, 86.68] Ry 
 Optimized for a Real-space Cutoff    1.59 Angstroem

   l    n(q)    QCUT    max X(q) W(low)/X(q) W(high)/X(q)  e(spline) 
   0      8     8.797   175.082    0.82E-04    0.14E-03    0.89E-07
   0      8     8.797   174.004    0.79E-04    0.14E-03    0.86E-07
   1      8     8.797    54.315    0.16E-03    0.14E-04    0.30E-06
   1      8     8.797    42.441    0.16E-03    0.14E-04    0.30E-06
   2      7     8.797     3.596    0.92E-04    0.15E-03    0.85E-07
  PAW_PBE Cs_sv 08Apr2002               :
 energy of atom  1       EATOM= -555.6835
 kinetic energy error for atom=    0.0069 (will be added to EATOM!!)
  PAW_PBE Pb_d 06Sep2000                :
 energy of atom  2       EATOM=-1661.6185
 kinetic energy error for atom=    0.0498 (will be added to EATOM!!)
  PAW_PBE Br 06Sep2000                  :
 energy of atom  3       EATOM= -368.4488
 kinetic energy error for atom=    0.0072 (will be added to EATOM!!)


 POSCAR: Cs8 Pb8 Br23                            
  positions in direct lattice
  No initial velocities read in

 METAGGA = SCAN     LMAXTAU =  6    LMIXTAU =  F

 exchange correlation table for  LEXCH =        8
   RHO(1)=    0.500       N(1)  =     2000
   RHO(2)=  100.500       N(2)  =     4000

 VTST: version 3.2, (02/03/18)

 CHAIN: initializing optimizer
 
 OPT: Using VASP Conjugate-Gradient optimizer
 CHAIN: Read ICHAIN            0

 POSCAR: Cs8 Pb8 Br23                            
  positions in direct lattice
  No initial velocities read in



--------------------------------------------------------------------------------------------------------


 ion  position               nearest neighbor table
   1  0.275  0.248  0.194-
   2  0.772  0.229  0.748-
   3  0.705  0.767  0.255-
   4  0.212  0.756  0.783-
   5  0.253  0.237  0.728-
   6  0.803  0.244  0.228-
   7  0.736  0.762  0.764-
   8  0.226  0.753  0.300-
   9  0.008  0.998  0.006-  21 2.96  30 2.96  29 2.97  19 2.99  32 3.00  35 3.02
  10  0.491  0.002  0.495-  34 2.99  33 2.99  28 2.99  22 3.00  20 3.02  31 3.02
  11  0.504  0.999  0.995-  32 2.95  28 2.97  23 3.00  17 3.00  30 3.01  34 3.02
  12  0.992  0.998  0.500-  35 2.98  31 3.00  18 3.00  29 3.01  24 3.01  33 3.01
  13  0.508  0.500  0.996-  26 2.88  25 2.95  17 2.96  23 2.97  36 3.03
  14  0.999  0.501  0.509-  37 2.89  24 2.95  18 2.98  27 3.00  38 3.00
  15  0.008  0.503  0.008-  21 2.95  36 2.97  19 2.98  27 2.99  38 3.05  25 3.10
  16  0.479  0.500  0.489-  39 2.54  20 2.94  26 2.98  22 2.99  37 3.00
  17  0.490  0.747  0.952-  13 2.96  11 3.00
  18  0.953  0.747  0.464-  14 2.98  12 3.00
  19  0.990  0.251  0.977-  15 2.98   9 2.99
  20  0.437  0.253  0.475-  16 2.94  10 3.02
  21  0.041  0.751  0.041-  15 2.95   9 2.96
  22  0.526  0.749  0.514-  16 2.99  10 3.00
  23  0.542  0.250  0.026-  13 2.97  11 3.00
  24  0.995  0.252  0.536-  14 2.95  12 3.01
  25  0.260  0.469  0.944-  13 2.95  15 3.10
  26  0.464  0.533  0.235-  13 2.88  16 2.98
  27  0.956  0.538  0.757-  15 2.99  14 3.00
  28  0.540  0.029  0.747-  11 2.97  10 2.99
  29  0.055  0.036  0.256-   9 2.97  12 3.01
  30  0.759  0.981  0.040-   9 2.96  11 3.01
  31  0.244  0.961  0.551-  12 3.00  10 3.02
  32  0.254  0.029  0.950-  11 2.95   9 3.00
  33  0.739  0.031  0.449-  10 2.99  12 3.01
  34  0.445  0.968  0.243-  10 2.99  11 3.02
  35  0.961  0.970  0.750-  12 2.98   9 3.02
  36  0.762  0.525  0.058-  15 2.97  13 3.03
  37  0.241  0.533  0.567-  14 2.89  16 3.00
  38  0.060  0.465  0.265-  14 3.00  15 3.05
  39  0.659  0.472  0.617-  16 2.54


IMPORTANT INFORMATION: All symmetrisations will be switched off!
NOSYMM: (Re-)initialisation of all symmetry stuff for point group C_1.



 KPOINTS: 1x1x1                                   

Automatic generation of k-mesh.
Space group operators:
 irot       det(A)        alpha          n_x          n_y          n_z        tau_x        tau_y        tau_z
    1     1.000000     0.000001     1.000000     0.000000     0.000000     0.000000     0.000000     0.000000
 
 Subroutine IBZKPT returns following result:
 ===========================================
 
 Found      8 irreducible k-points:
 
 Following reciprocal coordinates:
            Coordinates               Weight
  0.000000  0.000000  0.000000      1.000000
  0.500000  0.000000  0.000000      1.000000
  0.000000  0.500000  0.000000      1.000000
  0.500000  0.500000  0.000000      1.000000
  0.000000  0.000000  0.500000      1.000000
  0.500000  0.000000  0.500000      1.000000
  0.000000  0.500000  0.500000      1.000000
  0.500000  0.500000  0.500000      1.000000
 
 Following cartesian coordinates:
            Coordinates               Weight
 -0.000000  0.000000  0.000000      1.000000
  0.029563  0.000000  0.031093      1.000000
 -0.000000  0.042626  0.000000      1.000000
  0.029563  0.042626  0.031093      1.000000
 -0.029563  0.000000  0.031093      1.000000
  0.000000  0.000000  0.062187      1.000000
 -0.029563  0.042626  0.031093      1.000000
  0.000000  0.042626  0.062187      1.000000
 


--------------------------------------------------------------------------------------------------------




 Dimension of arrays:
   k-points           NKPTS =      8   k-points in BZ     NKDIM =      8   number of bands    NBANDS=    208
   number of dos      NEDOS =    301   number of ions     NIONS =     39
   non local maximal  LDIM  =      6   non local SUM 2l+1 LMDIM =     18
   total plane-waves  NPLWV = 343000
   max r-space proj   IRMAX =   5734   max aug-charges    IRDMAX=  91523
   dimension x,y,z NGX =    70 NGY =   70 NGZ =   70
   dimension x,y,z NGXF=   140 NGYF=  140 NGZF=  140
   support grid    NGXF=   280 NGYF=  280 NGZF=  280
   ions per type =               8   8  23
   NGX,Y,Z   is equivalent  to a cutoff of   9.97,  9.92,  9.97 a.u.
   NGXF,Y,Z  is equivalent  to a cutoff of  19.95, 19.84, 19.95 a.u.

 SYSTEM =  CsPbBr3 cubic bulk                      
 POSCAR =  Cs8 Pb8 Br23                            

 Startparameter for this run:
   NWRITE =      2    write-flag & timer
   PREC   = accura    normal or accurate (medium, high low for compatibility)
   ISTART =      0    job   : 0-new  1-cont  2-samecut
   ICHARG =      2    charge: 1-file 2-atom 10-const
   ISPIN  =      1    spin polarized calculation?
   LNONCOLLINEAR =      F non collinear calculations
   LSORBIT =      F    spin-orbit coupling
   INIWAV =      1    electr: 0-lowe 1-rand  2-diag
   LASPH  =      T    aspherical Exc in radial PAW
   METAGGA=      F    non-selfconsistent MetaGGA calc.

 Electronic Relaxation 1
   ENCUT  =  300.0 eV  22.05 Ry    4.70 a.u.  16.48 16.57 16.48*2*pi/ulx,y,z
   ENINI  =  300.0     initial cutoff
   ENAUG  =  503.9 eV  augmentation charge cutoff
   NELM   =    200;   NELMIN=  2; NELMDL= -5     # of ELM steps 
   EDIFF  = 0.1E-05   stopping-criterion for ELM
   LREAL  =      T    real-space projection
   NLSPLINE    = F    spline interpolate recip. space projectors
   LCOMPAT=      F    compatible to vasp.4.4
   GGA_COMPAT  = T    GGA compatible to vasp.4.4-vasp.4.6
   LMAXPAW     = -100 max onsite density
   LMAXMIX     =    2 max onsite mixed and CHGCAR
   VOSKOWN=      0    Vosko Wilk Nusair interpolation
   ROPT   =   -0.00025  -0.00025  -0.00025
 Ionic relaxation
   EDIFFG = -.1E-01   stopping-criterion for IOM
   NSW    =      0    number of steps for IOM
   NBLOCK =      1;   KBLOCK =      1    inner block; outer block 
   IBRION =     -1    ionic relax: 0-MD 1-quasi-New 2-CG
   NFREE  =      1    steps in history (QN), initial steepest desc. (CG)
   ISIF   =      2    stress and relaxation
   IWAVPR =     10    prediction:  0-non 1-charg 2-wave 3-comb
   ISYM   =      0    0-nonsym 1-usesym 2-fastsym
   LCORR  =      T    Harris-Foulkes like correction to forces

   POTIM  = 0.5000    time-step for ionic-motion
   TEIN   =    0.0    initial temperature
   TEBEG  =    0.0;   TEEND  =   0.0 temperature during run
   SMASS  =  -3.00    Nose mass-parameter (am)
   estimated Nose-frequenzy (Omega)   =  0.10E-29 period in steps =****** mass=  -0.311E-26a.u.
   SCALEE = 1.0000    scale energy and forces
   NPACO  =    256;   APACO  = 16.0  distance and # of slots for P.C.
   PSTRESS=    0.0 pullay stress

  Mass of Ions in am
   POMASS = 132.90207.20 79.90
  Ionic Valenz
   ZVAL   =   9.00 14.00  7.00
  Atomic Wigner-Seitz radii
   RWIGS  =  -1.00 -1.00 -1.00
  virtual crystal weights 
   VCA    =   1.00  1.00  1.00
   NELECT =     344.0000    total number of electrons
   NUPDOWN=       0.0000    fix difference up-down

 DOS related values:
   EMIN   =  10.00;   EMAX   =-10.00  energy-range for DOS
   EFERMI =   0.00
   ISMEAR =     0;   SIGMA  =   0.01  broadening in eV -4-tet -1-fermi 0-gaus

 Electronic relaxation 2 (details)
   IALGO  =     38    algorithm
   LDIAG  =      T    sub-space diagonalisation (order eigenvalues)
   LSUBROT=      F    optimize rotation matrix (better conditioning)
   TURBO    =      0    0=normal 1=particle mesh
   IRESTART =      0    0=no restart 2=restart with 2 vectors
   NREBOOT  =      0    no. of reboots
   NMIN     =      0    reboot dimension
   EREF     =   0.00    reference energy to select bands
   IMIX   =      4    mixing-type and parameters
     AMIX     =   0.40;   BMIX     =  1.00
     AMIX_MAG =   1.60;   BMIX_MAG =  1.00
     AMIN     =   0.10
     WC   =   100.;   INIMIX=   1;  MIXPRE=   1;  MAXMIX= -45

 Intra band minimization:
   WEIMIN = 0.0000     energy-eigenvalue tresh-hold
   EBREAK =  0.12E-08  absolut break condition
   DEPER  =   0.30     relativ break condition  

   TIME   =   0.40     timestep for ELM

  volume/ion in A,a.u.               =      40.90       276.00
  Fermi-wavevector in a.u.,A,eV,Ry     =   0.981747  1.855232 13.113654  0.963826
  Thomas-Fermi vector in A             =   2.112777

 Write flags
   LWAVE        =      F    write WAVECAR
   LDOWNSAMPLE  =      F    k-point downsampling of WAVECAR
   LCHARG       =      F    write CHGCAR
   LVTOT        =      F    write LOCPOT, total local potential
   LVHAR        =      T    write LOCPOT, Hartree potential only
   LELF         =      F    write electronic localiz. function (ELF)
   LORBIT       =     10    0 simple, 1 ext, 2 COOP (PROOUT), +10 PAW based schemes


 Dipole corrections
   LMONO  =      F    monopole corrections only (constant potential shift)
   LDIPOL =      F    correct potential (dipole corrections)
   IDIPOL =      0    1-x, 2-y, 3-z, 4-all directions 
   EPSILON=  1.0000000 bulk dielectric constant

 Exchange correlation treatment:
   GGA     =    --    GGA type
   LEXCH   =     8    internal setting for exchange type
   VOSKOWN=      0    Vosko Wilk Nusair interpolation
   LHFCALC =     F    Hartree Fock is set to
   LHFONE  =     F    Hartree Fock one center treatment
   AEXX    =    0.0000 exact exchange contribution

 Linear response parameters
   LEPSILON=     F    determine dielectric tensor
   LRPA    =     F    only Hartree local field effects (RPA)
   LNABLA  =     F    use nabla operator in PAW spheres
   LVEL    =     F    velocity operator in full k-point grid
   LINTERFAST=   F  fast interpolation
   KINTER  =     0    interpolate to denser k-point grid
   CSHIFT  =0.1000    complex shift for real part using Kramers Kronig
   OMEGAMAX=  -1.0    maximum frequency
   DEG_THRESHOLD= 0.2000000E-02 threshold for treating states as degnerate
   RTIME   =   -0.100 relaxation time in fs
  (WPLASMAI=    0.000 imaginary part of plasma frequency in eV, 0.658/RTIME)
   DFIELD  = 0.0000000 0.0000000 0.0000000 field for delta impulse in time

 Orbital magnetization related:
   ORBITALMAG=     F  switch on orbital magnetization
   LCHIMAG   =     F  perturbation theory with respect to B field
   DQ        =  0.001000  dq finite difference perturbation B field
   LLRAUG    =     F  two centre corrections for induced B field



--------------------------------------------------------------------------------------------------------


 Static calculation
 charge density and potential will be updated during run
 non-spin polarized calculation
 Variant of blocked Davidson
 Davidson routine will perform the subspace rotation
 perform sub-space diagonalisation
    after iterative eigenvector-optimisation
 modified Broyden-mixing scheme, WC =      100.0
 initial mixing is a Kerker type mixing with AMIX =  0.4000 and BMIX =      1.0000
 Hartree-type preconditioning will be used
 using additional bands           36
 real space projection scheme for non local part
 use partial core corrections
 calculate Harris-corrections to forces   (improved forces if not selfconsistent)
 use gradient corrections 
 use of overlap-Matrix (Vanderbilt PP)
 Gauss-broadening in eV      SIGMA  =   0.01


--------------------------------------------------------------------------------------------------------


  energy-cutoff  :      300.00
  volume of cell :     1595.09
      direct lattice vectors                 reciprocal lattice vectors
     8.456489000  0.000000000  8.040301000     0.059126193 -0.000000000  0.062186727
     0.000000000 11.729847000  0.000000000     0.000000000  0.085252604 -0.000000000
    -8.456489000  0.000000000  8.040301000    -0.059126193  0.000000000  0.062186727

  length of vectors
    11.668703715 11.729847000 11.668703715     0.085808482  0.085252604  0.085808482



 k-points in units of 2pi/SCALE and weight: 1x1x1                                   
  -0.00000000  0.00000000  0.00000000       0.125
   0.02956310  0.00000000  0.03109336       0.125
  -0.00000000  0.04262630  0.00000000       0.125
   0.02956310  0.04262630  0.03109336       0.125
  -0.02956310  0.00000000  0.03109336       0.125
   0.00000000  0.00000000  0.06218673       0.125
  -0.02956310  0.04262630  0.03109336       0.125
   0.00000000  0.04262630  0.06218673       0.125

 k-points in reciprocal lattice and weights: 1x1x1                                   
   0.00000000  0.00000000  0.00000000       0.125
   0.50000000  0.00000000  0.00000000       0.125
   0.00000000  0.50000000  0.00000000       0.125
   0.50000000  0.50000000  0.00000000       0.125
   0.00000000  0.00000000  0.50000000       0.125
   0.50000000  0.00000000  0.50000000       0.125
   0.00000000  0.50000000  0.50000000       0.125
   0.50000000  0.50000000  0.50000000       0.125

 position of ions in fractional coordinates (direct lattice) 
   0.27538500  0.24778700  0.19390800
   0.77207300  0.22859100  0.74785200
   0.70477700  0.76661300  0.25486000
   0.21159600  0.75582200  0.78282600
   0.25333600  0.23710200  0.72808700
   0.80305100  0.24441700  0.22770400
   0.73550600  0.76238900  0.76424900
   0.22579200  0.75289200  0.30033700
   0.00818300  0.99833600  0.00598000
   0.49052400  0.00219400  0.49476000
   0.50350200  0.99936200  0.99548400
   0.99229500  0.99770700  0.49974500
   0.50814300  0.49986600  0.99619700
   0.99893300  0.50144900  0.50901900
   0.00812200  0.50283800  0.00835800
   0.47908900  0.49982400  0.48857800
   0.49043700  0.74746300  0.95176500
   0.95308300  0.74730700  0.46360300
   0.98962500  0.25106100  0.97742300
   0.43695300  0.25336100  0.47514100
   0.04106500  0.75057400  0.04117000
   0.52551500  0.74904000  0.51408100
   0.54153600  0.25044700  0.02565800
   0.99546600  0.25163900  0.53631000
   0.26025100  0.46901200  0.94438800
   0.46398700  0.53283200  0.23466400
   0.95598700  0.53810900  0.75723200
   0.54012200  0.02922600  0.74741400
   0.05475300  0.03584600  0.25599400
   0.75891300  0.98067500  0.03981600
   0.24374500  0.96081600  0.55057200
   0.25430700  0.02912000  0.95042100
   0.73881100  0.03131700  0.44917000
   0.44511900  0.96755500  0.24277600
   0.96092100  0.97037700  0.75025900
   0.76188200  0.52546700  0.05771000
   0.24085800  0.53269600  0.56729900
   0.05981200  0.46484500  0.26472900
   0.65865900  0.47152400  0.61725700

 position of ions in cartesian coordinates  (Angst):
   0.68900935  2.90650360  3.77325698
   0.20482462  2.68133746 12.22065450
   3.80471816  8.99225320  7.71577033
  -4.83060021  8.86567642  7.99545220
  -4.01472661  2.78117018  7.89093633
   4.86541558  2.86697401  8.28758046
  -0.24306486  8.94270632 12.05848163
  -0.63038897  8.83130797  4.23023552
   0.01862965 11.71032853  0.11387478
  -0.03582169  0.02573528  7.92197993
  -4.16044037 11.72236336 12.05229863
   4.16524366 11.70295046 11.99645070
  -4.12722328  5.86335170 12.09534641
   4.14295235  5.88192005 12.12438797
  -0.00199573  5.89821281  0.13250416
  -0.08024362  5.86285905  7.78033395
  -3.90121516  8.76762663 11.59573818
   4.13928224  8.76579677 11.39058186
   0.10318608  2.94490712 15.81565800
  -0.32293640  2.97188577  7.33351030
  -0.00088793  8.80411818  0.66119415
   0.09669150  8.78612460  8.35866476
   4.36251663  2.93770499  4.56041049
   3.88284766  2.95168697 12.31594010
  -5.78539701  5.50143900  9.68566016
   1.93926743  6.25003784  5.61736433
   1.68076947  6.31193624 13.77479644
  -1.75296252  0.34281651 10.35217699
  -1.70179230  0.42046810  2.49849941
   6.08103587 11.50316771  6.42202158
  -2.59467915 11.27022468  6.38654777
  -5.88668038  0.34157314  9.68637574
   2.44934593  0.36734362  9.55172482
   1.71111135 11.34927211  5.53088286
   1.78146089 11.38237374 13.75840227
   5.95482277  6.16364751  6.58976638
  -2.76054473  6.24844258  6.49782554
  -1.73287836  5.45256073  2.60940733
   0.35011556  5.53090438 10.25874869



--------------------------------------------------------------------------------------------------------


 k-point  1 :   0.0000 0.0000 0.0000  plane waves:   18809
 k-point  2 :   0.5000 0.0000 0.0000  plane waves:   18808
 k-point  3 :   0.0000 0.5000 0.0000  plane waves:   18794
 k-point  4 :   0.5000 0.5000 0.0000  plane waves:   18804
 k-point  5 :   0.0000 0.0000 0.5000  plane waves:   18808
 k-point  6 :   0.5000 0.0000 0.5000  plane waves:   18790
 k-point  7 :   0.0000 0.5000 0.5000  plane waves:   18804
 k-point  8 :   0.5000 0.5000 0.5000  plane waves:   18800

 maximum and minimum number of plane-waves per node :      2389     2304

 maximum number of plane-waves:     18809
 maximum index in each direction: 
   IXMAX=   16   IYMAX=   16   IZMAX=   16
   IXMIN=  -16   IYMIN=  -17   IZMIN=  -16


 real space projection operators:
  total allocation   :      16723.34 KBytes
  max/ min on nodes  :       2188.41       1823.78


 parallel 3D FFT for wavefunctions:
    minimum data exchange during FFTs selected (reduces bandwidth)
 parallel 3D FFT for charge:
    minimum data exchange during FFTs selected (reduces bandwidth)


 total amount of memory used by VASP MPI-rank0    60648. kBytes
=======================================================================

   base      :      30000. kBytes
   nonlr-proj:       6483. kBytes
   fftplans  :       8423. kBytes
   grid      :       7465. kBytes
   one-center:         77. kBytes
   wavefun   :       8200. kBytes

     INWAV:  cpu time    0.0000: real time    0.0000
 Broyden mixing: mesh for mixing (old mesh)
   NGX = 33   NGY = 33   NGZ = 33
  (NGX  =140   NGY  =140   NGZ  =140)
  gives a total of  35937 points

 initial charge density was supplied:
 charge density of overlapping atoms calculated
 number of electron     345.0000000 magnetization 
 keeping initial charge density in first step


--------------------------------------------------------------------------------------------------------


 Maximum index for non-local projection operator          728
 Maximum index for augmentation-charges         3293 (set IRDMAX)


--------------------------------------------------------------------------------------------------------


 First call to EWALD:  gamma=   0.152
 Maximum number of real-space cells 3x 3x 3
 Maximum number of reciprocal cells 3x 3x 3

    FEWALD:  cpu time    0.0042: real time    0.0042


--------------------------------------- Iteration      1(   1)  ---------------------------------------


    POTLOK:  cpu time    0.2653: real time    0.2844
    SETDIJ:  cpu time    1.2123: real time    1.2125
     EDDAV:  cpu time   16.5781: real time   16.5833
       DOS:  cpu time    0.0008: real time    0.0008
    --------------------------------------------
      LOOP:  cpu time   18.0564: real time   18.0810

 eigenvalue-minimisations  :  3456
 total energy-change (2. order) : 0.1338624E+04  (-0.1105147E+05)
 number of electron     345.0000000 magnetization 
 augmentation part      345.0000000 magnetization 

 Free energy of the ion-electron system (eV)
  ---------------------------------------------------
  alpha Z        PSCENC =       872.70583573
  Ewald energy   TEWEN  =    -17897.96607016
  -Hartree energ DENC   =     -7456.81007204
  -exchange      EXHF   =         0.00000000
  -V(xc)+E(xc)   XCENC  =       908.34038202
  PAW double counting   =     21345.28103884   -22405.85761495
  entropy T*S    EENTRO =        -0.00106628
  eigenvalues    EBANDS =      -239.18685306
  atomic energy  EATOM  =     26212.11861568
  Solvation  Ediel_sol  =         0.00000000
  ---------------------------------------------------
  free energy    TOTEN  =      1338.62419578 eV

  energy without entropy =     1338.62526206  energy(sigma->0) =     1338.62472892


--------------------------------------------------------------------------------------------------------




--------------------------------------- Iteration      1(   2)  ---------------------------------------


     EDDAV:  cpu time   18.3720: real time   18.4240
       DOS:  cpu time    0.0004: real time    0.0004
    --------------------------------------------
      LOOP:  cpu time   18.3724: real time   18.4244

 eigenvalue-minimisations  :  4056
 total energy-change (2. order) :-0.2447252E+04  (-0.2359927E+04)
 number of electron     345.0000000 magnetization 
 augmentation part      345.0000000 magnetization 

 Free energy of the ion-electron system (eV)
  ---------------------------------------------------
  alpha Z        PSCENC =       872.70583573
  Ewald energy   TEWEN  =    -17897.96607016
  -Hartree energ DENC   =     -7456.81007204
  -exchange      EXHF   =         0.00000000
  -V(xc)+E(xc)   XCENC  =       908.34038202
  PAW double counting   =     21345.28103884   -22405.85761495
  entropy T*S    EENTRO =        -0.00000000
  eigenvalues    EBANDS =     -2686.43960254
  atomic energy  EATOM  =     26212.11861568
  Solvation  Ediel_sol  =         0.00000000
  ---------------------------------------------------
  free energy    TOTEN  =     -1108.62748741 eV

  energy without entropy =    -1108.62748741  energy(sigma->0) =    -1108.62748741


--------------------------------------------------------------------------------------------------------




--------------------------------------- Iteration      1(   3)  ---------------------------------------


     EDDAV:  cpu time   19.4078: real time   19.4579
       DOS:  cpu time    0.0004: real time    0.0004
    --------------------------------------------
      LOOP:  cpu time   19.4082: real time   19.4583

 eigenvalue-minimisations  :  4416
 total energy-change (2. order) :-0.3652970E+03  (-0.3632639E+03)
 number of electron     345.0000000 magnetization 
 augmentation part      345.0000000 magnetization 

 Free energy of the ion-electron system (eV)
  ---------------------------------------------------
  alpha Z        PSCENC =       872.70583573
  Ewald energy   TEWEN  =    -17897.96607016
  -Hartree energ DENC   =     -7456.81007204
  -exchange      EXHF   =         0.00000000
  -V(xc)+E(xc)   XCENC  =       908.34038202
  PAW double counting   =     21345.28103884   -22405.85761495
  entropy T*S    EENTRO =        -0.00000000
  eigenvalues    EBANDS =     -3051.73655791
  atomic energy  EATOM  =     26212.11861568
  Solvation  Ediel_sol  =         0.00000000
  ---------------------------------------------------
  free energy    TOTEN  =     -1473.92444279 eV

  energy without entropy =    -1473.92444279  energy(sigma->0) =    -1473.92444279


--------------------------------------------------------------------------------------------------------




--------------------------------------- Iteration      1(   4)  ---------------------------------------


     EDDAV:  cpu time   17.9337: real time   17.9652
       DOS:  cpu time    0.0004: real time    0.0004
    --------------------------------------------
      LOOP:  cpu time   17.9340: real time   17.9655

 eigenvalue-minimisations  :  3912
 total energy-change (2. order) :-0.1259979E+02  (-0.1256482E+02)
 number of electron     345.0000000 magnetization 
 augmentation part      345.0000000 magnetization 

 Free energy of the ion-electron system (eV)
  ---------------------------------------------------
  alpha Z        PSCENC =       872.70583573
  Ewald energy   TEWEN  =    -17897.96607016
  -Hartree energ DENC   =     -7456.81007204
  -exchange      EXHF   =         0.00000000
  -V(xc)+E(xc)   XCENC  =       908.34038202
  PAW double counting   =     21345.28103884   -22405.85761495
  entropy T*S    EENTRO =        -0.00000000
  eigenvalues    EBANDS =     -3064.33634427
  atomic energy  EATOM  =     26212.11861568
  Solvation  Ediel_sol  =         0.00000000
  ---------------------------------------------------
  free energy    TOTEN  =     -1486.52422914 eV

  energy without entropy =    -1486.52422914  energy(sigma->0) =    -1486.52422914


--------------------------------------------------------------------------------------------------------




--------------------------------------- Iteration      1(   5)  ---------------------------------------


     EDDAV:  cpu time   19.3954: real time   19.4004
       DOS:  cpu time    0.0004: real time    0.0004
    CHARGE:  cpu time    2.7353: real time    2.7354
    MIXING:  cpu time    0.0015: real time    0.0015
    --------------------------------------------
      LOOP:  cpu time   22.1326: real time   22.1377

 eigenvalue-minimisations  :  4416
 total energy-change (2. order) :-0.5994535E+00  (-0.5991761E+00)
 number of electron     343.9999999 magnetization 
 augmentation part       -5.0520366 magnetization 

 Broyden mixing:
  rms(total) = 0.10370E+01    rms(broyden)= 0.10364E+01
  rms(prec ) = 0.14135E+01
  weight for this iteration     100.00

 Free energy of the ion-electron system (eV)
  ---------------------------------------------------
  alpha Z        PSCENC =       872.70583573
  Ewald energy   TEWEN  =    -17897.96607016
  -Hartree energ DENC   =     -7456.81007204
  -exchange      EXHF   =         0.00000000
  -V(xc)+E(xc)   XCENC  =       908.34038202
  PAW double counting   =     21345.28103884   -22405.85761495
  entropy T*S    EENTRO =        -0.00000000
  eigenvalues    EBANDS =     -3064.93579775
  atomic energy  EATOM  =     26212.11861568
  Solvation  Ediel_sol  =         0.00000000
  ---------------------------------------------------
  free energy    TOTEN  =     -1487.12368262 eV

  energy without entropy =    -1487.12368262  energy(sigma->0) =    -1487.12368262


--------------------------------------------------------------------------------------------------------




--------------------------------------- Iteration      1(   6)  ---------------------------------------


    POTLOK:  cpu time    0.3105: real time    0.3129
    SETDIJ:  cpu time    1.1967: real time    1.1967
     EDDAV:  cpu time   19.1242: real time   19.1250
       DOS:  cpu time    0.0004: real time    0.0004
    CHARGE:  cpu time    2.6974: real time    2.6975
    MIXING:  cpu time    0.0017: real time    0.0017
    --------------------------------------------
      LOOP:  cpu time   23.3308: real time   23.3342

 eigenvalue-minimisations  :  4320
 total energy-change (2. order) : 0.7765744E+02  (-0.2362180E+01)
 number of electron     343.9999999 magnetization 
 augmentation part       -3.6732521 magnetization 

 Broyden mixing:
  rms(total) = 0.73697E+00    rms(broyden)= 0.73689E+00
  rms(prec ) = 0.91304E+00
  weight for this iteration     100.00

 eigenvalues of (default mixing * dielectric matrix)
  average eigenvalue GAMMA=   1.2291
  1.2291

 Free energy of the ion-electron system (eV)
  ---------------------------------------------------
  alpha Z        PSCENC =       872.70583573
  Ewald energy   TEWEN  =    -17897.96607016
  -Hartree energ DENC   =     -7437.95535875
  -exchange      EXHF   =         0.00000000
  -V(xc)+E(xc)   XCENC  =       936.35169226
  PAW double counting   =     21651.77789370   -22710.77476854
  entropy T*S    EENTRO =        -0.00000000
  eigenvalues    EBANDS =     -3035.72408303
  atomic energy  EATOM  =     26212.11861568
  Solvation  Ediel_sol  =         0.00000000
  ---------------------------------------------------
  free energy    TOTEN  =     -1409.46624310 eV

  energy without entropy =    -1409.46624310  energy(sigma->0) =    -1409.46624310


--------------------------------------------------------------------------------------------------------




--------------------------------------- Iteration      1(   7)  ---------------------------------------


    POTLOK:  cpu time    0.3203: real time    0.3221
    SETDIJ:  cpu time    1.1971: real time    1.1971
     EDDAV:  cpu time   18.4256: real time   18.4265
       DOS:  cpu time    0.0005: real time    0.0005
    CHARGE:  cpu time    2.6981: real time    2.6984
    MIXING:  cpu time    0.0015: real time    0.0015
    --------------------------------------------
      LOOP:  cpu time   22.6432: real time   22.6462

 eigenvalue-minimisations  :  4088
 total energy-change (2. order) : 0.5044314E+00  (-0.8623713E+00)
 number of electron     343.9999999 magnetization 
 augmentation part       -3.1110282 magnetization 

 Broyden mixing:
  rms(total) = 0.37304E+00    rms(broyden)= 0.37303E+00
  rms(prec ) = 0.41476E+00
  weight for this iteration     100.00

 eigenvalues of (default mixing * dielectric matrix)
  average eigenvalue GAMMA=   1.3088
  1.3088  1.3088

 Free energy of the ion-electron system (eV)
  ---------------------------------------------------
  alpha Z        PSCENC =       872.70583573
  Ewald energy   TEWEN  =    -17897.96607016
  -Hartree energ DENC   =     -7481.12337833
  -exchange      EXHF   =         0.00000000
  -V(xc)+E(xc)   XCENC  =       941.46433079
  PAW double counting   =     22290.92597250   -23348.21730873
  entropy T*S    EENTRO =        -0.00000000
  eigenvalues    EBANDS =     -2998.86980918
  atomic energy  EATOM  =     26212.11861568
  Solvation  Ediel_sol  =         0.00000000
  ---------------------------------------------------
  free energy    TOTEN  =     -1408.96181170 eV

  energy without entropy =    -1408.96181170  energy(sigma->0) =    -1408.96181170


--------------------------------------------------------------------------------------------------------




--------------------------------------- Iteration      1(   8)  ---------------------------------------


    POTLOK:  cpu time    0.2675: real time    0.3146
    SETDIJ:  cpu time    1.1959: real time    1.1959
     EDDAV:  cpu time   18.3751: real time   18.3762
       DOS:  cpu time    0.0004: real time    0.0004
    CHARGE:  cpu time    2.7009: real time    2.7010
    MIXING:  cpu time    0.0020: real time    0.0020
    --------------------------------------------
      LOOP:  cpu time   22.5419: real time   22.5901

 eigenvalue-minimisations  :  4064
 total energy-change (2. order) :-0.1730860E+00  (-0.4439818E-01)
 number of electron     343.9999999 magnetization 
 augmentation part       -3.1975474 magnetization 

 Broyden mixing:
  rms(total) = 0.21741E+00    rms(broyden)= 0.21740E+00
  rms(prec ) = 0.24617E+00
  weight for this iteration     100.00

 eigenvalues of (default mixing * dielectric matrix)
  average eigenvalue GAMMA=   1.6983
  1.1250  1.3004  2.6695

 Free energy of the ion-electron system (eV)
  ---------------------------------------------------
  alpha Z        PSCENC =       872.70583573
  Ewald energy   TEWEN  =    -17897.96607016
  -Hartree energ DENC   =     -7487.37552308
  -exchange      EXHF   =         0.00000000
  -V(xc)+E(xc)   XCENC  =       942.19323127
  PAW double counting   =     22530.43751808   -23588.17376205
  entropy T*S    EENTRO =        -0.00000000
  eigenvalues    EBANDS =     -2993.07474318
  atomic energy  EATOM  =     26212.11861568
  Solvation  Ediel_sol  =         0.00000000
  ---------------------------------------------------
  free energy    TOTEN  =     -1409.13489771 eV

  energy without entropy =    -1409.13489771  energy(sigma->0) =    -1409.13489771


--------------------------------------------------------------------------------------------------------




--------------------------------------- Iteration      1(   9)  ---------------------------------------


    POTLOK:  cpu time    0.3098: real time    0.3134
    SETDIJ:  cpu time    1.1937: real time    1.1938
     EDDAV:  cpu time   17.6379: real time   17.6387
       DOS:  cpu time    0.0005: real time    0.0005
    CHARGE:  cpu time    2.7093: real time    2.7094
    MIXING:  cpu time    0.0016: real time    0.0016
    --------------------------------------------
      LOOP:  cpu time   21.8528: real time   21.8574

 eigenvalue-minimisations  :  3816
 total energy-change (2. order) :-0.6638070E-01  (-0.1711850E-01)
 number of electron     343.9999999 magnetization 
 augmentation part       -3.2361804 magnetization 

 Broyden mixing:
  rms(total) = 0.46037E-01    rms(broyden)= 0.46034E-01
  rms(prec ) = 0.55850E-01
  weight for this iteration     100.00

 eigenvalues of (default mixing * dielectric matrix)
  average eigenvalue GAMMA=   1.4719
  2.5379  1.2497  1.2497  0.8503

 Free energy of the ion-electron system (eV)
  ---------------------------------------------------
  alpha Z        PSCENC =       872.70583573
  Ewald energy   TEWEN  =    -17897.96607016
  -Hartree energ DENC   =     -7494.89813465
  -exchange      EXHF   =         0.00000000
  -V(xc)+E(xc)   XCENC  =       944.08269124
  PAW double counting   =     22873.15459283   -23931.82049566
  entropy T*S    EENTRO =        -0.00000000
  eigenvalues    EBANDS =     -2986.57831343
  atomic energy  EATOM  =     26212.11861568
  Solvation  Ediel_sol  =         0.00000000
  ---------------------------------------------------
  free energy    TOTEN  =     -1409.20127841 eV

  energy without entropy =    -1409.20127841  energy(sigma->0) =    -1409.20127841


--------------------------------------------------------------------------------------------------------




--------------------------------------- Iteration      1(  10)  ---------------------------------------


    POTLOK:  cpu time    0.2687: real time    0.3193
    SETDIJ:  cpu time    1.1954: real time    1.1954
     EDDAV:  cpu time   20.0561: real time   20.0568
       DOS:  cpu time    0.0006: real time    0.0006
    CHARGE:  cpu time    2.7011: real time    2.7012
    MIXING:  cpu time    0.0017: real time    0.0017
    --------------------------------------------
      LOOP:  cpu time   24.2234: real time   24.2749

 eigenvalue-minimisations  :  4648
 total energy-change (2. order) :-0.3328077E-02  (-0.2377252E-02)
 number of electron     343.9999999 magnetization 
 augmentation part       -3.2225443 magnetization 

 Broyden mixing:
  rms(total) = 0.32349E-01    rms(broyden)= 0.32347E-01
  rms(prec ) = 0.41208E-01
  weight for this iteration     100.00

 eigenvalues of (default mixing * dielectric matrix)
  average eigenvalue GAMMA=   1.3137
  2.4244  1.3282  1.3282  0.8502  0.6375

 Free energy of the ion-electron system (eV)
  ---------------------------------------------------
  alpha Z        PSCENC =       872.70583573
  Ewald energy   TEWEN  =    -17897.96607016
  -Hartree energ DENC   =     -7493.23400259
  -exchange      EXHF   =         0.00000000
  -V(xc)+E(xc)   XCENC  =       943.93814284
  PAW double counting   =     22841.91168307   -23900.61317612
  entropy T*S    EENTRO =        -0.00000000
  eigenvalues    EBANDS =     -2988.06563494
  atomic energy  EATOM  =     26212.11861568
  Solvation  Ediel_sol  =         0.00000000
  ---------------------------------------------------
  free energy    TOTEN  =     -1409.20460649 eV

  energy without entropy =    -1409.20460649  energy(sigma->0) =    -1409.20460649


--------------------------------------------------------------------------------------------------------




--------------------------------------- Iteration      1(  11)  ---------------------------------------


    POTLOK:  cpu time    0.3001: real time    0.3023
    SETDIJ:  cpu time    1.1974: real time    1.1974
     EDDAV:  cpu time   17.5536: real time   17.5544
       DOS:  cpu time    0.0004: real time    0.0004
    CHARGE:  cpu time    2.7141: real time    2.7142
    MIXING:  cpu time    0.0020: real time    0.0020
    --------------------------------------------
      LOOP:  cpu time   21.7675: real time   21.7707

 eigenvalue-minimisations  :  3784
 total energy-change (2. order) :-0.1930631E-02  (-0.2829738E-03)
 number of electron     343.9999999 magnetization 
 augmentation part       -3.2210771 magnetization 

 Broyden mixing:
  rms(total) = 0.15081E-01    rms(broyden)= 0.15081E-01
  rms(prec ) = 0.23434E-01
  weight for this iteration     100.00

 eigenvalues of (default mixing * dielectric matrix)
  average eigenvalue GAMMA=   1.6036
  2.7610  2.7610  1.2056  1.2056  0.8442  0.8442

 Free energy of the ion-electron system (eV)
  ---------------------------------------------------
  alpha Z        PSCENC =       872.70583573
  Ewald energy   TEWEN  =    -17897.96607016
  -Hartree energ DENC   =     -7491.93291071
  -exchange      EXHF   =         0.00000000
  -V(xc)+E(xc)   XCENC  =       943.87694443
  PAW double counting   =     22824.45006541   -23883.30385636
  entropy T*S    EENTRO =        -0.00000000
  eigenvalues    EBANDS =     -2989.15516116
  atomic energy  EATOM  =     26212.11861568
  Solvation  Ediel_sol  =         0.00000000
  ---------------------------------------------------
  free energy    TOTEN  =     -1409.20653712 eV

  energy without entropy =    -1409.20653712  energy(sigma->0) =    -1409.20653712


--------------------------------------------------------------------------------------------------------




--------------------------------------- Iteration      1(  12)  ---------------------------------------


    POTLOK:  cpu time    0.2830: real time    0.3233
    SETDIJ:  cpu time    1.1963: real time    1.1963
     EDDAV:  cpu time   17.0274: real time   17.0283
       DOS:  cpu time    0.0004: real time    0.0004
    CHARGE:  cpu time    2.7034: real time    2.7035
    MIXING:  cpu time    0.0017: real time    0.0017
    --------------------------------------------
      LOOP:  cpu time   21.2122: real time   21.2535

 eigenvalue-minimisations  :  3608
 total energy-change (2. order) :-0.2640878E-02  (-0.5454649E-03)
 number of electron     343.9999999 magnetization 
 augmentation part       -3.2243964 magnetization 

 Broyden mixing:
  rms(total) = 0.10515E-01    rms(broyden)= 0.10514E-01
  rms(prec ) = 0.13417E-01
  weight for this iteration     100.00

 eigenvalues of (default mixing * dielectric matrix)
  average eigenvalue GAMMA=   1.5953
  2.8551  2.8551  1.3149  1.3149  0.8883  0.9693  0.9693

 Free energy of the ion-electron system (eV)
  ---------------------------------------------------
  alpha Z        PSCENC =       872.70583573
  Ewald energy   TEWEN  =    -17897.96607016
  -Hartree energ DENC   =     -7491.26804909
  -exchange      EXHF   =         0.00000000
  -V(xc)+E(xc)   XCENC  =       943.92009788
  PAW double counting   =     22818.84988316   -23877.96265036
  entropy T*S    EENTRO =        -0.00000000
  eigenvalues    EBANDS =     -2989.60684085
  atomic energy  EATOM  =     26212.11861568
  Solvation  Ediel_sol  =         0.00000000
  ---------------------------------------------------
  free energy    TOTEN  =     -1409.20917800 eV

  energy without entropy =    -1409.20917800  energy(sigma->0) =    -1409.20917800


--------------------------------------------------------------------------------------------------------




--------------------------------------- Iteration      1(  13)  ---------------------------------------


    POTLOK:  cpu time    0.2589: real time    0.3202
    SETDIJ:  cpu time    1.1966: real time    1.1967
     EDDAV:  cpu time   19.2731: real time   19.2739
       DOS:  cpu time    0.0004: real time    0.0004
    CHARGE:  cpu time    2.7078: real time    2.7079
    MIXING:  cpu time    0.0020: real time    0.0020
    --------------------------------------------
      LOOP:  cpu time   23.4389: real time   23.5010

 eigenvalue-minimisations  :  4376
 total energy-change (2. order) : 0.3925417E-03  (-0.1630550E-03)
 number of electron     343.9999999 magnetization 
 augmentation part       -3.2254586 magnetization 

 Broyden mixing:
  rms(total) = 0.49959E-02    rms(broyden)= 0.49953E-02
  rms(prec ) = 0.58028E-02
  weight for this iteration     100.00

 eigenvalues of (default mixing * dielectric matrix)
  average eigenvalue GAMMA=   1.5594
  3.2273  2.4441  1.6833  1.0811  1.0811  1.1835  0.9945  0.7801

 Free energy of the ion-electron system (eV)
  ---------------------------------------------------
  alpha Z        PSCENC =       872.70583573
  Ewald energy   TEWEN  =    -17897.96607016
  -Hartree energ DENC   =     -7492.36118184
  -exchange      EXHF   =         0.00000000
  -V(xc)+E(xc)   XCENC  =       943.98400380
  PAW double counting   =     22818.57291251   -23877.63946960
  entropy T*S    EENTRO =        -0.00000000
  eigenvalues    EBANDS =     -2988.62343158
  atomic energy  EATOM  =     26212.11861568
  Solvation  Ediel_sol  =         0.00000000
  ---------------------------------------------------
  free energy    TOTEN  =     -1409.20878546 eV

  energy without entropy =    -1409.20878546  energy(sigma->0) =    -1409.20878546


--------------------------------------------------------------------------------------------------------




--------------------------------------- Iteration      1(  14)  ---------------------------------------


    POTLOK:  cpu time    0.2594: real time    0.3170
    SETDIJ:  cpu time    1.1957: real time    1.1957
     EDDAV:  cpu time   17.9620: real time   17.9626
       DOS:  cpu time    0.0005: real time    0.0005
    CHARGE:  cpu time    2.7073: real time    2.7074
    MIXING:  cpu time    0.0018: real time    0.0018
    --------------------------------------------
      LOOP:  cpu time   22.1267: real time   22.1850

 eigenvalue-minimisations  :  3928
 total energy-change (2. order) : 0.6720933E-04  (-0.4861834E-04)
 number of electron     343.9999999 magnetization 
 augmentation part       -3.2247966 magnetization 

 Broyden mixing:
  rms(total) = 0.28573E-02    rms(broyden)= 0.28562E-02
  rms(prec ) = 0.35982E-02
  weight for this iteration     100.00

 eigenvalues of (default mixing * dielectric matrix)
  average eigenvalue GAMMA=   1.5591
  3.2752  2.2995  2.2995  1.1585  1.1585  0.8753  0.8753  1.0451  1.0451

 Free energy of the ion-electron system (eV)
  ---------------------------------------------------
  alpha Z        PSCENC =       872.70583573
  Ewald energy   TEWEN  =    -17897.96607016
  -Hartree energ DENC   =     -7492.65168425
  -exchange      EXHF   =         0.00000000
  -V(xc)+E(xc)   XCENC  =       944.00052379
  PAW double counting   =     22820.46808677   -23879.51492775
  entropy T*S    EENTRO =        -0.00000000
  eigenvalues    EBANDS =     -2988.36909807
  atomic energy  EATOM  =     26212.11861568
  Solvation  Ediel_sol  =         0.00000000
  ---------------------------------------------------
  free energy    TOTEN  =     -1409.20871825 eV

  energy without entropy =    -1409.20871825  energy(sigma->0) =    -1409.20871825


--------------------------------------------------------------------------------------------------------




--------------------------------------- Iteration      1(  15)  ---------------------------------------


    POTLOK:  cpu time    0.2503: real time    0.3095
    SETDIJ:  cpu time    1.1971: real time    1.1971
     EDDAV:  cpu time   17.5704: real time   17.5715
       DOS:  cpu time    0.0004: real time    0.0004
    CHARGE:  cpu time    2.7098: real time    2.7098
    MIXING:  cpu time    0.0018: real time    0.0018
    --------------------------------------------
      LOOP:  cpu time   21.7298: real time   21.7901

 eigenvalue-minimisations  :  3792
 total energy-change (2. order) : 0.2017824E-04  (-0.3634789E-05)
 number of electron     343.9999999 magnetization 
 augmentation part       -3.2248152 magnetization 

 Broyden mixing:
  rms(total) = 0.17555E-02    rms(broyden)= 0.17545E-02
  rms(prec ) = 0.22922E-02
  weight for this iteration     100.00

 eigenvalues of (default mixing * dielectric matrix)
  average eigenvalue GAMMA=   1.6411
  3.8024  2.4783  2.4783  1.3371  1.3371  1.1601  1.1601  0.8073  0.9252  0.9252

 Free energy of the ion-electron system (eV)
  ---------------------------------------------------
  alpha Z        PSCENC =       872.70583573
  Ewald energy   TEWEN  =    -17897.96607016
  -Hartree energ DENC   =     -7492.79572382
  -exchange      EXHF   =         0.00000000
  -V(xc)+E(xc)   XCENC  =       944.00523525
  PAW double counting   =     22820.85684310   -23879.89770024
  entropy T*S    EENTRO =        -0.00000000
  eigenvalues    EBANDS =     -2988.23573362
  atomic energy  EATOM  =     26212.11861568
  Solvation  Ediel_sol  =         0.00000000
  ---------------------------------------------------
  free energy    TOTEN  =     -1409.20869807 eV

  energy without entropy =    -1409.20869807  energy(sigma->0) =    -1409.20869807


--------------------------------------------------------------------------------------------------------




--------------------------------------- Iteration      1(  16)  ---------------------------------------


    POTLOK:  cpu time    0.2922: real time    0.3158
    SETDIJ:  cpu time    1.1998: real time    1.1999
     EDDAV:  cpu time   17.6722: real time   17.6732
       DOS:  cpu time    0.0006: real time    0.0006
    CHARGE:  cpu time    2.7036: real time    2.7037
    MIXING:  cpu time    0.0022: real time    0.0022
    --------------------------------------------
      LOOP:  cpu time   21.8706: real time   21.8954

 eigenvalue-minimisations  :  3816
 total energy-change (2. order) :-0.6188098E-04  (-0.3823183E-05)
 number of electron     343.9999999 magnetization 
 augmentation part       -3.2243499 magnetization 

 Broyden mixing:
  rms(total) = 0.69046E-03    rms(broyden)= 0.68788E-03
  rms(prec ) = 0.81439E-03
  weight for this iteration     100.00

 eigenvalues of (default mixing * dielectric matrix)
  average eigenvalue GAMMA=   1.6895
  4.2780  2.6960  2.5068  1.9618  1.0557  1.0557  1.1474  1.1474  0.9613  0.9613
  0.8130

 Free energy of the ion-electron system (eV)
  ---------------------------------------------------
  alpha Z        PSCENC =       872.70583573
  Ewald energy   TEWEN  =    -17897.96607016
  -Hartree energ DENC   =     -7492.77515521
  -exchange      EXHF   =         0.00000000
  -V(xc)+E(xc)   XCENC  =       943.99449278
  PAW double counting   =     22820.06094687   -23879.09977591
  entropy T*S    EENTRO =        -0.00000000
  eigenvalues    EBANDS =     -2988.24764974
  atomic energy  EATOM  =     26212.11861568
  Solvation  Ediel_sol  =         0.00000000
  ---------------------------------------------------
  free energy    TOTEN  =     -1409.20875995 eV

  energy without entropy =    -1409.20875995  energy(sigma->0) =    -1409.20875995


--------------------------------------------------------------------------------------------------------




--------------------------------------- Iteration      1(  17)  ---------------------------------------


    POTLOK:  cpu time    0.3016: real time    0.3189
    SETDIJ:  cpu time    1.1997: real time    1.1998
     EDDAV:  cpu time   17.4913: real time   17.4921
       DOS:  cpu time    0.0004: real time    0.0004
    --------------------------------------------
      LOOP:  cpu time   18.9930: real time   19.0111

 eigenvalue-minimisations  :  3744
 total energy-change (2. order) : 0.3364848E-06  (-0.7087974E-06)
 number of electron     343.9999999 magnetization 
 augmentation part       -3.2243499 magnetization 

 Free energy of the ion-electron system (eV)
  ---------------------------------------------------
  alpha Z        PSCENC =       872.70583573
  Ewald energy   TEWEN  =    -17897.96607016
  -Hartree energ DENC   =     -7492.76771474
  -exchange      EXHF   =         0.00000000
  -V(xc)+E(xc)   XCENC  =       943.99173209
  PAW double counting   =     22820.22320954   -23879.25994094
  entropy T*S    EENTRO =        -0.00000000
  eigenvalues    EBANDS =     -2988.25442682
  atomic energy  EATOM  =     26212.11861568
  Solvation  Ediel_sol  =         0.00000000
  ---------------------------------------------------
  free energy    TOTEN  =     -1409.20875961 eV

  energy without entropy =    -1409.20875961  energy(sigma->0) =    -1409.20875961


--------------------------------------------------------------------------------------------------------




 average (electrostatic) potential at core
  the test charge radii are     1.1312  1.1541  1.0178
  (the norm of the test charge is              1.0000)
       1 -55.1431       2 -55.1981       3 -55.2747       4 -55.1313       5 -55.2695
       6 -55.3940       7 -55.2300       8 -55.2290       9-101.6047      10-101.5561
      11-101.6151      12-101.6376      13-101.8917      14-101.9293      15-101.6775
      16-101.6295      17 -69.0733      18 -69.0773      19 -69.0335      20 -68.9332
      21 -69.0313      22 -68.9071      23 -69.0684      24 -69.0960      25 -69.0170
      26 -69.3837      27 -68.9850      28 -68.9459      29 -68.9872      30 -69.0134
      31 -68.9064      32 -69.0225      33 -68.9152      34 -68.9061      35 -69.0083
      36 -69.0399      37 -69.3590      38 -68.9798      39 -69.3520



 E-fermi :   0.5017     XC(G=0):  -7.9514     alpha+bet : -6.9586


 k-point     1 :       0.0000    0.0000    0.0000
  band No.  band energies     occupation 
      1     -20.9169      2.00000
      2     -20.8036      2.00000
      3     -20.7988      2.00000
      4     -20.7585      2.00000
      5     -20.7562      2.00000
      6     -20.7416      2.00000
      7     -20.6749      2.00000
      8     -20.6674      2.00000
      9     -16.7009      2.00000
     10     -16.6717      2.00000
     11     -16.6707      2.00000
     12     -16.6481      2.00000
     13     -16.6311      2.00000
     14     -16.5986      2.00000
     15     -16.5885      2.00000
     16     -16.5597      2.00000
     17     -16.5525      2.00000
     18     -16.5507      2.00000
     19     -16.5168      2.00000
     20     -16.4680      2.00000
     21     -16.4587      2.00000
     22     -16.4385      2.00000
     23     -16.4347      2.00000
     24     -16.4184      2.00000
     25     -16.4115      2.00000
     26     -16.4023      2.00000
     27     -16.3998      2.00000
     28     -16.3686      2.00000
     29     -16.3597      2.00000
     30     -16.3594      2.00000
     31     -16.3397      2.00000
     32     -16.3377      2.00000
     33     -16.3265      2.00000
     34     -16.3137      2.00000
     35     -16.3099      2.00000
     36     -16.3042      2.00000
     37     -16.2977      2.00000
     38     -16.2886      2.00000
     39     -16.2857      2.00000
     40     -16.2780      2.00000
     41     -16.2724      2.00000
     42     -16.2714      2.00000
     43     -16.2690      2.00000
     44     -16.2635      2.00000
     45     -16.2588      2.00000
     46     -16.2196      2.00000
     47     -16.2128      2.00000
     48     -16.2103      2.00000
     49     -14.5217      2.00000
     50     -14.3770      2.00000
     51     -14.3532      2.00000
     52     -14.2873      2.00000
     53     -14.1434      2.00000
     54     -14.1402      2.00000
     55     -14.1131      2.00000
     56     -14.1054      2.00000
     57     -14.0899      2.00000
     58     -14.0711      2.00000
     59     -14.0433      2.00000
     60     -14.0359      2.00000
     61     -14.0347      2.00000
     62     -13.9902      2.00000
     63     -13.9661      2.00000
     64     -13.9545      2.00000
     65     -13.9494      2.00000
     66     -13.9337      2.00000
     67     -13.8791      2.00000
     68     -13.7806      2.00000
     69     -13.7695      2.00000
     70     -13.7062      2.00000
     71     -13.7014      2.00000
     72      -8.2041      2.00000
     73      -7.8018      2.00000
     74      -7.7697      2.00000
     75      -7.6691      2.00000
     76      -7.3714      2.00000
     77      -7.3316      2.00000
     78      -7.3013      2.00000
     79      -7.2861      2.00000
     80      -7.2427      2.00000
     81      -7.2294      2.00000
     82      -7.2205      2.00000
     83      -7.2094      2.00000
     84      -7.1985      2.00000
     85      -7.1940      2.00000
     86      -7.1838      2.00000
     87      -7.1789      2.00000
     88      -7.1742      2.00000
     89      -7.1611      2.00000
     90      -7.1574      2.00000
     91      -7.1562      2.00000
     92      -7.1444      2.00000
     93      -7.1414      2.00000
     94      -7.1323      2.00000
     95      -7.1186      2.00000
     96      -7.0911      2.00000
     97      -7.0888      2.00000
     98      -7.0831      2.00000
     99      -7.0749      2.00000
    100      -7.0659      2.00000
    101      -7.0454      2.00000
    102      -7.0375      2.00000
    103      -6.5833      2.00000
    104      -3.3739      2.00000
    105      -3.3265      2.00000
    106      -3.3062      2.00000
    107      -3.2964      2.00000
    108      -3.2482      2.00000
    109      -3.2244      2.00000
    110      -3.1778      2.00000
    111      -3.1354      2.00000
    112      -3.1335      2.00000
    113      -3.0871      2.00000
    114      -3.0329      2.00000
    115      -2.8997      2.00000
    116      -2.2552      2.00000
    117      -2.1822      2.00000
    118      -2.1658      2.00000
    119      -2.1139      2.00000
    120      -2.0209      2.00000
    121      -1.9926      2.00000
    122      -1.9534      2.00000
    123      -1.9140      2.00000
    124      -1.8920      2.00000
    125      -1.8482      2.00000
    126      -1.8168      2.00000
    127      -1.7362      2.00000
    128      -1.7102      2.00000
    129      -1.6744      2.00000
    130      -1.6527      2.00000
    131      -1.6449      2.00000
    132      -1.6066      2.00000
    133      -1.5930      2.00000
    134      -1.5421      2.00000
    135      -1.5210      2.00000
    136      -1.5123      2.00000
    137      -1.5018      2.00000
    138      -1.4924      2.00000
    139      -1.4687      2.00000
    140      -1.4580      2.00000
    141      -1.4421      2.00000
    142      -1.4210      2.00000
    143      -1.4020      2.00000
    144      -1.4012      2.00000
    145      -1.3857      2.00000
    146      -1.3812      2.00000
    147      -1.3578      2.00000
    148      -1.3512      2.00000
    149      -1.3464      2.00000
    150      -1.3082      2.00000
    151      -1.3001      2.00000
    152      -1.2946      2.00000
    153      -1.2836      2.00000
    154      -1.2581      2.00000
    155      -1.2523      2.00000
    156      -1.2413      2.00000
    157      -1.1896      2.00000
    158      -1.1465      2.00000
    159      -1.1330      2.00000
    160      -1.0718      2.00000
    161      -1.0452      2.00000
    162      -1.0129      2.00000
    163      -0.9963      2.00000
    164      -0.9547      2.00000
    165      -0.8639      2.00000
    166      -0.8296      2.00000
    167      -0.7164      2.00000
    168      -0.6036      2.00000
    169      -0.3335      2.00000
    170      -0.2211      2.00000
    171      -0.0608      2.00000
    172       0.3990      2.00000
    173       2.6927      0.00000
    174       2.7594      0.00000
    175       2.8148      0.00000
    176       2.9477      0.00000
    177       3.0688      0.00000
    178       3.1321      0.00000
    179       3.1610      0.00000
    180       3.2365      0.00000
    181       3.3427      0.00000
    182       3.4886      0.00000
    183       3.5095      0.00000
    184       3.6089      0.00000
    185       4.2407      0.00000
    186       4.8187      0.00000
    187       5.2199      0.00000
    188       5.5808      0.00000
    189       5.6049      0.00000
    190       5.6802      0.00000
    191       5.8377      0.00000
    192       5.8811      0.00000
    193       5.9315      0.00000
    194       5.9602      0.00000
    195       6.0166      0.00000
    196       6.0582      0.00000
    197       6.1363      0.00000
    198       6.1879      0.00000
    199       6.2163      0.00000
    200       6.2328      0.00000
    201       6.2822      0.00000
    202       6.3133      0.00000
    203       6.3670      0.00000
    204       6.4180      0.00000
    205       6.4825      0.00000
    206       6.5587      0.00000
    207       6.5690      0.00000
    208       6.6682      0.00000

 k-point     2 :       0.5000    0.0000    0.0000
  band No.  band energies     occupation 
      1     -20.9169      2.00000
      2     -20.8036      2.00000
      3     -20.7988      2.00000
      4     -20.7585      2.00000
      5     -20.7562      2.00000
      6     -20.7416      2.00000
      7     -20.6749      2.00000
      8     -20.6674      2.00000
      9     -16.7007      2.00000
     10     -16.6715      2.00000
     11     -16.6707      2.00000
     12     -16.6453      2.00000
     13     -16.6311      2.00000
     14     -16.5986      2.00000
     15     -16.5885      2.00000
     16     -16.5597      2.00000
     17     -16.5525      2.00000
     18     -16.5507      2.00000
     19     -16.5168      2.00000
     20     -16.4683      2.00000
     21     -16.4588      2.00000
     22     -16.4376      2.00000
     23     -16.4314      2.00000
     24     -16.4050      2.00000
     25     -16.4035      2.00000
     26     -16.4006      2.00000
     27     -16.3996      2.00000
     28     -16.3858      2.00000
     29     -16.3642      2.00000
     30     -16.3597      2.00000
     31     -16.3397      2.00000
     32     -16.3377      2.00000
     33     -16.3265      2.00000
     34     -16.3206      2.00000
     35     -16.3136      2.00000
     36     -16.3043      2.00000
     37     -16.2978      2.00000
     38     -16.2887      2.00000
     39     -16.2857      2.00000
     40     -16.2779      2.00000
     41     -16.2724      2.00000
     42     -16.2714      2.00000
     43     -16.2691      2.00000
     44     -16.2635      2.00000
     45     -16.2588      2.00000
     46     -16.2196      2.00000
     47     -16.2128      2.00000
     48     -16.2103      2.00000
     49     -14.5077      2.00000
     50     -14.3861      2.00000
     51     -14.3681      2.00000
     52     -14.2728      2.00000
     53     -14.2066      2.00000
     54     -14.1455      2.00000
     55     -14.1159      2.00000
     56     -14.1051      2.00000
     57     -14.0880      2.00000
     58     -14.0769      2.00000
     59     -14.0477      2.00000
     60     -14.0361      2.00000
     61     -14.0003      2.00000
     62     -13.9796      2.00000
     63     -13.9646      2.00000
     64     -13.9541      2.00000
     65     -13.9055      2.00000
     66     -13.8723      2.00000
     67     -13.8659      2.00000
     68     -13.8007      2.00000
     69     -13.7720      2.00000
     70     -13.7594      2.00000
     71     -13.7122      2.00000
     72      -8.0447      2.00000
     73      -7.9740      2.00000
     74      -7.6494      2.00000
     75      -7.5296      2.00000
     76      -7.4535      2.00000
     77      -7.4412      2.00000
     78      -7.3418      2.00000
     79      -7.2986      2.00000
     80      -7.2764      2.00000
     81      -7.2354      2.00000
     82      -7.2266      2.00000
     83      -7.2070      2.00000
     84      -7.1957      2.00000
     85      -7.1864      2.00000
     86      -7.1831      2.00000
     87      -7.1773      2.00000
     88      -7.1758      2.00000
     89      -7.1709      2.00000
     90      -7.1540      2.00000
     91      -7.1507      2.00000
     92      -7.1471      2.00000
     93      -7.1380      2.00000
     94      -7.1309      2.00000
     95      -7.1168      2.00000
     96      -7.1000      2.00000
     97      -7.0853      2.00000
     98      -7.0821      2.00000
     99      -7.0767      2.00000
    100      -7.0617      2.00000
    101      -7.0482      2.00000
    102      -6.9214      2.00000
    103      -6.8527      2.00000
    104      -3.3443      2.00000
    105      -3.3253      2.00000
    106      -3.2757      2.00000
    107      -3.2407      2.00000
    108      -3.2333      2.00000
    109      -3.1752      2.00000
    110      -3.1349      2.00000
    111      -3.0368      2.00000
    112      -2.9457      2.00000
    113      -2.5895      2.00000
    114      -2.5131      2.00000
    115      -2.4442      2.00000
    116      -2.4375      2.00000
    117      -2.4003      2.00000
    118      -2.3218      2.00000
    119      -2.1620      2.00000
    120      -2.1289      2.00000
    121      -2.0759      2.00000
    122      -2.0411      2.00000
    123      -2.0245      2.00000
    124      -1.9921      2.00000
    125      -1.9653      2.00000
    126      -1.9043      2.00000
    127      -1.8622      2.00000
    128      -1.8187      2.00000
    129      -1.7848      2.00000
    130      -1.7334      2.00000
    131      -1.6762      2.00000
    132      -1.6382      2.00000
    133      -1.5963      2.00000
    134      -1.5826      2.00000
    135      -1.5600      2.00000
    136      -1.5405      2.00000
    137      -1.4997      2.00000
    138      -1.4964      2.00000
    139      -1.4507      2.00000
    140      -1.4427      2.00000
    141      -1.4288      2.00000
    142      -1.4231      2.00000
    143      -1.4127      2.00000
    144      -1.3930      2.00000
    145      -1.3869      2.00000
    146      -1.3795      2.00000
    147      -1.3662      2.00000
    148      -1.3498      2.00000
    149      -1.3282      2.00000
    150      -1.3190      2.00000
    151      -1.2929      2.00000
    152      -1.2636      2.00000
    153      -1.2585      2.00000
    154      -1.2355      2.00000
    155      -1.2126      2.00000
    156      -1.1981      2.00000
    157      -1.1709      2.00000
    158      -1.1628      2.00000
    159      -1.1408      2.00000
    160      -1.1243      2.00000
    161      -1.1025      2.00000
    162      -1.0515      2.00000
    163      -1.0341      2.00000
    164      -0.9798      2.00000
    165      -0.8992      2.00000
    166      -0.8876      2.00000
    167      -0.6686      2.00000
    168      -0.6236      2.00000
    169      -0.5284      2.00000
    170      -0.3902      2.00000
    171      -0.0075      2.00000
    172       0.0828      2.00000
    173       2.5775      0.00000
[...]


--------------------------------------------------------------------------------------------------------


 soft charge-density along one line, spin component           1
         0         1         2         3         4         5         6         7         8         9
 total charge-density along one line

 pseudopotential strength for first ion, spin component:           1
 17.911  -4.689   0.001  -0.000   0.000  -0.002   0.000  -0.000
 -4.689   1.236  -0.000   0.000  -0.000   0.000  -0.000   0.000
  0.001  -0.000   2.239   0.000   0.000  -2.673  -0.000  -0.000
 -0.000   0.000   0.000   2.239  -0.000  -0.000  -2.673   0.001
  0.000  -0.000   0.000  -0.000   2.239  -0.000   0.001  -2.673
 -0.002   0.000  -2.673  -0.000  -0.000   3.157   0.000   0.000
  0.000  -0.000  -0.000  -2.673   0.001   0.000   3.157  -0.001
 -0.000   0.000  -0.000   0.001  -2.673   0.000  -0.001   3.157
  0.000  -0.000   0.001   0.000   0.001  -0.001  -0.000  -0.001
  0.000  -0.000   0.001   0.001   0.000  -0.001  -0.001  -0.000
  0.000  -0.000  -0.000  -0.001  -0.000   0.000   0.002   0.000
 -0.000   0.000   0.000   0.000   0.001  -0.000  -0.000  -0.001
  0.000  -0.000  -0.001   0.000  -0.001   0.001  -0.000   0.001
 total augmentation occupancy for first ion, spin component:           1
  1.912  -0.137   0.000  -0.000  -0.000   0.001  -0.000   0.000   0.000   0.000   0.000  -0.000   0.000
 -0.137   0.118   0.004  -0.002   0.002  -0.002  -0.000   0.000  -0.001  -0.000  -0.001   0.002   0.000
  0.000   0.004   2.017   0.001   0.000   0.004   0.000   0.000   0.002   0.001  -0.001   0.000  -0.002
 -0.000  -0.002   0.001   2.018  -0.001   0.000   0.005  -0.000   0.000   0.002  -0.003   0.001  -0.000
 -0.000   0.002   0.000  -0.001   2.018   0.000  -0.000   0.005   0.001   0.000   0.000   0.001  -0.001
  0.001  -0.002   0.004   0.000   0.000   0.008  -0.000  -0.000  -0.001  -0.002   0.000  -0.000   0.001
 -0.000  -0.000   0.000   0.005  -0.000  -0.000   0.008   0.001  -0.000  -0.000   0.002  -0.001   0.000
  0.000   0.000   0.000  -0.000   0.005  -0.000   0.001   0.008  -0.000  -0.000  -0.001  -0.001   0.001
  0.000  -0.001   0.002   0.000   0.001  -0.001  -0.000  -0.000   0.006   0.001   0.000   0.000   0.000
  0.000  -0.000   0.001   0.002   0.000  -0.002  -0.000  -0.000   0.001   0.005   0.000  -0.000   0.000
  0.000  -0.001  -0.001  -0.003   0.000   0.000   0.002  -0.001   0.000   0.000   0.005  -0.002  -0.000
 -0.000   0.002   0.000   0.001   0.001  -0.000  -0.001  -0.001   0.000  -0.000  -0.002   0.004   0.001
  0.000   0.000  -0.002  -0.000  -0.001   0.001   0.000   0.001   0.000   0.000  -0.000   0.001   0.004


------------------------ aborting loop because EDIFF is reached ----------------------------------------





 total charge     

# of ion       s       p       d       tot
------------------------------------------
    1        1.786   4.717   0.019   6.521
    2        1.787   4.718   0.021   6.526
    3        1.786   4.717   0.018   6.520
    4        1.786   4.717   0.019   6.523
    5        1.786   4.717   0.018   6.520
    6        1.785   4.716   0.017   6.518
    7        1.786   4.717   0.018   6.520
    8        1.785   4.716   0.018   6.519
    9        1.554   0.424   9.835  11.813
   10        1.554   0.412   9.833  11.799
   11        1.553   0.420   9.834  11.808
   12        1.554   0.415   9.833  11.802
   13        1.531   0.443   9.831  11.804
   14        1.535   0.431   9.830  11.796
   15        1.553   0.413   9.833  11.798
   16        1.534   0.520   9.841  11.896
   17        1.615   3.282   0.006   4.903
   18        1.614   3.279   0.006   4.899
   19        1.614   3.287   0.007   4.908
   20        1.615   3.282   0.006   4.903
   21        1.615   3.285   0.007   4.907
   22        1.614   3.283   0.006   4.904
   23        1.614   3.280   0.006   4.901
   24        1.615   3.284   0.007   4.905
   25        1.614   3.278   0.006   4.898
   26        1.617   3.266   0.008   4.891
   27        1.615   3.277   0.006   4.898
   28        1.614   3.284   0.006   4.905
   29        1.614   3.281   0.006   4.902
   30        1.614   3.284   0.006   4.905
   31        1.614   3.282   0.006   4.902
   32        1.615   3.289   0.007   4.910
   33        1.614   3.279   0.006   4.899
   34        1.614   3.281   0.006   4.901
   35        1.614   3.286   0.006   4.907
   36        1.614   3.277   0.006   4.897
   37        1.617   3.271   0.007   4.895
   38        1.614   3.277   0.005   4.896
   39        1.620   3.303   0.014   4.936
--------------------------------------------------
tot         63.793 116.689  78.971 259.452

    CHARGE:  cpu time    0.3980: real time    0.3981
    FORLOC:  cpu time    0.0111: real time    0.0111
    FORNL :  cpu time    1.9249: real time    1.9251
    STRESS:  cpu time   49.9918: real time   49.9940
    FORCOR:  cpu time    0.2421: real time    0.2421
    FORHAR:  cpu time    0.0277: real time    0.0277
    MIXING:  cpu time    0.0018: real time    0.0018
    OFIELD:  cpu time    0.0000: real time    0.0000

  FORCE on cell =-STRESS in cart. coord.  units (eV):
  Direction    XX          YY          ZZ          XY          YZ          ZX
  --------------------------------------------------------------------------------------
  Alpha Z   872.70584   872.70584   872.70584
  Ewald   -6218.15963 -5645.19026 -6034.69522    21.37078   -32.46127    57.48848
  Hartree  2356.18439  2699.75420  2436.85170    15.66852   -13.87637    33.39418
  E(xc)   -1449.91253 -1449.43394 -1449.55349     0.05703    -0.08245     0.03166
  Local   -2529.27162 -3447.51902 -2794.03121   -37.75110    46.16327   -90.85825
  n-local  1746.66037  1750.76121  1752.48366    -0.01717    -0.90447     1.09786
  augment   817.40319   818.10374   816.94469     0.02552    -0.00815     0.09320
  Kinetic  4397.29514  4398.12812  4398.74316     1.11630    -0.06677    -0.29998
  Fock        0.00000     0.00000     0.00000     0.00000     0.00000     0.00000
  -------------------------------------------------------------------------------------
  Total      -7.09485    -2.69012    -0.55087     0.46987    -1.23622     0.94716
  in kB      -7.12638    -2.70207    -0.55332     0.47196    -1.24171     0.95136
  external pressure =       -3.46 kB  Pullay stress =        0.00 kB


 VOLUME and BASIS-vectors are now :
 -----------------------------------------------------------------------------
  energy-cutoff  :      300.00
  volume of cell :     1595.09
      direct lattice vectors                 reciprocal lattice vectors
     8.456489000  0.000000000  8.040301000     0.059126193 -0.000000000  0.062186727
     0.000000000 11.729847000  0.000000000     0.000000000  0.085252604 -0.000000000
    -8.456489000  0.000000000  8.040301000    -0.059126193  0.000000000  0.062186727

  length of vectors
    11.668703715 11.729847000 11.668703715     0.085808482  0.085252604  0.085808482


 FORCES acting on ions
    electron-ion (+dipol)            ewald-force                    non-local-force                 convergence-correction
 -----------------------------------------------------------------------------------------------
   0.231E+02 -.207E+02 -.349E+02   -.231E+02 0.205E+02 0.350E+02   0.377E-01 0.152E+00 -.267E-01   0.260E-03 0.838E-03 0.101E-02
   0.251E+02 -.435E+02 0.345E+02   -.248E+02 0.432E+02 -.344E+02   -.275E+00 0.147E+00 -.159E-02   -.623E-04 0.125E-02 -.140E-02
   -.149E+02 0.487E+02 -.288E+02   0.149E+02 -.483E+02 0.287E+02   0.689E-01 -.339E+00 0.332E-01   -.142E-02 -.116E-02 -.162E-04
   -.417E+02 0.242E+02 -.149E+02   0.416E+02 -.241E+02 0.149E+02   0.122E+00 -.860E-01 -.375E-01   0.704E-03 -.587E-03 -.177E-03
   -.158E+02 -.368E+02 -.195E+02   0.157E+02 0.365E+02 0.193E+02   0.663E-01 0.253E+00 0.165E+00   0.105E-02 0.557E-03 0.482E-04
   0.750E+02 -.494E+02 0.488E+01   -.745E+02 0.489E+02 -.503E+01   -.488E+00 0.436E+00 0.155E+00   -.144E-02 0.167E-02 -.138E-04
   -.199E+01 0.373E+02 0.139E+02   0.207E+01 -.372E+02 -.140E+02   -.732E-01 -.128E+00 0.114E+00   -.101E-03 -.110E-02 -.132E-02
   -.303E+02 0.230E+02 0.740E+01   0.302E+02 -.227E+02 -.756E+01   0.112E+00 -.298E+00 0.207E+00   0.118E-03 -.730E-03 0.137E-02
   0.149E+02 0.182E+02 0.417E+01   -.144E+02 -.182E+02 -.452E+01   -.619E+00 -.122E-01 0.357E+00   0.217E-03 0.107E-03 0.178E-03
   -.125E+02 -.316E+02 -.131E+02   0.123E+02 0.321E+02 0.130E+02   0.243E+00 -.496E+00 0.486E-01   0.925E-04 0.158E-03 0.102E-03
   -.188E+01 0.698E+00 -.145E+02   0.167E+01 -.102E+01 0.156E+02   0.205E+00 0.341E+00 -.108E+01   0.109E-03 0.112E-03 -.126E-03
   0.255E+01 -.481E+01 0.213E+02   -.238E+01 0.502E+01 -.217E+02   -.144E+00 -.210E+00 0.376E+00   -.343E-03 -.243E-03 -.229E-03
   -.103E+03 0.160E+02 0.462E+02   0.108E+03 -.166E+02 -.487E+02   -.535E+01 0.675E+00 0.260E+01   0.711E-02 -.112E-02 -.375E-02
   0.525E+02 0.167E+02 0.106E+03   -.553E+02 -.170E+02 -.110E+03   0.297E+01 0.365E+00 0.449E+01   -.500E-02 -.678E-03 -.843E-02
   0.207E+02 -.899E+01 0.105E+01   -.201E+02 0.856E+01 0.101E+00   -.591E+00 0.423E+00 -.119E+01   -.358E-03 -.873E-04 0.376E-04
   -.173E+02 0.226E+02 -.777E+01   0.162E+02 -.210E+02 -.379E+00   0.871E+00 -.142E+01 0.648E+01   0.129E-02 -.707E-03 0.260E-02
   -.161E+02 0.239E+02 0.324E+02   0.162E+02 -.238E+02 -.327E+02   -.741E-01 -.418E-01 0.256E+00   0.391E-03 0.154E-03 -.494E-05
   0.189E+02 0.255E+02 0.582E+02   -.190E+02 -.255E+02 -.586E+02   0.777E-01 0.888E-02 0.319E+00   -.493E-03 -.195E-03 -.235E-04
   -.768E+01 -.175E+02 0.309E+02   0.788E+01 0.175E+02 -.310E+02   -.171E+00 0.611E-02 0.168E+00   0.192E-03 0.308E-03 0.157E-03
   -.676E+01 -.990E+01 0.120E+02   0.663E+01 0.976E+01 -.122E+02   0.111E+00 -.585E-03 0.201E+00   0.273E-03 -.929E-03 -.207E-03
   0.203E+02 0.136E+02 -.304E+02   -.204E+02 -.136E+02 0.307E+02   0.108E+00 -.429E-02 -.284E+00   0.248E-03 -.288E-03 -.249E-03
   -.972E+00 0.220E+02 -.409E+02   0.991E+00 -.220E+02 0.412E+02   -.234E-01 0.188E+00 -.313E+00   0.109E-03 0.880E-03 0.620E-04
   -.199E+02 -.233E+02 -.299E+02   0.201E+02 0.233E+02 0.302E+02   -.110E+00 0.405E-01 -.294E+00   -.358E-03 -.431E-04 -.404E-04
   0.941E+01 -.186E+02 0.649E+01   -.952E+01 0.185E+02 -.645E+01   0.980E-01 0.698E-01 -.472E-01   -.264E-03 0.193E-03 -.158E-03
   -.383E+02 0.110E+02 0.258E+02   0.384E+02 -.112E+02 -.262E+02   -.974E-01 0.161E+00 0.400E+00   -.298E-03 -.338E-03 0.427E-04
   0.167E+02 -.107E+02 -.132E+02   -.172E+02 0.109E+02 0.132E+02   0.895E+00 -.225E+00 -.285E+00   -.541E-03 0.310E-04 -.809E-05
   0.259E+02 -.123E+02 0.419E+02   -.262E+02 0.124E+02 -.422E+02   0.231E+00 -.185E+00 0.321E+00   -.285E-03 0.230E-04 -.450E-03
   -.246E+02 -.287E+02 -.968E+01   0.247E+02 0.288E+02 0.979E+01   -.181E+00 -.148E+00 -.105E+00   0.465E-03 -.209E-03 -.561E-03
   -.965E+01 -.239E+02 -.339E+02   0.984E+01 0.241E+02 0.343E+02   -.183E+00 -.214E+00 -.370E+00   0.328E-03 0.285E-03 0.453E-03
   0.259E+02 0.172E+02 -.124E+02   -.261E+02 -.173E+02 0.125E+02   0.193E+00 0.706E-01 -.746E-01   -.671E-04 0.113E-04 -.580E-03
   0.117E+02 0.197E+02 -.312E+02   -.119E+02 -.199E+02 0.315E+02   0.159E+00 0.207E+00 -.295E+00   0.628E-03 -.520E-04 0.548E-03
   -.248E+02 -.142E+02 0.177E+02   0.250E+02 0.144E+02 -.180E+02   -.140E+00 -.171E+00 0.293E+00   0.228E-03 0.334E-03 0.202E-03
   -.133E+02 -.380E+02 0.269E+02   0.134E+02 0.382E+02 -.271E+02   -.165E+00 -.167E+00 0.183E+00   -.971E-03 -.331E-04 -.284E-03
   0.142E+02 0.148E+02 0.188E+02   -.144E+02 -.150E+02 -.191E+02   0.200E+00 0.159E+00 0.282E+00   -.482E-03 0.271E-03 0.597E-03
   0.193E+02 0.201E+02 0.250E+02   -.194E+02 -.202E+02 -.251E+02   0.155E+00 0.108E+00 0.892E-01   0.636E-04 -.130E-03 -.215E-03
   0.385E+02 -.127E+02 -.129E+02   -.388E+02 0.128E+02 0.130E+02   0.287E+00 -.152E+00 -.169E+00   0.111E-04 -.414E-05 -.121E-03
   0.946E+01 -.110E+02 -.617E+02   -.943E+01 0.112E+02 0.622E+02   -.412E+00 -.216E+00 -.707E+00   0.125E-03 0.314E-03 0.291E-03
   -.336E+01 0.174E+02 -.190E+02   0.363E+01 -.176E+02 0.192E+02   -.250E+00 0.213E+00 -.214E+00   0.299E-03 -.249E-03 0.987E-04
   -.175E+02 0.245E+02 -.119E+03   0.179E+02 -.246E+02 0.121E+03   -.131E-01 -.191E-01 0.152E-01   0.487E-03 -.221E-03 0.741E-03
 -----------------------------------------------------------------------------------------------
   0.222E+01 0.518E+00 -.121E+02   0.639E-13 0.178E-12 -.711E-13   -.215E+01 -.516E+00 0.121E+02   0.231E-02 -.160E-02 -.983E-02


 POSITION                                       TOTAL-FORCE (eV/Angst)
 -----------------------------------------------------------------------------------
      0.68901      2.90650      3.77326        -0.002307      0.006319      0.006861
      0.20482      2.68134     12.22065        -0.029888     -0.135322      0.093900
      3.80472      8.99225      7.71577        -0.018489      0.017867     -0.003422
     -4.83060      8.86568      7.99545         0.001448      0.011118      0.002098
     -4.01473      2.78117      7.89094         0.015912     -0.016386     -0.030960
      4.86542      2.86697      8.28758        -0.007814     -0.015912      0.008677
     -0.24306      8.94271     12.05848         0.005210      0.000949     -0.012651
     -0.63039      8.83131      4.23024         0.006464     -0.021823      0.053792
      0.01863     11.71033      0.11387        -0.055697     -0.003889      0.016829
     -0.03582      0.02574      7.92198         0.026399     -0.024819     -0.039094
     -4.16044     11.72236     12.05230        -0.014076      0.016935      0.000446
      4.16524     11.70295     11.99645         0.021702     -0.009708      0.019429
     -4.12722      5.86335     12.09535        -0.169414      0.037122      0.084112
      4.14295      5.88192     12.12439         0.093954      0.047103      0.174404
     -0.00200      5.89821      0.13250         0.017488      0.000778     -0.021117
     -0.08024      5.86286      7.78033        -0.265231      0.208721     -1.729357
     -3.90122      8.76763     11.59574         0.003404     -0.009088      0.001441
      4.13928      8.76580     11.39058        -0.008213     -0.011238     -0.011276
      0.10319      2.94491     15.81566         0.001066      0.009229      0.024049
     -0.32294      2.97189      7.33351        -0.017617     -0.127227     -0.040265
     -0.00089      8.80412      0.66119        -0.004001     -0.006018      0.001647
      0.09669      8.78612      8.35866         0.000135      0.148660     -0.022268
      4.36252      2.93770      4.56041         0.015912      0.021021      0.006847
      3.88285      2.95169     12.31594        -0.011129      0.010211     -0.009037
     -5.78540      5.50144      9.68566        -0.015593      0.004389      0.009087
      1.93927      6.25004      5.61736         0.433319     -0.010070     -0.275761
      1.68077      6.31194     13.77480         0.006943     -0.011213      0.047368
     -1.75296      0.34282     10.35218        -0.010716     -0.000660     -0.001711
     -1.70179      0.42047      2.49850         0.014887      0.005004     -0.015639
      6.08104     11.50317      6.42202         0.009074     -0.007935     -0.001518
     -2.59468     11.27022      6.38655        -0.020673      0.003515     -0.008793
     -5.88668      0.34157      9.68638        -0.001241     -0.013655     -0.001240
      2.44935      0.36734      9.55172         0.021397      0.012642      0.026243
      1.71111     11.34927      5.53088         0.018298     -0.005634     -0.011735
      1.78146     11.38237     13.75840        -0.006508     -0.005692      0.018551
      5.95482      6.16365      6.58977        -0.010482      0.003809     -0.010294
     -2.76054      6.24844      6.49783        -0.404709      0.000222     -0.254223
     -1.73288      5.45256      2.60941        -0.007689      0.003378     -0.013414
      0.35012      5.53090     10.25875         0.368474     -0.132706      1.917997
 -----------------------------------------------------------------------------------
    total drift:                                0.074762      0.001277     -0.025378


--------------------------------------------------------------------------------------------------------



  FREE ENERGIE OF THE ION-ELECTRON SYSTEM (eV)
  ---------------------------------------------------
  free  energy   TOTEN  =     -1409.20875961 eV

  energy  without entropy=    -1409.20875961  energy(sigma->0) =    -1409.20875961



--------------------------------------------------------------------------------------------------------


    POTLOK:  cpu time    1.4338: real time    1.4339


--------------------------------------------------------------------------------------------------------


 stress matrix after NEB project (eV)
     -7.09485      0.46987      0.94716
      0.46987     -2.69012     -1.23638
      0.94709     -1.23622     -0.55087
  FORCES: max atom, RMS     1.957574    0.441451
  FORCE total and by dimension    2.756861    1.917997
  Stress total and by dimension    7.947930    7.094850
     LOOP+:  cpu time  416.9561: real time  417.5495
    4ORBIT:  cpu time    0.0000: real time    0.0000



 total charge     

# of ion       s       p       d       tot
------------------------------------------
    1        1.786   4.717   0.019   6.521
    2        1.787   4.718   0.021   6.526
    3        1.786   4.717   0.018   6.520
    4        1.786   4.717   0.019   6.523
    5        1.786   4.717   0.018   6.520
    6        1.785   4.716   0.017   6.518
    7        1.786   4.717   0.018   6.520
    8        1.785   4.716   0.018   6.519
    9        1.554   0.424   9.835  11.813
   10        1.554   0.412   9.833  11.799
   11        1.553   0.420   9.834  11.808
   12        1.554   0.415   9.833  11.802
   13        1.531   0.443   9.831  11.804
   14        1.535   0.431   9.830  11.796
   15        1.553   0.413   9.833  11.798
   16        1.534   0.520   9.841  11.896
   17        1.615   3.282   0.006   4.903
   18        1.614   3.279   0.006   4.899
   19        1.614   3.287   0.007   4.908
   20        1.615   3.282   0.006   4.903
   21        1.615   3.285   0.007   4.907
   22        1.614   3.283   0.006   4.904
   23        1.614   3.280   0.006   4.901
   24        1.615   3.284   0.007   4.905
   25        1.614   3.278   0.006   4.898
   26        1.617   3.266   0.008   4.891
   27        1.615   3.277   0.006   4.898
   28        1.614   3.284   0.006   4.905
   29        1.614   3.281   0.006   4.902
   30        1.614   3.284   0.006   4.905
   31        1.614   3.282   0.006   4.902
   32        1.615   3.289   0.007   4.910
   33        1.614   3.279   0.006   4.899
   34        1.614   3.281   0.006   4.901
   35        1.614   3.286   0.006   4.907
   36        1.614   3.277   0.006   4.897
   37        1.617   3.271   0.007   4.895
   38        1.614   3.277   0.005   4.896
   39        1.620   3.303   0.014   4.936
--------------------------------------------------
tot         63.793 116.689  78.971 259.452


 total amount of memory used by VASP MPI-rank0    60648. kBytes
=======================================================================

   base      :      30000. kBytes
   nonlr-proj:       6483. kBytes
   fftplans  :       8423. kBytes
   grid      :       7465. kBytes
   one-center:         77. kBytes
   wavefun   :       8200. kBytes

  
  
 General timing and accounting informations for this job:
 ========================================================
  
                  Total CPU time used (sec):      429.298
                            User time (sec):      428.026
                          System time (sec):        1.272
                         Elapsed time (sec):      430.703
  
                   Maximum memory used (kb):       77616.
                   Average memory used (kb):           0.
  
                          Minor page faults:        20801
                          Major page faults:            1
                 Voluntary context switches:         1653
