 running on   64 total cores
 distrk:  each k-point on   64 cores,    1 groups
 distr:  one band on    8 cores,    8 groups
 using from now: INCAR     
 vasp.5.4.4.18Apr17-6-g9f103f2a35 (build Jun 22 2020 09:27:21) complex           
 POSCAR found type information on POSCAR  Cs Pb Br
 POSCAR found :  3 types and      39 ions
 scaLAPACK will be used
 LDA part: xc-table for Pade appr. of Perdew
 POSCAR found type information on POSCAR  Cs Pb Br
 POSCAR found :  3 types and      39 ions
 POSCAR, INCAR and KPOINTS ok, starting setup
 FFT: planning ...
 WAVECAR not read
 entering main loop
       N       E                     dE             d eps       ncg     rms          rms(c)
DAV:   1     0.133862419578E+04    0.13386E+04   -0.11051E+05  3456   0.973E+02
DAV:   2    -0.110862748741E+04   -0.24473E+04   -0.23599E+04  4056   0.301E+02
DAV:   3    -0.147392444279E+04   -0.36530E+03   -0.36326E+03  4416   0.138E+02
DAV:   4    -0.148652422914E+04   -0.12600E+02   -0.12565E+02  3912   0.335E+01
DAV:   5    -0.148712368262E+04   -0.59945E+00   -0.59918E+00  4416   0.571E+00BRMIX: very serious problems
 the old and the new charge density differ
 old charge density:   345.00000 new  344.00000
    0.104E+01
DAV:   6    -0.140946624310E+04    0.77657E+02   -0.23622E+01  4320   0.314E+01    0.737E+00
DAV:   7    -0.140896181170E+04    0.50443E+00   -0.86237E+00  4088   0.567E+00    0.373E+00
DAV:   8    -0.140913489771E+04   -0.17309E+00   -0.44398E-01  4064   0.204E+00    0.217E+00
DAV:   9    -0.140920127841E+04   -0.66381E-01   -0.17119E-01  3816   0.135E+00    0.460E-01
DAV:  10    -0.140920460649E+04   -0.33281E-02   -0.23773E-02  4648   0.452E-01    0.323E-01
DAV:  11    -0.140920653712E+04   -0.19306E-02   -0.28297E-03  3784   0.161E-01    0.151E-01
DAV:  12    -0.140920917800E+04   -0.26409E-02   -0.54546E-03  3608   0.198E-01    0.105E-01
DAV:  13    -0.140920878546E+04    0.39254E-03   -0.16305E-03  4376   0.118E-01    0.500E-02
DAV:  14    -0.140920871825E+04    0.67209E-04   -0.48618E-04  3928   0.424E-02    0.286E-02
DAV:  15    -0.140920869807E+04    0.20178E-04   -0.36348E-05  3792   0.157E-02    0.176E-02
DAV:  16    -0.140920875995E+04   -0.61881E-04   -0.38232E-05  3816   0.188E-02    0.690E-03
DAV:  17    -0.140920875961E+04    0.33648E-06   -0.70880E-06  3744   0.697E-03
   1 F= -.14092088E+04 E0= -.14092088E+04  d E =-.112516E-48
Application 1923471 resources: utime ~27426s, stime ~116s, Rss ~77616, inblocks ~1328, outblocks ~111416
