<?xml version="1.0" encoding="ISO-8859-1"?>
<modeling>
 <generator>
  <i name="program" type="string">vasp </i>
  <i name="version" type="string">5.4.4.18Apr17-6-g9f103f2a35  </i>
  <i name="subversion" type="string">(build Jun 22 2020 09:27:21) complex            parallel </i>
  <i name="platform" type="string">tx2_gcc-7.3_libsci-18.07_cray-fftw-3.3.8 </i>
  <i name="date" type="string">2021 10 12 </i>
  <i name="time" type="string">05:43:27 </i>
 </generator>
 <incar>
  <i type="string" name="SYSTEM"> CsPbBr3 cubic bulk</i>
  <i type="string" name="PREC">accurate</i>
  <i type="string" name="ALGO"> NORMAL   ! Electronic minimisation algo</i>
  <i type="logical" name="ADDGRID"> T  </i>
  <i type="int" name="ISPIN">     1</i>
  <i type="int" name="NELM">   200</i>
  <i type="int" name="IBRION">     2</i>
  <i name="EDIFF">      0.00000100</i>
  <i name="EDIFFG">     -0.01000000</i>
  <i type="int" name="NSW">     0</i>
  <i type="int" name="ISIF">     2</i>
  <i type="int" name="ISYM">     0</i>
  <i name="ENCUT">    300.00000000</i>
  <i name="POTIM">      0.50000000</i>
  <i name="NUPDOWN">      0.00000000</i>
  <i name="NELECT">    344.00000000</i>
  <i type="string" name="LREAL"> AUTO</i>
  <i type="int" name="ISMEAR">     0</i>
  <i name="SIGMA">      0.01000000</i>
  <i type="logical" name="LWAVE"> F  </i>
  <i type="logical" name="LCHARG"> F  </i>
  <i type="logical" name="LVHAR"> T  </i>
  <i type="int" name="LORBIT">    10</i>
  <i type="logical" name="LASPH"> T  </i>
  <v type="int" name="KPOINT_BSE">    -1     0     0     0</v>
  <i type="int" name="NELM">   200</i>
  <i type="string" name="METAGGA"> SCAN       ! PBE exchange-correlation</i>
  <i type="logical" name="LASPH"> T  </i>
 </incar>
 <structure name="primitive_cell" >
  <crystal>
   <varray name="basis" >
    <v>       8.45648900       0.00000000       8.04030100 </v>
    <v>       0.00000000      11.72984700       0.00000000 </v>
    <v>      -8.45648900       0.00000000       8.04030100 </v>
   </varray>
   <i name="volume">   1595.08833419 </i>
   <varray name="rec_basis" >
    <v>       0.05912619      -0.00000000       0.06218673 </v>
    <v>       0.00000000       0.08525260      -0.00000000 </v>
    <v>      -0.05912619       0.00000000       0.06218673 </v>
   </varray>
  </crystal>
  <varray name="positions" >
   <v>       0.27538500       0.24778700       0.19390800 </v>
   <v>       0.05475300       0.03584600       0.25599400 </v>
   <v>       0.05981200       0.46484500       0.26472900 </v>
   <v>       0.43695300       0.25336100       0.47514100 </v>
   <v>      -0.45846400       0.25044700       0.02565800 </v>
   <v>       0.25430700       0.02912000      -0.04957900 </v>
   <v>       0.44511900      -0.03244500       0.24277600 </v>
   <v>       0.26025100       0.46901200      -0.05561200 </v>
   <v>       0.46398700      -0.46716800       0.23466400 </v>
   <v>      -0.01037500       0.25106100      -0.02257700 </v>
   <v>      -0.49649800      -0.00063800      -0.00451600 </v>
   <v>      -0.49185700       0.49986600      -0.00380300 </v>
   <v>       0.00818300      -0.00166400       0.00598000 </v>
   <v>       0.00812200      -0.49716200       0.00835800 </v>
   <v>       0.47908900       0.49982400       0.48857800 </v>
   <v>       0.49052400       0.00219400       0.49476000 </v>
   <v>      -0.00453400       0.25163900      -0.46369000 </v>
   <v>       0.24374500      -0.03918400      -0.44942800 </v>
   <v>       0.25333600       0.23710200      -0.27191300 </v>
   <v>       0.24085800      -0.46730400      -0.43270100 </v>
   <v>      -0.19694900       0.24441700       0.22770400 </v>
   <v>      -0.00770500      -0.00229300       0.49974500 </v>
   <v>      -0.00106700      -0.49855100      -0.49098100 </v>
   <v>       0.22579200      -0.24710800       0.30033700 </v>
   <v>      -0.26118900       0.03131700       0.44917000 </v>
   <v>       0.04106500      -0.24942600       0.04117000 </v>
   <v>      -0.45987800       0.02922600      -0.25258600 </v>
   <v>      -0.24108700      -0.01932500       0.03981600 </v>
   <v>      -0.23811800      -0.47453300       0.05771000 </v>
   <v>      -0.03907900      -0.02962300      -0.24974100 </v>
   <v>      -0.34134100       0.47152400      -0.38274300 </v>
   <v>       0.49043700      -0.25253700      -0.04823500 </v>
   <v>      -0.04401300      -0.46189100      -0.24276800 </v>
   <v>      -0.47448500      -0.25096000      -0.48591900 </v>
   <v>       0.21159600      -0.24417800      -0.21717400 </v>
   <v>      -0.29522300      -0.23338700       0.25486000 </v>
   <v>      -0.22792700       0.22859100      -0.25214800 </v>
   <v>      -0.04691700      -0.25269300       0.46360300 </v>
   <v>      -0.26449400      -0.23761100      -0.23575100 </v>
  </varray>
 </structure>
 <varray name="primitive_index" >
  <v type="int" >        1 </v>
  <v type="int" >       29 </v>
  <v type="int" >       38 </v>
  <v type="int" >       20 </v>
  <v type="int" >       23 </v>
  <v type="int" >       32 </v>
  <v type="int" >       34 </v>
  <v type="int" >       25 </v>
  <v type="int" >       26 </v>
  <v type="int" >       19 </v>
  <v type="int" >       11 </v>
  <v type="int" >       13 </v>
  <v type="int" >        9 </v>
  <v type="int" >       15 </v>
  <v type="int" >       16 </v>
  <v type="int" >       10 </v>
  <v type="int" >       24 </v>
  <v type="int" >       31 </v>
  <v type="int" >        5 </v>
  <v type="int" >       37 </v>
  <v type="int" >        6 </v>
  <v type="int" >       12 </v>
  <v type="int" >       14 </v>
  <v type="int" >        8 </v>
  <v type="int" >       33 </v>
  <v type="int" >       21 </v>
  <v type="int" >       28 </v>
  <v type="int" >       30 </v>
  <v type="int" >       36 </v>
  <v type="int" >       35 </v>
  <v type="int" >       39 </v>
  <v type="int" >       17 </v>
  <v type="int" >       27 </v>
  <v type="int" >       22 </v>
  <v type="int" >        4 </v>
  <v type="int" >        3 </v>
  <v type="int" >        2 </v>
  <v type="int" >       18 </v>
  <v type="int" >        7 </v>
 </varray>
 <kpoints>
  <generation param="Gamma">
   <v type="int" name="divisions">       2        2        2 </v>
   <v name="usershift">      0.00000000       0.00000000       0.00000000 </v>
   <v name="genvec1">      0.50000000       0.00000000       0.00000000 </v>
   <v name="genvec2">      0.00000000       0.50000000       0.00000000 </v>
   <v name="genvec3">      0.00000000       0.00000000       0.50000000 </v>
   <v name="shift">      0.00000000       0.00000000       0.00000000 </v>
  </generation>
  <varray name="kpointlist" >
   <v>       0.00000000       0.00000000       0.00000000 </v>
   <v>       0.50000000       0.00000000       0.00000000 </v>
   <v>       0.00000000       0.50000000       0.00000000 </v>
   <v>       0.50000000       0.50000000       0.00000000 </v>
   <v>       0.00000000       0.00000000       0.50000000 </v>
   <v>       0.50000000       0.00000000       0.50000000 </v>
   <v>       0.00000000       0.50000000       0.50000000 </v>
   <v>       0.50000000       0.50000000       0.50000000 </v>
  </varray>
  <varray name="weights" >
   <v>       0.12500000 </v>
   <v>       0.12500000 </v>
   <v>       0.12500000 </v>
   <v>       0.12500000 </v>
   <v>       0.12500000 </v>
   <v>       0.12500000 </v>
   <v>       0.12500000 </v>
   <v>       0.12500000 </v>
  </varray>
 </kpoints>
 <parameters>
  <separator name="general" >
   <i type="string" name="SYSTEM">CsPbBr3 cubic bulk</i>
   <i type="logical" name="LCOMPAT"> F  </i>
  </separator>
  <separator name="electronic" >
   <i type="string" name="PREC">accura</i>
   <i name="ENMAX">    300.00000000</i>
   <i name="ENAUG">    503.85200000</i>
   <i name="EDIFF">      0.00000100</i>
   <i type="int" name="IALGO">    38</i>
   <i type="int" name="IWAVPR">    10</i>
   <i type="int" name="NBANDS">   208</i>
   <i name="NELECT">    344.00000000</i>
   <i type="int" name="TURBO">     0</i>
   <i type="int" name="IRESTART">     0</i>
   <i type="int" name="NREBOOT">     0</i>
   <i type="int" name="NMIN">     0</i>
   <i name="EREF">      0.00000000</i>
   <separator name="electronic smearing" >
    <i type="int" name="ISMEAR">     0</i>
    <i name="SIGMA">      0.01000000</i>
    <i name="KSPACING">      0.50000000</i>
    <i type="logical" name="KGAMMA"> T  </i>
   </separator>
   <separator name="electronic projectors" >
    <i type="logical" name="LREAL"> T  </i>
    <v name="ROPT">     -0.00025000     -0.00025000     -0.00025000</v>
    <i type="int" name="LMAXPAW">  -100</i>
    <i type="int" name="LMAXMIX">     2</i>
    <i type="logical" name="NLSPLINE"> F  </i>
   </separator>
   <separator name="electronic startup" >
    <i type="int" name="ISTART">     0</i>
    <i type="int" name="ICHARG">     2</i>
    <i type="int" name="INIWAV">     1</i>
   </separator>
   <separator name="electronic spin" >
    <i type="int" name="ISPIN">     1</i>
    <i type="logical" name="LNONCOLLINEAR"> F  </i>
    <v name="MAGMOM">      0.00000000      0.00000000      0.00000000      0.00000000      0.00000000      0.00000000      0.00000000      0.00000000      0.00000000      0.00000000      0.00000000      0.00000000      0.00000000      0.00000000      0.00000000      0.00000000      0.00000000      0.00000000      0.00000000      0.00000000
      0.00000000      0.00000000      0.00000000      0.00000000      0.00000000      0.00000000      0.00000000      0.00000000      0.00000000      0.00000000      0.00000000      0.00000000      0.00000000      0.00000000      0.00000000      0.00000000      0.00000000      0.00000000      0.00000000</v>
    <i name="NUPDOWN">      0.00000000</i>
    <i type="logical" name="LSORBIT"> F  </i>
    <v name="SAXIS">      0.00000000      0.00000000      1.00000000</v>
    <i type="logical" name="LSPIRAL"> F  </i>
    <v name="QSPIRAL">      0.00000000      0.00000000      0.00000000</v>
    <i type="logical" name="LZEROZ"> F  </i>
   </separator>
   <separator name="electronic exchange-correlation" >
    <i type="logical" name="LASPH"> T  </i>
    <i type="logical" name="LMETAGGA"> F  </i>
   </separator>
   <separator name="electronic convergence" >
    <i type="int" name="NELM">   200</i>
    <i type="int" name="NELMDL">    -5</i>
    <i type="int" name="NELMIN">     2</i>
    <i name="ENINI">    300.00000000</i>
    <separator name="electronic convergence detail" >
     <i type="logical" name="LDIAG"> T  </i>
     <i type="logical" name="LSUBROT"> F  </i>
     <i name="WEIMIN">      0.00000000</i>
     <i name="EBREAK">      0.00000000</i>
     <i name="DEPER">      0.30000000</i>
     <i type="int" name="NRMM">     4</i>
     <i name="TIME">      0.40000000</i>
    </separator>
   </separator>
   <separator name="electronic mixer" >
    <i name="AMIX">      0.40000000</i>
    <i name="BMIX">      1.00000000</i>
    <i name="AMIN">      0.10000000</i>
    <i name="AMIX_MAG">      1.60000000</i>
    <i name="BMIX_MAG">      1.00000000</i>
    <separator name="electronic mixer details" >
     <i type="int" name="IMIX">     4</i>
     <i type="logical" name="MIXFIRST"> F  </i>
     <i type="int" name="MAXMIX">   -45</i>
     <i name="WC">    100.00000000</i>
     <i type="int" name="INIMIX">     1</i>
     <i type="int" name="MIXPRE">     1</i>
     <i type="int" name="MREMOVE">     5</i>
    </separator>
   </separator>
   <separator name="electronic dipolcorrection" >
    <i type="logical" name="LDIPOL"> F  </i>
    <i type="logical" name="LMONO"> F  </i>
    <i type="int" name="IDIPOL">     0</i>
    <i name="EPSILON">      1.00000000</i>
    <v name="DIPOL">   -100.00000000   -100.00000000   -100.00000000</v>
    <i name="EFIELD">      0.00000000</i>
   </separator>
  </separator>
  <separator name="grids" >
   <i type="int" name="NGX">    70</i>
   <i type="int" name="NGY">    70</i>
   <i type="int" name="NGZ">    70</i>
   <i type="int" name="NGXF">   140</i>
   <i type="int" name="NGYF">   140</i>
   <i type="int" name="NGZF">   140</i>
   <i type="logical" name="ADDGRID"> T  </i>
  </separator>
  <separator name="ionic" >
   <i type="int" name="NSW">     0</i>
   <i type="int" name="IBRION">    -1</i>
   <i type="int" name="MDALGO">     0</i>
   <i type="int" name="ISIF">     2</i>
   <i name="PSTRESS">      0.00000000</i>
   <i name="EDIFFG">     -0.01000000</i>
   <i type="int" name="NFREE">     1</i>
   <i name="POTIM">      0.50000000</i>
   <i name="SMASS">     -3.00000000</i>
   <i name="SCALEE">      1.00000000</i>
  </separator>
  <separator name="ionic md" >
   <i name="TEBEG">      0.00010000</i>
   <i name="TEEND">      0.00010000</i>
   <i type="int" name="NBLOCK">     1</i>
   <i type="int" name="KBLOCK">     1</i>
   <i type="int" name="NPACO">   256</i>
   <i name="APACO">     16.00000000</i>
  </separator>
  <separator name="symmetry" >
   <i type="int" name="ISYM">     0</i>
   <i name="SYMPREC">      0.00001000</i>
  </separator>
  <separator name="dos" >
   <i type="int" name="LORBIT">    10</i>
   <v name="RWIGS">     -1.00000000     -1.00000000     -1.00000000</v>
   <i type="int" name="NEDOS">   301</i>
   <i name="EMIN">     10.00000000</i>
   <i name="EMAX">    -10.00000000</i>
   <i name="EFERMI">      0.00000000</i>
  </separator>
  <separator name="writing" >
   <i type="int" name="NWRITE">     2</i>
   <i type="logical" name="LWAVE"> F  </i>
   <i type="logical" name="LDOWNSAMPLE"> F  </i>
   <i type="logical" name="LCHARG"> F  </i>
   <i type="logical" name="LPARD"> F  </i>
   <i type="logical" name="LVTOT"> F  </i>
   <i type="logical" name="LVHAR"> T  </i>
   <i type="logical" name="LELF"> F  </i>
   <i type="logical" name="LOPTICS"> F  </i>
   <v name="STM">      0.00000000      0.00000000      0.00000000      0.00000000      0.00000000      0.00000000      0.00000000</v>
  </separator>
  <separator name="performance" >
   <i type="int" name="NPAR">     8</i>
   <i type="int" name="NSIM">     4</i>
   <i type="int" name="NBLK">    -1</i>
   <i type="logical" name="LPLANE"> T  </i>
   <i type="logical" name="LSCALAPACK"> T  </i>
   <i type="logical" name="LSCAAWARE"> F  </i>
   <i type="logical" name="LSCALU"> F  </i>
   <i type="logical" name="LASYNC"> F  </i>
   <i type="logical" name="LORBITALREAL"> F  </i>
  </separator>
  <separator name="miscellaneous" >
   <i type="int" name="IDIOT">     3</i>
   <i type="int" name="ISPECIAL">     0</i>
   <i type="logical" name="LMUSIC"> F  </i>
   <v name="POMASS">    132.90000000    207.20000000     79.90400000</v>
   <v name="DARWINR">      0.00000000      0.00000000      0.00000000</v>
   <v name="DARWINV">      1.00000000      1.00000000      1.00000000</v>
   <i type="logical" name="LCORR"> T  </i>
  </separator>
  <i type="logical" name="GGA_COMPAT"> T  </i>
  <i type="logical" name="LBERRY"> F  </i>
  <i type="int" name="ICORELEVEL">     0</i>
  <i type="logical" name="LDAU"> F  </i>
  <i type="int" name="I_CONSTRAINED_M">     0</i>
  <separator name="electronic exchange-correlation" >
   <i type="string" name="GGA">--</i>
   <i type="int" name="VOSKOWN">     0</i>
   <i type="logical" name="LHFCALC"> F  </i>
   <i type="string" name="PRECFOCK"></i>
   <i type="logical" name="LSYMGRAD"> F  </i>
   <i type="logical" name="LHFONE"> F  </i>
   <i type="logical" name="LRHFCALC"> F  </i>
   <i type="logical" name="LTHOMAS"> F  </i>
   <i type="logical" name="LMODELHF"> F  </i>
   <i name="ENCUT4O">     -1.00000000</i>
   <i type="int" name="EXXOEP">     0</i>
   <i type="int" name="FOURORBIT">     0</i>
   <i name="AEXX">      0.00000000</i>
   <i name="HFALPHA">      0.00000000</i>
   <i name="MCALPHA">      0.00000000</i>
   <i name="ALDAX">      1.00000000</i>
   <i name="AGGAX">      1.00000000</i>
   <i name="ALDAC">      1.00000000</i>
   <i name="AGGAC">      1.00000000</i>
   <i type="int" name="NKREDX">     1</i>
   <i type="int" name="NKREDY">     1</i>
   <i type="int" name="NKREDZ">     1</i>
   <i type="logical" name="SHIFTRED"> F  </i>
   <i type="logical" name="ODDONLY"> F  </i>
   <i type="logical" name="EVENONLY"> F  </i>
   <i type="int" name="LMAXFOCK">     0</i>
   <i type="int" name="NMAXFOCKAE">     0</i>
   <i type="logical" name="LFOCKAEDFT"> F  </i>
   <i name="HFSCREEN">      0.00000000</i>
   <i name="HFSCREENC">      0.00000000</i>
   <i type="int" name="NBANDSGWLOW">     0</i>
  </separator>
  <separator name="vdW DFT" >
   <i type="logical" name="LUSE_VDW"> F  </i>
   <i name="Zab_VDW">     -0.84910000</i>
   <i name="PARAM1">      0.12340000</i>
   <i name="PARAM2">      1.00000000</i>
   <i name="PARAM3">      0.00000000</i>
  </separator>
  <separator name="model GW" >
   <i type="int" name="MODEL_GW">     0</i>
   <i name="MODEL_EPS0">     24.53982053</i>
   <i name="MODEL_ALPHA">      1.00000000</i>
  </separator>
  <separator name="linear response parameters" >
   <i type="logical" name="LEPSILON"> F  </i>
   <i type="logical" name="LRPA"> F  </i>
   <i type="logical" name="LNABLA"> F  </i>
   <i type="logical" name="LVEL"> F  </i>
   <i type="int" name="KINTER">     0</i>
   <i name="CSHIFT">      0.10000000</i>
   <i name="OMEGAMAX">     -1.00000000</i>
   <i name="DEG_THRESHOLD">      0.00200000</i>
   <i name="RTIME">     -0.10000000</i>
   <i name="WPLASMAI">      0.00000000</i>
   <v name="DFIELD">      0.00000000      0.00000000      0.00000000</v>
   <v name="WPLASMA">      0.00000000      0.00000000      0.00000000      0.00000000      0.00000000      0.00000000      0.00000000      0.00000000      0.00000000</v>
  </separator>
  <separator name="orbital magnetization" >
   <i type="logical" name="NUCIND"> F  </i>
   <v name="MAGPOS">      0.00000000      0.00000000      0.00000000</v>
   <i type="logical" name="LNICSALL"> T  </i>
   <i type="logical" name="ORBITALMAG"> F  </i>
   <i type="logical" name="LMAGBLOCH"> F  </i>
   <i type="logical" name="LCHIMAG"> F  </i>
   <i type="logical" name="LGAUGE"> T  </i>
   <i type="int" name="MAGATOM">     0</i>
   <v name="MAGDIPOL">      0.00000000      0.00000000      0.00000000</v>
   <v name="AVECCONST">      0.00000000      0.00000000      0.00000000</v>
  </separator>
  <separator name="response functions" >
   <i type="logical" name="LADDER"> F  </i>
   <i type="logical" name="LRPAFORCE"> F  </i>
   <i type="logical" name="LFXC"> F  </i>
   <i type="logical" name="LHARTREE"> T  </i>
   <i type="int" name="IBSE">     0</i>
   <v type="int" name="KPOINT">    -1     0     0     0</v>
   <i type="logical" name="LTCTE"> F  </i>
   <i type="logical" name="LTETE"> F  </i>
   <i type="logical" name="LTRIPLET"> F  </i>
   <i type="logical" name="LFXCEPS"> F  </i>
   <i type="logical" name="LFXHEG"> F  </i>
   <i type="int" name="NATURALO">     2</i>
   <i type="logical" name="L2ORDER"> F  </i>
   <i type="logical" name="LMP2LT"> F  </i>
   <i type="logical" name="LUSEW"> F  </i>
   <i name="ENCUTGW">     -2.00000000</i>
   <i name="ENCUTGWSOFT">     -2.00000000</i>
   <i name="ENCUTLF">     -1.00000000</i>
   <i type="int" name="LMAXMP2">    -1</i>
   <i name="SCISSOR">      0.00000000</i>
   <i type="int" name="NOMEGA">     0</i>
   <i type="int" name="NOMEGAR">     0</i>
   <i type="int" name="NBANDSGW">    -1</i>
   <i type="int" name="NBANDSO">    -1</i>
   <i type="int" name="NBANDSV">    -1</i>
   <i type="int" name="NELM">   200</i>
   <i type="int" name="NELMHF">     1</i>
   <i type="int" name="DIM">     3</i>
   <i type="int" name="ANTIRES">     0</i>
   <i name="OMEGAMAX">    -30.00000000</i>
   <i name="OMEGAMIN">    -30.00000000</i>
   <i name="OMEGATL">   -200.00000000</i>
   <i type="int" name="OMEGAGRID">   140</i>
   <i name="CSHIFT">     -0.10000000</i>
   <i type="logical" name="SELFENERGY"> F  </i>
   <i type="logical" name="LSPECTRAL"> F  </i>
   <i type="logical" name="LSPECTRALGW"> F  </i>
   <i type="logical" name="LSINGLES"> F  </i>
   <i type="logical" name="LFERMIGW"> F  </i>
   <i type="logical" name="ODDONLYGW"> F  </i>
   <i type="logical" name="EVENONLYGW"> F  </i>
   <i type="int" name="NKREDLFX">     1</i>
   <i type="int" name="NKREDLFY">     1</i>
   <i type="int" name="NKREDLFZ">     1</i>
   <i type="int" name="MAXMEM">  2800</i>
   <i type="int" name="TELESCOPE">     0</i>
   <i type="int" name="TAUPAR">     1</i>
   <i type="int" name="OMEGAPAR">    -1</i>
   <i name="LAMBDA">      1.00000000</i>
  </separator>
  <separator name="External order field" >
   <i name="OFIELD_KAPPA">      0.00000000</i>
   <v name="OFIELD_K">      0.00000000      0.00000000      0.00000000</v>
   <i name="OFIELD_Q6_NEAR">      0.00000000</i>
   <i name="OFIELD_Q6_FAR">      0.00000000</i>
   <i name="OFIELD_A">      0.00000000</i>
  </separator>
 </parameters>
 <atominfo>
  <atoms>      39 </atoms>
  <types>       3 </types>
  <array name="atoms" >
   <dimension dim="1">ion</dimension>
   <field type="string">element</field>
   <field type="int">atomtype</field>
   <set>
    <rc><c>Cs</c><c>   1</c></rc>
    <rc><c>Cs</c><c>   1</c></rc>
    <rc><c>Cs</c><c>   1</c></rc>
    <rc><c>Cs</c><c>   1</c></rc>
    <rc><c>Cs</c><c>   1</c></rc>
    <rc><c>Cs</c><c>   1</c></rc>
    <rc><c>Cs</c><c>   1</c></rc>
    <rc><c>Cs</c><c>   1</c></rc>
    <rc><c>Pb</c><c>   2</c></rc>
    <rc><c>Pb</c><c>   2</c></rc>
    <rc><c>Pb</c><c>   2</c></rc>
    <rc><c>Pb</c><c>   2</c></rc>
    <rc><c>Pb</c><c>   2</c></rc>
    <rc><c>Pb</c><c>   2</c></rc>
    <rc><c>Pb</c><c>   2</c></rc>
    <rc><c>Pb</c><c>   2</c></rc>
    <rc><c>Br</c><c>   3</c></rc>
    <rc><c>Br</c><c>   3</c></rc>
    <rc><c>Br</c><c>   3</c></rc>
    <rc><c>Br</c><c>   3</c></rc>
    <rc><c>Br</c><c>   3</c></rc>
    <rc><c>Br</c><c>   3</c></rc>
    <rc><c>Br</c><c>   3</c></rc>
    <rc><c>Br</c><c>   3</c></rc>
    <rc><c>Br</c><c>   3</c></rc>
    <rc><c>Br</c><c>   3</c></rc>
    <rc><c>Br</c><c>   3</c></rc>
    <rc><c>Br</c><c>   3</c></rc>
    <rc><c>Br</c><c>   3</c></rc>
    <rc><c>Br</c><c>   3</c></rc>
    <rc><c>Br</c><c>   3</c></rc>
    <rc><c>Br</c><c>   3</c></rc>
    <rc><c>Br</c><c>   3</c></rc>
    <rc><c>Br</c><c>   3</c></rc>
    <rc><c>Br</c><c>   3</c></rc>
    <rc><c>Br</c><c>   3</c></rc>
    <rc><c>Br</c><c>   3</c></rc>
    <rc><c>Br</c><c>   3</c></rc>
    <rc><c>Br</c><c>   3</c></rc>
   </set>
  </array>
  <array name="atomtypes" >
   <dimension dim="1">type</dimension>
   <field type="int">atomspertype</field>
   <field type="string">element</field>
   <field>mass</field>
   <field>valence</field>
   <field type="string">pseudopotential</field>
   <set>
    <rc><c>   8</c><c>Cs</c><c>    132.90000000</c><c>      9.00000000</c><c>  PAW_PBE Cs_sv 08Apr2002               </c></rc>
    <rc><c>   8</c><c>Pb</c><c>    207.20000000</c><c>     14.00000000</c><c>  PAW_PBE Pb_d 06Sep2000                </c></rc>
    <rc><c>  23</c><c>Br</c><c>     79.90400000</c><c>      7.00000000</c><c>  PAW_PBE Br 06Sep2000                  </c></rc>
   </set>
  </array>
 </atominfo>
 <structure name="initialpos" >
  <crystal>
   <varray name="basis" >
    <v>       8.45648900       0.00000000       8.04030100 </v>
    <v>       0.00000000      11.72984700       0.00000000 </v>
    <v>      -8.45648900       0.00000000       8.04030100 </v>
   </varray>
   <i name="volume">   1595.08833419 </i>
   <varray name="rec_basis" >
    <v>       0.05912619      -0.00000000       0.06218673 </v>
    <v>       0.00000000       0.08525260      -0.00000000 </v>
    <v>      -0.05912619       0.00000000       0.06218673 </v>
   </varray>
  </crystal>
  <varray name="positions" >
   <v>       0.27538500       0.24778700       0.19390800 </v>
   <v>       0.77207300       0.22859100       0.74785200 </v>
   <v>       0.70477700       0.76661300       0.25486000 </v>
   <v>       0.21159600       0.75582200       0.78282600 </v>
   <v>       0.25333600       0.23710200       0.72808700 </v>
   <v>       0.80305100       0.24441700       0.22770400 </v>
   <v>       0.73550600       0.76238900       0.76424900 </v>
   <v>       0.22579200       0.75289200       0.30033700 </v>
   <v>       0.00818300       0.99833600       0.00598000 </v>
   <v>       0.49052400       0.00219400       0.49476000 </v>
   <v>       0.50350200       0.99936200       0.99548400 </v>
   <v>       0.99229500       0.99770700       0.49974500 </v>
   <v>       0.50814300       0.49986600       0.99619700 </v>
   <v>       0.99893300       0.50144900       0.50901900 </v>
   <v>       0.00812200       0.50283800       0.00835800 </v>
   <v>       0.47908900       0.49982400       0.48857800 </v>
   <v>       0.49043700       0.74746300       0.95176500 </v>
   <v>       0.95308300       0.74730700       0.46360300 </v>
   <v>       0.98962500       0.25106100       0.97742300 </v>
   <v>       0.43695300       0.25336100       0.47514100 </v>
   <v>       0.04106500       0.75057400       0.04117000 </v>
   <v>       0.52551500       0.74904000       0.51408100 </v>
   <v>       0.54153600       0.25044700       0.02565800 </v>
   <v>       0.99546600       0.25163900       0.53631000 </v>
   <v>       0.26025100       0.46901200       0.94438800 </v>
   <v>       0.46398700       0.53283200       0.23466400 </v>
   <v>       0.95598700       0.53810900       0.75723200 </v>
   <v>       0.54012200       0.02922600       0.74741400 </v>
   <v>       0.05475300       0.03584600       0.25599400 </v>
   <v>       0.75891300       0.98067500       0.03981600 </v>
   <v>       0.24374500       0.96081600       0.55057200 </v>
   <v>       0.25430700       0.02912000       0.95042100 </v>
   <v>       0.73881100       0.03131700       0.44917000 </v>
   <v>       0.44511900       0.96755500       0.24277600 </v>
   <v>       0.96092100       0.97037700       0.75025900 </v>
   <v>       0.76188200       0.52546700       0.05771000 </v>
   <v>       0.24085800       0.53269600       0.56729900 </v>
   <v>       0.05981200       0.46484500       0.26472900 </v>
   <v>       0.65865900       0.47152400       0.61725700 </v>
  </varray>
 </structure>
 <calculation>
  <scstep>
   <time name="dav">   16.58   16.58</time>
   <time name="total">   18.06   18.08</time>
   <energy>
    <i name="alphaZ">    872.70583573 </i>
    <i name="ewald"> -17897.96607016 </i>
    <i name="hartreedc">  -7456.81007204 </i>
    <i name="XCdc">    908.34038202 </i>
    <i name="pawpsdc">  21345.28103884 </i>
    <i name="pawaedc"> -22405.85761495 </i>
    <i name="eentropy">     -0.00106628 </i>
    <i name="bandstr">   -239.18685306 </i>
    <i name="atom">  26212.11861568 </i>
    <i name="e_fr_energy">   1338.62419578 </i>
    <i name="e_wo_entrp">   1338.62526206 </i>
    <i name="e_0_energy">   1338.62472892 </i>
   </energy>
  </scstep>
  <scstep>
   <time name="dav">   18.37   18.42</time>
   <time name="total">   18.37   18.42</time>
   <energy>
    <i name="e_fr_energy">  -1108.62748741 </i>
    <i name="e_wo_entrp">  -1108.62748741 </i>
    <i name="e_0_energy">  -1108.62748741 </i>
   </energy>
  </scstep>
  <scstep>
   <time name="dav">   19.41   19.46</time>
   <time name="total">   19.41   19.46</time>
   <energy>
    <i name="e_fr_energy">  -1473.92444279 </i>
    <i name="e_wo_entrp">  -1473.92444279 </i>
    <i name="e_0_energy">  -1473.92444279 </i>
   </energy>
  </scstep>
  <scstep>
   <time name="dav">   17.93   17.97</time>
   <time name="total">   17.93   17.97</time>
   <energy>
    <i name="e_fr_energy">  -1486.52422914 </i>
    <i name="e_wo_entrp">  -1486.52422914 </i>
    <i name="e_0_energy">  -1486.52422914 </i>
   </energy>
  </scstep>
  <scstep>
   <time name="dav">   19.40   19.40</time>
   <time name="total">   22.13   22.14</time>
   <energy>
    <i name="e_fr_energy">  -1487.12368262 </i>
    <i name="e_wo_entrp">  -1487.12368262 </i>
    <i name="e_0_energy">  -1487.12368262 </i>
   </energy>
  </scstep>
  <scstep>
   <time name="dav">   19.12   19.13</time>
   <time name="total">   23.33   23.33</time>
   <energy>
    <i name="e_fr_energy">  -1409.46624310 </i>
    <i name="e_wo_entrp">  -1409.46624310 </i>
    <i name="e_0_energy">  -1409.46624310 </i>
   </energy>
  </scstep>
  <scstep>
   <time name="dav">   18.43   18.43</time>
   <time name="total">   22.64   22.65</time>
   <energy>
    <i name="e_fr_energy">  -1408.96181170 </i>
    <i name="e_wo_entrp">  -1408.96181170 </i>
    <i name="e_0_energy">  -1408.96181170 </i>
   </energy>
  </scstep>
  <scstep>
   <time name="dav">   18.38   18.38</time>
   <time name="total">   22.54   22.59</time>
   <energy>
    <i name="e_fr_energy">  -1409.13489771 </i>
    <i name="e_wo_entrp">  -1409.13489771 </i>
    <i name="e_0_energy">  -1409.13489771 </i>
   </energy>
  </scstep>
  <scstep>
   <time name="dav">   17.64   17.64</time>
   <time name="total">   21.85   21.86</time>
   <energy>
    <i name="e_fr_energy">  -1409.20127841 </i>
    <i name="e_wo_entrp">  -1409.20127841 </i>
    <i name="e_0_energy">  -1409.20127841 </i>
   </energy>
  </scstep>
  <scstep>
   <time name="dav">   20.06   20.06</time>
   <time name="total">   24.22   24.27</time>
   <energy>
    <i name="e_fr_energy">  -1409.20460649 </i>
    <i name="e_wo_entrp">  -1409.20460649 </i>
    <i name="e_0_energy">  -1409.20460649 </i>
   </energy>
  </scstep>
  <scstep>
   <time name="dav">   17.55   17.55</time>
   <time name="total">   21.77   21.77</time>
   <energy>
    <i name="e_fr_energy">  -1409.20653712 </i>
    <i name="e_wo_entrp">  -1409.20653712 </i>
    <i name="e_0_energy">  -1409.20653712 </i>
   </energy>
  </scstep>
  <scstep>
   <time name="dav">   17.03   17.03</time>
   <time name="total">   21.21   21.25</time>
   <energy>
    <i name="e_fr_energy">  -1409.20917800 </i>
    <i name="e_wo_entrp">  -1409.20917800 </i>
    <i name="e_0_energy">  -1409.20917800 </i>
   </energy>
  </scstep>
  <scstep>
   <time name="dav">   19.27   19.27</time>
   <time name="total">   23.44   23.50</time>
   <energy>
    <i name="e_fr_energy">  -1409.20878546 </i>
    <i name="e_wo_entrp">  -1409.20878546 </i>
    <i name="e_0_energy">  -1409.20878546 </i>
   </energy>
  </scstep>
  <scstep>
   <time name="dav">   17.96   17.96</time>
   <time name="total">   22.13   22.19</time>
   <energy>
    <i name="e_fr_energy">  -1409.20871825 </i>
    <i name="e_wo_entrp">  -1409.20871825 </i>
    <i name="e_0_energy">  -1409.20871825 </i>
   </energy>
  </scstep>
  <scstep>
   <time name="dav">   17.57   17.57</time>
   <time name="total">   21.73   21.79</time>
   <energy>
    <i name="e_fr_energy">  -1409.20869807 </i>
    <i name="e_wo_entrp">  -1409.20869807 </i>
    <i name="e_0_energy">  -1409.20869807 </i>
   </energy>
  </scstep>
  <scstep>
   <time name="dav">   17.67   17.67</time>
   <time name="total">   21.87   21.90</time>
   <energy>
    <i name="e_fr_energy">  -1409.20875995 </i>
    <i name="e_wo_entrp">  -1409.20875995 </i>
    <i name="e_0_energy">  -1409.20875995 </i>
   </energy>
  </scstep>
  <scstep>
   <time name="dav">   17.49   17.49</time>
   <time name="total">   18.99   19.01</time>
   <energy>
    <i name="alphaZ">    872.70583573 </i>
    <i name="ewald"> -17897.96607016 </i>
    <i name="hartreedc">  -7492.76771474 </i>
    <i name="XCdc">    943.99173209 </i>
    <i name="pawpsdc">  22820.22320954 </i>
    <i name="pawaedc"> -23879.25994094 </i>
    <i name="eentropy">     -0.00000000 </i>
    <i name="bandstr">  -2988.25442682 </i>
    <i name="atom">  26212.11861568 </i>
    <i name="e_fr_energy">  -1409.20875961 </i>
    <i name="e_wo_entrp">  -1409.20875961 </i>
    <i name="e_0_energy">  -1409.20875961 </i>
   </energy>
  </scstep>
  <structure>
   <crystal>
    <varray name="basis" >
     <v>       8.45648900       0.00000000       8.04030100 </v>
     <v>       0.00000000      11.72984700       0.00000000 </v>
     <v>      -8.45648900       0.00000000       8.04030100 </v>
    </varray>
    <i name="volume">   1595.08833419 </i>
    <varray name="rec_basis" >
     <v>       0.05912619      -0.00000000       0.06218673 </v>
     <v>       0.00000000       0.08525260      -0.00000000 </v>
     <v>      -0.05912619       0.00000000       0.06218673 </v>
    </varray>
   </crystal>
   <varray name="positions" >
    <v>       0.27538500       0.24778700       0.19390800 </v>
    <v>       0.77207300       0.22859100       0.74785200 </v>
    <v>       0.70477700       0.76661300       0.25486000 </v>
    <v>       0.21159600       0.75582200       0.78282600 </v>
    <v>       0.25333600       0.23710200       0.72808700 </v>
    <v>       0.80305100       0.24441700       0.22770400 </v>
    <v>       0.73550600       0.76238900       0.76424900 </v>
    <v>       0.22579200       0.75289200       0.30033700 </v>
    <v>       0.00818300       0.99833600       0.00598000 </v>
    <v>       0.49052400       0.00219400       0.49476000 </v>
    <v>       0.50350200       0.99936200       0.99548400 </v>
    <v>       0.99229500       0.99770700       0.49974500 </v>
    <v>       0.50814300       0.49986600       0.99619700 </v>
    <v>       0.99893300       0.50144900       0.50901900 </v>
    <v>       0.00812200       0.50283800       0.00835800 </v>
    <v>       0.47908900       0.49982400       0.48857800 </v>
    <v>       0.49043700       0.74746300       0.95176500 </v>
    <v>       0.95308300       0.74730700       0.46360300 </v>
    <v>       0.98962500       0.25106100       0.97742300 </v>
    <v>       0.43695300       0.25336100       0.47514100 </v>
    <v>       0.04106500       0.75057400       0.04117000 </v>
    <v>       0.52551500       0.74904000       0.51408100 </v>
    <v>       0.54153600       0.25044700       0.02565800 </v>
    <v>       0.99546600       0.25163900       0.53631000 </v>
    <v>       0.26025100       0.46901200       0.94438800 </v>
    <v>       0.46398700       0.53283200       0.23466400 </v>
    <v>       0.95598700       0.53810900       0.75723200 </v>
    <v>       0.54012200       0.02922600       0.74741400 </v>
    <v>       0.05475300       0.03584600       0.25599400 </v>
    <v>       0.75891300       0.98067500       0.03981600 </v>
    <v>       0.24374500       0.96081600       0.55057200 </v>
    <v>       0.25430700       0.02912000       0.95042100 </v>
    <v>       0.73881100       0.03131700       0.44917000 </v>
    <v>       0.44511900       0.96755500       0.24277600 </v>
    <v>       0.96092100       0.97037700       0.75025900 </v>
    <v>       0.76188200       0.52546700       0.05771000 </v>
    <v>       0.24085800       0.53269600       0.56729900 </v>
    <v>       0.05981200       0.46484500       0.26472900 </v>
    <v>       0.65865900       0.47152400       0.61725700 </v>
   </varray>
  </structure>
  <varray name="forces" >
   <v>      -0.00230740       0.00631883       0.00686055 </v>
   <v>      -0.02988789      -0.13532201       0.09390021 </v>
   <v>      -0.01848907       0.01786652      -0.00342249 </v>
   <v>       0.00144808       0.01111766       0.00209754 </v>
   <v>       0.01591215      -0.01638617      -0.03096037 </v>
   <v>      -0.00781430      -0.01591238       0.00867660 </v>
   <v>       0.00520974       0.00094897      -0.01265104 </v>
   <v>       0.00646396      -0.02182272       0.05379223 </v>
   <v>      -0.05569681      -0.00388874       0.01682924 </v>
   <v>       0.02639928      -0.02481929      -0.03909448 </v>
   <v>      -0.01407586       0.01693512       0.00044580 </v>
   <v>       0.02170170      -0.00970761       0.01942933 </v>
   <v>      -0.16941355       0.03712229       0.08411199 </v>
   <v>       0.09395447       0.04710264       0.17440419 </v>
   <v>       0.01748829       0.00077795      -0.02111714 </v>
   <v>      -0.26523131       0.20872100      -1.72935749 </v>
   <v>       0.00340386      -0.00908810       0.00144093 </v>
   <v>      -0.00821263      -0.01123796      -0.01127577 </v>
   <v>       0.00106647       0.00922924       0.02404904 </v>
   <v>      -0.01761748      -0.12722706      -0.04026493 </v>
   <v>      -0.00400072      -0.00601758       0.00164661 </v>
   <v>       0.00013486       0.14866019      -0.02226836 </v>
   <v>       0.01591187       0.02102129       0.00684694 </v>
   <v>      -0.01112903       0.01021111      -0.00903713 </v>
   <v>      -0.01559292       0.00438933       0.00908680 </v>
   <v>       0.43331853      -0.01006977      -0.27576134 </v>
   <v>       0.00694286      -0.01121299       0.04736819 </v>
   <v>      -0.01071608      -0.00066020      -0.00171060 </v>
   <v>       0.01488746       0.00500399      -0.01563904 </v>
   <v>       0.00907390      -0.00793457      -0.00151836 </v>
   <v>      -0.02067283       0.00351535      -0.00879298 </v>
   <v>      -0.00124085      -0.01365499      -0.00124014 </v>
   <v>       0.02139687       0.01264235       0.02624267 </v>
   <v>       0.01829826      -0.00563398      -0.01173500 </v>
   <v>      -0.00650825      -0.00569151       0.01855103 </v>
   <v>      -0.01048237       0.00380945      -0.01029382 </v>
   <v>      -0.40470850       0.00022218      -0.25422303 </v>
   <v>      -0.00768903       0.00337783      -0.01341361 </v>
   <v>       0.36847429      -0.13270564       1.91799725 </v>
  </varray>
  <varray name="stress" >
   <v>      -7.12638106       0.47196050       0.95136489 </v>
   <v>       0.47196050      -2.70207135      -1.24187392 </v>
   <v>       0.95129801      -1.24171088      -0.55332268 </v>
  </varray>
  <energy>
   <i name="e_fr_energy">  -1409.20875961 </i>
   <i name="e_wo_entrp">  -1409.20875961 </i>
   <i name="e_0_energy">     -0.00000000 </i>
  </energy>
  <time name="totalsc">  416.96  417.55</time>
  <eigenvalues>
   <array>
    <dimension dim="1">band</dimension>
    <dimension dim="2">kpoint</dimension>
    <dimension dim="3">spin</dimension>
    <field>eigene</field>
    <field>occ</field>
    <set>
     <set comment="spin 1">
      <set comment="kpoint 1">
       <r>  -20.9169    1.0000 </r>
       <r>  -20.8036    1.0000 </r>
       <r>  -20.7988    1.0000 </r>
       <r>  -20.7585    1.0000 </r>
       <r>  -20.7562    1.0000 </r>
       <r>  -20.7416    1.0000 </r>
       <r>  -20.6749    1.0000 </r>
       <r>  -20.6674    1.0000 </r>
       <r>  -16.7009    1.0000 </r>
       <r>  -16.6717    1.0000 </r>
       <r>  -16.6707    1.0000 </r>
       <r>  -16.6481    1.0000 </r>
       <r>  -16.6311    1.0000 </r>
       <r>  -16.5986    1.0000 </r>
       <r>  -16.5885    1.0000 </r>
       <r>  -16.5597    1.0000 </r>
       <r>  -16.5525    1.0000 </r>
       <r>  -16.5507    1.0000 </r>
       <r>  -16.5168    1.0000 </r>
       <r>  -16.4680    1.0000 </r>
       <r>  -16.4587    1.0000 </r>
       <r>  -16.4385    1.0000 </r>
       <r>  -16.4347    1.0000 </r>
       <r>  -16.4184    1.0000 </r>
       <r>  -16.4115    1.0000 </r>
       <r>  -16.4023    1.0000 </r>
       <r>  -16.3998    1.0000 </r>
       <r>  -16.3686    1.0000 </r>
       <r>  -16.3597    1.0000 </r>
       <r>  -16.3594    1.0000 </r>
       <r>  -16.3397    1.0000 </r>
       <r>  -16.3377    1.0000 </r>
       <r>  -16.3265    1.0000 </r>
       <r>  -16.3137    1.0000 </r>
       <r>  -16.3099    1.0000 </r>
       <r>  -16.3042    1.0000 </r>
       <r>  -16.2977    1.0000 </r>
       <r>  -16.2886    1.0000 </r>
       <r>  -16.2857    1.0000 </r>
       <r>  -16.2780    1.0000 </r>
       <r>  -16.2724    1.0000 </r>
       <r>  -16.2714    1.0000 </r>
       <r>  -16.2690    1.0000 </r>
       <r>  -16.2635    1.0000 </r>
       <r>  -16.2588    1.0000 </r>
       <r>  -16.2196    1.0000 </r>
       <r>  -16.2128    1.0000 </r>
       <r>  -16.2103    1.0000 </r>
       <r>  -14.5217    1.0000 </r>
       <r>  -14.3770    1.0000 </r>
       <r>  -14.3532    1.0000 </r>
       <r>  -14.2873    1.0000 </r>
       <r>  -14.1434    1.0000 </r>
       <r>  -14.1402    1.0000 </r>
       <r>  -14.1131    1.0000 </r>
       <r>  -14.1054    1.0000 </r>
       <r>  -14.0899    1.0000 </r>
       <r>  -14.0711    1.0000 </r>
       <r>  -14.0433    1.0000 </r>
       <r>  -14.0359    1.0000 </r>
       <r>  -14.0347    1.0000 </r>
       <r>  -13.9902    1.0000 </r>
       <r>  -13.9661    1.0000 </r>
       <r>  -13.9545    1.0000 </r>
       <r>  -13.9494    1.0000 </r>
       <r>  -13.9337    1.0000 </r>
       <r>  -13.8791    1.0000 </r>
       <r>  -13.7806    1.0000 </r>
       <r>  -13.7695    1.0000 </r>
       <r>  -13.7062    1.0000 </r>
       <r>  -13.7014    1.0000 </r>
       <r>   -8.2041    1.0000 </r>
       <r>   -7.8018    1.0000 </r>
       <r>   -7.7697    1.0000 </r>
       <r>   -7.6691    1.0000 </r>
       <r>   -7.3714    1.0000 </r>
       <r>   -7.3316    1.0000 </r>
       <r>   -7.3013    1.0000 </r>
       <r>   -7.2861    1.0000 </r>
       <r>   -7.2427    1.0000 </r>
       <r>   -7.2294    1.0000 </r>
       <r>   -7.2205    1.0000 </r>
       <r>   -7.2094    1.0000 </r>
       <r>   -7.1985    1.0000 </r>
       <r>   -7.1940    1.0000 </r>
       <r>   -7.1838    1.0000 </r>
       <r>   -7.1789    1.0000 </r>
       <r>   -7.1742    1.0000 </r>
       <r>   -7.1611    1.0000 </r>
       <r>   -7.1574    1.0000 </r>
       <r>   -7.1562    1.0000 </r>
       <r>   -7.1444    1.0000 </r>
       <r>   -7.1414    1.0000 </r>
       <r>   -7.1323    1.0000 </r>
       <r>   -7.1186    1.0000 </r>
       <r>   -7.0911    1.0000 </r>
       <r>   -7.0888    1.0000 </r>
       <r>   -7.0831    1.0000 </r>
       <r>   -7.0749    1.0000 </r>
       <r>   -7.0659    1.0000 </r>
       <r>   -7.0454    1.0000 </r>
       <r>   -7.0375    1.0000 </r>
       <r>   -6.5833    1.0000 </r>
       <r>   -3.3739    1.0000 </r>
       <r>   -3.3265    1.0000 </r>
       <r>   -3.3062    1.0000 </r>
       <r>   -3.2964    1.0000 </r>
       <r>   -3.2482    1.0000 </r>
       <r>   -3.2244    1.0000 </r>
       <r>   -3.1778    1.0000 </r>
       <r>   -3.1354    1.0000 </r>
       <r>   -3.1335    1.0000 </r>
       <r>   -3.0871    1.0000 </r>
       <r>   -3.0329    1.0000 </r>
       <r>   -2.8997    1.0000 </r>
       <r>   -2.2552    1.0000 </r>
       <r>   -2.1822    1.0000 </r>
       <r>   -2.1658    1.0000 </r>
       <r>   -2.1139    1.0000 </r>
       <r>   -2.0209    1.0000 </r>
       <r>   -1.9926    1.0000 </r>
       <r>   -1.9534    1.0000 </r>
       <r>   -1.9140    1.0000 </r>
       <r>   -1.8920    1.0000 </r>
       <r>   -1.8482    1.0000 </r>
       <r>   -1.8168    1.0000 </r>
       <r>   -1.7362    1.0000 </r>
       <r>   -1.7102    1.0000 </r>
       <r>   -1.6744    1.0000 </r>
       <r>   -1.6527    1.0000 </r>
       <r>   -1.6449    1.0000 </r>
       <r>   -1.6066    1.0000 </r>
       <r>   -1.5930    1.0000 </r>
       <r>   -1.5421    1.0000 </r>
       <r>   -1.5210    1.0000 </r>
       <r>   -1.5123    1.0000 </r>
       <r>   -1.5018    1.0000 </r>
       <r>   -1.4924    1.0000 </r>
       <r>   -1.4687    1.0000 </r>
       <r>   -1.4580    1.0000 </r>
       <r>   -1.4421    1.0000 </r>
       <r>   -1.4210    1.0000 </r>
       <r>   -1.4020    1.0000 </r>
       <r>   -1.4012    1.0000 </r>
       <r>   -1.3857    1.0000 </r>
       <r>   -1.3812    1.0000 </r>
       <r>   -1.3578    1.0000 </r>
       <r>   -1.3512    1.0000 </r>
       <r>   -1.3464    1.0000 </r>
       <r>   -1.3082    1.0000 </r>
       <r>   -1.3001    1.0000 </r>
       <r>   -1.2946    1.0000 </r>
       <r>   -1.2836    1.0000 </r>
       <r>   -1.2581    1.0000 </r>
       <r>   -1.2523    1.0000 </r>
       <r>   -1.2413    1.0000 </r>
       <r>   -1.1896    1.0000 </r>
       <r>   -1.1465    1.0000 </r>
       <r>   -1.1330    1.0000 </r>
       <r>   -1.0718    1.0000 </r>
       <r>   -1.0452    1.0000 </r>
       <r>   -1.0129    1.0000 </r>
       <r>   -0.9963    1.0000 </r>
       <r>   -0.9547    1.0000 </r>
       <r>   -0.8639    1.0000 </r>
       <r>   -0.8296    1.0000 </r>
       <r>   -0.7164    1.0000 </r>
       <r>   -0.6036    1.0000 </r>
       <r>   -0.3335    1.0000 </r>
       <r>   -0.2211    1.0000 </r>
       <r>   -0.0608    1.0000 </r>
       <r>    0.3990    1.0000 </r>
       <r>    2.6927    0.0000 </r>
       <r>    2.7594    0.0000 </r>
       <r>    2.8148    0.0000 </r>
       <r>    2.9477    0.0000 </r>
       <r>    3.0688    0.0000 </r>
       <r>    3.1321    0.0000 </r>
       <r>    3.1610    0.0000 </r>
       <r>    3.2365    0.0000 </r>
       <r>    3.3427    0.0000 </r>
       <r>    3.4886    0.0000 </r>
       <r>    3.5095    0.0000 </r>
       <r>    3.6089    0.0000 </r>
       <r>    4.2407    0.0000 </r>
       <r>    4.8187    0.0000 </r>
       <r>    5.2199    0.0000 </r>
       <r>    5.5808    0.0000 </r>
       <r>    5.6049    0.0000 </r>
       <r>    5.6802    0.0000 </r>
       <r>    5.8377    0.0000 </r>
       <r>    5.8811    0.0000 </r>
       <r>    5.9315    0.0000 </r>
       <r>    5.9602    0.0000 </r>
       <r>    6.0166    0.0000 </r>
       <r>    6.0582    0.0000 </r>
       <r>    6.1363    0.0000 </r>
       <r>    6.1879    0.0000 </r>
       <r>    6.2163    0.0000 </r>
       <r>    6.2328    0.0000 </r>
       <r>    6.2822    0.0000 </r>
       <r>    6.3133    0.0000 </r>
       <r>    6.3670    0.0000 </r>
       <r>    6.4180    0.0000 </r>
       <r>    6.4825    0.0000 </r>
       <r>    6.5587    0.0000 </r>
       <r>    6.5690    0.0000 </r>
       <r>    6.6682    0.0000 </r>
      </set>
      <set comment="kpoint 2">
       <r>  -20.9169    1.0000 </r>
       <r>  -20.8036    1.0000 </r>
       <r>  -20.7988    1.0000 </r>
       <r>  -20.7585    1.0000 </r>
       <r>  -20.7562    1.0000 </r>
       <r>  -20.7416    1.0000 </r>
       <r>  -20.6749    1.0000 </r>
       <r>  -20.6674    1.0000 </r>
       <r>  -16.7007    1.0000 </r>
       <r>  -16.6715    1.0000 </r>
       <r>  -16.6707    1.0000 </r>
       <r>  -16.6453    1.0000 </r>
       <r>  -16.6311    1.0000 </r>
       <r>  -16.5986    1.0000 </r>
       <r>  -16.5885    1.0000 </r>
       <r>  -16.5597    1.0000 </r>
       <r>  -16.5525    1.0000 </r>
       <r>  -16.5507    1.0000 </r>
       <r>  -16.5168    1.0000 </r>
       <r>  -16.4683    1.0000 </r>
       <r>  -16.4588    1.0000 </r>
       <r>  -16.4376    1.0000 </r>
       <r>  -16.4314    1.0000 </r>
       <r>  -16.4050    1.0000 </r>
       <r>  -16.4035    1.0000 </r>
       <r>  -16.4006    1.0000 </r>
       <r>  -16.3996    1.0000 </r>
       <r>  -16.3858    1.0000 </r>
       <r>  -16.3642    1.0000 </r>
       <r>  -16.3597    1.0000 </r>
       <r>  -16.3397    1.0000 </r>
       <r>  -16.3377    1.0000 </r>
       <r>  -16.3265    1.0000 </r>
       <r>  -16.3206    1.0000 </r>
       <r>  -16.3136    1.0000 </r>
       <r>  -16.3043    1.0000 </r>
       <r>  -16.2978    1.0000 </r>
       <r>  -16.2887    1.0000 </r>
       <r>  -16.2857    1.0000 </r>
       <r>  -16.2779    1.0000 </r>
       <r>  -16.2724    1.0000 </r>
       <r>  -16.2714    1.0000 </r>
       <r>  -16.2691    1.0000 </r>
       <r>  -16.2635    1.0000 </r>
       <r>  -16.2588    1.0000 </r>
       <r>  -16.2196    1.0000 </r>
       <r>  -16.2128    1.0000 </r>
       <r>  -16.2103    1.0000 </r>
       <r>  -14.5077    1.0000 </r>
       <r>  -14.3861    1.0000 </r>
       <r>  -14.3681    1.0000 </r>
       <r>  -14.2728    1.0000 </r>
       <r>  -14.2066    1.0000 </r>
       <r>  -14.1455    1.0000 </r>
       <r>  -14.1159    1.0000 </r>
       <r>  -14.1051    1.0000 </r>
       <r>  -14.0880    1.0000 </r>
       <r>  -14.0769    1.0000 </r>
       <r>  -14.0477    1.0000 </r>
       <r>  -14.0361    1.0000 </r>
       <r>  -14.0003    1.0000 </r>
       <r>  -13.9796    1.0000 </r>
       <r>  -13.9646    1.0000 </r>
       <r>  -13.9541    1.0000 </r>
       <r>  -13.9055    1.0000 </r>
       <r>  -13.8723    1.0000 </r>
       <r>  -13.8659    1.0000 </r>
       <r>  -13.8007    1.0000 </r>
       <r>  -13.7720    1.0000 </r>
       <r>  -13.7594    1.0000 </r>
       <r>  -13.7122    1.0000 </r>
       <r>   -8.0447    1.0000 </r>
       <r>   -7.9740    1.0000 </r>
       <r>   -7.6494    1.0000 </r>
       <r>   -7.5296    1.0000 </r>
       <r>   -7.4535    1.0000 </r>
       <r>   -7.4412    1.0000 </r>
       <r>   -7.3418    1.0000 </r>
       <r>   -7.2986    1.0000 </r>
       <r>   -7.2764    1.0000 </r>
       <r>   -7.2354    1.0000 </r>
       <r>   -7.2266    1.0000 </r>
       <r>   -7.2070    1.0000 </r>
       <r>   -7.1957    1.0000 </r>
       <r>   -7.1864    1.0000 </r>
       <r>   -7.1831    1.0000 </r>
       <r>   -7.1773    1.0000 </r>
       <r>   -7.1758    1.0000 </r>
       <r>   -7.1709    1.0000 </r>
       <r>   -7.1540    1.0000 </r>
       <r>   -7.1507    1.0000 </r>
       <r>   -7.1471    1.0000 </r>
       <r>   -7.1380    1.0000 </r>
       <r>   -7.1309    1.0000 </r>
       <r>   -7.1168    1.0000 </r>
       <r>   -7.1000    1.0000 </r>
       <r>   -7.0853    1.0000 </r>
       <r>   -7.0821    1.0000 </r>
       <r>   -7.0767    1.0000 </r>
       <r>   -7.0617    1.0000 </r>
       <r>   -7.0482    1.0000 </r>
       <r>   -6.9214    1.0000 </r>
       <r>   -6.8527    1.0000 </r>
       <r>   -3.3443    1.0000 </r>
       <r>   -3.3253    1.0000 </r>
       <r>   -3.2757    1.0000 </r>
       <r>   -3.2407    1.0000 </r>
       <r>   -3.2333    1.0000 </r>
       <r>   -3.1752    1.0000 </r>
       <r>   -3.1349    1.0000 </r>
       <r>   -3.0368    1.0000 </r>
       <r>   -2.9457    1.0000 </r>
       <r>   -2.5895    1.0000 </r>
       <r>   -2.5131    1.0000 </r>
       <r>   -2.4442    1.0000 </r>
       <r>   -2.4375    1.0000 </r>
       <r>   -2.4003    1.0000 </r>
       <r>   -2.3218    1.0000 </r>
       <r>   -2.1620    1.0000 </r>
       <r>   -2.1289    1.0000 </r>
       <r>   -2.0759    1.0000 </r>
       <r>   -2.0411    1.0000 </r>
       <r>   -2.0245    1.0000 </r>
       <r>   -1.9921    1.0000 </r>
       <r>   -1.9653    1.0000 </r>
       <r>   -1.9043    1.0000 </r>
       <r>   -1.8622    1.0000 </r>
       <r>   -1.8187    1.0000 </r>
       <r>   -1.7848    1.0000 </r>
       <r>   -1.7334    1.0000 </r>
       <r>   -1.6762    1.0000 </r>
       <r>   -1.6382    1.0000 </r>
       <r>   -1.5963    1.0000 </r>
       <r>   -1.5826    1.0000 </r>
       <r>   -1.5600    1.0000 </r>
       <r>   -1.5405    1.0000 </r>
       <r>   -1.4997    1.0000 </r>
       <r>   -1.4964    1.0000 </r>
       <r>   -1.4507    1.0000 </r>
       <r>   -1.4427    1.0000 </r>
       <r>   -1.4288    1.0000 </r>
       <r>   -1.4231    1.0000 </r>
       <r>   -1.4127    1.0000 </r>
       <r>   -1.3930    1.0000 </r>
       <r>   -1.3869    1.0000 </r>
       <r>   -1.3795    1.0000 </r>
       <r>   -1.3662    1.0000 </r>
       <r>   -1.3498    1.0000 </r>
       <r>   -1.3282    1.0000 </r>
       <r>   -1.3190    1.0000 </r>
       <r>   -1.2929    1.0000 </r>
       <r>   -1.2636    1.0000 </r>
       <r>   -1.2585    1.0000 </r>
       <r>   -1.2355    1.0000 </r>
       <r>   -1.2126    1.0000 </r>
       <r>   -1.1981    1.0000 </r>
       <r>   -1.1709    1.0000 </r>
       <r>   -1.1628    1.0000 </r>
       <r>   -1.1408    1.0000 </r>
       <r>   -1.1243    1.0000 </r>
       <r>   -1.1025    1.0000 </r>
       <r>   -1.0515    1.0000 </r>
       <r>   -1.0341    1.0000 </r>
       <r>   -0.9798    1.0000 </r>
       <r>   -0.8992    1.0000 </r>
       <r>   -0.8876    1.0000 </r>
       <r>   -0.6686    1.0000 </r>
       <r>   -0.6236    1.0000 </r>
       <r>   -0.5284    1.0000 </r>
       <r>   -0.3902    1.0000 </r>
       <r>   -0.0075    1.0000 </r>
       <r>    0.0828    1.0000 </r>
       <r>    2.5775    0.0000 </r>
       <r>    2.9066    0.0000 </r>
       <r>    2.9292    0.0000 </r>
       <r>    2.9832    0.0000 </r>
       <r>    3.1941    0.0000 </r>
       <r>    3.2869    0.0000 </r>
       <r>    3.3355    0.0000 </r>
       <r>    3.3513    0.0000 </r>
       <r>    3.5160    0.0000 </r>
       <r>    4.0340    0.0000 </r>
       <r>    4.3293    0.0000 </r>
       <r>    4.3595    0.0000 </r>
       <r>    4.5638    0.0000 </r>
       <r>    4.6234    0.0000 </r>
       <r>    4.7694    0.0000 </r>
       <r>    4.8805    0.0000 </r>
       <r>    5.1633    0.0000 </r>
       <r>    5.5030    0.0000 </r>
       <r>    5.5784    0.0000 </r>
       <r>    5.6705    0.0000 </r>
       <r>    5.7745    0.0000 </r>
       <r>    5.8481    0.0000 </r>
       <r>    5.9911    0.0000 </r>
       <r>    6.0403    0.0000 </r>
       <r>    6.0793    0.0000 </r>
       <r>    6.1425    0.0000 </r>
       <r>    6.2033    0.0000 </r>
       <r>    6.2104    0.0000 </r>
       <r>    6.2712    0.0000 </r>
       <r>    6.2762    0.0000 </r>
       <r>    6.3117    0.0000 </r>
       <r>    6.4146    0.0000 </r>
       <r>    6.4239    0.0000 </r>
       <r>    6.4773    0.0000 </r>
       <r>    6.5699    0.0000 </r>
       <r>    6.6509    0.0000 </r>
      </set>
      <set comment="kpoint 3">
       <r>  -20.9169    1.0000 </r>
       <r>  -20.8036    1.0000 </r>
       <r>  -20.7988    1.0000 </r>
       <r>  -20.7584    1.0000 </r>
       <r>  -20.7561    1.0000 </r>
       <r>  -20.7417    1.0000 </r>
       <r>  -20.6749    1.0000 </r>
       <r>  -20.6674    1.0000 </r>
       <r>  -16.6996    1.0000 </r>
       <r>  -16.6700    1.0000 </r>
       <r>  -16.6690    1.0000 </r>
       <r>  -16.6461    1.0000 </r>
       <r>  -16.6307    1.0000 </r>
       <r>  -16.5987    1.0000 </r>
       <r>  -16.5885    1.0000 </r>
       <r>  -16.5596    1.0000 </r>
       <r>  -16.5525    1.0000 </r>
       <r>  -16.5507    1.0000 </r>
       <r>  -16.5168    1.0000 </r>
       <r>  -16.4539    1.0000 </r>
       <r>  -16.4496    1.0000 </r>
       <r>  -16.4388    1.0000 </r>
       <r>  -16.4349    1.0000 </r>
       <r>  -16.4266    1.0000 </r>
       <r>  -16.4147    1.0000 </r>
       <r>  -16.4038    1.0000 </r>
       <r>  -16.4020    1.0000 </r>
       <r>  -16.3799    1.0000 </r>
       <r>  -16.3602    1.0000 </r>
       <r>  -16.3596    1.0000 </r>
       <r>  -16.3397    1.0000 </r>
       <r>  -16.3377    1.0000 </r>
       <r>  -16.3265    1.0000 </r>
       <r>  -16.3192    1.0000 </r>
       <r>  -16.3101    1.0000 </r>
       <r>  -16.3042    1.0000 </r>
       <r>  -16.2977    1.0000 </r>
       <r>  -16.2887    1.0000 </r>
       <r>  -16.2857    1.0000 </r>
       <r>  -16.2779    1.0000 </r>
       <r>  -16.2724    1.0000 </r>
       <r>  -16.2714    1.0000 </r>
       <r>  -16.2690    1.0000 </r>
       <r>  -16.2635    1.0000 </r>
       <r>  -16.2588    1.0000 </r>
       <r>  -16.2196    1.0000 </r>
       <r>  -16.2128    1.0000 </r>
       <r>  -16.2103    1.0000 </r>
       <r>  -14.5180    1.0000 </r>
       <r>  -14.3725    1.0000 </r>
       <r>  -14.3475    1.0000 </r>
       <r>  -14.3152    1.0000 </r>
       <r>  -14.1911    1.0000 </r>
       <r>  -14.1819    1.0000 </r>
       <r>  -14.1264    1.0000 </r>
       <r>  -14.0762    1.0000 </r>
       <r>  -14.0727    1.0000 </r>
       <r>  -14.0515    1.0000 </r>
       <r>  -14.0403    1.0000 </r>
       <r>  -14.0372    1.0000 </r>
       <r>  -14.0173    1.0000 </r>
       <r>  -13.9921    1.0000 </r>
       <r>  -13.9623    1.0000 </r>
       <r>  -13.9348    1.0000 </r>
       <r>  -13.8855    1.0000 </r>
       <r>  -13.8730    1.0000 </r>
       <r>  -13.8419    1.0000 </r>
       <r>  -13.8269    1.0000 </r>
       <r>  -13.8015    1.0000 </r>
       <r>  -13.7720    1.0000 </r>
       <r>  -13.7039    1.0000 </r>
       <r>   -7.9883    1.0000 </r>
       <r>   -7.9396    1.0000 </r>
       <r>   -7.6268    1.0000 </r>
       <r>   -7.6060    1.0000 </r>
       <r>   -7.4519    1.0000 </r>
       <r>   -7.4189    1.0000 </r>
       <r>   -7.3447    1.0000 </r>
       <r>   -7.3018    1.0000 </r>
       <r>   -7.2814    1.0000 </r>
       <r>   -7.2317    1.0000 </r>
       <r>   -7.2284    1.0000 </r>
       <r>   -7.2093    1.0000 </r>
       <r>   -7.1947    1.0000 </r>
       <r>   -7.1887    1.0000 </r>
       <r>   -7.1834    1.0000 </r>
       <r>   -7.1747    1.0000 </r>
       <r>   -7.1712    1.0000 </r>
       <r>   -7.1646    1.0000 </r>
       <r>   -7.1604    1.0000 </r>
       <r>   -7.1548    1.0000 </r>
       <r>   -7.1459    1.0000 </r>
       <r>   -7.1384    1.0000 </r>
       <r>   -7.1356    1.0000 </r>
       <r>   -7.1231    1.0000 </r>
       <r>   -7.1013    1.0000 </r>
       <r>   -7.0872    1.0000 </r>
       <r>   -7.0827    1.0000 </r>
       <r>   -7.0755    1.0000 </r>
       <r>   -7.0708    1.0000 </r>
       <r>   -7.0551    1.0000 </r>
       <r>   -7.0424    1.0000 </r>
       <r>   -6.8434    1.0000 </r>
       <r>   -3.2896    1.0000 </r>
       <r>   -3.2554    1.0000 </r>
       <r>   -3.2195    1.0000 </r>
       <r>   -3.1751    1.0000 </r>
       <r>   -3.1476    1.0000 </r>
       <r>   -3.1115    1.0000 </r>
       <r>   -3.0798    1.0000 </r>
       <r>   -2.9888    1.0000 </r>
       <r>   -2.6210    1.0000 </r>
       <r>   -2.5645    1.0000 </r>
       <r>   -2.5346    1.0000 </r>
       <r>   -2.4776    1.0000 </r>
       <r>   -2.4395    1.0000 </r>
       <r>   -2.4329    1.0000 </r>
       <r>   -2.4096    1.0000 </r>
       <r>   -2.3612    1.0000 </r>
       <r>   -2.1842    1.0000 </r>
       <r>   -2.1106    1.0000 </r>
       <r>   -2.0647    1.0000 </r>
       <r>   -2.0234    1.0000 </r>
       <r>   -1.9965    1.0000 </r>
       <r>   -1.9514    1.0000 </r>
       <r>   -1.9273    1.0000 </r>
       <r>   -1.8448    1.0000 </r>
       <r>   -1.8368    1.0000 </r>
       <r>   -1.8161    1.0000 </r>
       <r>   -1.7536    1.0000 </r>
       <r>   -1.7403    1.0000 </r>
       <r>   -1.6677    1.0000 </r>
       <r>   -1.6630    1.0000 </r>
       <r>   -1.6027    1.0000 </r>
       <r>   -1.5466    1.0000 </r>
       <r>   -1.5092    1.0000 </r>
       <r>   -1.4995    1.0000 </r>
       <r>   -1.4752    1.0000 </r>
       <r>   -1.4481    1.0000 </r>
       <r>   -1.4347    1.0000 </r>
       <r>   -1.4303    1.0000 </r>
       <r>   -1.4138    1.0000 </r>
       <r>   -1.4080    1.0000 </r>
       <r>   -1.3906    1.0000 </r>
       <r>   -1.3682    1.0000 </r>
       <r>   -1.3619    1.0000 </r>
       <r>   -1.3497    1.0000 </r>
       <r>   -1.3366    1.0000 </r>
       <r>   -1.3171    1.0000 </r>
       <r>   -1.2923    1.0000 </r>
       <r>   -1.2842    1.0000 </r>
       <r>   -1.2766    1.0000 </r>
       <r>   -1.2654    1.0000 </r>
       <r>   -1.2479    1.0000 </r>
       <r>   -1.2426    1.0000 </r>
       <r>   -1.2271    1.0000 </r>
       <r>   -1.1506    1.0000 </r>
       <r>   -1.1389    1.0000 </r>
       <r>   -1.1325    1.0000 </r>
       <r>   -1.1231    1.0000 </r>
       <r>   -1.0992    1.0000 </r>
       <r>   -1.0682    1.0000 </r>
       <r>   -1.0516    1.0000 </r>
       <r>   -1.0177    1.0000 </r>
       <r>   -0.9356    1.0000 </r>
       <r>   -0.8372    1.0000 </r>
       <r>   -0.8241    1.0000 </r>
       <r>   -0.5818    1.0000 </r>
       <r>   -0.5746    1.0000 </r>
       <r>   -0.5186    1.0000 </r>
       <r>   -0.3117    1.0000 </r>
       <r>    0.0488    1.0000 </r>
       <r>    2.7853    0.0000 </r>
       <r>    2.9463    0.0000 </r>
       <r>    2.9773    0.0000 </r>
       <r>    3.1083    0.0000 </r>
       <r>    3.1227    0.0000 </r>
       <r>    3.3785    0.0000 </r>
       <r>    3.3859    0.0000 </r>
       <r>    3.3922    0.0000 </r>
       <r>    4.2031    0.0000 </r>
       <r>    4.3005    0.0000 </r>
       <r>    4.3962    0.0000 </r>
       <r>    4.5603    0.0000 </r>
       <r>    4.6129    0.0000 </r>
       <r>    4.6800    0.0000 </r>
       <r>    4.7368    0.0000 </r>
       <r>    4.8294    0.0000 </r>
       <r>    4.9426    0.0000 </r>
       <r>    5.2589    0.0000 </r>
       <r>    5.3013    0.0000 </r>
       <r>    5.5281    0.0000 </r>
       <r>    5.7327    0.0000 </r>
       <r>    5.7583    0.0000 </r>
       <r>    5.7778    0.0000 </r>
       <r>    5.8433    0.0000 </r>
       <r>    6.0208    0.0000 </r>
       <r>    6.0832    0.0000 </r>
       <r>    6.1597    0.0000 </r>
       <r>    6.2059    0.0000 </r>
       <r>    6.2381    0.0000 </r>
       <r>    6.2769    0.0000 </r>
       <r>    6.3862    0.0000 </r>
       <r>    6.4416    0.0000 </r>
       <r>    6.5006    0.0000 </r>
       <r>    6.5604    0.0000 </r>
       <r>    6.6188    0.0000 </r>
       <r>    6.6597    0.0000 </r>
      </set>
      <set comment="kpoint 4">
       <r>  -20.9169    1.0000 </r>
       <r>  -20.8036    1.0000 </r>
       <r>  -20.7988    1.0000 </r>
       <r>  -20.7584    1.0000 </r>
       <r>  -20.7562    1.0000 </r>
       <r>  -20.7417    1.0000 </r>
       <r>  -20.6749    1.0000 </r>
       <r>  -20.6674    1.0000 </r>
       <r>  -16.6994    1.0000 </r>
       <r>  -16.6696    1.0000 </r>
       <r>  -16.6691    1.0000 </r>
       <r>  -16.6433    1.0000 </r>
       <r>  -16.6307    1.0000 </r>
       <r>  -16.5988    1.0000 </r>
       <r>  -16.5885    1.0000 </r>
       <r>  -16.5596    1.0000 </r>
       <r>  -16.5525    1.0000 </r>
       <r>  -16.5507    1.0000 </r>
       <r>  -16.5169    1.0000 </r>
       <r>  -16.4537    1.0000 </r>
       <r>  -16.4513    1.0000 </r>
       <r>  -16.4370    1.0000 </r>
       <r>  -16.4346    1.0000 </r>
       <r>  -16.4071    1.0000 </r>
       <r>  -16.4061    1.0000 </r>
       <r>  -16.4022    1.0000 </r>
       <r>  -16.4008    1.0000 </r>
       <r>  -16.3987    1.0000 </r>
       <r>  -16.3676    1.0000 </r>
       <r>  -16.3597    1.0000 </r>
       <r>  -16.3397    1.0000 </r>
       <r>  -16.3378    1.0000 </r>
       <r>  -16.3265    1.0000 </r>
       <r>  -16.3241    1.0000 </r>
       <r>  -16.3160    1.0000 </r>
       <r>  -16.3042    1.0000 </r>
       <r>  -16.2978    1.0000 </r>
       <r>  -16.2887    1.0000 </r>
       <r>  -16.2857    1.0000 </r>
       <r>  -16.2779    1.0000 </r>
       <r>  -16.2724    1.0000 </r>
       <r>  -16.2714    1.0000 </r>
       <r>  -16.2691    1.0000 </r>
       <r>  -16.2635    1.0000 </r>
       <r>  -16.2588    1.0000 </r>
       <r>  -16.2196    1.0000 </r>
       <r>  -16.2128    1.0000 </r>
       <r>  -16.2103    1.0000 </r>
       <r>  -14.5063    1.0000 </r>
       <r>  -14.3769    1.0000 </r>
       <r>  -14.3665    1.0000 </r>
       <r>  -14.2831    1.0000 </r>
       <r>  -14.2489    1.0000 </r>
       <r>  -14.1949    1.0000 </r>
       <r>  -14.1492    1.0000 </r>
       <r>  -14.0892    1.0000 </r>
       <r>  -14.0718    1.0000 </r>
       <r>  -14.0674    1.0000 </r>
       <r>  -14.0365    1.0000 </r>
       <r>  -13.9945    1.0000 </r>
       <r>  -13.9642    1.0000 </r>
       <r>  -13.9430    1.0000 </r>
       <r>  -13.9266    1.0000 </r>
       <r>  -13.9214    1.0000 </r>
       <r>  -13.9147    1.0000 </r>
       <r>  -13.8861    1.0000 </r>
       <r>  -13.8333    1.0000 </r>
       <r>  -13.8192    1.0000 </r>
       <r>  -13.8052    1.0000 </r>
       <r>  -13.7902    1.0000 </r>
       <r>  -13.7487    1.0000 </r>
       <r>   -7.8825    1.0000 </r>
       <r>   -7.7579    1.0000 </r>
       <r>   -7.7297    1.0000 </r>
       <r>   -7.6859    1.0000 </r>
       <r>   -7.4834    1.0000 </r>
       <r>   -7.3550    1.0000 </r>
       <r>   -7.3135    1.0000 </r>
       <r>   -7.2929    1.0000 </r>
       <r>   -7.2798    1.0000 </r>
       <r>   -7.2421    1.0000 </r>
       <r>   -7.2402    1.0000 </r>
       <r>   -7.2184    1.0000 </r>
       <r>   -7.2083    1.0000 </r>
       <r>   -7.1919    1.0000 </r>
       <r>   -7.1867    1.0000 </r>
       <r>   -7.1833    1.0000 </r>
       <r>   -7.1757    1.0000 </r>
       <r>   -7.1679    1.0000 </r>
       <r>   -7.1658    1.0000 </r>
       <r>   -7.1603    1.0000 </r>
       <r>   -7.1500    1.0000 </r>
       <r>   -7.1473    1.0000 </r>
       <r>   -7.1336    1.0000 </r>
       <r>   -7.1277    1.0000 </r>
       <r>   -7.1154    1.0000 </r>
       <r>   -7.0961    1.0000 </r>
       <r>   -7.0886    1.0000 </r>
       <r>   -7.0777    1.0000 </r>
       <r>   -7.0729    1.0000 </r>
       <r>   -7.0651    1.0000 </r>
       <r>   -7.0571    1.0000 </r>
       <r>   -7.0434    1.0000 </r>
       <r>   -3.2327    1.0000 </r>
       <r>   -3.1981    1.0000 </r>
       <r>   -3.1412    1.0000 </r>
       <r>   -3.0853    1.0000 </r>
       <r>   -3.0250    1.0000 </r>
       <r>   -2.7121    1.0000 </r>
       <r>   -2.6868    1.0000 </r>
       <r>   -2.6648    1.0000 </r>
       <r>   -2.6408    1.0000 </r>
       <r>   -2.5785    1.0000 </r>
       <r>   -2.5600    1.0000 </r>
       <r>   -2.4966    1.0000 </r>
       <r>   -2.3922    1.0000 </r>
       <r>   -2.3809    1.0000 </r>
       <r>   -2.3553    1.0000 </r>
       <r>   -2.3500    1.0000 </r>
       <r>   -2.3088    1.0000 </r>
       <r>   -2.2923    1.0000 </r>
       <r>   -2.2369    1.0000 </r>
       <r>   -2.0782    1.0000 </r>
       <r>   -2.0398    1.0000 </r>
       <r>   -2.0082    1.0000 </r>
       <r>   -1.9823    1.0000 </r>
       <r>   -1.9077    1.0000 </r>
       <r>   -1.8401    1.0000 </r>
       <r>   -1.7758    1.0000 </r>
       <r>   -1.7714    1.0000 </r>
       <r>   -1.7538    1.0000 </r>
       <r>   -1.7256    1.0000 </r>
       <r>   -1.7023    1.0000 </r>
       <r>   -1.6852    1.0000 </r>
       <r>   -1.6563    1.0000 </r>
       <r>   -1.6203    1.0000 </r>
       <r>   -1.5750    1.0000 </r>
       <r>   -1.5522    1.0000 </r>
       <r>   -1.5368    1.0000 </r>
       <r>   -1.5320    1.0000 </r>
       <r>   -1.4660    1.0000 </r>
       <r>   -1.4353    1.0000 </r>
       <r>   -1.4206    1.0000 </r>
       <r>   -1.3967    1.0000 </r>
       <r>   -1.3758    1.0000 </r>
       <r>   -1.3621    1.0000 </r>
       <r>   -1.3529    1.0000 </r>
       <r>   -1.3314    1.0000 </r>
       <r>   -1.3010    1.0000 </r>
       <r>   -1.2798    1.0000 </r>
       <r>   -1.2730    1.0000 </r>
       <r>   -1.2410    1.0000 </r>
       <r>   -1.2305    1.0000 </r>
       <r>   -1.2186    1.0000 </r>
       <r>   -1.1986    1.0000 </r>
       <r>   -1.1709    1.0000 </r>
       <r>   -1.1564    1.0000 </r>
       <r>   -1.1487    1.0000 </r>
       <r>   -1.1328    1.0000 </r>
       <r>   -1.1238    1.0000 </r>
       <r>   -1.1006    1.0000 </r>
       <r>   -1.0733    1.0000 </r>
       <r>   -1.0534    1.0000 </r>
       <r>   -1.0261    1.0000 </r>
       <r>   -0.9624    1.0000 </r>
       <r>   -0.8963    1.0000 </r>
       <r>   -0.8675    1.0000 </r>
       <r>   -0.8234    1.0000 </r>
       <r>   -0.6282    1.0000 </r>
       <r>   -0.4697    1.0000 </r>
       <r>   -0.3865    1.0000 </r>
       <r>   -0.3389    1.0000 </r>
       <r>    2.6060    0.0000 </r>
       <r>    3.0902    0.0000 </r>
       <r>    3.1713    0.0000 </r>
       <r>    3.2253    0.0000 </r>
       <r>    3.4122    0.0000 </r>
       <r>    4.0495    0.0000 </r>
       <r>    4.2978    0.0000 </r>
       <r>    4.3412    0.0000 </r>
       <r>    4.3699    0.0000 </r>
       <r>    4.3892    0.0000 </r>
       <r>    4.4702    0.0000 </r>
       <r>    4.4941    0.0000 </r>
       <r>    4.5396    0.0000 </r>
       <r>    4.5886    0.0000 </r>
       <r>    4.7273    0.0000 </r>
       <r>    4.7788    0.0000 </r>
       <r>    4.7875    0.0000 </r>
       <r>    4.8285    0.0000 </r>
       <r>    4.8865    0.0000 </r>
       <r>    4.9137    0.0000 </r>
       <r>    5.2200    0.0000 </r>
       <r>    5.7124    0.0000 </r>
       <r>    5.7334    0.0000 </r>
       <r>    5.8720    0.0000 </r>
       <r>    5.9125    0.0000 </r>
       <r>    6.0115    0.0000 </r>
       <r>    6.0531    0.0000 </r>
       <r>    6.1064    0.0000 </r>
       <r>    6.2228    0.0000 </r>
       <r>    6.3182    0.0000 </r>
       <r>    6.3255    0.0000 </r>
       <r>    6.3362    0.0000 </r>
       <r>    6.3640    0.0000 </r>
       <r>    6.4190    0.0000 </r>
       <r>    6.5095    0.0000 </r>
       <r>    6.5975    0.0000 </r>
      </set>
      <set comment="kpoint 5">
       <r>  -20.9169    1.0000 </r>
       <r>  -20.8036    1.0000 </r>
       <r>  -20.7988    1.0000 </r>
       <r>  -20.7585    1.0000 </r>
       <r>  -20.7562    1.0000 </r>
       <r>  -20.7416    1.0000 </r>
       <r>  -20.6749    1.0000 </r>
       <r>  -20.6674    1.0000 </r>
       <r>  -16.7007    1.0000 </r>
       <r>  -16.6707    1.0000 </r>
       <r>  -16.6691    1.0000 </r>
       <r>  -16.6482    1.0000 </r>
       <r>  -16.6312    1.0000 </r>
       <r>  -16.5987    1.0000 </r>
       <r>  -16.5885    1.0000 </r>
       <r>  -16.5596    1.0000 </r>
       <r>  -16.5525    1.0000 </r>
       <r>  -16.5507    1.0000 </r>
       <r>  -16.5168    1.0000 </r>
       <r>  -16.4681    1.0000 </r>
       <r>  -16.4588    1.0000 </r>
       <r>  -16.4373    1.0000 </r>
       <r>  -16.4263    1.0000 </r>
       <r>  -16.4157    1.0000 </r>
       <r>  -16.4094    1.0000 </r>
       <r>  -16.4022    1.0000 </r>
       <r>  -16.3926    1.0000 </r>
       <r>  -16.3808    1.0000 </r>
       <r>  -16.3596    1.0000 </r>
       <r>  -16.3595    1.0000 </r>
       <r>  -16.3397    1.0000 </r>
       <r>  -16.3377    1.0000 </r>
       <r>  -16.3265    1.0000 </r>
       <r>  -16.3250    1.0000 </r>
       <r>  -16.3125    1.0000 </r>
       <r>  -16.3042    1.0000 </r>
       <r>  -16.2978    1.0000 </r>
       <r>  -16.2886    1.0000 </r>
       <r>  -16.2857    1.0000 </r>
       <r>  -16.2780    1.0000 </r>
       <r>  -16.2725    1.0000 </r>
       <r>  -16.2714    1.0000 </r>
       <r>  -16.2689    1.0000 </r>
       <r>  -16.2635    1.0000 </r>
       <r>  -16.2588    1.0000 </r>
       <r>  -16.2196    1.0000 </r>
       <r>  -16.2129    1.0000 </r>
       <r>  -16.2103    1.0000 </r>
       <r>  -14.5126    1.0000 </r>
       <r>  -14.3991    1.0000 </r>
       <r>  -14.3434    1.0000 </r>
       <r>  -14.2730    1.0000 </r>
       <r>  -14.1970    1.0000 </r>
       <r>  -14.1404    1.0000 </r>
       <r>  -14.1176    1.0000 </r>
       <r>  -14.1055    1.0000 </r>
       <r>  -14.0902    1.0000 </r>
       <r>  -14.0749    1.0000 </r>
       <r>  -14.0686    1.0000 </r>
       <r>  -14.0439    1.0000 </r>
       <r>  -14.0363    1.0000 </r>
       <r>  -13.9675    1.0000 </r>
       <r>  -13.9583    1.0000 </r>
       <r>  -13.9346    1.0000 </r>
       <r>  -13.9039    1.0000 </r>
       <r>  -13.8631    1.0000 </r>
       <r>  -13.8476    1.0000 </r>
       <r>  -13.8153    1.0000 </r>
       <r>  -13.7784    1.0000 </r>
       <r>  -13.7629    1.0000 </r>
       <r>  -13.7096    1.0000 </r>
       <r>   -8.0553    1.0000 </r>
       <r>   -7.9706    1.0000 </r>
       <r>   -7.6647    1.0000 </r>
       <r>   -7.5136    1.0000 </r>
       <r>   -7.4579    1.0000 </r>
       <r>   -7.4278    1.0000 </r>
       <r>   -7.3438    1.0000 </r>
       <r>   -7.2990    1.0000 </r>
       <r>   -7.2818    1.0000 </r>
       <r>   -7.2313    1.0000 </r>
       <r>   -7.2272    1.0000 </r>
       <r>   -7.2069    1.0000 </r>
       <r>   -7.2002    1.0000 </r>
       <r>   -7.1912    1.0000 </r>
       <r>   -7.1852    1.0000 </r>
       <r>   -7.1771    1.0000 </r>
       <r>   -7.1709    1.0000 </r>
       <r>   -7.1636    1.0000 </r>
       <r>   -7.1614    1.0000 </r>
       <r>   -7.1562    1.0000 </r>
       <r>   -7.1432    1.0000 </r>
       <r>   -7.1374    1.0000 </r>
       <r>   -7.1254    1.0000 </r>
       <r>   -7.1114    1.0000 </r>
       <r>   -7.0907    1.0000 </r>
       <r>   -7.0900    1.0000 </r>
       <r>   -7.0859    1.0000 </r>
       <r>   -7.0719    1.0000 </r>
       <r>   -7.0676    1.0000 </r>
       <r>   -7.0468    1.0000 </r>
       <r>   -6.9258    1.0000 </r>
       <r>   -6.8398    1.0000 </r>
       <r>   -3.3594    1.0000 </r>
       <r>   -3.3214    1.0000 </r>
       <r>   -3.2916    1.0000 </r>
       <r>   -3.2597    1.0000 </r>
       <r>   -3.2267    1.0000 </r>
       <r>   -3.1809    1.0000 </r>
       <r>   -3.1521    1.0000 </r>
       <r>   -3.0916    1.0000 </r>
       <r>   -2.9589    1.0000 </r>
       <r>   -2.5354    1.0000 </r>
       <r>   -2.4988    1.0000 </r>
       <r>   -2.4457    1.0000 </r>
       <r>   -2.4041    1.0000 </r>
       <r>   -2.3630    1.0000 </r>
       <r>   -2.3225    1.0000 </r>
       <r>   -2.1956    1.0000 </r>
       <r>   -2.1101    1.0000 </r>
       <r>   -2.0897    1.0000 </r>
       <r>   -2.0540    1.0000 </r>
       <r>   -2.0254    1.0000 </r>
       <r>   -2.0023    1.0000 </r>
       <r>   -1.9473    1.0000 </r>
       <r>   -1.8878    1.0000 </r>
       <r>   -1.8408    1.0000 </r>
       <r>   -1.8187    1.0000 </r>
       <r>   -1.7603    1.0000 </r>
       <r>   -1.7150    1.0000 </r>
       <r>   -1.6787    1.0000 </r>
       <r>   -1.6568    1.0000 </r>
       <r>   -1.6181    1.0000 </r>
       <r>   -1.5876    1.0000 </r>
       <r>   -1.5674    1.0000 </r>
       <r>   -1.5547    1.0000 </r>
       <r>   -1.4918    1.0000 </r>
       <r>   -1.4834    1.0000 </r>
       <r>   -1.4729    1.0000 </r>
       <r>   -1.4548    1.0000 </r>
       <r>   -1.4508    1.0000 </r>
       <r>   -1.4306    1.0000 </r>
       <r>   -1.3973    1.0000 </r>
       <r>   -1.3900    1.0000 </r>
       <r>   -1.3829    1.0000 </r>
       <r>   -1.3616    1.0000 </r>
       <r>   -1.3512    1.0000 </r>
       <r>   -1.3462    1.0000 </r>
       <r>   -1.3257    1.0000 </r>
       <r>   -1.3094    1.0000 </r>
       <r>   -1.2838    1.0000 </r>
       <r>   -1.2668    1.0000 </r>
       <r>   -1.2527    1.0000 </r>
       <r>   -1.2497    1.0000 </r>
       <r>   -1.2144    1.0000 </r>
       <r>   -1.2079    1.0000 </r>
       <r>   -1.1639    1.0000 </r>
       <r>   -1.1513    1.0000 </r>
       <r>   -1.1284    1.0000 </r>
       <r>   -1.1033    1.0000 </r>
       <r>   -1.0933    1.0000 </r>
       <r>   -1.0564    1.0000 </r>
       <r>   -1.0425    1.0000 </r>
       <r>   -1.0000    1.0000 </r>
       <r>   -0.9055    1.0000 </r>
       <r>   -0.8723    1.0000 </r>
       <r>   -0.7164    1.0000 </r>
       <r>   -0.6010    1.0000 </r>
       <r>   -0.5137    1.0000 </r>
       <r>   -0.4130    1.0000 </r>
       <r>   -0.0310    1.0000 </r>
       <r>    0.0757    1.0000 </r>
       <r>    2.7426    0.0000 </r>
       <r>    2.8857    0.0000 </r>
       <r>    2.9430    0.0000 </r>
       <r>    2.9650    0.0000 </r>
       <r>    3.1730    0.0000 </r>
       <r>    3.2973    0.0000 </r>
       <r>    3.3312    0.0000 </r>
       <r>    3.3741    0.0000 </r>
       <r>    3.5008    0.0000 </r>
       <r>    4.1042    0.0000 </r>
       <r>    4.2544    0.0000 </r>
       <r>    4.3918    0.0000 </r>
       <r>    4.5481    0.0000 </r>
       <r>    4.6630    0.0000 </r>
       <r>    4.7664    0.0000 </r>
       <r>    4.8406    0.0000 </r>
       <r>    4.9932    0.0000 </r>
       <r>    5.3721    0.0000 </r>
       <r>    5.5852    0.0000 </r>
       <r>    5.6774    0.0000 </r>
       <r>    5.7475    0.0000 </r>
       <r>    5.8811    0.0000 </r>
       <r>    5.8999    0.0000 </r>
       <r>    6.0050    0.0000 </r>
       <r>    6.1143    0.0000 </r>
       <r>    6.1467    0.0000 </r>
       <r>    6.1646    0.0000 </r>
       <r>    6.2596    0.0000 </r>
       <r>    6.2690    0.0000 </r>
       <r>    6.3123    0.0000 </r>
       <r>    6.3678    0.0000 </r>
       <r>    6.4103    0.0000 </r>
       <r>    6.4406    0.0000 </r>
       <r>    6.4797    0.0000 </r>
       <r>    6.5748    0.0000 </r>
       <r>    6.6366    0.0000 </r>
      </set>
      <set comment="kpoint 6">
       <r>  -20.9169    1.0000 </r>
       <r>  -20.8036    1.0000 </r>
       <r>  -20.7988    1.0000 </r>
       <r>  -20.7585    1.0000 </r>
       <r>  -20.7562    1.0000 </r>
       <r>  -20.7416    1.0000 </r>
       <r>  -20.6749    1.0000 </r>
       <r>  -20.6674    1.0000 </r>
       <r>  -16.7005    1.0000 </r>
       <r>  -16.6705    1.0000 </r>
       <r>  -16.6691    1.0000 </r>
       <r>  -16.6452    1.0000 </r>
       <r>  -16.6312    1.0000 </r>
       <r>  -16.5986    1.0000 </r>
       <r>  -16.5885    1.0000 </r>
       <r>  -16.5596    1.0000 </r>
       <r>  -16.5525    1.0000 </r>
       <r>  -16.5507    1.0000 </r>
       <r>  -16.5168    1.0000 </r>
       <r>  -16.4682    1.0000 </r>
       <r>  -16.4587    1.0000 </r>
       <r>  -16.4398    1.0000 </r>
       <r>  -16.4156    1.0000 </r>
       <r>  -16.4033    1.0000 </r>
       <r>  -16.4007    1.0000 </r>
       <r>  -16.3998    1.0000 </r>
       <r>  -16.3913    1.0000 </r>
       <r>  -16.3889    1.0000 </r>
       <r>  -16.3803    1.0000 </r>
       <r>  -16.3597    1.0000 </r>
       <r>  -16.3397    1.0000 </r>
       <r>  -16.3377    1.0000 </r>
       <r>  -16.3281    1.0000 </r>
       <r>  -16.3265    1.0000 </r>
       <r>  -16.3188    1.0000 </r>
       <r>  -16.3042    1.0000 </r>
       <r>  -16.2978    1.0000 </r>
       <r>  -16.2886    1.0000 </r>
       <r>  -16.2857    1.0000 </r>
       <r>  -16.2780    1.0000 </r>
       <r>  -16.2724    1.0000 </r>
       <r>  -16.2714    1.0000 </r>
       <r>  -16.2690    1.0000 </r>
       <r>  -16.2635    1.0000 </r>
       <r>  -16.2588    1.0000 </r>
       <r>  -16.2196    1.0000 </r>
       <r>  -16.2129    1.0000 </r>
       <r>  -16.2103    1.0000 </r>
       <r>  -14.5034    1.0000 </r>
       <r>  -14.3830    1.0000 </r>
       <r>  -14.3674    1.0000 </r>
       <r>  -14.2792    1.0000 </r>
       <r>  -14.2047    1.0000 </r>
       <r>  -14.1914    1.0000 </r>
       <r>  -14.1169    1.0000 </r>
       <r>  -14.1120    1.0000 </r>
       <r>  -14.1052    1.0000 </r>
       <r>  -14.0867    1.0000 </r>
       <r>  -14.0777    1.0000 </r>
       <r>  -14.0130    1.0000 </r>
       <r>  -13.9807    1.0000 </r>
       <r>  -13.9588    1.0000 </r>
       <r>  -13.9085    1.0000 </r>
       <r>  -13.8936    1.0000 </r>
       <r>  -13.8806    1.0000 </r>
       <r>  -13.8637    1.0000 </r>
       <r>  -13.8349    1.0000 </r>
       <r>  -13.8283    1.0000 </r>
       <r>  -13.8182    1.0000 </r>
       <r>  -13.8001    1.0000 </r>
       <r>  -13.7318    1.0000 </r>
       <r>   -7.9487    1.0000 </r>
       <r>   -7.8250    1.0000 </r>
       <r>   -7.7642    1.0000 </r>
       <r>   -7.7018    1.0000 </r>
       <r>   -7.3578    1.0000 </r>
       <r>   -7.3239    1.0000 </r>
       <r>   -7.3040    1.0000 </r>
       <r>   -7.2817    1.0000 </r>
       <r>   -7.2565    1.0000 </r>
       <r>   -7.2418    1.0000 </r>
       <r>   -7.2280    1.0000 </r>
       <r>   -7.2195    1.0000 </r>
       <r>   -7.2157    1.0000 </r>
       <r>   -7.1968    1.0000 </r>
       <r>   -7.1883    1.0000 </r>
       <r>   -7.1822    1.0000 </r>
       <r>   -7.1803    1.0000 </r>
       <r>   -7.1703    1.0000 </r>
       <r>   -7.1615    1.0000 </r>
       <r>   -7.1577    1.0000 </r>
       <r>   -7.1513    1.0000 </r>
       <r>   -7.1459    1.0000 </r>
       <r>   -7.1360    1.0000 </r>
       <r>   -7.1166    1.0000 </r>
       <r>   -7.1067    1.0000 </r>
       <r>   -7.0927    1.0000 </r>
       <r>   -7.0871    1.0000 </r>
       <r>   -7.0785    1.0000 </r>
       <r>   -7.0688    1.0000 </r>
       <r>   -7.0577    1.0000 </r>
       <r>   -7.0504    1.0000 </r>
       <r>   -7.0003    1.0000 </r>
       <r>   -3.3135    1.0000 </r>
       <r>   -3.2992    1.0000 </r>
       <r>   -3.2963    1.0000 </r>
       <r>   -3.2459    1.0000 </r>
       <r>   -3.1423    1.0000 </r>
       <r>   -2.9889    1.0000 </r>
       <r>   -2.7200    1.0000 </r>
       <r>   -2.6140    1.0000 </r>
       <r>   -2.5928    1.0000 </r>
       <r>   -2.5446    1.0000 </r>
       <r>   -2.5230    1.0000 </r>
       <r>   -2.4318    1.0000 </r>
       <r>   -2.4084    1.0000 </r>
       <r>   -2.3490    1.0000 </r>
       <r>   -2.3064    1.0000 </r>
       <r>   -2.3014    1.0000 </r>
       <r>   -2.2595    1.0000 </r>
       <r>   -2.2259    1.0000 </r>
       <r>   -2.1312    1.0000 </r>
[...]
        <r>  0.0000  0.0005  0.0003 </r>
        <r>  0.0000  0.0016  0.0003 </r>
        <r>  0.0007  0.0003  0.0003 </r>
        <r>  0.0000  0.0005  0.0004 </r>
        <r>  0.0001  0.0003  0.0006 </r>
        <r>  0.0002  0.0024  0.0005 </r>
        <r>  0.0013  0.0001  0.0013 </r>
        <r>  0.0003  0.0005  0.0003 </r>
        <r>  0.0003  0.0005  0.0053 </r>
       </set>
       <set comment="band 199">
        <r>  0.0005  0.0002  0.0097 </r>
        <r>  0.0052  0.0005  0.0157 </r>
        <r>  0.0066  0.0002  0.0074 </r>
        <r>  0.0005  0.0002  0.0041 </r>
        <r>  0.0000  0.0002  0.0064 </r>
        <r>  0.0015  0.0013  0.0142 </r>
        <r>  0.0010  0.0006  0.0033 </r>
        <r>  0.0014  0.0006  0.0093 </r>
        <r>  0.0000  0.0041  0.0001 </r>
        <r>  0.0000  0.0016  0.0001 </r>
        <r>  0.0000  0.0031  0.0001 </r>
        <r>  0.0000  0.0016  0.0002 </r>
        <r>  0.0002  0.0030  0.0011 </r>
        <r>  0.0002  0.0029  0.0005 </r>
        <r>  0.0000  0.0016  0.0003 </r>
        <r>  0.0000  0.0023  0.0009 </r>
        <r>  0.0003  0.0015  0.0010 </r>
        <r>  0.0000  0.0033  0.0007 </r>
        <r>  0.0000  0.0026  0.0021 </r>
        <r>  0.0001  0.0033  0.0004 </r>
        <r>  0.0003  0.0023  0.0009 </r>
        <r>  0.0004  0.0004  0.0010 </r>
        <r>  0.0003  0.0026  0.0024 </r>
        <r>  0.0009  0.0010  0.0016 </r>
        <r>  0.0003  0.0013  0.0014 </r>
        <r>  0.0015  0.0013  0.0015 </r>
        <r>  0.0001  0.0017  0.0006 </r>
        <r>  0.0002  0.0015  0.0002 </r>
        <r>  0.0011  0.0005  0.0009 </r>
        <r>  0.0002  0.0039  0.0009 </r>
        <r>  0.0001  0.0032  0.0002 </r>
        <r>  0.0000  0.0010  0.0004 </r>
        <r>  0.0017  0.0025  0.0022 </r>
        <r>  0.0015  0.0004  0.0011 </r>
        <r>  0.0001  0.0008  0.0002 </r>
        <r>  0.0031  0.0004  0.0024 </r>
        <r>  0.0006  0.0003  0.0010 </r>
        <r>  0.0002  0.0017  0.0013 </r>
        <r>  0.0003  0.0035  0.0005 </r>
       </set>
       <set comment="band 200">
        <r>  0.0001  0.0000  0.0005 </r>
        <r>  0.0004  0.0004  0.0118 </r>
        <r>  0.0015  0.0016  0.0076 </r>
        <r>  0.0014  0.0010  0.0043 </r>
        <r>  0.0035  0.0004  0.0095 </r>
        <r>  0.0004  0.0002  0.0147 </r>
        <r>  0.0098  0.0006  0.0100 </r>
        <r>  0.0018  0.0002  0.0125 </r>
        <r>  0.0000  0.0019  0.0002 </r>
        <r>  0.0000  0.0023  0.0001 </r>
        <r>  0.0000  0.0028  0.0001 </r>
        <r>  0.0001  0.0071  0.0003 </r>
        <r>  0.0000  0.0022  0.0000 </r>
        <r>  0.0007  0.0071  0.0003 </r>
        <r>  0.0000  0.0013  0.0002 </r>
        <r>  0.0000  0.0068  0.0002 </r>
        <r>  0.0003  0.0014  0.0021 </r>
        <r>  0.0031  0.0012  0.0033 </r>
        <r>  0.0001  0.0019  0.0013 </r>
        <r>  0.0001  0.0002  0.0003 </r>
        <r>  0.0002  0.0035  0.0003 </r>
        <r>  0.0001  0.0047  0.0011 </r>
        <r>  0.0002  0.0010  0.0006 </r>
        <r>  0.0006  0.0054  0.0018 </r>
        <r>  0.0000  0.0013  0.0004 </r>
        <r>  0.0000  0.0007  0.0007 </r>
        <r>  0.0020  0.0014  0.0014 </r>
        <r>  0.0002  0.0009  0.0022 </r>
        <r>  0.0001  0.0013  0.0001 </r>
        <r>  0.0010  0.0010  0.0014 </r>
        <r>  0.0002  0.0007  0.0005 </r>
        <r>  0.0002  0.0003  0.0006 </r>
        <r>  0.0021  0.0011  0.0008 </r>
        <r>  0.0000  0.0044  0.0002 </r>
        <r>  0.0004  0.0034  0.0014 </r>
        <r>  0.0000  0.0032  0.0012 </r>
        <r>  0.0026  0.0055  0.0011 </r>
        <r>  0.0000  0.0012  0.0001 </r>
        <r>  0.0003  0.0012  0.0013 </r>
       </set>
       <set comment="band 201">
        <r>  0.0008  0.0002  0.0030 </r>
        <r>  0.0004  0.0004  0.0023 </r>
        <r>  0.0036  0.0020  0.0028 </r>
        <r>  0.0002  0.0016  0.0035 </r>
        <r>  0.0011  0.0005  0.0078 </r>
        <r>  0.0008  0.0007  0.0088 </r>
        <r>  0.0059  0.0007  0.0152 </r>
        <r>  0.0090  0.0004  0.0072 </r>
        <r>  0.0000  0.0090  0.0001 </r>
        <r>  0.0000  0.0010  0.0001 </r>
        <r>  0.0000  0.0006  0.0001 </r>
        <r>  0.0000  0.0041  0.0002 </r>
        <r>  0.0000  0.0149  0.0003 </r>
        <r>  0.0000  0.0098  0.0002 </r>
        <r>  0.0000  0.0068  0.0003 </r>
        <r>  0.0001  0.0046  0.0003 </r>
        <r>  0.0001  0.0034  0.0011 </r>
        <r>  0.0007  0.0011  0.0010 </r>
        <r>  0.0006  0.0060  0.0003 </r>
        <r>  0.0000  0.0010  0.0007 </r>
        <r>  0.0021  0.0017  0.0037 </r>
        <r>  0.0007  0.0023  0.0010 </r>
        <r>  0.0000  0.0012  0.0002 </r>
        <r>  0.0000  0.0031  0.0007 </r>
        <r>  0.0007  0.0044  0.0013 </r>
        <r>  0.0000  0.0021  0.0011 </r>
        <r>  0.0003  0.0075  0.0004 </r>
        <r>  0.0004  0.0003  0.0005 </r>
        <r>  0.0000  0.0011  0.0004 </r>
        <r>  0.0008  0.0032  0.0016 </r>
        <r>  0.0004  0.0011  0.0015 </r>
        <r>  0.0001  0.0024  0.0007 </r>
        <r>  0.0001  0.0008  0.0012 </r>
        <r>  0.0003  0.0008  0.0008 </r>
        <r>  0.0001  0.0018  0.0005 </r>
        <r>  0.0032  0.0036  0.0041 </r>
        <r>  0.0018  0.0009  0.0012 </r>
        <r>  0.0011  0.0014  0.0015 </r>
        <r>  0.0012  0.0007  0.0008 </r>
       </set>
       <set comment="band 202">
        <r>  0.0001  0.0006  0.0073 </r>
        <r>  0.0038  0.0007  0.0040 </r>
        <r>  0.0013  0.0005  0.0114 </r>
        <r>  0.0104  0.0013  0.0046 </r>
        <r>  0.0005  0.0011  0.0039 </r>
        <r>  0.0009  0.0003  0.0027 </r>
        <r>  0.0027  0.0018  0.0030 </r>
        <r>  0.0022  0.0021  0.0066 </r>
        <r>  0.0000  0.0046  0.0001 </r>
        <r>  0.0001  0.0060  0.0001 </r>
        <r>  0.0000  0.0036  0.0003 </r>
        <r>  0.0000  0.0013  0.0002 </r>
        <r>  0.0001  0.0188  0.0005 </r>
        <r>  0.0003  0.0006  0.0001 </r>
        <r>  0.0000  0.0022  0.0002 </r>
        <r>  0.0000  0.0068  0.0003 </r>
        <r>  0.0040  0.0031  0.0050 </r>
        <r>  0.0001  0.0007  0.0015 </r>
        <r>  0.0006  0.0025  0.0013 </r>
        <r>  0.0000  0.0012  0.0006 </r>
        <r>  0.0008  0.0046  0.0007 </r>
        <r>  0.0006  0.0038  0.0014 </r>
        <r>  0.0008  0.0089  0.0018 </r>
        <r>  0.0001  0.0010  0.0004 </r>
        <r>  0.0017  0.0003  0.0016 </r>
        <r>  0.0026  0.0052  0.0017 </r>
        <r>  0.0009  0.0002  0.0010 </r>
        <r>  0.0022  0.0019  0.0006 </r>
        <r>  0.0000  0.0003  0.0005 </r>
        <r>  0.0005  0.0006  0.0002 </r>
        <r>  0.0001  0.0018  0.0009 </r>
        <r>  0.0000  0.0024  0.0005 </r>
        <r>  0.0000  0.0024  0.0001 </r>
        <r>  0.0002  0.0026  0.0013 </r>
        <r>  0.0001  0.0023  0.0009 </r>
        <r>  0.0000  0.0043  0.0007 </r>
        <r>  0.0016  0.0024  0.0011 </r>
        <r>  0.0000  0.0014  0.0003 </r>
        <r>  0.0000  0.0006  0.0011 </r>
       </set>
       <set comment="band 203">
        <r>  0.0040  0.0007  0.0102 </r>
        <r>  0.0006  0.0016  0.0129 </r>
        <r>  0.0033  0.0004  0.0071 </r>
        <r>  0.0029  0.0006  0.0087 </r>
        <r>  0.0051  0.0002  0.0034 </r>
        <r>  0.0013  0.0008  0.0152 </r>
        <r>  0.0017  0.0006  0.0019 </r>
        <r>  0.0000  0.0007  0.0055 </r>
        <r>  0.0000  0.0006  0.0002 </r>
        <r>  0.0000  0.0002  0.0001 </r>
        <r>  0.0000  0.0062  0.0002 </r>
        <r>  0.0001  0.0104  0.0003 </r>
        <r>  0.0000  0.0005  0.0002 </r>
        <r>  0.0000  0.0006  0.0002 </r>
        <r>  0.0000  0.0062  0.0002 </r>
        <r>  0.0000  0.0164  0.0001 </r>
        <r>  0.0001  0.0039  0.0007 </r>
        <r>  0.0005  0.0040  0.0013 </r>
        <r>  0.0005  0.0024  0.0026 </r>
        <r>  0.0016  0.0046  0.0026 </r>
        <r>  0.0004  0.0013  0.0017 </r>
        <r>  0.0013  0.0046  0.0024 </r>
        <r>  0.0014  0.0009  0.0032 </r>
        <r>  0.0006  0.0030  0.0014 </r>
        <r>  0.0000  0.0005  0.0012 </r>
        <r>  0.0000  0.0011  0.0002 </r>
        <r>  0.0001  0.0011  0.0008 </r>
        <r>  0.0016  0.0023  0.0011 </r>
        <r>  0.0004  0.0028  0.0007 </r>
        <r>  0.0009  0.0010  0.0017 </r>
        <r>  0.0022  0.0021  0.0010 </r>
        <r>  0.0000  0.0014  0.0004 </r>
        <r>  0.0001  0.0017  0.0009 </r>
        <r>  0.0002  0.0007  0.0005 </r>
        <r>  0.0001  0.0003  0.0005 </r>
        <r>  0.0000  0.0032  0.0002 </r>
        <r>  0.0000  0.0025  0.0002 </r>
        <r>  0.0009  0.0017  0.0016 </r>
        <r>  0.0001  0.0019  0.0004 </r>
       </set>
       <set comment="band 204">
        <r>  0.0006  0.0005  0.0088 </r>
        <r>  0.0016  0.0005  0.0296 </r>
        <r>  0.0013  0.0005  0.0080 </r>
        <r>  0.0003  0.0007  0.0076 </r>
        <r>  0.0040  0.0020  0.0056 </r>
        <r>  0.0027  0.0007  0.0132 </r>
        <r>  0.0024  0.0005  0.0185 </r>
        <r>  0.0002  0.0001  0.0038 </r>
        <r>  0.0000  0.0040  0.0004 </r>
        <r>  0.0000  0.0042  0.0010 </r>
        <r>  0.0000  0.0020  0.0000 </r>
        <r>  0.0000  0.0038  0.0000 </r>
        <r>  0.0000  0.0005  0.0003 </r>
        <r>  0.0000  0.0099  0.0003 </r>
        <r>  0.0000  0.0056  0.0000 </r>
        <r>  0.0001  0.0049  0.0001 </r>
        <r>  0.0000  0.0019  0.0009 </r>
        <r>  0.0003  0.0016  0.0006 </r>
        <r>  0.0023  0.0040  0.0028 </r>
        <r>  0.0001  0.0007  0.0014 </r>
        <r>  0.0004  0.0021  0.0011 </r>
        <r>  0.0001  0.0012  0.0007 </r>
        <r>  0.0002  0.0004  0.0009 </r>
        <r>  0.0014  0.0040  0.0023 </r>
        <r>  0.0008  0.0012  0.0013 </r>
        <r>  0.0003  0.0002  0.0008 </r>
        <r>  0.0000  0.0040  0.0011 </r>
        <r>  0.0001  0.0033  0.0015 </r>
        <r>  0.0000  0.0012  0.0007 </r>
        <r>  0.0009  0.0015  0.0024 </r>
        <r>  0.0000  0.0024  0.0009 </r>
        <r>  0.0004  0.0022  0.0006 </r>
        <r>  0.0010  0.0012  0.0022 </r>
        <r>  0.0001  0.0005  0.0006 </r>
        <r>  0.0015  0.0016  0.0036 </r>
        <r>  0.0010  0.0001  0.0014 </r>
        <r>  0.0000  0.0014  0.0001 </r>
        <r>  0.0002  0.0002  0.0010 </r>
        <r>  0.0000  0.0004  0.0018 </r>
       </set>
       <set comment="band 205">
        <r>  0.0097  0.0008  0.0142 </r>
        <r>  0.0045  0.0003  0.0088 </r>
        <r>  0.0009  0.0003  0.0108 </r>
        <r>  0.0003  0.0007  0.0100 </r>
        <r>  0.0010  0.0015  0.0021 </r>
        <r>  0.0020  0.0006  0.0027 </r>
        <r>  0.0000  0.0010  0.0071 </r>
        <r>  0.0010  0.0009  0.0066 </r>
        <r>  0.0000  0.0020  0.0002 </r>
        <r>  0.0000  0.0048  0.0001 </r>
        <r>  0.0000  0.0123  0.0001 </r>
        <r>  0.0000  0.0051  0.0001 </r>
        <r>  0.0000  0.0039  0.0001 </r>
        <r>  0.0000  0.0069  0.0002 </r>
        <r>  0.0000  0.0054  0.0002 </r>
        <r>  0.0002  0.0007  0.0004 </r>
        <r>  0.0002  0.0009  0.0010 </r>
        <r>  0.0001  0.0007  0.0004 </r>
        <r>  0.0024  0.0018  0.0016 </r>
        <r>  0.0005  0.0037  0.0025 </r>
        <r>  0.0005  0.0038  0.0016 </r>
        <r>  0.0002  0.0030  0.0007 </r>
        <r>  0.0000  0.0053  0.0003 </r>
        <r>  0.0000  0.0033  0.0005 </r>
        <r>  0.0006  0.0031  0.0011 </r>
        <r>  0.0001  0.0020  0.0014 </r>
        <r>  0.0003  0.0017  0.0007 </r>
        <r>  0.0001  0.0020  0.0007 </r>
        <r>  0.0015  0.0016  0.0015 </r>
        <r>  0.0023  0.0035  0.0023 </r>
        <r>  0.0005  0.0001  0.0001 </r>
        <r>  0.0026  0.0037  0.0033 </r>
        <r>  0.0001  0.0017  0.0005 </r>
        <r>  0.0002  0.0018  0.0008 </r>
        <r>  0.0000  0.0047  0.0007 </r>
        <r>  0.0001  0.0030  0.0005 </r>
        <r>  0.0004  0.0000  0.0013 </r>
        <r>  0.0016  0.0017  0.0024 </r>
        <r>  0.0011  0.0010  0.0004 </r>
       </set>
       <set comment="band 206">
        <r>  0.0000  0.0003  0.0141 </r>
        <r>  0.0001  0.0002  0.0054 </r>
        <r>  0.0008  0.0008  0.0207 </r>
        <r>  0.0016  0.0001  0.0180 </r>
        <r>  0.0008  0.0002  0.0241 </r>
        <r>  0.0000  0.0001  0.0094 </r>
        <r>  0.0025  0.0005  0.0042 </r>
        <r>  0.0002  0.0006  0.0209 </r>
        <r>  0.0000  0.0054  0.0003 </r>
        <r>  0.0000  0.0053  0.0002 </r>
        <r>  0.0000  0.0018  0.0006 </r>
        <r>  0.0000  0.0018  0.0004 </r>
        <r>  0.0001  0.0016  0.0001 </r>
        <r>  0.0000  0.0005  0.0002 </r>
        <r>  0.0000  0.0073  0.0004 </r>
        <r>  0.0001  0.0064  0.0002 </r>
        <r>  0.0002  0.0002  0.0005 </r>
        <r>  0.0001  0.0028  0.0016 </r>
        <r>  0.0001  0.0004  0.0004 </r>
        <r>  0.0000  0.0010  0.0004 </r>
        <r>  0.0001  0.0013  0.0017 </r>
        <r>  0.0004  0.0011  0.0008 </r>
        <r>  0.0000  0.0002  0.0003 </r>
        <r>  0.0002  0.0015  0.0005 </r>
        <r>  0.0001  0.0008  0.0014 </r>
        <r>  0.0001  0.0028  0.0025 </r>
        <r>  0.0002  0.0017  0.0012 </r>
        <r>  0.0001  0.0003  0.0005 </r>
        <r>  0.0007  0.0034  0.0013 </r>
        <r>  0.0000  0.0001  0.0008 </r>
        <r>  0.0003  0.0019  0.0040 </r>
        <r>  0.0005  0.0010  0.0039 </r>
        <r>  0.0000  0.0025  0.0002 </r>
        <r>  0.0005  0.0017  0.0016 </r>
        <r>  0.0027  0.0003  0.0025 </r>
        <r>  0.0000  0.0005  0.0011 </r>
        <r>  0.0000  0.0007  0.0017 </r>
        <r>  0.0020  0.0021  0.0019 </r>
        <r>  0.0001  0.0004  0.0003 </r>
       </set>
       <set comment="band 207">
        <r>  0.0018  0.0001  0.0101 </r>
        <r>  0.0007  0.0001  0.0171 </r>
        <r>  0.0000  0.0002  0.0131 </r>
        <r>  0.0005  0.0007  0.0166 </r>
        <r>  0.0002  0.0001  0.0145 </r>
        <r>  0.0007  0.0000  0.0129 </r>
        <r>  0.0000  0.0004  0.0205 </r>
        <r>  0.0015  0.0001  0.0150 </r>
        <r>  0.0000  0.0071  0.0004 </r>
        <r>  0.0000  0.0074  0.0003 </r>
        <r>  0.0000  0.0015  0.0008 </r>
        <r>  0.0000  0.0083  0.0006 </r>
        <r>  0.0000  0.0034  0.0001 </r>
        <r>  0.0001  0.0073  0.0004 </r>
        <r>  0.0001  0.0044  0.0003 </r>
        <r>  0.0000  0.0030  0.0003 </r>
        <r>  0.0001  0.0004  0.0007 </r>
        <r>  0.0001  0.0012  0.0003 </r>
        <r>  0.0001  0.0019  0.0007 </r>
        <r>  0.0002  0.0005  0.0009 </r>
        <r>  0.0006  0.0001  0.0012 </r>
        <r>  0.0001  0.0007  0.0005 </r>
        <r>  0.0000  0.0008  0.0005 </r>
        <r>  0.0000  0.0003  0.0003 </r>
        <r>  0.0002  0.0004  0.0018 </r>
        <r>  0.0011  0.0006  0.0012 </r>
        <r>  0.0010  0.0016  0.0032 </r>
        <r>  0.0009  0.0009  0.0035 </r>
        <r>  0.0008  0.0009  0.0031 </r>
        <r>  0.0002  0.0033  0.0004 </r>
        <r>  0.0000  0.0022  0.0011 </r>
        <r>  0.0004  0.0005  0.0024 </r>
        <r>  0.0001  0.0009  0.0016 </r>
        <r>  0.0006  0.0013  0.0020 </r>
        <r>  0.0000  0.0056  0.0025 </r>
        <r>  0.0004  0.0010  0.0010 </r>
        <r>  0.0011  0.0021  0.0031 </r>
        <r>  0.0001  0.0000  0.0009 </r>
        <r>  0.0000  0.0001  0.0002 </r>
       </set>
       <set comment="band 208">
        <r>  0.0008  0.0007  0.0055 </r>
        <r>  0.0010  0.0004  0.0089 </r>
        <r>  0.0000  0.0004  0.0161 </r>
        <r>  0.0011  0.0009  0.0261 </r>
        <r>  0.0006  0.0002  0.0102 </r>
        <r>  0.0000  0.0006  0.0261 </r>
        <r>  0.0028  0.0002  0.0106 </r>
        <r>  0.0002  0.0006  0.0061 </r>
        <r>  0.0000  0.0076  0.0004 </r>
        <r>  0.0001  0.0030  0.0003 </r>
        <r>  0.0000  0.0049  0.0006 </r>
        <r>  0.0001  0.0035  0.0010 </r>
        <r>  0.0000  0.0005  0.0003 </r>
        <r>  0.0000  0.0096  0.0002 </r>
        <r>  0.0000  0.0017  0.0009 </r>
        <r>  0.0001  0.0023  0.0003 </r>
        <r>  0.0002  0.0037  0.0018 </r>
        <r>  0.0012  0.0022  0.0023 </r>
        <r>  0.0000  0.0008  0.0004 </r>
        <r>  0.0001  0.0008  0.0008 </r>
        <r>  0.0004  0.0002  0.0014 </r>
        <r>  0.0011  0.0015  0.0011 </r>
        <r>  0.0001  0.0003  0.0016 </r>
        <r>  0.0017  0.0024  0.0025 </r>
        <r>  0.0001  0.0007  0.0003 </r>
        <r>  0.0003  0.0006  0.0008 </r>
        <r>  0.0000  0.0016  0.0008 </r>
        <r>  0.0008  0.0020  0.0012 </r>
        <r>  0.0008  0.0044  0.0023 </r>
        <r>  0.0012  0.0005  0.0030 </r>
        <r>  0.0000  0.0011  0.0019 </r>
        <r>  0.0001  0.0018  0.0015 </r>
        <r>  0.0005  0.0024  0.0021 </r>
        <r>  0.0002  0.0011  0.0006 </r>
        <r>  0.0005  0.0015  0.0020 </r>
        <r>  0.0001  0.0007  0.0014 </r>
        <r>  0.0002  0.0011  0.0007 </r>
        <r>  0.0000  0.0012  0.0015 </r>
        <r>  0.0000  0.0009  0.0011 </r>
       </set>
      </set>
     </set>
    </set>
   </array>
  </projected>
 </calculation>
 <structure name="finalpos" >
  <crystal>
   <varray name="basis" >
    <v>       8.45648900       0.00000000       8.04030100 </v>
    <v>       0.00000000      11.72984700       0.00000000 </v>
    <v>      -8.45648900       0.00000000       8.04030100 </v>
   </varray>
   <i name="volume">   1595.08833419 </i>
   <varray name="rec_basis" >
    <v>       0.05912619      -0.00000000       0.06218673 </v>
    <v>       0.00000000       0.08525260      -0.00000000 </v>
    <v>      -0.05912619       0.00000000       0.06218673 </v>
   </varray>
  </crystal>
  <varray name="positions" >
   <v>       0.27538500       0.24778700       0.19390800 </v>
   <v>       0.77207300       0.22859100       0.74785200 </v>
   <v>       0.70477700       0.76661300       0.25486000 </v>
   <v>       0.21159600       0.75582200       0.78282600 </v>
   <v>       0.25333600       0.23710200       0.72808700 </v>
   <v>       0.80305100       0.24441700       0.22770400 </v>
   <v>       0.73550600       0.76238900       0.76424900 </v>
   <v>       0.22579200       0.75289200       0.30033700 </v>
   <v>       0.00818300       0.99833600       0.00598000 </v>
   <v>       0.49052400       0.00219400       0.49476000 </v>
   <v>       0.50350200       0.99936200       0.99548400 </v>
   <v>       0.99229500       0.99770700       0.49974500 </v>
   <v>       0.50814300       0.49986600       0.99619700 </v>
   <v>       0.99893300       0.50144900       0.50901900 </v>
   <v>       0.00812200       0.50283800       0.00835800 </v>
   <v>       0.47908900       0.49982400       0.48857800 </v>
   <v>       0.49043700       0.74746300       0.95176500 </v>
   <v>       0.95308300       0.74730700       0.46360300 </v>
   <v>       0.98962500       0.25106100       0.97742300 </v>
   <v>       0.43695300       0.25336100       0.47514100 </v>
   <v>       0.04106500       0.75057400       0.04117000 </v>
   <v>       0.52551500       0.74904000       0.51408100 </v>
   <v>       0.54153600       0.25044700       0.02565800 </v>
   <v>       0.99546600       0.25163900       0.53631000 </v>
   <v>       0.26025100       0.46901200       0.94438800 </v>
   <v>       0.46398700       0.53283200       0.23466400 </v>
   <v>       0.95598700       0.53810900       0.75723200 </v>
   <v>       0.54012200       0.02922600       0.74741400 </v>
   <v>       0.05475300       0.03584600       0.25599400 </v>
   <v>       0.75891300       0.98067500       0.03981600 </v>
   <v>       0.24374500       0.96081600       0.55057200 </v>
   <v>       0.25430700       0.02912000       0.95042100 </v>
   <v>       0.73881100       0.03131700       0.44917000 </v>
   <v>       0.44511900       0.96755500       0.24277600 </v>
   <v>       0.96092100       0.97037700       0.75025900 </v>
   <v>       0.76188200       0.52546700       0.05771000 </v>
   <v>       0.24085800       0.53269600       0.56729900 </v>
   <v>       0.05981200       0.46484500       0.26472900 </v>
   <v>       0.65865900       0.47152400       0.61725700 </v>
  </varray>
 </structure>
</modeling>
