CsPbBr3 cubic bulk                      
           1
     8.456489    0.000000    8.040301
     0.000000   11.729847    0.000000
    -8.456489    0.000000    8.040301
   Cs   Pb   Br
   8   8  23
Direct configuration=     1
   0.27538500  0.24778700  0.19390800
   0.77207300  0.22859100  0.74785200
   0.70477700  0.76661300  0.25486000
   0.21159600  0.75582200  0.78282600
   0.25333600  0.23710200  0.72808700
   0.80305100  0.24441700  0.22770400
   0.73550600  0.76238900  0.76424900
   0.22579200  0.75289200  0.30033700
   0.00818300  0.99833600  0.00598000
   0.49052400  0.00219400  0.49476000
   0.50350200  0.99936200  0.99548400
   0.99229500  0.99770700  0.49974500
   0.50814300  0.49986600  0.99619700
   0.99893300  0.50144900  0.50901900
   0.00812200  0.50283800  0.00835800
   0.47908900  0.49982400  0.48857800
   0.49043700  0.74746300  0.95176500
   0.95308300  0.74730700  0.46360300
   0.98962500  0.25106100  0.97742300
   0.43695300  0.25336100  0.47514100
   0.04106500  0.75057400  0.04117000
   0.52551500  0.74904000  0.51408100
   0.54153600  0.25044700  0.02565800
   0.99546600  0.25163900  0.53631000
   0.26025100  0.46901200  0.94438800
   0.46398700  0.53283200  0.23466400
   0.95598700  0.53810900  0.75723200
   0.54012200  0.02922600  0.74741400
   0.05475300  0.03584600  0.25599400
   0.75891300  0.98067500  0.03981600
   0.24374500  0.96081600  0.55057200
   0.25430700  0.02912000  0.95042100
   0.73881100  0.03131700  0.44917000
   0.44511900  0.96755500  0.24277600
   0.96092100  0.97037700  0.75025900
   0.76188200  0.52546700  0.05771000
   0.24085800  0.53269600  0.56729900
   0.05981200  0.46484500  0.26472900
   0.65865900  0.47152400  0.61725700
