<?xml version="1.0" encoding="ISO-8859-1"?>
<modeling>
 <generator>
  <i name="program" type="string">vasp </i>
  <i name="version" type="string">5.4.4.18Apr17-6-g9f103f2a35  </i>
  <i name="subversion" type="string">(build Jun 22 2020 09:27:21) complex            parallel </i>
  <i name="platform" type="string">tx2_gcc-7.3_libsci-18.07_cray-fftw-3.3.8 </i>
  <i name="date" type="string">2021 10 12 </i>
  <i name="time" type="string">05:27:33 </i>
 </generator>
 <incar>
  <i type="string" name="SYSTEM"> CsPbBr3 cubic bulk</i>
  <i type="string" name="PREC">accurate</i>
  <i type="string" name="ALGO"> NORMAL   ! Electronic minimisation algo</i>
  <i type="logical" name="ADDGRID"> T  </i>
  <i type="int" name="ISPIN">     1</i>
  <i type="int" name="NELM">   200</i>
  <i type="int" name="IBRION">     2</i>
  <i name="EDIFF">      0.00000100</i>
  <i name="EDIFFG">     -0.01000000</i>
  <i type="int" name="NSW">     0</i>
  <i type="int" name="ISIF">     2</i>
  <i type="int" name="ISYM">     0</i>
  <i name="ENCUT">    300.00000000</i>
  <i name="POTIM">      0.50000000</i>
  <i name="NUPDOWN">      0.00000000</i>
  <i name="NELECT">    344.00000000</i>
  <i type="string" name="LREAL"> AUTO</i>
  <i type="int" name="ISMEAR">     0</i>
  <i name="SIGMA">      0.01000000</i>
  <i type="logical" name="LWAVE"> F  </i>
  <i type="logical" name="LCHARG"> F  </i>
  <i type="logical" name="LVHAR"> T  </i>
  <i type="int" name="LORBIT">    10</i>
  <i type="logical" name="LASPH"> T  </i>
  <v type="int" name="KPOINT_BSE">    -1     0     0     0</v>
  <i type="int" name="NELM">   200</i>
  <i type="string" name="METAGGA"> SCAN       ! PBE exchange-correlation</i>
  <i type="logical" name="LASPH"> T  </i>
 </incar>
 <structure name="primitive_cell" >
  <crystal>
   <varray name="basis" >
    <v>       8.45648900       0.00000000       8.04030100 </v>
    <v>       0.00000000      11.72984700       0.00000000 </v>
    <v>      -8.45648900       0.00000000       8.04030100 </v>
   </varray>
   <i name="volume">   1595.08833419 </i>
   <varray name="rec_basis" >
    <v>       0.05912619      -0.00000000       0.06218673 </v>
    <v>       0.00000000       0.08525260      -0.00000000 </v>
    <v>      -0.05912619       0.00000000       0.06218673 </v>
   </varray>
  </crystal>
  <varray name="positions" >
   <v>       0.26516300       0.23933900       0.20001200 </v>
   <v>       0.04745300       0.02848200       0.25313500 </v>
   <v>       0.05793000       0.46767100       0.25105500 </v>
   <v>      -0.46562100       0.25060400       0.04351700 </v>
   <v>       0.44789200       0.25361500       0.47101700 </v>
   <v>       0.25040500       0.03041000      -0.05192300 </v>
   <v>       0.44651900      -0.03200900       0.24786000 </v>
   <v>       0.25641000       0.46695100      -0.04778300 </v>
   <v>      -0.01960200       0.24907500      -0.02626900 </v>
   <v>       0.49979700       0.00051300       0.00006500 </v>
   <v>       0.00313500      -0.00296500      -0.00015500 </v>
   <v>       0.00535400      -0.49938400      -0.00220400 </v>
   <v>      -0.49032000       0.49610400      -0.00337700 </v>
   <v>       0.01577300       0.25250000      -0.46704200 </v>
   <v>       0.49648700       0.00224600       0.49946600 </v>
   <v>       0.24900200      -0.03730100      -0.44992900 </v>
   <v>      -0.38554400       0.49508900       0.34220800 </v>
   <v>       0.48928000       0.49912400      -0.48971800 </v>
   <v>       0.24144600      -0.46160300      -0.44921600 </v>
   <v>      -0.19827300       0.24716900       0.22676200 </v>
   <v>       0.27446700       0.24421500      -0.27111900 </v>
   <v>      -0.00283500      -0.00032100      -0.49950100 </v>
   <v>      -0.00176300      -0.49772500       0.49726900 </v>
   <v>       0.22386500      -0.24284000       0.29314500 </v>
   <v>       0.03924200      -0.25147100       0.03174700 </v>
   <v>      -0.25596300       0.03928100       0.45215000 </v>
   <v>      -0.45702500       0.03251500      -0.24770600 </v>
   <v>      -0.24518700      -0.02337000       0.04020900 </v>
   <v>       0.47691300      -0.25275900      -0.02566900 </v>
   <v>      -0.44139100       0.46332600      -0.24589700 </v>
   <v>      -0.24200500      -0.46407700       0.05044200 </v>
   <v>      -0.04729900      -0.03633200      -0.25195200 </v>
   <v>      -0.05424500      -0.46890300      -0.25689400 </v>
   <v>      -0.03722000      -0.25048300       0.46184600 </v>
   <v>      -0.46460100      -0.25231200      -0.47861400 </v>
   <v>       0.21391000      -0.24682500      -0.22192900 </v>
   <v>      -0.28587800      -0.22936000       0.26215600 </v>
   <v>      -0.22400700       0.23460600      -0.27037400 </v>
   <v>      -0.27134600      -0.24512800      -0.20940300 </v>
  </varray>
 </structure>
 <varray name="primitive_index" >
  <v type="int" >        1 </v>
  <v type="int" >       28 </v>
  <v type="int" >       38 </v>
  <v type="int" >       23 </v>
  <v type="int" >       20 </v>
  <v type="int" >       31 </v>
  <v type="int" >       33 </v>
  <v type="int" >       25 </v>
  <v type="int" >       19 </v>
  <v type="int" >       11 </v>
  <v type="int" >        9 </v>
  <v type="int" >       15 </v>
  <v type="int" >       13 </v>
  <v type="int" >       24 </v>
  <v type="int" >       10 </v>
  <v type="int" >       30 </v>
  <v type="int" >       39 </v>
  <v type="int" >       16 </v>
  <v type="int" >       36 </v>
  <v type="int" >        6 </v>
  <v type="int" >        5 </v>
  <v type="int" >       12 </v>
  <v type="int" >       14 </v>
  <v type="int" >        8 </v>
  <v type="int" >       21 </v>
  <v type="int" >       32 </v>
  <v type="int" >       27 </v>
  <v type="int" >       29 </v>
  <v type="int" >       17 </v>
  <v type="int" >       37 </v>
  <v type="int" >       35 </v>
  <v type="int" >       34 </v>
  <v type="int" >       26 </v>
  <v type="int" >       18 </v>
  <v type="int" >       22 </v>
  <v type="int" >        4 </v>
  <v type="int" >        3 </v>
  <v type="int" >        2 </v>
  <v type="int" >        7 </v>
 </varray>
 <kpoints>
  <generation param="Gamma">
   <v type="int" name="divisions">       2        2        2 </v>
   <v name="usershift">      0.00000000       0.00000000       0.00000000 </v>
   <v name="genvec1">      0.50000000       0.00000000       0.00000000 </v>
   <v name="genvec2">      0.00000000       0.50000000       0.00000000 </v>
   <v name="genvec3">      0.00000000       0.00000000       0.50000000 </v>
   <v name="shift">      0.00000000       0.00000000       0.00000000 </v>
  </generation>
  <varray name="kpointlist" >
   <v>       0.00000000       0.00000000       0.00000000 </v>
   <v>       0.50000000       0.00000000       0.00000000 </v>
   <v>       0.00000000       0.50000000       0.00000000 </v>
   <v>       0.50000000       0.50000000       0.00000000 </v>
   <v>       0.00000000       0.00000000       0.50000000 </v>
   <v>       0.50000000       0.00000000       0.50000000 </v>
   <v>       0.00000000       0.50000000       0.50000000 </v>
   <v>       0.50000000       0.50000000       0.50000000 </v>
  </varray>
  <varray name="weights" >
   <v>       0.12500000 </v>
   <v>       0.12500000 </v>
   <v>       0.12500000 </v>
   <v>       0.12500000 </v>
   <v>       0.12500000 </v>
   <v>       0.12500000 </v>
   <v>       0.12500000 </v>
   <v>       0.12500000 </v>
  </varray>
 </kpoints>
 <parameters>
  <separator name="general" >
   <i type="string" name="SYSTEM">CsPbBr3 cubic bulk</i>
   <i type="logical" name="LCOMPAT"> F  </i>
  </separator>
  <separator name="electronic" >
   <i type="string" name="PREC">accura</i>
   <i name="ENMAX">    300.00000000</i>
   <i name="ENAUG">    503.85200000</i>
   <i name="EDIFF">      0.00000100</i>
   <i type="int" name="IALGO">    38</i>
   <i type="int" name="IWAVPR">    10</i>
   <i type="int" name="NBANDS">   208</i>
   <i name="NELECT">    344.00000000</i>
   <i type="int" name="TURBO">     0</i>
   <i type="int" name="IRESTART">     0</i>
   <i type="int" name="NREBOOT">     0</i>
   <i type="int" name="NMIN">     0</i>
   <i name="EREF">      0.00000000</i>
   <separator name="electronic smearing" >
    <i type="int" name="ISMEAR">     0</i>
    <i name="SIGMA">      0.01000000</i>
    <i name="KSPACING">      0.50000000</i>
    <i type="logical" name="KGAMMA"> T  </i>
   </separator>
   <separator name="electronic projectors" >
    <i type="logical" name="LREAL"> T  </i>
    <v name="ROPT">     -0.00025000     -0.00025000     -0.00025000</v>
    <i type="int" name="LMAXPAW">  -100</i>
    <i type="int" name="LMAXMIX">     2</i>
    <i type="logical" name="NLSPLINE"> F  </i>
   </separator>
   <separator name="electronic startup" >
    <i type="int" name="ISTART">     0</i>
    <i type="int" name="ICHARG">     2</i>
    <i type="int" name="INIWAV">     1</i>
   </separator>
   <separator name="electronic spin" >
    <i type="int" name="ISPIN">     1</i>
    <i type="logical" name="LNONCOLLINEAR"> F  </i>
    <v name="MAGMOM">      0.00000000      0.00000000      0.00000000      0.00000000      0.00000000      0.00000000      0.00000000      0.00000000      0.00000000      0.00000000      0.00000000      0.00000000      0.00000000      0.00000000      0.00000000      0.00000000      0.00000000      0.00000000      0.00000000      0.00000000
      0.00000000      0.00000000      0.00000000      0.00000000      0.00000000      0.00000000      0.00000000      0.00000000      0.00000000      0.00000000      0.00000000      0.00000000      0.00000000      0.00000000      0.00000000      0.00000000      0.00000000      0.00000000      0.00000000</v>
    <i name="NUPDOWN">      0.00000000</i>
    <i type="logical" name="LSORBIT"> F  </i>
    <v name="SAXIS">      0.00000000      0.00000000      1.00000000</v>
    <i type="logical" name="LSPIRAL"> F  </i>
    <v name="QSPIRAL">      0.00000000      0.00000000      0.00000000</v>
    <i type="logical" name="LZEROZ"> F  </i>
   </separator>
   <separator name="electronic exchange-correlation" >
    <i type="logical" name="LASPH"> T  </i>
    <i type="logical" name="LMETAGGA"> F  </i>
   </separator>
   <separator name="electronic convergence" >
    <i type="int" name="NELM">   200</i>
    <i type="int" name="NELMDL">    -5</i>
    <i type="int" name="NELMIN">     2</i>
    <i name="ENINI">    300.00000000</i>
    <separator name="electronic convergence detail" >
     <i type="logical" name="LDIAG"> T  </i>
     <i type="logical" name="LSUBROT"> F  </i>
     <i name="WEIMIN">      0.00000000</i>
     <i name="EBREAK">      0.00000000</i>
     <i name="DEPER">      0.30000000</i>
     <i type="int" name="NRMM">     4</i>
     <i name="TIME">      0.40000000</i>
    </separator>
   </separator>
   <separator name="electronic mixer" >
    <i name="AMIX">      0.40000000</i>
    <i name="BMIX">      1.00000000</i>
    <i name="AMIN">      0.10000000</i>
    <i name="AMIX_MAG">      1.60000000</i>
    <i name="BMIX_MAG">      1.00000000</i>
    <separator name="electronic mixer details" >
     <i type="int" name="IMIX">     4</i>
     <i type="logical" name="MIXFIRST"> F  </i>
     <i type="int" name="MAXMIX">   -45</i>
     <i name="WC">    100.00000000</i>
     <i type="int" name="INIMIX">     1</i>
     <i type="int" name="MIXPRE">     1</i>
     <i type="int" name="MREMOVE">     5</i>
    </separator>
   </separator>
   <separator name="electronic dipolcorrection" >
    <i type="logical" name="LDIPOL"> F  </i>
    <i type="logical" name="LMONO"> F  </i>
    <i type="int" name="IDIPOL">     0</i>
    <i name="EPSILON">      1.00000000</i>
    <v name="DIPOL">   -100.00000000   -100.00000000   -100.00000000</v>
    <i name="EFIELD">      0.00000000</i>
   </separator>
  </separator>
  <separator name="grids" >
   <i type="int" name="NGX">    70</i>
   <i type="int" name="NGY">    70</i>
   <i type="int" name="NGZ">    70</i>
   <i type="int" name="NGXF">   140</i>
   <i type="int" name="NGYF">   140</i>
   <i type="int" name="NGZF">   140</i>
   <i type="logical" name="ADDGRID"> T  </i>
  </separator>
  <separator name="ionic" >
   <i type="int" name="NSW">     0</i>
   <i type="int" name="IBRION">    -1</i>
   <i type="int" name="MDALGO">     0</i>
   <i type="int" name="ISIF">     2</i>
   <i name="PSTRESS">      0.00000000</i>
   <i name="EDIFFG">     -0.01000000</i>
   <i type="int" name="NFREE">     1</i>
   <i name="POTIM">      0.50000000</i>
   <i name="SMASS">     -3.00000000</i>
   <i name="SCALEE">      1.00000000</i>
  </separator>
  <separator name="ionic md" >
   <i name="TEBEG">      0.00010000</i>
   <i name="TEEND">      0.00010000</i>
   <i type="int" name="NBLOCK">     1</i>
   <i type="int" name="KBLOCK">     1</i>
   <i type="int" name="NPACO">   256</i>
   <i name="APACO">     16.00000000</i>
  </separator>
  <separator name="symmetry" >
   <i type="int" name="ISYM">     0</i>
   <i name="SYMPREC">      0.00001000</i>
  </separator>
  <separator name="dos" >
   <i type="int" name="LORBIT">    10</i>
   <v name="RWIGS">     -1.00000000     -1.00000000     -1.00000000</v>
   <i type="int" name="NEDOS">   301</i>
   <i name="EMIN">     10.00000000</i>
   <i name="EMAX">    -10.00000000</i>
   <i name="EFERMI">      0.00000000</i>
  </separator>
  <separator name="writing" >
   <i type="int" name="NWRITE">     2</i>
   <i type="logical" name="LWAVE"> F  </i>
   <i type="logical" name="LDOWNSAMPLE"> F  </i>
   <i type="logical" name="LCHARG"> F  </i>
   <i type="logical" name="LPARD"> F  </i>
   <i type="logical" name="LVTOT"> F  </i>
   <i type="logical" name="LVHAR"> T  </i>
   <i type="logical" name="LELF"> F  </i>
   <i type="logical" name="LOPTICS"> F  </i>
   <v name="STM">      0.00000000      0.00000000      0.00000000      0.00000000      0.00000000      0.00000000      0.00000000</v>
  </separator>
  <separator name="performance" >
   <i type="int" name="NPAR">     8</i>
   <i type="int" name="NSIM">     4</i>
   <i type="int" name="NBLK">    -1</i>
   <i type="logical" name="LPLANE"> T  </i>
   <i type="logical" name="LSCALAPACK"> T  </i>
   <i type="logical" name="LSCAAWARE"> F  </i>
   <i type="logical" name="LSCALU"> F  </i>
   <i type="logical" name="LASYNC"> F  </i>
   <i type="logical" name="LORBITALREAL"> F  </i>
  </separator>
  <separator name="miscellaneous" >
   <i type="int" name="IDIOT">     3</i>
   <i type="int" name="ISPECIAL">     0</i>
   <i type="logical" name="LMUSIC"> F  </i>
   <v name="POMASS">    132.90000000    207.20000000     79.90400000</v>
   <v name="DARWINR">      0.00000000      0.00000000      0.00000000</v>
   <v name="DARWINV">      1.00000000      1.00000000      1.00000000</v>
   <i type="logical" name="LCORR"> T  </i>
  </separator>
  <i type="logical" name="GGA_COMPAT"> T  </i>
  <i type="logical" name="LBERRY"> F  </i>
  <i type="int" name="ICORELEVEL">     0</i>
  <i type="logical" name="LDAU"> F  </i>
  <i type="int" name="I_CONSTRAINED_M">     0</i>
  <separator name="electronic exchange-correlation" >
   <i type="string" name="GGA">--</i>
   <i type="int" name="VOSKOWN">     0</i>
   <i type="logical" name="LHFCALC"> F  </i>
   <i type="string" name="PRECFOCK"></i>
   <i type="logical" name="LSYMGRAD"> F  </i>
   <i type="logical" name="LHFONE"> F  </i>
   <i type="logical" name="LRHFCALC"> F  </i>
   <i type="logical" name="LTHOMAS"> F  </i>
   <i type="logical" name="LMODELHF"> F  </i>
   <i name="ENCUT4O">     -1.00000000</i>
   <i type="int" name="EXXOEP">     0</i>
   <i type="int" name="FOURORBIT">     0</i>
   <i name="AEXX">      0.00000000</i>
   <i name="HFALPHA">      0.00000000</i>
   <i name="MCALPHA">      0.00000000</i>
   <i name="ALDAX">      1.00000000</i>
   <i name="AGGAX">      1.00000000</i>
   <i name="ALDAC">      1.00000000</i>
   <i name="AGGAC">      1.00000000</i>
   <i type="int" name="NKREDX">     1</i>
   <i type="int" name="NKREDY">     1</i>
   <i type="int" name="NKREDZ">     1</i>
   <i type="logical" name="SHIFTRED"> F  </i>
   <i type="logical" name="ODDONLY"> F  </i>
   <i type="logical" name="EVENONLY"> F  </i>
   <i type="int" name="LMAXFOCK">     0</i>
   <i type="int" name="NMAXFOCKAE">     0</i>
   <i type="logical" name="LFOCKAEDFT"> F  </i>
   <i name="HFSCREEN">      0.00000000</i>
   <i name="HFSCREENC">      0.00000000</i>
   <i type="int" name="NBANDSGWLOW">     0</i>
  </separator>
  <separator name="vdW DFT" >
   <i type="logical" name="LUSE_VDW"> F  </i>
   <i name="Zab_VDW">     -0.84910000</i>
   <i name="PARAM1">      0.12340000</i>
   <i name="PARAM2">      1.00000000</i>
   <i name="PARAM3">      0.00000000</i>
  </separator>
  <separator name="model GW" >
   <i type="int" name="MODEL_GW">     0</i>
   <i name="MODEL_EPS0">     24.53982053</i>
   <i name="MODEL_ALPHA">      1.00000000</i>
  </separator>
  <separator name="linear response parameters" >
   <i type="logical" name="LEPSILON"> F  </i>
   <i type="logical" name="LRPA"> F  </i>
   <i type="logical" name="LNABLA"> F  </i>
   <i type="logical" name="LVEL"> F  </i>
   <i type="int" name="KINTER">     0</i>
   <i name="CSHIFT">      0.10000000</i>
   <i name="OMEGAMAX">     -1.00000000</i>
   <i name="DEG_THRESHOLD">      0.00200000</i>
   <i name="RTIME">     -0.10000000</i>
   <i name="WPLASMAI">      0.00000000</i>
   <v name="DFIELD">      0.00000000      0.00000000      0.00000000</v>
   <v name="WPLASMA">      0.00000000      0.00000000      0.00000000      0.00000000      0.00000000      0.00000000      0.00000000      0.00000000      0.00000000</v>
  </separator>
  <separator name="orbital magnetization" >
   <i type="logical" name="NUCIND"> F  </i>
   <v name="MAGPOS">      0.00000000      0.00000000      0.00000000</v>
   <i type="logical" name="LNICSALL"> T  </i>
   <i type="logical" name="ORBITALMAG"> F  </i>
   <i type="logical" name="LMAGBLOCH"> F  </i>
   <i type="logical" name="LCHIMAG"> F  </i>
   <i type="logical" name="LGAUGE"> T  </i>
   <i type="int" name="MAGATOM">     0</i>
   <v name="MAGDIPOL">      0.00000000      0.00000000      0.00000000</v>
   <v name="AVECCONST">      0.00000000      0.00000000      0.00000000</v>
  </separator>
  <separator name="response functions" >
   <i type="logical" name="LADDER"> F  </i>
   <i type="logical" name="LRPAFORCE"> F  </i>
   <i type="logical" name="LFXC"> F  </i>
   <i type="logical" name="LHARTREE"> T  </i>
   <i type="int" name="IBSE">     0</i>
   <v type="int" name="KPOINT">    -1     0     0     0</v>
   <i type="logical" name="LTCTE"> F  </i>
   <i type="logical" name="LTETE"> F  </i>
   <i type="logical" name="LTRIPLET"> F  </i>
   <i type="logical" name="LFXCEPS"> F  </i>
   <i type="logical" name="LFXHEG"> F  </i>
   <i type="int" name="NATURALO">     2</i>
   <i type="logical" name="L2ORDER"> F  </i>
   <i type="logical" name="LMP2LT"> F  </i>
   <i type="logical" name="LUSEW"> F  </i>
   <i name="ENCUTGW">     -2.00000000</i>
   <i name="ENCUTGWSOFT">     -2.00000000</i>
   <i name="ENCUTLF">     -1.00000000</i>
   <i type="int" name="LMAXMP2">    -1</i>
   <i name="SCISSOR">      0.00000000</i>
   <i type="int" name="NOMEGA">     0</i>
   <i type="int" name="NOMEGAR">     0</i>
   <i type="int" name="NBANDSGW">    -1</i>
   <i type="int" name="NBANDSO">    -1</i>
   <i type="int" name="NBANDSV">    -1</i>
   <i type="int" name="NELM">   200</i>
   <i type="int" name="NELMHF">     1</i>
   <i type="int" name="DIM">     3</i>
   <i type="int" name="ANTIRES">     0</i>
   <i name="OMEGAMAX">    -30.00000000</i>
   <i name="OMEGAMIN">    -30.00000000</i>
   <i name="OMEGATL">   -200.00000000</i>
   <i type="int" name="OMEGAGRID">   140</i>
   <i name="CSHIFT">     -0.10000000</i>
   <i type="logical" name="SELFENERGY"> F  </i>
   <i type="logical" name="LSPECTRAL"> F  </i>
   <i type="logical" name="LSPECTRALGW"> F  </i>
   <i type="logical" name="LSINGLES"> F  </i>
   <i type="logical" name="LFERMIGW"> F  </i>
   <i type="logical" name="ODDONLYGW"> F  </i>
   <i type="logical" name="EVENONLYGW"> F  </i>
   <i type="int" name="NKREDLFX">     1</i>
   <i type="int" name="NKREDLFY">     1</i>
   <i type="int" name="NKREDLFZ">     1</i>
   <i type="int" name="MAXMEM">  2800</i>
   <i type="int" name="TELESCOPE">     0</i>
   <i type="int" name="TAUPAR">     1</i>
   <i type="int" name="OMEGAPAR">    -1</i>
   <i name="LAMBDA">      1.00000000</i>
  </separator>
  <separator name="External order field" >
   <i name="OFIELD_KAPPA">      0.00000000</i>
   <v name="OFIELD_K">      0.00000000      0.00000000      0.00000000</v>
   <i name="OFIELD_Q6_NEAR">      0.00000000</i>
   <i name="OFIELD_Q6_FAR">      0.00000000</i>
   <i name="OFIELD_A">      0.00000000</i>
  </separator>
 </parameters>
 <atominfo>
  <atoms>      39 </atoms>
  <types>       3 </types>
  <array name="atoms" >
   <dimension dim="1">ion</dimension>
   <field type="string">element</field>
   <field type="int">atomtype</field>
   <set>
    <rc><c>Cs</c><c>   1</c></rc>
    <rc><c>Cs</c><c>   1</c></rc>
    <rc><c>Cs</c><c>   1</c></rc>
    <rc><c>Cs</c><c>   1</c></rc>
    <rc><c>Cs</c><c>   1</c></rc>
    <rc><c>Cs</c><c>   1</c></rc>
    <rc><c>Cs</c><c>   1</c></rc>
    <rc><c>Cs</c><c>   1</c></rc>
    <rc><c>Pb</c><c>   2</c></rc>
    <rc><c>Pb</c><c>   2</c></rc>
    <rc><c>Pb</c><c>   2</c></rc>
    <rc><c>Pb</c><c>   2</c></rc>
    <rc><c>Pb</c><c>   2</c></rc>
    <rc><c>Pb</c><c>   2</c></rc>
    <rc><c>Pb</c><c>   2</c></rc>
    <rc><c>Pb</c><c>   2</c></rc>
    <rc><c>Br</c><c>   3</c></rc>
    <rc><c>Br</c><c>   3</c></rc>
    <rc><c>Br</c><c>   3</c></rc>
    <rc><c>Br</c><c>   3</c></rc>
    <rc><c>Br</c><c>   3</c></rc>
    <rc><c>Br</c><c>   3</c></rc>
    <rc><c>Br</c><c>   3</c></rc>
    <rc><c>Br</c><c>   3</c></rc>
    <rc><c>Br</c><c>   3</c></rc>
    <rc><c>Br</c><c>   3</c></rc>
    <rc><c>Br</c><c>   3</c></rc>
    <rc><c>Br</c><c>   3</c></rc>
    <rc><c>Br</c><c>   3</c></rc>
    <rc><c>Br</c><c>   3</c></rc>
    <rc><c>Br</c><c>   3</c></rc>
    <rc><c>Br</c><c>   3</c></rc>
    <rc><c>Br</c><c>   3</c></rc>
    <rc><c>Br</c><c>   3</c></rc>
    <rc><c>Br</c><c>   3</c></rc>
    <rc><c>Br</c><c>   3</c></rc>
    <rc><c>Br</c><c>   3</c></rc>
    <rc><c>Br</c><c>   3</c></rc>
    <rc><c>Br</c><c>   3</c></rc>
   </set>
  </array>
  <array name="atomtypes" >
   <dimension dim="1">type</dimension>
   <field type="int">atomspertype</field>
   <field type="string">element</field>
   <field>mass</field>
   <field>valence</field>
   <field type="string">pseudopotential</field>
   <set>
    <rc><c>   8</c><c>Cs</c><c>    132.90000000</c><c>      9.00000000</c><c>  PAW_PBE Cs_sv 08Apr2002               </c></rc>
    <rc><c>   8</c><c>Pb</c><c>    207.20000000</c><c>     14.00000000</c><c>  PAW_PBE Pb_d 06Sep2000                </c></rc>
    <rc><c>  23</c><c>Br</c><c>     79.90400000</c><c>      7.00000000</c><c>  PAW_PBE Br 06Sep2000                  </c></rc>
   </set>
  </array>
 </atominfo>
 <structure name="initialpos" >
  <crystal>
   <varray name="basis" >
    <v>       8.45648900       0.00000000       8.04030100 </v>
    <v>       0.00000000      11.72984700       0.00000000 </v>
    <v>      -8.45648900       0.00000000       8.04030100 </v>
   </varray>
   <i name="volume">   1595.08833419 </i>
   <varray name="rec_basis" >
    <v>       0.05912619      -0.00000000       0.06218673 </v>
    <v>       0.00000000       0.08525260      -0.00000000 </v>
    <v>      -0.05912619       0.00000000       0.06218673 </v>
   </varray>
  </crystal>
  <varray name="positions" >
   <v>       0.26516300       0.23933900       0.20001200 </v>
   <v>       0.77599300       0.23460600       0.72962600 </v>
   <v>       0.71412200       0.77064000       0.26215600 </v>
   <v>       0.21391000       0.75317500       0.77807100 </v>
   <v>       0.27446700       0.24421500       0.72888100 </v>
   <v>       0.80172700       0.24716900       0.22676200 </v>
   <v>       0.72865400       0.75487200       0.79059700 </v>
   <v>       0.22386500       0.75716000       0.29314500 </v>
   <v>       0.00313500       0.99703500       0.99984500 </v>
   <v>       0.49648700       0.00224600       0.49946600 </v>
   <v>       0.49979700       0.00051300       0.00006500 </v>
   <v>       0.99716500       0.99967900       0.50049900 </v>
   <v>       0.50968000       0.49610400       0.99662300 </v>
   <v>       0.99823700       0.50227500       0.49726900 </v>
   <v>       0.00535400       0.50061600       0.99779600 </v>
   <v>       0.48928000       0.49912400       0.51028200 </v>
   <v>       0.47691300       0.74724100       0.97433100 </v>
   <v>       0.96278000       0.74951700       0.46184600 </v>
   <v>       0.98039800       0.24907500       0.97373100 </v>
   <v>       0.44789200       0.25361500       0.47101700 </v>
   <v>       0.03924200       0.74852900       0.03174700 </v>
   <v>       0.53539900       0.74768800       0.52138600 </v>
   <v>       0.53437900       0.25060400       0.04351700 </v>
   <v>       0.01577300       0.25250000       0.53295800 </v>
   <v>       0.25641000       0.46695100       0.95221700 </v>
   <v>       0.94575500       0.53109700       0.74310600 </v>
   <v>       0.54297500       0.03251500       0.75229400 </v>
   <v>       0.04745300       0.02848200       0.25313500 </v>
   <v>       0.75481300       0.97663000       0.04020900 </v>
   <v>       0.24900200       0.96269900       0.55007100 </v>
   <v>       0.25040500       0.03041000       0.94807700 </v>
   <v>       0.74403700       0.03928100       0.45215000 </v>
   <v>       0.44651900       0.96799100       0.24786000 </v>
   <v>       0.95270100       0.96366800       0.74804800 </v>
   <v>       0.75799500       0.53592300       0.05044200 </v>
   <v>       0.24144600       0.53839700       0.55078400 </v>
   <v>       0.55860900       0.46332600       0.75410300 </v>
   <v>       0.05793000       0.46767100       0.25105500 </v>
   <v>       0.61445600       0.49508900       0.34220800 </v>
  </varray>
 </structure>
 <calculation>
  <scstep>
   <time name="dav">   16.57   16.58</time>
   <time name="total">   18.03   18.04</time>
   <energy>
    <i name="alphaZ">    872.70583573 </i>
    <i name="ewald"> -17918.50395292 </i>
    <i name="hartreedc">  -7436.89233940 </i>
    <i name="XCdc">    908.31640028 </i>
    <i name="pawpsdc">  21345.28103884 </i>
    <i name="pawaedc"> -22405.85761495 </i>
    <i name="eentropy">     -0.00143893 </i>
    <i name="bandstr">   -244.93040764 </i>
    <i name="atom">  26212.11861568 </i>
    <i name="e_fr_energy">   1332.23613670 </i>
    <i name="e_wo_entrp">   1332.23757562 </i>
    <i name="e_0_energy">   1332.23685616 </i>
   </energy>
  </scstep>
  <scstep>
   <time name="dav">   18.39   18.44</time>
   <time name="total">   18.39   18.44</time>
   <energy>
    <i name="e_fr_energy">  -1114.26175154 </i>
    <i name="e_wo_entrp">  -1114.26175154 </i>
    <i name="e_0_energy">  -1114.26175154 </i>
   </energy>
  </scstep>
  <scstep>
   <time name="dav">   19.32   19.37</time>
   <time name="total">   19.32   19.37</time>
   <energy>
    <i name="e_fr_energy">  -1474.23348365 </i>
    <i name="e_wo_entrp">  -1474.23348365 </i>
    <i name="e_0_energy">  -1474.23348365 </i>
   </energy>
  </scstep>
  <scstep>
   <time name="dav">   17.90   17.94</time>
   <time name="total">   17.90   17.94</time>
   <energy>
    <i name="e_fr_energy">  -1486.41895182 </i>
    <i name="e_wo_entrp">  -1486.41895182 </i>
    <i name="e_0_energy">  -1486.41895182 </i>
   </energy>
  </scstep>
  <scstep>
   <time name="dav">   19.37   19.42</time>
   <time name="total">   22.07   22.13</time>
   <energy>
    <i name="e_fr_energy">  -1486.98002936 </i>
    <i name="e_wo_entrp">  -1486.98002936 </i>
    <i name="e_0_energy">  -1486.98002936 </i>
   </energy>
  </scstep>
  <scstep>
   <time name="dav">   19.10   19.10</time>
   <time name="total">   23.27   23.30</time>
   <energy>
    <i name="e_fr_energy">  -1409.32954517 </i>
    <i name="e_wo_entrp">  -1409.32954517 </i>
    <i name="e_0_energy">  -1409.32954517 </i>
   </energy>
  </scstep>
  <scstep>
   <time name="dav">   18.30   18.30</time>
   <time name="total">   22.44   22.50</time>
   <energy>
    <i name="e_fr_energy">  -1408.81833290 </i>
    <i name="e_wo_entrp">  -1408.81833290 </i>
    <i name="e_0_energy">  -1408.81833290 </i>
   </energy>
  </scstep>
  <scstep>
   <time name="dav">   18.29   18.29</time>
   <time name="total">   22.45   22.49</time>
   <energy>
    <i name="e_fr_energy">  -1408.99174812 </i>
    <i name="e_wo_entrp">  -1408.99174812 </i>
    <i name="e_0_energy">  -1408.99174812 </i>
   </energy>
  </scstep>
  <scstep>
   <time name="dav">   17.58   17.58</time>
   <time name="total">   21.73   21.75</time>
   <energy>
    <i name="e_fr_energy">  -1409.05749611 </i>
    <i name="e_wo_entrp">  -1409.05749611 </i>
    <i name="e_0_energy">  -1409.05749611 </i>
   </energy>
  </scstep>
  <scstep>
   <time name="dav">   19.79   19.79</time>
   <time name="total">   23.95   23.99</time>
   <energy>
    <i name="e_fr_energy">  -1409.06077246 </i>
    <i name="e_wo_entrp">  -1409.06077246 </i>
    <i name="e_0_energy">  -1409.06077246 </i>
   </energy>
  </scstep>
  <scstep>
   <time name="dav">   17.80   17.80</time>
   <time name="total">   22.01   22.01</time>
   <energy>
    <i name="e_fr_energy">  -1409.06274032 </i>
    <i name="e_wo_entrp">  -1409.06274032 </i>
    <i name="e_0_energy">  -1409.06274032 </i>
   </energy>
  </scstep>
  <scstep>
   <time name="dav">   17.03   17.03</time>
   <time name="total">   21.18   21.24</time>
   <energy>
    <i name="e_fr_energy">  -1409.06529453 </i>
    <i name="e_wo_entrp">  -1409.06529453 </i>
    <i name="e_0_energy">  -1409.06529453 </i>
   </energy>
  </scstep>
  <scstep>
   <time name="dav">   19.45   19.45</time>
   <time name="total">   23.59   23.66</time>
   <energy>
    <i name="e_fr_energy">  -1409.06487182 </i>
    <i name="e_wo_entrp">  -1409.06487182 </i>
    <i name="e_0_energy">  -1409.06487182 </i>
   </energy>
  </scstep>
  <scstep>
   <time name="dav">   17.79   17.79</time>
   <time name="total">   21.96   22.00</time>
   <energy>
    <i name="e_fr_energy">  -1409.06479556 </i>
    <i name="e_wo_entrp">  -1409.06479556 </i>
    <i name="e_0_energy">  -1409.06479556 </i>
   </energy>
  </scstep>
  <scstep>
   <time name="dav">   17.60   17.60</time>
   <time name="total">   21.76   21.82</time>
   <energy>
    <i name="e_fr_energy">  -1409.06478039 </i>
    <i name="e_wo_entrp">  -1409.06478039 </i>
    <i name="e_0_energy">  -1409.06478039 </i>
   </energy>
  </scstep>
  <scstep>
   <time name="dav">   17.86   17.86</time>
   <time name="total">   21.99   22.05</time>
   <energy>
    <i name="e_fr_energy">  -1409.06483951 </i>
    <i name="e_wo_entrp">  -1409.06483951 </i>
    <i name="e_0_energy">  -1409.06483951 </i>
   </energy>
  </scstep>
  <scstep>
   <time name="dav">   17.46   17.46</time>
   <time name="total">   21.58   21.64</time>
   <energy>
    <i name="e_fr_energy">  -1409.06484303 </i>
    <i name="e_wo_entrp">  -1409.06484303 </i>
    <i name="e_0_energy">  -1409.06484303 </i>
   </energy>
  </scstep>
  <scstep>
   <time name="dav">   13.78   13.78</time>
   <time name="total">   17.98   17.98</time>
   <energy>
    <i name="e_fr_energy">  -1409.06483973 </i>
    <i name="e_wo_entrp">  -1409.06483973 </i>
    <i name="e_0_energy">  -1409.06483973 </i>
   </energy>
  </scstep>
  <scstep>
   <time name="dav">   13.40   13.40</time>
   <time name="total">   17.55   17.59</time>
   <energy>
    <i name="e_fr_energy">  -1409.06483508 </i>
    <i name="e_wo_entrp">  -1409.06483508 </i>
    <i name="e_0_energy">  -1409.06483508 </i>
   </energy>
  </scstep>
  <scstep>
   <time name="dav">   12.80   12.80</time>
   <time name="total">   16.94   16.97</time>
   <energy>
    <i name="e_fr_energy">  -1409.06483264 </i>
    <i name="e_wo_entrp">  -1409.06483264 </i>
    <i name="e_0_energy">  -1409.06483264 </i>
   </energy>
  </scstep>
  <scstep>
   <time name="dav">   12.55   12.55</time>
   <time name="total">   16.74   16.77</time>
   <energy>
    <i name="e_fr_energy">  -1409.06483111 </i>
    <i name="e_wo_entrp">  -1409.06483111 </i>
    <i name="e_0_energy">  -1409.06483111 </i>
   </energy>
  </scstep>
  <scstep>
   <time name="dav">   12.43   12.43</time>
   <time name="total">   13.95   13.96</time>
   <energy>
    <i name="alphaZ">    872.70583573 </i>
    <i name="ewald"> -17918.50395292 </i>
    <i name="hartreedc">  -7472.19786651 </i>
    <i name="XCdc">    943.97563765 </i>
    <i name="pawpsdc">  22820.50165373 </i>
    <i name="pawaedc"> -23879.55005477 </i>
    <i name="eentropy">     -0.00000000 </i>
    <i name="bandstr">  -2988.11469950 </i>
    <i name="atom">  26212.11861568 </i>
    <i name="e_fr_energy">  -1409.06483091 </i>
    <i name="e_wo_entrp">  -1409.06483091 </i>
    <i name="e_0_energy">  -1409.06483091 </i>
   </energy>
  </scstep>
  <structure>
   <crystal>
    <varray name="basis" >
     <v>       8.45648900       0.00000000       8.04030100 </v>
     <v>       0.00000000      11.72984700       0.00000000 </v>
     <v>      -8.45648900       0.00000000       8.04030100 </v>
    </varray>
    <i name="volume">   1595.08833419 </i>
    <varray name="rec_basis" >
     <v>       0.05912619      -0.00000000       0.06218673 </v>
     <v>       0.00000000       0.08525260      -0.00000000 </v>
     <v>      -0.05912619       0.00000000       0.06218673 </v>
    </varray>
   </crystal>
   <varray name="positions" >
    <v>       0.26516300       0.23933900       0.20001200 </v>
    <v>       0.77599300       0.23460600       0.72962600 </v>
    <v>       0.71412200       0.77064000       0.26215600 </v>
    <v>       0.21391000       0.75317500       0.77807100 </v>
    <v>       0.27446700       0.24421500       0.72888100 </v>
    <v>       0.80172700       0.24716900       0.22676200 </v>
    <v>       0.72865400       0.75487200       0.79059700 </v>
    <v>       0.22386500       0.75716000       0.29314500 </v>
    <v>       0.00313500       0.99703500       0.99984500 </v>
    <v>       0.49648700       0.00224600       0.49946600 </v>
    <v>       0.49979700       0.00051300       0.00006500 </v>
    <v>       0.99716500       0.99967900       0.50049900 </v>
    <v>       0.50968000       0.49610400       0.99662300 </v>
    <v>       0.99823700       0.50227500       0.49726900 </v>
    <v>       0.00535400       0.50061600       0.99779600 </v>
    <v>       0.48928000       0.49912400       0.51028200 </v>
    <v>       0.47691300       0.74724100       0.97433100 </v>
    <v>       0.96278000       0.74951700       0.46184600 </v>
    <v>       0.98039800       0.24907500       0.97373100 </v>
    <v>       0.44789200       0.25361500       0.47101700 </v>
    <v>       0.03924200       0.74852900       0.03174700 </v>
    <v>       0.53539900       0.74768800       0.52138600 </v>
    <v>       0.53437900       0.25060400       0.04351700 </v>
    <v>       0.01577300       0.25250000       0.53295800 </v>
    <v>       0.25641000       0.46695100       0.95221700 </v>
    <v>       0.94575500       0.53109700       0.74310600 </v>
    <v>       0.54297500       0.03251500       0.75229400 </v>
    <v>       0.04745300       0.02848200       0.25313500 </v>
    <v>       0.75481300       0.97663000       0.04020900 </v>
    <v>       0.24900200       0.96269900       0.55007100 </v>
    <v>       0.25040500       0.03041000       0.94807700 </v>
    <v>       0.74403700       0.03928100       0.45215000 </v>
    <v>       0.44651900       0.96799100       0.24786000 </v>
    <v>       0.95270100       0.96366800       0.74804800 </v>
    <v>       0.75799500       0.53592300       0.05044200 </v>
    <v>       0.24144600       0.53839700       0.55078400 </v>
    <v>       0.55860900       0.46332600       0.75410300 </v>
    <v>       0.05793000       0.46767100       0.25105500 </v>
    <v>       0.61445600       0.49508900       0.34220800 </v>
   </varray>
  </structure>
  <varray name="forces" >
   <v>      -0.00531155      -0.03738431       0.00624243 </v>
   <v>      -0.01768675      -0.01750741       0.00565589 </v>
   <v>       0.01498803       0.11353558       0.00909991 </v>
   <v>       0.01573227      -0.00133709      -0.00718181 </v>
   <v>       0.04458324       0.01028943      -0.00870161 </v>
   <v>      -0.03473322       0.02583077      -0.01294958 </v>
   <v>      -0.00847968       0.00866129      -0.02170749 </v>
   <v>      -0.02136229       0.01585779       0.01544185 </v>
   <v>       0.01008919       0.00548043      -0.00701830 </v>
   <v>      -0.02179127      -0.02794569      -0.01119039 </v>
   <v>       0.01206001       0.00940590      -0.00580422 </v>
   <v>       0.00368386      -0.01911771       0.01787753 </v>
   <v>       0.23556283      -0.05288171      -0.06926259 </v>
   <v>       0.15859413       0.07194059       0.27426765 </v>
   <v>      -0.02532496      -0.00258412       0.00141450 </v>
   <v>      -2.12988389       0.07969463       0.27604040 </v>
   <v>      -0.01694294      -0.02794896       0.01451366 </v>
   <v>       0.00259502      -0.02570431      -0.01297102 </v>
   <v>      -0.00016622       0.00824807       0.00508842 </v>
   <v>      -0.05391070      -0.18425188      -0.03208895 </v>
   <v>      -0.00039301      -0.00600904       0.00351864 </v>
   <v>      -0.03395240       0.20810389       0.02550298 </v>
   <v>      -0.00613712       0.02256340      -0.00041155 </v>
   <v>      -0.00791763       0.02145550      -0.01339430 </v>
   <v>      -0.01135079       0.00736128       0.01403288 </v>
   <v>       0.00777876      -0.00741314      -0.01222928 </v>
   <v>      -0.01198803       0.00858682       0.01780959 </v>
   <v>       0.00710694       0.00395068      -0.00102908 </v>
   <v>       0.00249635       0.01378880      -0.01087680 </v>
   <v>      -0.02475293       0.00694328      -0.03612949 </v>
   <v>      -0.00249140      -0.00825530       0.00458038 </v>
   <v>       0.02762003       0.02432346       0.03167659 </v>
   <v>       0.01983243      -0.01919300      -0.02287089 </v>
   <v>       0.00516008      -0.00249099       0.00390902 </v>
   <v>       0.06598128      -0.00065238       0.01662497 </v>
   <v>      -0.45542123      -0.01348844      -0.59018413 </v>
   <v>      -0.37737560      -0.00736970       0.48859108 </v>
   <v>      -0.00638592       0.00543036       0.02481760 </v>
   <v>       2.63989508      -0.20991677      -0.38070448 </v>
  </varray>
  <varray name="stress" >
   <v>      -0.50594529       0.33395782      -0.63441295 </v>
   <v>       0.33391517      -3.25955469      -0.13254004 </v>
   <v>      -0.63437135      -0.13243521      -6.29106642 </v>
  </varray>
  <energy>
   <i name="e_fr_energy">  -1409.06483091 </i>
   <i name="e_wo_entrp">  -1409.06483091 </i>
   <i name="e_0_energy">     -0.00000000 </i>
  </energy>
  <time name="totalsc">  501.53  502.44</time>
  <eigenvalues>
   <array>
    <dimension dim="1">band</dimension>
    <dimension dim="2">kpoint</dimension>
    <dimension dim="3">spin</dimension>
    <field>eigene</field>
    <field>occ</field>
    <set>
     <set comment="spin 1">
      <set comment="kpoint 1">
       <r>  -20.9015    1.0000 </r>
       <r>  -20.8228    1.0000 </r>
       <r>  -20.8076    1.0000 </r>
       <r>  -20.7698    1.0000 </r>
       <r>  -20.7424    1.0000 </r>
       <r>  -20.7329    1.0000 </r>
       <r>  -20.7180    1.0000 </r>
       <r>  -20.6883    1.0000 </r>
       <r>  -16.7033    1.0000 </r>
       <r>  -16.6931    1.0000 </r>
       <r>  -16.6790    1.0000 </r>
       <r>  -16.6763    1.0000 </r>
       <r>  -16.6473    1.0000 </r>
       <r>  -16.6074    1.0000 </r>
       <r>  -16.6026    1.0000 </r>
       <r>  -16.5923    1.0000 </r>
       <r>  -16.5880    1.0000 </r>
       <r>  -16.5557    1.0000 </r>
       <r>  -16.5541    1.0000 </r>
       <r>  -16.4769    1.0000 </r>
       <r>  -16.4469    1.0000 </r>
       <r>  -16.4314    1.0000 </r>
       <r>  -16.4204    1.0000 </r>
       <r>  -16.4143    1.0000 </r>
       <r>  -16.4074    1.0000 </r>
       <r>  -16.3976    1.0000 </r>
       <r>  -16.3665    1.0000 </r>
       <r>  -16.3634    1.0000 </r>
       <r>  -16.3553    1.0000 </r>
       <r>  -16.3526    1.0000 </r>
       <r>  -16.3434    1.0000 </r>
       <r>  -16.3380    1.0000 </r>
       <r>  -16.3223    1.0000 </r>
       <r>  -16.3181    1.0000 </r>
       <r>  -16.3153    1.0000 </r>
       <r>  -16.2900    1.0000 </r>
       <r>  -16.2845    1.0000 </r>
       <r>  -16.2841    1.0000 </r>
       <r>  -16.2781    1.0000 </r>
       <r>  -16.2746    1.0000 </r>
       <r>  -16.2683    1.0000 </r>
       <r>  -16.2675    1.0000 </r>
       <r>  -16.2653    1.0000 </r>
       <r>  -16.2583    1.0000 </r>
       <r>  -16.2293    1.0000 </r>
       <r>  -16.2239    1.0000 </r>
       <r>  -16.2183    1.0000 </r>
       <r>  -16.2093    1.0000 </r>
       <r>  -14.5006    1.0000 </r>
       <r>  -14.3754    1.0000 </r>
       <r>  -14.3136    1.0000 </r>
       <r>  -14.2781    1.0000 </r>
       <r>  -14.1450    1.0000 </r>
       <r>  -14.1208    1.0000 </r>
       <r>  -14.1122    1.0000 </r>
       <r>  -14.0988    1.0000 </r>
       <r>  -14.0870    1.0000 </r>
       <r>  -14.0503    1.0000 </r>
       <r>  -14.0483    1.0000 </r>
       <r>  -14.0456    1.0000 </r>
       <r>  -14.0354    1.0000 </r>
       <r>  -14.0303    1.0000 </r>
       <r>  -13.9647    1.0000 </r>
       <r>  -13.9418    1.0000 </r>
       <r>  -13.9353    1.0000 </r>
       <r>  -13.9245    1.0000 </r>
       <r>  -13.8935    1.0000 </r>
       <r>  -13.7807    1.0000 </r>
       <r>  -13.7747    1.0000 </r>
       <r>  -13.7038    1.0000 </r>
       <r>  -13.6834    1.0000 </r>
       <r>   -8.2050    1.0000 </r>
       <r>   -7.8076    1.0000 </r>
       <r>   -7.7478    1.0000 </r>
       <r>   -7.6720    1.0000 </r>
       <r>   -7.3619    1.0000 </r>
       <r>   -7.3261    1.0000 </r>
       <r>   -7.2930    1.0000 </r>
       <r>   -7.2778    1.0000 </r>
       <r>   -7.2619    1.0000 </r>
       <r>   -7.2329    1.0000 </r>
       <r>   -7.2212    1.0000 </r>
       <r>   -7.2198    1.0000 </r>
       <r>   -7.2170    1.0000 </r>
       <r>   -7.1965    1.0000 </r>
       <r>   -7.1914    1.0000 </r>
       <r>   -7.1784    1.0000 </r>
       <r>   -7.1697    1.0000 </r>
       <r>   -7.1632    1.0000 </r>
       <r>   -7.1550    1.0000 </r>
       <r>   -7.1443    1.0000 </r>
       <r>   -7.1404    1.0000 </r>
       <r>   -7.1364    1.0000 </r>
       <r>   -7.1341    1.0000 </r>
       <r>   -7.1261    1.0000 </r>
       <r>   -7.1232    1.0000 </r>
       <r>   -7.1112    1.0000 </r>
       <r>   -7.1082    1.0000 </r>
       <r>   -7.0960    1.0000 </r>
       <r>   -7.0897    1.0000 </r>
       <r>   -7.0783    1.0000 </r>
       <r>   -7.0376    1.0000 </r>
       <r>   -6.5827    1.0000 </r>
       <r>   -3.3778    1.0000 </r>
       <r>   -3.3296    1.0000 </r>
       <r>   -3.2973    1.0000 </r>
       <r>   -3.2896    1.0000 </r>
       <r>   -3.2685    1.0000 </r>
       <r>   -3.2371    1.0000 </r>
       <r>   -3.1789    1.0000 </r>
       <r>   -3.1588    1.0000 </r>
       <r>   -3.1528    1.0000 </r>
       <r>   -3.0808    1.0000 </r>
       <r>   -3.0452    1.0000 </r>
       <r>   -2.8273    1.0000 </r>
       <r>   -2.2478    1.0000 </r>
       <r>   -2.1982    1.0000 </r>
       <r>   -2.1382    1.0000 </r>
       <r>   -2.1238    1.0000 </r>
       <r>   -2.0277    1.0000 </r>
       <r>   -1.9697    1.0000 </r>
       <r>   -1.9320    1.0000 </r>
       <r>   -1.9216    1.0000 </r>
       <r>   -1.9057    1.0000 </r>
       <r>   -1.8531    1.0000 </r>
       <r>   -1.8095    1.0000 </r>
       <r>   -1.7298    1.0000 </r>
       <r>   -1.7090    1.0000 </r>
       <r>   -1.6665    1.0000 </r>
       <r>   -1.6471    1.0000 </r>
       <r>   -1.6323    1.0000 </r>
       <r>   -1.5758    1.0000 </r>
       <r>   -1.5600    1.0000 </r>
       <r>   -1.5345    1.0000 </r>
       <r>   -1.5139    1.0000 </r>
       <r>   -1.5034    1.0000 </r>
       <r>   -1.4988    1.0000 </r>
       <r>   -1.4795    1.0000 </r>
       <r>   -1.4650    1.0000 </r>
       <r>   -1.4475    1.0000 </r>
       <r>   -1.4245    1.0000 </r>
       <r>   -1.4183    1.0000 </r>
       <r>   -1.4036    1.0000 </r>
       <r>   -1.3945    1.0000 </r>
       <r>   -1.3887    1.0000 </r>
       <r>   -1.3728    1.0000 </r>
       <r>   -1.3684    1.0000 </r>
       <r>   -1.3531    1.0000 </r>
       <r>   -1.3355    1.0000 </r>
       <r>   -1.3137    1.0000 </r>
       <r>   -1.3064    1.0000 </r>
       <r>   -1.2968    1.0000 </r>
       <r>   -1.2756    1.0000 </r>
       <r>   -1.2667    1.0000 </r>
       <r>   -1.2441    1.0000 </r>
       <r>   -1.2382    1.0000 </r>
       <r>   -1.1833    1.0000 </r>
       <r>   -1.1540    1.0000 </r>
       <r>   -1.1379    1.0000 </r>
       <r>   -1.0962    1.0000 </r>
       <r>   -1.0439    1.0000 </r>
       <r>   -1.0352    1.0000 </r>
       <r>   -1.0021    1.0000 </r>
       <r>   -0.9458    1.0000 </r>
       <r>   -0.8583    1.0000 </r>
       <r>   -0.8148    1.0000 </r>
       <r>   -0.7047    1.0000 </r>
       <r>   -0.5822    1.0000 </r>
       <r>   -0.2957    1.0000 </r>
       <r>   -0.2148    1.0000 </r>
       <r>   -0.0546    1.0000 </r>
       <r>    0.4030    1.0000 </r>
       <r>    2.6356    0.0000 </r>
       <r>    2.7764    0.0000 </r>
       <r>    2.8244    0.0000 </r>
       <r>    2.9462    0.0000 </r>
       <r>    3.0137    0.0000 </r>
       <r>    3.0978    0.0000 </r>
       <r>    3.1654    0.0000 </r>
       <r>    3.2270    0.0000 </r>
       <r>    3.3246    0.0000 </r>
       <r>    3.5008    0.0000 </r>
       <r>    3.5049    0.0000 </r>
       <r>    3.5417    0.0000 </r>
       <r>    4.0797    0.0000 </r>
       <r>    4.8021    0.0000 </r>
       <r>    5.4336    0.0000 </r>
       <r>    5.5847    0.0000 </r>
       <r>    5.7000    0.0000 </r>
       <r>    5.7260    0.0000 </r>
       <r>    5.8786    0.0000 </r>
       <r>    5.8902    0.0000 </r>
       <r>    5.9199    0.0000 </r>
       <r>    5.9952    0.0000 </r>
       <r>    6.0448    0.0000 </r>
       <r>    6.0609    0.0000 </r>
       <r>    6.1423    0.0000 </r>
       <r>    6.1697    0.0000 </r>
       <r>    6.2128    0.0000 </r>
       <r>    6.2571    0.0000 </r>
       <r>    6.2672    0.0000 </r>
       <r>    6.3344    0.0000 </r>
       <r>    6.3837    0.0000 </r>
       <r>    6.4534    0.0000 </r>
       <r>    6.4879    0.0000 </r>
       <r>    6.5374    0.0000 </r>
       <r>    6.6109    0.0000 </r>
       <r>    6.6483    0.0000 </r>
      </set>
      <set comment="kpoint 2">
       <r>  -20.9015    1.0000 </r>
       <r>  -20.8228    1.0000 </r>
       <r>  -20.8076    1.0000 </r>
       <r>  -20.7698    1.0000 </r>
       <r>  -20.7424    1.0000 </r>
       <r>  -20.7329    1.0000 </r>
       <r>  -20.7180    1.0000 </r>
       <r>  -20.6883    1.0000 </r>
       <r>  -16.7029    1.0000 </r>
       <r>  -16.6926    1.0000 </r>
       <r>  -16.6765    1.0000 </r>
       <r>  -16.6760    1.0000 </r>
       <r>  -16.6478    1.0000 </r>
       <r>  -16.6074    1.0000 </r>
       <r>  -16.6027    1.0000 </r>
       <r>  -16.5923    1.0000 </r>
       <r>  -16.5880    1.0000 </r>
       <r>  -16.5557    1.0000 </r>
       <r>  -16.5540    1.0000 </r>
       <r>  -16.4776    1.0000 </r>
       <r>  -16.4492    1.0000 </r>
       <r>  -16.4244    1.0000 </r>
       <r>  -16.4199    1.0000 </r>
       <r>  -16.4040    1.0000 </r>
       <r>  -16.4004    1.0000 </r>
       <r>  -16.3949    1.0000 </r>
       <r>  -16.3783    1.0000 </r>
       <r>  -16.3663    1.0000 </r>
       <r>  -16.3568    1.0000 </r>
       <r>  -16.3527    1.0000 </r>
       <r>  -16.3434    1.0000 </r>
       <r>  -16.3380    1.0000 </r>
       <r>  -16.3282    1.0000 </r>
       <r>  -16.3223    1.0000 </r>
       <r>  -16.3187    1.0000 </r>
       <r>  -16.2900    1.0000 </r>
       <r>  -16.2845    1.0000 </r>
       <r>  -16.2841    1.0000 </r>
       <r>  -16.2781    1.0000 </r>
       <r>  -16.2747    1.0000 </r>
       <r>  -16.2683    1.0000 </r>
       <r>  -16.2676    1.0000 </r>
       <r>  -16.2653    1.0000 </r>
       <r>  -16.2583    1.0000 </r>
       <r>  -16.2293    1.0000 </r>
       <r>  -16.2239    1.0000 </r>
       <r>  -16.2183    1.0000 </r>
       <r>  -16.2093    1.0000 </r>
       <r>  -14.4932    1.0000 </r>
       <r>  -14.3817    1.0000 </r>
       <r>  -14.3236    1.0000 </r>
       <r>  -14.2597    1.0000 </r>
       <r>  -14.1892    1.0000 </r>
       <r>  -14.1403    1.0000 </r>
       <r>  -14.1161    1.0000 </r>
       <r>  -14.0989    1.0000 </r>
       <r>  -14.0865    1.0000 </r>
       <r>  -14.0782    1.0000 </r>
       <r>  -14.0511    1.0000 </r>
       <r>  -14.0449    1.0000 </r>
       <r>  -14.0332    1.0000 </r>
       <r>  -13.9771    1.0000 </r>
       <r>  -13.9630    1.0000 </r>
       <r>  -13.9261    1.0000 </r>
       <r>  -13.9166    1.0000 </r>
       <r>  -13.8659    1.0000 </r>
       <r>  -13.8566    1.0000 </r>
       <r>  -13.8112    1.0000 </r>
       <r>  -13.7742    1.0000 </r>
       <r>  -13.7626    1.0000 </r>
       <r>  -13.6906    1.0000 </r>
       <r>   -8.0485    1.0000 </r>
       <r>   -7.9726    1.0000 </r>
       <r>   -7.6447    1.0000 </r>
       <r>   -7.5152    1.0000 </r>
       <r>   -7.4539    1.0000 </r>
       <r>   -7.4396    1.0000 </r>
       <r>   -7.3322    1.0000 </r>
       <r>   -7.2929    1.0000 </r>
       <r>   -7.2718    1.0000 </r>
       <r>   -7.2584    1.0000 </r>
       <r>   -7.2240    1.0000 </r>
       <r>   -7.2161    1.0000 </r>
       <r>   -7.2114    1.0000 </r>
       <r>   -7.1984    1.0000 </r>
       <r>   -7.1974    1.0000 </r>
       <r>   -7.1842    1.0000 </r>
       <r>   -7.1726    1.0000 </r>
       <r>   -7.1587    1.0000 </r>
       <r>   -7.1497    1.0000 </r>
       <r>   -7.1447    1.0000 </r>
       <r>   -7.1441    1.0000 </r>
       <r>   -7.1337    1.0000 </r>
       <r>   -7.1309    1.0000 </r>
       <r>   -7.1266    1.0000 </r>
       <r>   -7.1216    1.0000 </r>
       <r>   -7.1076    1.0000 </r>
       <r>   -7.1064    1.0000 </r>
       <r>   -7.0946    1.0000 </r>
       <r>   -7.0893    1.0000 </r>
       <r>   -7.0767    1.0000 </r>
       <r>   -6.9178    1.0000 </r>
       <r>   -6.8495    1.0000 </r>
       <r>   -3.3578    1.0000 </r>
       <r>   -3.3173    1.0000 </r>
       <r>   -3.2734    1.0000 </r>
       <r>   -3.2561    1.0000 </r>
       <r>   -3.2516    1.0000 </r>
       <r>   -3.1962    1.0000 </r>
       <r>   -3.1313    1.0000 </r>
       <r>   -3.1266    1.0000 </r>
       <r>   -2.8968    1.0000 </r>
       <r>   -2.5479    1.0000 </r>
       <r>   -2.4904    1.0000 </r>
       <r>   -2.4419    1.0000 </r>
       <r>   -2.4055    1.0000 </r>
       <r>   -2.3682    1.0000 </r>
       <r>   -2.3239    1.0000 </r>
       <r>   -2.2141    1.0000 </r>
       <r>   -2.1075    1.0000 </r>
       <r>   -2.0560    1.0000 </r>
       <r>   -2.0470    1.0000 </r>
       <r>   -2.0227    1.0000 </r>
       <r>   -2.0023    1.0000 </r>
       <r>   -1.9498    1.0000 </r>
       <r>   -1.8917    1.0000 </r>
       <r>   -1.8386    1.0000 </r>
       <r>   -1.8213    1.0000 </r>
       <r>   -1.7986    1.0000 </r>
       <r>   -1.7122    1.0000 </r>
       <r>   -1.6702    1.0000 </r>
       <r>   -1.6040    1.0000 </r>
       <r>   -1.5826    1.0000 </r>
       <r>   -1.5702    1.0000 </r>
       <r>   -1.5439    1.0000 </r>
       <r>   -1.5374    1.0000 </r>
       <r>   -1.4906    1.0000 </r>
       <r>   -1.4703    1.0000 </r>
       <r>   -1.4521    1.0000 </r>
       <r>   -1.4469    1.0000 </r>
       <r>   -1.4259    1.0000 </r>
       <r>   -1.4193    1.0000 </r>
       <r>   -1.4139    1.0000 </r>
       <r>   -1.4023    1.0000 </r>
       <r>   -1.3866    1.0000 </r>
       <r>   -1.3756    1.0000 </r>
       <r>   -1.3543    1.0000 </r>
       <r>   -1.3342    1.0000 </r>
       <r>   -1.3314    1.0000 </r>
       <r>   -1.3130    1.0000 </r>
       <r>   -1.2886    1.0000 </r>
       <r>   -1.2762    1.0000 </r>
       <r>   -1.2527    1.0000 </r>
       <r>   -1.2391    1.0000 </r>
       <r>   -1.2169    1.0000 </r>
       <r>   -1.1946    1.0000 </r>
       <r>   -1.1863    1.0000 </r>
       <r>   -1.1746    1.0000 </r>
       <r>   -1.1424    1.0000 </r>
       <r>   -1.1048    1.0000 </r>
       <r>   -1.0726    1.0000 </r>
       <r>   -1.0644    1.0000 </r>
       <r>   -1.0486    1.0000 </r>
       <r>   -0.9436    1.0000 </r>
       <r>   -0.9036    1.0000 </r>
       <r>   -0.8994    1.0000 </r>
       <r>   -0.6817    1.0000 </r>
       <r>   -0.6244    1.0000 </r>
       <r>   -0.5269    1.0000 </r>
       <r>   -0.3662    1.0000 </r>
       <r>   -0.0142    1.0000 </r>
       <r>    0.0777    1.0000 </r>
       <r>    2.6890    0.0000 </r>
       <r>    2.8750    0.0000 </r>
       <r>    2.9228    0.0000 </r>
       <r>    2.9614    0.0000 </r>
       <r>    3.1632    0.0000 </r>
       <r>    3.2728    0.0000 </r>
       <r>    3.3160    0.0000 </r>
       <r>    3.3650    0.0000 </r>
       <r>    3.4256    0.0000 </r>
       <r>    4.0215    0.0000 </r>
       <r>    4.3252    0.0000 </r>
       <r>    4.3718    0.0000 </r>
       <r>    4.5691    0.0000 </r>
       <r>    4.6245    0.0000 </r>
       <r>    4.7969    0.0000 </r>
       <r>    4.8606    0.0000 </r>
       <r>    5.1617    0.0000 </r>
       <r>    5.3805    0.0000 </r>
       <r>    5.5937    0.0000 </r>
       <r>    5.6902    0.0000 </r>
       <r>    5.8097    0.0000 </r>
       <r>    5.8908    0.0000 </r>
       <r>    5.9780    0.0000 </r>
       <r>    6.0330    0.0000 </r>
       <r>    6.0590    0.0000 </r>
       <r>    6.1407    0.0000 </r>
       <r>    6.1786    0.0000 </r>
       <r>    6.2055    0.0000 </r>
       <r>    6.2484    0.0000 </r>
       <r>    6.2613    0.0000 </r>
       <r>    6.3355    0.0000 </r>
       <r>    6.3908    0.0000 </r>
       <r>    6.4557    0.0000 </r>
       <r>    6.5645    0.0000 </r>
       <r>    6.5784    0.0000 </r>
       <r>    6.6184    0.0000 </r>
      </set>
      <set comment="kpoint 3">
       <r>  -20.9015    1.0000 </r>
       <r>  -20.8228    1.0000 </r>
       <r>  -20.8076    1.0000 </r>
       <r>  -20.7698    1.0000 </r>
       <r>  -20.7424    1.0000 </r>
       <r>  -20.7329    1.0000 </r>
       <r>  -20.7180    1.0000 </r>
       <r>  -20.6883    1.0000 </r>
       <r>  -16.7023    1.0000 </r>
       <r>  -16.6914    1.0000 </r>
       <r>  -16.6770    1.0000 </r>
       <r>  -16.6746    1.0000 </r>
       <r>  -16.6471    1.0000 </r>
       <r>  -16.6073    1.0000 </r>
       <r>  -16.6027    1.0000 </r>
       <r>  -16.5923    1.0000 </r>
       <r>  -16.5880    1.0000 </r>
       <r>  -16.5557    1.0000 </r>
       <r>  -16.5540    1.0000 </r>
       <r>  -16.4631    1.0000 </r>
       <r>  -16.4465    1.0000 </r>
       <r>  -16.4325    1.0000 </r>
       <r>  -16.4207    1.0000 </r>
       <r>  -16.4122    1.0000 </r>
       <r>  -16.4101    1.0000 </r>
       <r>  -16.4021    1.0000 </r>
       <r>  -16.3732    1.0000 </r>
       <r>  -16.3661    1.0000 </r>
       <r>  -16.3561    1.0000 </r>
       <r>  -16.3527    1.0000 </r>
       <r>  -16.3433    1.0000 </r>
       <r>  -16.3380    1.0000 </r>
       <r>  -16.3254    1.0000 </r>
       <r>  -16.3216    1.0000 </r>
       <r>  -16.3162    1.0000 </r>
       <r>  -16.2899    1.0000 </r>
       <r>  -16.2845    1.0000 </r>
       <r>  -16.2840    1.0000 </r>
       <r>  -16.2781    1.0000 </r>
       <r>  -16.2746    1.0000 </r>
       <r>  -16.2683    1.0000 </r>
       <r>  -16.2675    1.0000 </r>
       <r>  -16.2653    1.0000 </r>
       <r>  -16.2583    1.0000 </r>
       <r>  -16.2293    1.0000 </r>
       <r>  -16.2239    1.0000 </r>
       <r>  -16.2183    1.0000 </r>
       <r>  -16.2092    1.0000 </r>
       <r>  -14.4966    1.0000 </r>
       <r>  -14.3685    1.0000 </r>
       <r>  -14.3074    1.0000 </r>
       <r>  -14.3040    1.0000 </r>
       <r>  -14.2036    1.0000 </r>
       <r>  -14.1714    1.0000 </r>
       <r>  -14.1178    1.0000 </r>
       <r>  -14.0631    1.0000 </r>
       <r>  -14.0571    1.0000 </r>
       <r>  -14.0501    1.0000 </r>
       <r>  -14.0456    1.0000 </r>
       <r>  -14.0394    1.0000 </r>
       <r>  -14.0303    1.0000 </r>
       <r>  -14.0061    1.0000 </r>
       <r>  -13.9652    1.0000 </r>
       <r>  -13.9353    1.0000 </r>
       <r>  -13.8817    1.0000 </r>
       <r>  -13.8773    1.0000 </r>
       <r>  -13.8352    1.0000 </r>
       <r>  -13.8317    1.0000 </r>
       <r>  -13.7829    1.0000 </r>
       <r>  -13.7634    1.0000 </r>
       <r>  -13.7050    1.0000 </r>
       <r>   -7.9945    1.0000 </r>
       <r>   -7.9300    1.0000 </r>
       <r>   -7.6330    1.0000 </r>
       <r>   -7.5907    1.0000 </r>
       <r>   -7.4503    1.0000 </r>
       <r>   -7.4078    1.0000 </r>
       <r>   -7.3356    1.0000 </r>
       <r>   -7.2949    1.0000 </r>
       <r>   -7.2667    1.0000 </r>
       <r>   -7.2624    1.0000 </r>
       <r>   -7.2333    1.0000 </r>
       <r>   -7.2176    1.0000 </r>
       <r>   -7.2114    1.0000 </r>
       <r>   -7.1977    1.0000 </r>
       <r>   -7.1863    1.0000 </r>
       <r>   -7.1843    1.0000 </r>
       <r>   -7.1694    1.0000 </r>
       <r>   -7.1610    1.0000 </r>
       <r>   -7.1563    1.0000 </r>
       <r>   -7.1482    1.0000 </r>
       <r>   -7.1398    1.0000 </r>
       <r>   -7.1375    1.0000 </r>
       <r>   -7.1292    1.0000 </r>
       <r>   -7.1271    1.0000 </r>
       <r>   -7.1200    1.0000 </r>
       <r>   -7.1153    1.0000 </r>
       <r>   -7.1107    1.0000 </r>
       <r>   -7.1058    1.0000 </r>
       <r>   -7.0979    1.0000 </r>
       <r>   -7.0744    1.0000 </r>
       <r>   -7.0517    1.0000 </r>
       <r>   -6.8420    1.0000 </r>
       <r>   -3.2952    1.0000 </r>
       <r>   -3.2526    1.0000 </r>
       <r>   -3.2204    1.0000 </r>
       <r>   -3.2164    1.0000 </r>
       <r>   -3.1857    1.0000 </r>
       <r>   -3.1012    1.0000 </r>
       <r>   -3.0698    1.0000 </r>
       <r>   -2.9104    1.0000 </r>
       <r>   -2.6261    1.0000 </r>
       <r>   -2.5581    1.0000 </r>
       <r>   -2.5217    1.0000 </r>
       <r>   -2.4758    1.0000 </r>
       <r>   -2.4328    1.0000 </r>
       <r>   -2.4211    1.0000 </r>
       <r>   -2.3888    1.0000 </r>
       <r>   -2.3450    1.0000 </r>
       <r>   -2.2237    1.0000 </r>
       <r>   -2.1156    1.0000 </r>
       <r>   -2.0665    1.0000 </r>
       <r>   -2.0165    1.0000 </r>
       <r>   -2.0005    1.0000 </r>
       <r>   -1.9355    1.0000 </r>
       <r>   -1.9341    1.0000 </r>
       <r>   -1.8859    1.0000 </r>
       <r>   -1.8611    1.0000 </r>
       <r>   -1.7850    1.0000 </r>
       <r>   -1.7421    1.0000 </r>
       <r>   -1.7281    1.0000 </r>
       <r>   -1.6767    1.0000 </r>
       <r>   -1.6608    1.0000 </r>
       <r>   -1.5825    1.0000 </r>
       <r>   -1.5123    1.0000 </r>
       <r>   -1.5059    1.0000 </r>
       <r>   -1.4800    1.0000 </r>
       <r>   -1.4553    1.0000 </r>
       <r>   -1.4417    1.0000 </r>
       <r>   -1.4373    1.0000 </r>
       <r>   -1.4080    1.0000 </r>
       <r>   -1.4063    1.0000 </r>
       <r>   -1.3898    1.0000 </r>
       <r>   -1.3875    1.0000 </r>
       <r>   -1.3729    1.0000 </r>
       <r>   -1.3670    1.0000 </r>
       <r>   -1.3416    1.0000 </r>
       <r>   -1.3320    1.0000 </r>
       <r>   -1.3173    1.0000 </r>
       <r>   -1.3118    1.0000 </r>
       <r>   -1.2946    1.0000 </r>
       <r>   -1.2870    1.0000 </r>
       <r>   -1.2777    1.0000 </r>
       <r>   -1.2674    1.0000 </r>
       <r>   -1.2262    1.0000 </r>
       <r>   -1.2173    1.0000 </r>
       <r>   -1.1813    1.0000 </r>
       <r>   -1.1388    1.0000 </r>
       <r>   -1.1281    1.0000 </r>
       <r>   -1.1259    1.0000 </r>
       <r>   -1.1003    1.0000 </r>
       <r>   -1.0612    1.0000 </r>
       <r>   -1.0332    1.0000 </r>
       <r>   -0.9928    1.0000 </r>
       <r>   -0.9568    1.0000 </r>
       <r>   -0.8550    1.0000 </r>
       <r>   -0.8172    1.0000 </r>
       <r>   -0.5748    1.0000 </r>
       <r>   -0.5392    1.0000 </r>
       <r>   -0.4637    1.0000 </r>
       <r>   -0.2846    1.0000 </r>
       <r>    0.0425    1.0000 </r>
       <r>    2.7556    0.0000 </r>
       <r>    2.9420    0.0000 </r>
       <r>    2.9598    0.0000 </r>
       <r>    3.1234    0.0000 </r>
       <r>    3.1367    0.0000 </r>
       <r>    3.2836    0.0000 </r>
       <r>    3.3869    0.0000 </r>
       <r>    3.4007    0.0000 </r>
       <r>    4.0269    0.0000 </r>
       <r>    4.3072    0.0000 </r>
       <r>    4.3866    0.0000 </r>
       <r>    4.5643    0.0000 </r>
       <r>    4.6057    0.0000 </r>
       <r>    4.6480    0.0000 </r>
       <r>    4.7430    0.0000 </r>
       <r>    4.8324    0.0000 </r>
       <r>    4.9386    0.0000 </r>
       <r>    5.2637    0.0000 </r>
       <r>    5.5512    0.0000 </r>
       <r>    5.5766    0.0000 </r>
       <r>    5.7062    0.0000 </r>
       <r>    5.7878    0.0000 </r>
       <r>    5.8052    0.0000 </r>
       <r>    5.8375    0.0000 </r>
       <r>    6.0761    0.0000 </r>
       <r>    6.0950    0.0000 </r>
       <r>    6.1782    0.0000 </r>
       <r>    6.2068    0.0000 </r>
       <r>    6.2615    0.0000 </r>
       <r>    6.3195    0.0000 </r>
       <r>    6.3344    0.0000 </r>
       <r>    6.4166    0.0000 </r>
       <r>    6.5294    0.0000 </r>
       <r>    6.5897    0.0000 </r>
       <r>    6.6262    0.0000 </r>
       <r>    6.6523    0.0000 </r>
      </set>
      <set comment="kpoint 4">
       <r>  -20.9015    1.0000 </r>
       <r>  -20.8227    1.0000 </r>
       <r>  -20.8076    1.0000 </r>
       <r>  -20.7698    1.0000 </r>
       <r>  -20.7424    1.0000 </r>
       <r>  -20.7329    1.0000 </r>
       <r>  -20.7181    1.0000 </r>
       <r>  -20.6883    1.0000 </r>
       <r>  -16.7018    1.0000 </r>
       <r>  -16.6909    1.0000 </r>
       <r>  -16.6750    1.0000 </r>
       <r>  -16.6741    1.0000 </r>
       <r>  -16.6476    1.0000 </r>
       <r>  -16.6073    1.0000 </r>
       <r>  -16.6027    1.0000 </r>
       <r>  -16.5923    1.0000 </r>
       <r>  -16.5880    1.0000 </r>
       <r>  -16.5557    1.0000 </r>
       <r>  -16.5541    1.0000 </r>
       <r>  -16.4643    1.0000 </r>
       <r>  -16.4490    1.0000 </r>
       <r>  -16.4275    1.0000 </r>
       <r>  -16.4122    1.0000 </r>
       <r>  -16.4074    1.0000 </r>
       <r>  -16.4016    1.0000 </r>
       <r>  -16.3977    1.0000 </r>
       <r>  -16.3890    1.0000 </r>
       <r>  -16.3661    1.0000 </r>
       <r>  -16.3589    1.0000 </r>
       <r>  -16.3527    1.0000 </r>
       <r>  -16.3434    1.0000 </r>
       <r>  -16.3380    1.0000 </r>
       <r>  -16.3315    1.0000 </r>
       <r>  -16.3242    1.0000 </r>
       <r>  -16.3217    1.0000 </r>
       <r>  -16.2900    1.0000 </r>
       <r>  -16.2845    1.0000 </r>
       <r>  -16.2841    1.0000 </r>
       <r>  -16.2781    1.0000 </r>
       <r>  -16.2747    1.0000 </r>
       <r>  -16.2683    1.0000 </r>
       <r>  -16.2676    1.0000 </r>
       <r>  -16.2653    1.0000 </r>
       <r>  -16.2583    1.0000 </r>
       <r>  -16.2293    1.0000 </r>
       <r>  -16.2239    1.0000 </r>
       <r>  -16.2183    1.0000 </r>
       <r>  -16.2093    1.0000 </r>
       <r>  -14.4917    1.0000 </r>
       <r>  -14.3722    1.0000 </r>
       <r>  -14.3175    1.0000 </r>
       <r>  -14.2732    1.0000 </r>
       <r>  -14.2335    1.0000 </r>
       <r>  -14.2034    1.0000 </r>
       <r>  -14.1383    1.0000 </r>
       <r>  -14.0992    1.0000 </r>
       <r>  -14.0590    1.0000 </r>
       <r>  -14.0563    1.0000 </r>
       <r>  -14.0484    1.0000 </r>
       <r>  -14.0317    1.0000 </r>
       <r>  -13.9668    1.0000 </r>
       <r>  -13.9276    1.0000 </r>
       <r>  -13.9257    1.0000 </r>
       <r>  -13.9175    1.0000 </r>
       <r>  -13.9110    1.0000 </r>
       <r>  -13.8789    1.0000 </r>
       <r>  -13.8583    1.0000 </r>
       <r>  -13.8054    1.0000 </r>
       <r>  -13.7914    1.0000 </r>
       <r>  -13.7776    1.0000 </r>
       <r>  -13.7505    1.0000 </r>
       <r>   -7.8877    1.0000 </r>
       <r>   -7.7595    1.0000 </r>
       <r>   -7.7238    1.0000 </r>
       <r>   -7.6785    1.0000 </r>
       <r>   -7.4844    1.0000 </r>
       <r>   -7.3455    1.0000 </r>
       <r>   -7.3118    1.0000 </r>
       <r>   -7.2856    1.0000 </r>
       <r>   -7.2746    1.0000 </r>
       <r>   -7.2520    1.0000 </r>
       <r>   -7.2349    1.0000 </r>
       <r>   -7.2272    1.0000 </r>
       <r>   -7.2123    1.0000 </r>
       <r>   -7.2110    1.0000 </r>
       <r>   -7.2006    1.0000 </r>
       <r>   -7.1883    1.0000 </r>
       <r>   -7.1789    1.0000 </r>
       <r>   -7.1717    1.0000 </r>
       <r>   -7.1529    1.0000 </r>
       <r>   -7.1513    1.0000 </r>
       <r>   -7.1448    1.0000 </r>
       <r>   -7.1397    1.0000 </r>
       <r>   -7.1315    1.0000 </r>
       <r>   -7.1290    1.0000 </r>
       <r>   -7.1239    1.0000 </r>
       <r>   -7.1185    1.0000 </r>
       <r>   -7.1154    1.0000 </r>
       <r>   -7.1058    1.0000 </r>
       <r>   -7.0992    1.0000 </r>
       <r>   -7.0847    1.0000 </r>
       <r>   -7.0665    1.0000 </r>
       <r>   -7.0593    1.0000 </r>
       <r>   -3.2746    1.0000 </r>
       <r>   -3.1994    1.0000 </r>
       <r>   -3.1952    1.0000 </r>
       <r>   -3.1368    1.0000 </r>
       <r>   -2.9456    1.0000 </r>
       <r>   -2.7150    1.0000 </r>
       <r>   -2.6730    1.0000 </r>
       <r>   -2.6493    1.0000 </r>
       <r>   -2.5977    1.0000 </r>
       <r>   -2.5887    1.0000 </r>
       <r>   -2.5576    1.0000 </r>
       <r>   -2.4436    1.0000 </r>
       <r>   -2.3709    1.0000 </r>
       <r>   -2.3594    1.0000 </r>
       <r>   -2.3572    1.0000 </r>
       <r>   -2.3227    1.0000 </r>
       <r>   -2.3067    1.0000 </r>
       <r>   -2.2747    1.0000 </r>
       <r>   -2.2536    1.0000 </r>
       <r>   -2.1796    1.0000 </r>
       <r>   -2.0286    1.0000 </r>
       <r>   -2.0224    1.0000 </r>
       <r>   -1.9831    1.0000 </r>
       <r>   -1.9083    1.0000 </r>
       <r>   -1.8540    1.0000 </r>
       <r>   -1.7777    1.0000 </r>
       <r>   -1.7716    1.0000 </r>
       <r>   -1.7423    1.0000 </r>
       <r>   -1.7183    1.0000 </r>
       <r>   -1.6902    1.0000 </r>
       <r>   -1.6568    1.0000 </r>
       <r>   -1.6265    1.0000 </r>
       <r>   -1.6114    1.0000 </r>
       <r>   -1.5721    1.0000 </r>
       <r>   -1.5480    1.0000 </r>
       <r>   -1.5134    1.0000 </r>
       <r>   -1.5049    1.0000 </r>
       <r>   -1.4824    1.0000 </r>
       <r>   -1.4439    1.0000 </r>
       <r>   -1.4110    1.0000 </r>
       <r>   -1.3843    1.0000 </r>
       <r>   -1.3770    1.0000 </r>
       <r>   -1.3604    1.0000 </r>
       <r>   -1.3454    1.0000 </r>
       <r>   -1.3233    1.0000 </r>
       <r>   -1.3009    1.0000 </r>
       <r>   -1.2882    1.0000 </r>
       <r>   -1.2684    1.0000 </r>
       <r>   -1.2537    1.0000 </r>
       <r>   -1.2142    1.0000 </r>
       <r>   -1.2073    1.0000 </r>
       <r>   -1.1855    1.0000 </r>
       <r>   -1.1835    1.0000 </r>
       <r>   -1.1541    1.0000 </r>
       <r>   -1.1397    1.0000 </r>
       <r>   -1.1335    1.0000 </r>
       <r>   -1.1203    1.0000 </r>
       <r>   -1.0958    1.0000 </r>
       <r>   -1.0772    1.0000 </r>
       <r>   -1.0481    1.0000 </r>
       <r>   -0.9975    1.0000 </r>
       <r>   -0.9601    1.0000 </r>
       <r>   -0.9485    1.0000 </r>
       <r>   -0.8666    1.0000 </r>
       <r>   -0.8120    1.0000 </r>
       <r>   -0.6223    1.0000 </r>
       <r>   -0.4443    1.0000 </r>
       <r>   -0.3826    1.0000 </r>
       <r>   -0.3523    1.0000 </r>
       <r>    2.7490    0.0000 </r>
       <r>    3.0319    0.0000 </r>
       <r>    3.1839    0.0000 </r>
       <r>    3.2243    0.0000 </r>
       <r>    3.2997    0.0000 </r>
       <r>    3.9926    0.0000 </r>
       <r>    4.3461    0.0000 </r>
       <r>    4.3761    0.0000 </r>
       <r>    4.3829    0.0000 </r>
       <r>    4.4246    0.0000 </r>
       <r>    4.4649    0.0000 </r>
       <r>    4.4986    0.0000 </r>
       <r>    4.5225    0.0000 </r>
       <r>    4.5773    0.0000 </r>
       <r>    4.7231    0.0000 </r>
       <r>    4.7471    0.0000 </r>
       <r>    4.7700    0.0000 </r>
       <r>    4.8297    0.0000 </r>
       <r>    4.8524    0.0000 </r>
       <r>    4.9008    0.0000 </r>
       <r>    5.2267    0.0000 </r>
       <r>    5.5514    0.0000 </r>
       <r>    5.7238    0.0000 </r>
       <r>    5.9099    0.0000 </r>
       <r>    5.9606    0.0000 </r>
       <r>    5.9970    0.0000 </r>
       <r>    6.0532    0.0000 </r>
       <r>    6.0739    0.0000 </r>
       <r>    6.2555    0.0000 </r>
       <r>    6.2678    0.0000 </r>
       <r>    6.3068    0.0000 </r>
       <r>    6.3671    0.0000 </r>
       <r>    6.4299    0.0000 </r>
       <r>    6.4754    0.0000 </r>
       <r>    6.4879    0.0000 </r>
       <r>    6.6249    0.0000 </r>
      </set>
      <set comment="kpoint 5">
       <r>  -20.9015    1.0000 </r>
       <r>  -20.8227    1.0000 </r>
       <r>  -20.8077    1.0000 </r>
       <r>  -20.7698    1.0000 </r>
       <r>  -20.7424    1.0000 </r>
       <r>  -20.7329    1.0000 </r>
       <r>  -20.7180    1.0000 </r>
       <r>  -20.6883    1.0000 </r>
       <r>  -16.7029    1.0000 </r>
       <r>  -16.6930    1.0000 </r>
       <r>  -16.6787    1.0000 </r>
       <r>  -16.6739    1.0000 </r>
       <r>  -16.6474    1.0000 </r>
       <r>  -16.6074    1.0000 </r>
       <r>  -16.6027    1.0000 </r>
       <r>  -16.5923    1.0000 </r>
       <r>  -16.5880    1.0000 </r>
       <r>  -16.5557    1.0000 </r>
       <r>  -16.5541    1.0000 </r>
       <r>  -16.4774    1.0000 </r>
       <r>  -16.4491    1.0000 </r>
       <r>  -16.4230    1.0000 </r>
       <r>  -16.4196    1.0000 </r>
       <r>  -16.4085    1.0000 </r>
       <r>  -16.3988    1.0000 </r>
       <r>  -16.3942    1.0000 </r>
       <r>  -16.3772    1.0000 </r>
       <r>  -16.3665    1.0000 </r>
       <r>  -16.3557    1.0000 </r>
       <r>  -16.3527    1.0000 </r>
       <r>  -16.3434    1.0000 </r>
       <r>  -16.3380    1.0000 </r>
       <r>  -16.3323    1.0000 </r>
       <r>  -16.3222    1.0000 </r>
       <r>  -16.3164    1.0000 </r>
       <r>  -16.2900    1.0000 </r>
       <r>  -16.2845    1.0000 </r>
       <r>  -16.2841    1.0000 </r>
       <r>  -16.2781    1.0000 </r>
       <r>  -16.2746    1.0000 </r>
       <r>  -16.2684    1.0000 </r>
       <r>  -16.2675    1.0000 </r>
       <r>  -16.2653    1.0000 </r>
       <r>  -16.2583    1.0000 </r>
       <r>  -16.2293    1.0000 </r>
       <r>  -16.2239    1.0000 </r>
       <r>  -16.2183    1.0000 </r>
       <r>  -16.2093    1.0000 </r>
       <r>  -14.4850    1.0000 </r>
       <r>  -14.3755    1.0000 </r>
       <r>  -14.3528    1.0000 </r>
       <r>  -14.2558    1.0000 </r>
       <r>  -14.1772    1.0000 </r>
       <r>  -14.1445    1.0000 </r>
       <r>  -14.1152    1.0000 </r>
       <r>  -14.0983    1.0000 </r>
       <r>  -14.0874    1.0000 </r>
       <r>  -14.0726    1.0000 </r>
       <r>  -14.0511    1.0000 </r>
       <r>  -14.0460    1.0000 </r>
       <r>  -14.0411    1.0000 </r>
       <r>  -13.9804    1.0000 </r>
       <r>  -13.9399    1.0000 </r>
       <r>  -13.9269    1.0000 </r>
       <r>  -13.9212    1.0000 </r>
       <r>  -13.8708    1.0000 </r>
       <r>  -13.8578    1.0000 </r>
       <r>  -13.8179    1.0000 </r>
       <r>  -13.7724    1.0000 </r>
       <r>  -13.7614    1.0000 </r>
       <r>  -13.6893    1.0000 </r>
       <r>   -8.0516    1.0000 </r>
       <r>   -7.9615    1.0000 </r>
       <r>   -7.6524    1.0000 </r>
       <r>   -7.5104    1.0000 </r>
       <r>   -7.4616    1.0000 </r>
       <r>   -7.4353    1.0000 </r>
       <r>   -7.3301    1.0000 </r>
       <r>   -7.2932    1.0000 </r>
       <r>   -7.2662    1.0000 </r>
       <r>   -7.2587    1.0000 </r>
       <r>   -7.2252    1.0000 </r>
       <r>   -7.2202    1.0000 </r>
       <r>   -7.2075    1.0000 </r>
       <r>   -7.1997    1.0000 </r>
       <r>   -7.1924    1.0000 </r>
       <r>   -7.1832    1.0000 </r>
       <r>   -7.1707    1.0000 </r>
       <r>   -7.1616    1.0000 </r>
       <r>   -7.1518    1.0000 </r>
       <r>   -7.1483    1.0000 </r>
       <r>   -7.1392    1.0000 </r>
       <r>   -7.1369    1.0000 </r>
       <r>   -7.1290    1.0000 </r>
       <r>   -7.1244    1.0000 </r>
       <r>   -7.1232    1.0000 </r>
       <r>   -7.1094    1.0000 </r>
       <r>   -7.1058    1.0000 </r>
       <r>   -7.0994    1.0000 </r>
       <r>   -7.0859    1.0000 </r>
       <r>   -7.0791    1.0000 </r>
       <r>   -6.9286    1.0000 </r>
       <r>   -6.8492    1.0000 </r>
       <r>   -3.3603    1.0000 </r>
       <r>   -3.3316    1.0000 </r>
       <r>   -3.3015    1.0000 </r>
       <r>   -3.2597    1.0000 </r>
       <r>   -3.2104    1.0000 </r>
       <r>   -3.1959    1.0000 </r>
       <r>   -3.1200    1.0000 </r>
       <r>   -3.0569    1.0000 </r>
       <r>   -2.9114    1.0000 </r>
       <r>   -2.5686    1.0000 </r>
       <r>   -2.5092    1.0000 </r>
       <r>   -2.4492    1.0000 </r>
       <r>   -2.4276    1.0000 </r>
       <r>   -2.3810    1.0000 </r>
       <r>   -2.3396    1.0000 </r>
       <r>   -2.1621    1.0000 </r>
       <r>   -2.1049    1.0000 </r>
       <r>   -2.0765    1.0000 </r>
       <r>   -2.0449    1.0000 </r>
       <r>   -2.0259    1.0000 </r>
       <r>   -2.0013    1.0000 </r>
       <r>   -1.9261    1.0000 </r>
       <r>   -1.8847    1.0000 </r>
       <r>   -1.8414    1.0000 </r>
       <r>   -1.8095    1.0000 </r>
       <r>   -1.7833    1.0000 </r>
       <r>   -1.7406    1.0000 </r>
       <r>   -1.6751    1.0000 </r>
       <r>   -1.6445    1.0000 </r>
       <r>   -1.6061    1.0000 </r>
       <r>   -1.5682    1.0000 </r>
       <r>   -1.5373    1.0000 </r>
       <r>   -1.5209    1.0000 </r>
       <r>   -1.4871    1.0000 </r>
       <r>   -1.4669    1.0000 </r>
       <r>   -1.4588    1.0000 </r>
       <r>   -1.4548    1.0000 </r>
       <r>   -1.4386    1.0000 </r>
       <r>   -1.4211    1.0000 </r>
       <r>   -1.4091    1.0000 </r>
       <r>   -1.3833    1.0000 </r>
       <r>   -1.3786    1.0000 </r>
       <r>   -1.3698    1.0000 </r>
       <r>   -1.3578    1.0000 </r>
       <r>   -1.3417    1.0000 </r>
       <r>   -1.3272    1.0000 </r>
       <r>   -1.3073    1.0000 </r>
       <r>   -1.2961    1.0000 </r>
       <r>   -1.2552    1.0000 </r>
       <r>   -1.2376    1.0000 </r>
       <r>   -1.2232    1.0000 </r>
       <r>   -1.2060    1.0000 </r>
       <r>   -1.1987    1.0000 </r>
       <r>   -1.1871    1.0000 </r>
       <r>   -1.1738    1.0000 </r>
       <r>   -1.1567    1.0000 </r>
       <r>   -1.1069    1.0000 </r>
       <r>   -1.1007    1.0000 </r>
       <r>   -1.0675    1.0000 </r>
       <r>   -1.0565    1.0000 </r>
       <r>   -0.9985    1.0000 </r>
       <r>   -0.8990    1.0000 </r>
       <r>   -0.8561    1.0000 </r>
       <r>   -0.6798    1.0000 </r>
       <r>   -0.5908    1.0000 </r>
       <r>   -0.5328    1.0000 </r>
       <r>   -0.3616    1.0000 </r>
       <r>   -0.0282    1.0000 </r>
       <r>    0.1152    1.0000 </r>
       <r>    2.5133    0.0000 </r>
       <r>    2.9139    0.0000 </r>
       <r>    2.9410    0.0000 </r>
       <r>    2.9740    0.0000 </r>
       <r>    3.1606    0.0000 </r>
       <r>    3.2752    0.0000 </r>
       <r>    3.3302    0.0000 </r>
       <r>    3.3586    0.0000 </r>
       <r>    3.4379    0.0000 </r>
       <r>    3.9569    0.0000 </r>
       <r>    4.2561    0.0000 </r>
       <r>    4.3494    0.0000 </r>
       <r>    4.5526    0.0000 </r>
       <r>    4.6222    0.0000 </r>
       <r>    4.8016    0.0000 </r>
       <r>    4.8257    0.0000 </r>
       <r>    5.3730    0.0000 </r>
       <r>    5.4737    0.0000 </r>
       <r>    5.6252    0.0000 </r>
       <r>    5.7311    0.0000 </r>
       <r>    5.8337    0.0000 </r>
       <r>    5.9004    0.0000 </r>
       <r>    5.9464    0.0000 </r>
       <r>    6.0409    0.0000 </r>
       <r>    6.0940    0.0000 </r>
       <r>    6.1085    0.0000 </r>
       <r>    6.1719    0.0000 </r>
       <r>    6.2307    0.0000 </r>
       <r>    6.2821    0.0000 </r>
       <r>    6.3131    0.0000 </r>
       <r>    6.3390    0.0000 </r>
       <r>    6.4359    0.0000 </r>
       <r>    6.4670    0.0000 </r>
       <r>    6.5098    0.0000 </r>
       <r>    6.5535    0.0000 </r>
       <r>    6.6338    0.0000 </r>
      </set>
      <set comment="kpoint 6">
       <r>  -20.9015    1.0000 </r>
       <r>  -20.8227    1.0000 </r>
       <r>  -20.8076    1.0000 </r>
       <r>  -20.7698    1.0000 </r>
       <r>  -20.7424    1.0000 </r>
       <r>  -20.7328    1.0000 </r>
       <r>  -20.7180    1.0000 </r>
       <r>  -20.6883    1.0000 </r>
       <r>  -16.7026    1.0000 </r>
       <r>  -16.6925    1.0000 </r>
       <r>  -16.6761    1.0000 </r>
       <r>  -16.6738    1.0000 </r>
       <r>  -16.6479    1.0000 </r>
       <r>  -16.6073    1.0000 </r>
       <r>  -16.6027    1.0000 </r>
       <r>  -16.5923    1.0000 </r>
       <r>  -16.5880    1.0000 </r>
       <r>  -16.5557    1.0000 </r>
       <r>  -16.5541    1.0000 </r>
       <r>  -16.4779    1.0000 </r>
       <r>  -16.4517    1.0000 </r>
       <r>  -16.4195    1.0000 </r>
       <r>  -16.4080    1.0000 </r>
       <r>  -16.4016    1.0000 </r>
       <r>  -16.3904    1.0000 </r>
       <r>  -16.3882    1.0000 </r>
       <r>  -16.3832    1.0000 </r>
       <r>  -16.3760    1.0000 </r>
       <r>  -16.3665    1.0000 </r>
       <r>  -16.3527    1.0000 </r>
       <r>  -16.3434    1.0000 </r>
       <r>  -16.3380    1.0000 </r>
       <r>  -16.3377    1.0000 </r>
       <r>  -16.3236    1.0000 </r>
       <r>  -16.3215    1.0000 </r>
       <r>  -16.2900    1.0000 </r>
       <r>  -16.2845    1.0000 </r>
       <r>  -16.2841    1.0000 </r>
       <r>  -16.2781    1.0000 </r>
       <r>  -16.2746    1.0000 </r>
       <r>  -16.2683    1.0000 </r>
       <r>  -16.2676    1.0000 </r>
       <r>  -16.2654    1.0000 </r>
       <r>  -16.2583    1.0000 </r>
       <r>  -16.2293    1.0000 </r>
       <r>  -16.2239    1.0000 </r>
       <r>  -16.2183    1.0000 </r>
       <r>  -16.2094    1.0000 </r>
       <r>  -14.4821    1.0000 </r>
       <r>  -14.3750    1.0000 </r>
       <r>  -14.3369    1.0000 </r>
       <r>  -14.2795    1.0000 </r>
       <r>  -14.1944    1.0000 </r>
       <r>  -14.1663    1.0000 </r>
       <r>  -14.1206    1.0000 </r>
       <r>  -14.1151    1.0000 </r>
       <r>  -14.0978    1.0000 </r>
       <r>  -14.0853    1.0000 </r>
       <r>  -14.0730    1.0000 </r>
       <r>  -14.0205    1.0000 </r>
       <r>  -14.0039    1.0000 </r>
       <r>  -13.9263    1.0000 </r>
       <r>  -13.9242    1.0000 </r>
       <r>  -13.8945    1.0000 </r>
       <r>  -13.8728    1.0000 </r>
       <r>  -13.8663    1.0000 </r>
       <r>  -13.8366    1.0000 </r>
       <r>  -13.8321    1.0000 </r>
       <r>  -13.8201    1.0000 </r>
       <r>  -13.8096    1.0000 </r>
       <r>  -13.7040    1.0000 </r>
       <r>   -7.9358    1.0000 </r>
       <r>   -7.8264    1.0000 </r>
       <r>   -7.7652    1.0000 </r>
       <r>   -7.6954    1.0000 </r>
       <r>   -7.3481    1.0000 </r>
       <r>   -7.3136    1.0000 </r>
       <r>   -7.3003    1.0000 </r>
       <r>   -7.2910    1.0000 </r>
       <r>   -7.2661    1.0000 </r>
       <r>   -7.2493    1.0000 </r>
       <r>   -7.2487    1.0000 </r>
       <r>   -7.2211    1.0000 </r>
[...]
        <r>  0.0001  0.0016  0.0002 </r>
        <r>  0.0002  0.0016  0.0008 </r>
        <r>  0.0013  0.0024  0.0007 </r>
        <r>  0.0002  0.0005  0.0010 </r>
        <r>  0.0014  0.0010  0.0009 </r>
        <r>  0.0001  0.0042  0.0008 </r>
        <r>  0.0035  0.0066  0.0010 </r>
        <r>  0.0000  0.0026  0.0004 </r>
        <r>  0.0001  0.0018  0.0004 </r>
       </set>
       <set comment="band 199">
        <r>  0.0053  0.0011  0.0077 </r>
        <r>  0.0008  0.0001  0.0089 </r>
        <r>  0.0009  0.0009  0.0098 </r>
        <r>  0.0038  0.0006  0.0032 </r>
        <r>  0.0007  0.0006  0.0064 </r>
        <r>  0.0052  0.0016  0.0072 </r>
        <r>  0.0010  0.0004  0.0029 </r>
        <r>  0.0012  0.0010  0.0104 </r>
        <r>  0.0000  0.0005  0.0000 </r>
        <r>  0.0000  0.0054  0.0001 </r>
        <r>  0.0000  0.0013  0.0003 </r>
        <r>  0.0000  0.0018  0.0002 </r>
        <r>  0.0002  0.0066  0.0007 </r>
        <r>  0.0002  0.0083  0.0005 </r>
        <r>  0.0000  0.0034  0.0005 </r>
        <r>  0.0003  0.0070  0.0014 </r>
        <r>  0.0011  0.0002  0.0018 </r>
        <r>  0.0002  0.0023  0.0018 </r>
        <r>  0.0002  0.0010  0.0007 </r>
        <r>  0.0000  0.0068  0.0008 </r>
        <r>  0.0000  0.0012  0.0001 </r>
        <r>  0.0001  0.0052  0.0009 </r>
        <r>  0.0000  0.0007  0.0018 </r>
        <r>  0.0020  0.0007  0.0025 </r>
        <r>  0.0000  0.0016  0.0003 </r>
        <r>  0.0001  0.0021  0.0015 </r>
        <r>  0.0001  0.0004  0.0004 </r>
        <r>  0.0001  0.0028  0.0005 </r>
        <r>  0.0002  0.0018  0.0003 </r>
        <r>  0.0000  0.0012  0.0002 </r>
        <r>  0.0003  0.0002  0.0011 </r>
        <r>  0.0013  0.0027  0.0005 </r>
        <r>  0.0000  0.0011  0.0014 </r>
        <r>  0.0001  0.0010  0.0002 </r>
        <r>  0.0000  0.0015  0.0002 </r>
        <r>  0.0035  0.0019  0.0016 </r>
        <r>  0.0007  0.0024  0.0011 </r>
        <r>  0.0041  0.0032  0.0034 </r>
        <r>  0.0000  0.0028  0.0017 </r>
       </set>
       <set comment="band 200">
        <r>  0.0001  0.0002  0.0038 </r>
        <r>  0.0001  0.0007  0.0051 </r>
        <r>  0.0002  0.0011  0.0075 </r>
        <r>  0.0087  0.0003  0.0113 </r>
        <r>  0.0009  0.0002  0.0032 </r>
        <r>  0.0038  0.0009  0.0041 </r>
        <r>  0.0052  0.0016  0.0134 </r>
        <r>  0.0017  0.0009  0.0081 </r>
        <r>  0.0000  0.0050  0.0000 </r>
        <r>  0.0000  0.0018  0.0002 </r>
        <r>  0.0000  0.0006  0.0001 </r>
        <r>  0.0000  0.0019  0.0001 </r>
        <r>  0.0000  0.0213  0.0002 </r>
        <r>  0.0000  0.0057  0.0002 </r>
        <r>  0.0000  0.0023  0.0004 </r>
        <r>  0.0000  0.0077  0.0001 </r>
        <r>  0.0004  0.0035  0.0028 </r>
        <r>  0.0003  0.0041  0.0006 </r>
        <r>  0.0002  0.0037  0.0008 </r>
        <r>  0.0003  0.0008  0.0008 </r>
        <r>  0.0021  0.0010  0.0018 </r>
        <r>  0.0001  0.0038  0.0029 </r>
        <r>  0.0002  0.0018  0.0010 </r>
        <r>  0.0001  0.0014  0.0002 </r>
        <r>  0.0006  0.0035  0.0014 </r>
        <r>  0.0018  0.0011  0.0017 </r>
        <r>  0.0002  0.0016  0.0016 </r>
        <r>  0.0000  0.0018  0.0004 </r>
        <r>  0.0003  0.0021  0.0003 </r>
        <r>  0.0001  0.0017  0.0009 </r>
        <r>  0.0000  0.0006  0.0004 </r>
        <r>  0.0013  0.0002  0.0013 </r>
        <r>  0.0002  0.0009  0.0006 </r>
        <r>  0.0010  0.0021  0.0012 </r>
        <r>  0.0021  0.0040  0.0024 </r>
        <r>  0.0004  0.0010  0.0009 </r>
        <r>  0.0000  0.0021  0.0009 </r>
        <r>  0.0007  0.0054  0.0004 </r>
        <r>  0.0014  0.0012  0.0010 </r>
       </set>
       <set comment="band 201">
        <r>  0.0081  0.0004  0.0070 </r>
        <r>  0.0010  0.0003  0.0030 </r>
        <r>  0.0033  0.0003  0.0055 </r>
        <r>  0.0000  0.0009  0.0036 </r>
        <r>  0.0095  0.0012  0.0041 </r>
        <r>  0.0004  0.0009  0.0042 </r>
        <r>  0.0011  0.0002  0.0062 </r>
        <r>  0.0025  0.0007  0.0122 </r>
        <r>  0.0000  0.0056  0.0000 </r>
        <r>  0.0001  0.0082  0.0000 </r>
        <r>  0.0000  0.0036  0.0001 </r>
        <r>  0.0000  0.0034  0.0001 </r>
        <r>  0.0000  0.0148  0.0004 </r>
        <r>  0.0000  0.0048  0.0003 </r>
        <r>  0.0000  0.0036  0.0001 </r>
        <r>  0.0000  0.0141  0.0002 </r>
        <r>  0.0001  0.0047  0.0006 </r>
        <r>  0.0001  0.0026  0.0008 </r>
        <r>  0.0007  0.0023  0.0006 </r>
        <r>  0.0002  0.0041  0.0007 </r>
        <r>  0.0001  0.0025  0.0005 </r>
        <r>  0.0010  0.0007  0.0011 </r>
        <r>  0.0008  0.0008  0.0009 </r>
        <r>  0.0005  0.0021  0.0014 </r>
        <r>  0.0019  0.0018  0.0033 </r>
        <r>  0.0001  0.0015  0.0002 </r>
        <r>  0.0002  0.0045  0.0006 </r>
        <r>  0.0001  0.0045  0.0010 </r>
        <r>  0.0001  0.0057  0.0002 </r>
        <r>  0.0001  0.0022  0.0008 </r>
        <r>  0.0023  0.0011  0.0020 </r>
        <r>  0.0011  0.0008  0.0008 </r>
        <r>  0.0030  0.0019  0.0023 </r>
        <r>  0.0007  0.0012  0.0005 </r>
        <r>  0.0000  0.0061  0.0010 </r>
        <r>  0.0004  0.0008  0.0033 </r>
        <r>  0.0008  0.0010  0.0014 </r>
        <r>  0.0003  0.0018  0.0017 </r>
        <r>  0.0008  0.0022  0.0017 </r>
       </set>
       <set comment="band 202">
        <r>  0.0015  0.0008  0.0139 </r>
        <r>  0.0006  0.0012  0.0117 </r>
        <r>  0.0019  0.0009  0.0148 </r>
        <r>  0.0002  0.0003  0.0074 </r>
        <r>  0.0012  0.0007  0.0074 </r>
        <r>  0.0003  0.0003  0.0185 </r>
        <r>  0.0003  0.0009  0.0051 </r>
        <r>  0.0000  0.0004  0.0144 </r>
        <r>  0.0000  0.0006  0.0002 </r>
        <r>  0.0000  0.0004  0.0002 </r>
        <r>  0.0000  0.0031  0.0003 </r>
        <r>  0.0001  0.0083  0.0007 </r>
        <r>  0.0001  0.0023  0.0005 </r>
        <r>  0.0001  0.0028  0.0008 </r>
        <r>  0.0000  0.0079  0.0002 </r>
        <r>  0.0000  0.0072  0.0009 </r>
        <r>  0.0000  0.0010  0.0006 </r>
        <r>  0.0005  0.0050  0.0023 </r>
        <r>  0.0001  0.0016  0.0017 </r>
        <r>  0.0005  0.0029  0.0015 </r>
        <r>  0.0005  0.0022  0.0015 </r>
        <r>  0.0001  0.0034  0.0015 </r>
        <r>  0.0012  0.0014  0.0021 </r>
        <r>  0.0004  0.0051  0.0016 </r>
        <r>  0.0003  0.0009  0.0014 </r>
        <r>  0.0006  0.0016  0.0010 </r>
        <r>  0.0001  0.0018  0.0006 </r>
        <r>  0.0003  0.0007  0.0009 </r>
        <r>  0.0003  0.0001  0.0017 </r>
        <r>  0.0011  0.0003  0.0009 </r>
        <r>  0.0000  0.0003  0.0004 </r>
        <r>  0.0000  0.0016  0.0011 </r>
        <r>  0.0000  0.0002  0.0007 </r>
        <r>  0.0000  0.0003  0.0006 </r>
        <r>  0.0002  0.0025  0.0008 </r>
        <r>  0.0009  0.0007  0.0006 </r>
        <r>  0.0005  0.0003  0.0007 </r>
        <r>  0.0007  0.0045  0.0018 </r>
        <r>  0.0002  0.0004  0.0026 </r>
       </set>
       <set comment="band 203">
        <r>  0.0000  0.0003  0.0079 </r>
        <r>  0.0001  0.0012  0.0078 </r>
        <r>  0.0025  0.0005  0.0075 </r>
        <r>  0.0010  0.0011  0.0080 </r>
        <r>  0.0038  0.0006  0.0164 </r>
        <r>  0.0012  0.0003  0.0135 </r>
        <r>  0.0091  0.0005  0.0024 </r>
        <r>  0.0010  0.0009  0.0044 </r>
        <r>  0.0000  0.0011  0.0002 </r>
        <r>  0.0000  0.0046  0.0002 </r>
        <r>  0.0000  0.0005  0.0003 </r>
        <r>  0.0000  0.0053  0.0004 </r>
        <r>  0.0000  0.0060  0.0002 </r>
        <r>  0.0000  0.0067  0.0007 </r>
        <r>  0.0000  0.0074  0.0002 </r>
        <r>  0.0000  0.0067  0.0004 </r>
        <r>  0.0010  0.0026  0.0017 </r>
        <r>  0.0011  0.0010  0.0015 </r>
        <r>  0.0005  0.0035  0.0016 </r>
        <r>  0.0000  0.0019  0.0005 </r>
        <r>  0.0002  0.0009  0.0015 </r>
        <r>  0.0028  0.0004  0.0028 </r>
        <r>  0.0010  0.0028  0.0016 </r>
        <r>  0.0008  0.0037  0.0029 </r>
        <r>  0.0000  0.0027  0.0006 </r>
        <r>  0.0021  0.0010  0.0029 </r>
        <r>  0.0014  0.0004  0.0020 </r>
        <r>  0.0005  0.0013  0.0006 </r>
        <r>  0.0004  0.0018  0.0007 </r>
        <r>  0.0000  0.0013  0.0003 </r>
        <r>  0.0001  0.0008  0.0008 </r>
        <r>  0.0003  0.0012  0.0002 </r>
        <r>  0.0002  0.0018  0.0006 </r>
        <r>  0.0000  0.0030  0.0003 </r>
        <r>  0.0000  0.0007  0.0006 </r>
        <r>  0.0000  0.0100  0.0006 </r>
        <r>  0.0007  0.0017  0.0005 </r>
        <r>  0.0006  0.0021  0.0010 </r>
        <r>  0.0000  0.0005  0.0009 </r>
       </set>
       <set comment="band 204">
        <r>  0.0020  0.0015  0.0122 </r>
        <r>  0.0065  0.0004  0.0022 </r>
        <r>  0.0027  0.0006  0.0010 </r>
        <r>  0.0009  0.0004  0.0089 </r>
        <r>  0.0034  0.0005  0.0153 </r>
        <r>  0.0008  0.0010  0.0113 </r>
        <r>  0.0010  0.0007  0.0044 </r>
        <r>  0.0022  0.0002  0.0030 </r>
        <r>  0.0000  0.0155  0.0002 </r>
        <r>  0.0000  0.0045  0.0001 </r>
        <r>  0.0000  0.0034  0.0001 </r>
        <r>  0.0000  0.0002  0.0003 </r>
        <r>  0.0001  0.0043  0.0001 </r>
        <r>  0.0000  0.0087  0.0002 </r>
        <r>  0.0000  0.0011  0.0002 </r>
        <r>  0.0000  0.0137  0.0005 </r>
        <r>  0.0000  0.0021  0.0009 </r>
        <r>  0.0016  0.0024  0.0016 </r>
        <r>  0.0026  0.0015  0.0033 </r>
        <r>  0.0007  0.0003  0.0030 </r>
        <r>  0.0005  0.0033  0.0009 </r>
        <r>  0.0000  0.0040  0.0003 </r>
        <r>  0.0008  0.0024  0.0023 </r>
        <r>  0.0007  0.0061  0.0013 </r>
        <r>  0.0000  0.0018  0.0016 </r>
        <r>  0.0000  0.0014  0.0002 </r>
        <r>  0.0000  0.0008  0.0006 </r>
        <r>  0.0008  0.0014  0.0021 </r>
        <r>  0.0000  0.0016  0.0002 </r>
        <r>  0.0001  0.0010  0.0003 </r>
        <r>  0.0001  0.0033  0.0006 </r>
        <r>  0.0002  0.0027  0.0007 </r>
        <r>  0.0004  0.0016  0.0005 </r>
        <r>  0.0022  0.0019  0.0023 </r>
        <r>  0.0003  0.0003  0.0009 </r>
        <r>  0.0003  0.0014  0.0012 </r>
        <r>  0.0002  0.0047  0.0020 </r>
        <r>  0.0000  0.0010  0.0004 </r>
        <r>  0.0001  0.0018  0.0031 </r>
       </set>
       <set comment="band 205">
        <r>  0.0033  0.0014  0.0111 </r>
        <r>  0.0041  0.0008  0.0043 </r>
        <r>  0.0019  0.0017  0.0046 </r>
        <r>  0.0047  0.0008  0.0090 </r>
        <r>  0.0010  0.0011  0.0078 </r>
        <r>  0.0014  0.0006  0.0110 </r>
        <r>  0.0027  0.0005  0.0089 </r>
        <r>  0.0011  0.0005  0.0079 </r>
        <r>  0.0000  0.0028  0.0001 </r>
        <r>  0.0001  0.0067  0.0004 </r>
        <r>  0.0000  0.0041  0.0002 </r>
        <r>  0.0000  0.0071  0.0000 </r>
        <r>  0.0000  0.0040  0.0002 </r>
        <r>  0.0000  0.0043  0.0003 </r>
        <r>  0.0000  0.0052  0.0002 </r>
        <r>  0.0000  0.0096  0.0002 </r>
        <r>  0.0012  0.0011  0.0013 </r>
        <r>  0.0005  0.0020  0.0016 </r>
        <r>  0.0020  0.0007  0.0017 </r>
        <r>  0.0003  0.0029  0.0015 </r>
        <r>  0.0006  0.0048  0.0011 </r>
        <r>  0.0006  0.0027  0.0018 </r>
        <r>  0.0002  0.0040  0.0011 </r>
        <r>  0.0005  0.0033  0.0007 </r>
        <r>  0.0007  0.0000  0.0014 </r>
        <r>  0.0007  0.0008  0.0017 </r>
        <r>  0.0016  0.0008  0.0025 </r>
        <r>  0.0022  0.0012  0.0017 </r>
        <r>  0.0008  0.0012  0.0008 </r>
        <r>  0.0019  0.0012  0.0023 </r>
        <r>  0.0000  0.0040  0.0007 </r>
        <r>  0.0001  0.0038  0.0006 </r>
        <r>  0.0003  0.0064  0.0003 </r>
        <r>  0.0000  0.0019  0.0002 </r>
        <r>  0.0005  0.0019  0.0012 </r>
        <r>  0.0002  0.0013  0.0005 </r>
        <r>  0.0008  0.0011  0.0010 </r>
        <r>  0.0001  0.0021  0.0011 </r>
        <r>  0.0001  0.0003  0.0005 </r>
       </set>
       <set comment="band 206">
        <r>  0.0007  0.0002  0.0075 </r>
        <r>  0.0000  0.0005  0.0230 </r>
        <r>  0.0061  0.0013  0.0052 </r>
        <r>  0.0014  0.0002  0.0012 </r>
        <r>  0.0008  0.0001  0.0051 </r>
        <r>  0.0068  0.0007  0.0125 </r>
        <r>  0.0013  0.0008  0.0118 </r>
        <r>  0.0004  0.0005  0.0126 </r>
        <r>  0.0000  0.0048  0.0004 </r>
        <r>  0.0000  0.0040  0.0005 </r>
        <r>  0.0000  0.0173  0.0001 </r>
        <r>  0.0000  0.0128  0.0001 </r>
        <r>  0.0000  0.0024  0.0002 </r>
        <r>  0.0000  0.0018  0.0008 </r>
        <r>  0.0000  0.0038  0.0002 </r>
        <r>  0.0000  0.0021  0.0006 </r>
        <r>  0.0000  0.0027  0.0006 </r>
        <r>  0.0001  0.0008  0.0003 </r>
        <r>  0.0000  0.0049  0.0006 </r>
        <r>  0.0007  0.0005  0.0006 </r>
        <r>  0.0011  0.0014  0.0017 </r>
        <r>  0.0003  0.0021  0.0004 </r>
        <r>  0.0008  0.0015  0.0009 </r>
        <r>  0.0001  0.0005  0.0005 </r>
        <r>  0.0004  0.0010  0.0004 </r>
        <r>  0.0003  0.0002  0.0014 </r>
        <r>  0.0001  0.0034  0.0006 </r>
        <r>  0.0004  0.0024  0.0008 </r>
        <r>  0.0053  0.0019  0.0064 </r>
        <r>  0.0001  0.0027  0.0008 </r>
        <r>  0.0007  0.0069  0.0016 </r>
        <r>  0.0015  0.0014  0.0037 </r>
        <r>  0.0003  0.0015  0.0009 </r>
        <r>  0.0003  0.0027  0.0008 </r>
        <r>  0.0001  0.0023  0.0016 </r>
        <r>  0.0000  0.0008  0.0011 </r>
        <r>  0.0003  0.0005  0.0008 </r>
        <r>  0.0001  0.0010  0.0014 </r>
        <r>  0.0002  0.0023  0.0013 </r>
       </set>
       <set comment="band 207">
        <r>  0.0001  0.0003  0.0119 </r>
        <r>  0.0008  0.0006  0.0323 </r>
        <r>  0.0006  0.0003  0.0116 </r>
        <r>  0.0004  0.0003  0.0151 </r>
        <r>  0.0004  0.0012  0.0102 </r>
        <r>  0.0009  0.0005  0.0157 </r>
        <r>  0.0000  0.0003  0.0167 </r>
        <r>  0.0001  0.0002  0.0121 </r>
        <r>  0.0001  0.0006  0.0007 </r>
        <r>  0.0000  0.0006  0.0005 </r>
        <r>  0.0000  0.0022  0.0003 </r>
        <r>  0.0000  0.0015  0.0002 </r>
        <r>  0.0000  0.0010  0.0002 </r>
        <r>  0.0001  0.0065  0.0002 </r>
        <r>  0.0000  0.0057  0.0002 </r>
        <r>  0.0001  0.0042  0.0001 </r>
        <r>  0.0001  0.0009  0.0015 </r>
        <r>  0.0003  0.0020  0.0014 </r>
        <r>  0.0003  0.0006  0.0021 </r>
        <r>  0.0001  0.0046  0.0008 </r>
        <r>  0.0001  0.0010  0.0009 </r>
        <r>  0.0003  0.0004  0.0010 </r>
        <r>  0.0007  0.0003  0.0010 </r>
        <r>  0.0005  0.0010  0.0015 </r>
        <r>  0.0001  0.0020  0.0007 </r>
        <r>  0.0004  0.0020  0.0018 </r>
        <r>  0.0002  0.0016  0.0035 </r>
        <r>  0.0003  0.0007  0.0010 </r>
        <r>  0.0001  0.0003  0.0009 </r>
        <r>  0.0004  0.0005  0.0009 </r>
        <r>  0.0002  0.0007  0.0014 </r>
        <r>  0.0000  0.0015  0.0027 </r>
        <r>  0.0002  0.0003  0.0006 </r>
        <r>  0.0000  0.0015  0.0034 </r>
        <r>  0.0002  0.0016  0.0012 </r>
        <r>  0.0013  0.0011  0.0009 </r>
        <r>  0.0001  0.0020  0.0014 </r>
        <r>  0.0000  0.0011  0.0013 </r>
        <r>  0.0000  0.0003  0.0005 </r>
       </set>
       <set comment="band 208">
        <r>  0.0002  0.0001  0.0177 </r>
        <r>  0.0018  0.0005  0.0148 </r>
        <r>  0.0000  0.0007  0.0074 </r>
        <r>  0.0003  0.0003  0.0193 </r>
        <r>  0.0007  0.0001  0.0113 </r>
        <r>  0.0002  0.0004  0.0092 </r>
        <r>  0.0000  0.0012  0.0165 </r>
        <r>  0.0003  0.0003  0.0280 </r>
        <r>  0.0000  0.0028  0.0001 </r>
        <r>  0.0000  0.0056  0.0003 </r>
        <r>  0.0000  0.0007  0.0007 </r>
        <r>  0.0001  0.0034  0.0004 </r>
        <r>  0.0000  0.0006  0.0003 </r>
        <r>  0.0000  0.0078  0.0001 </r>
        <r>  0.0000  0.0020  0.0003 </r>
        <r>  0.0000  0.0038  0.0003 </r>
        <r>  0.0000  0.0026  0.0009 </r>
        <r>  0.0005  0.0016  0.0014 </r>
        <r>  0.0001  0.0012  0.0010 </r>
        <r>  0.0001  0.0007  0.0008 </r>
        <r>  0.0003  0.0020  0.0011 </r>
        <r>  0.0004  0.0011  0.0007 </r>
        <r>  0.0000  0.0004  0.0005 </r>
        <r>  0.0003  0.0003  0.0010 </r>
        <r>  0.0001  0.0003  0.0020 </r>
        <r>  0.0013  0.0006  0.0030 </r>
        <r>  0.0003  0.0018  0.0019 </r>
        <r>  0.0001  0.0025  0.0017 </r>
        <r>  0.0002  0.0006  0.0019 </r>
        <r>  0.0008  0.0015  0.0016 </r>
        <r>  0.0004  0.0010  0.0012 </r>
        <r>  0.0001  0.0022  0.0006 </r>
        <r>  0.0001  0.0010  0.0027 </r>
        <r>  0.0001  0.0012  0.0031 </r>
        <r>  0.0003  0.0002  0.0005 </r>
        <r>  0.0001  0.0023  0.0004 </r>
        <r>  0.0005  0.0005  0.0023 </r>
        <r>  0.0005  0.0021  0.0015 </r>
        <r>  0.0001  0.0013  0.0004 </r>
       </set>
      </set>
     </set>
    </set>
   </array>
  </projected>
 </calculation>
 <structure name="finalpos" >
  <crystal>
   <varray name="basis" >
    <v>       8.45648900       0.00000000       8.04030100 </v>
    <v>       0.00000000      11.72984700       0.00000000 </v>
    <v>      -8.45648900       0.00000000       8.04030100 </v>
   </varray>
   <i name="volume">   1595.08833419 </i>
   <varray name="rec_basis" >
    <v>       0.05912619      -0.00000000       0.06218673 </v>
    <v>       0.00000000       0.08525260      -0.00000000 </v>
    <v>      -0.05912619       0.00000000       0.06218673 </v>
   </varray>
  </crystal>
  <varray name="positions" >
   <v>       0.26516300       0.23933900       0.20001200 </v>
   <v>       0.77599300       0.23460600       0.72962600 </v>
   <v>       0.71412200       0.77064000       0.26215600 </v>
   <v>       0.21391000       0.75317500       0.77807100 </v>
   <v>       0.27446700       0.24421500       0.72888100 </v>
   <v>       0.80172700       0.24716900       0.22676200 </v>
   <v>       0.72865400       0.75487200       0.79059700 </v>
   <v>       0.22386500       0.75716000       0.29314500 </v>
   <v>       0.00313500       0.99703500       0.99984500 </v>
   <v>       0.49648700       0.00224600       0.49946600 </v>
   <v>       0.49979700       0.00051300       0.00006500 </v>
   <v>       0.99716500       0.99967900       0.50049900 </v>
   <v>       0.50968000       0.49610400       0.99662300 </v>
   <v>       0.99823700       0.50227500       0.49726900 </v>
   <v>       0.00535400       0.50061600       0.99779600 </v>
   <v>       0.48928000       0.49912400       0.51028200 </v>
   <v>       0.47691300       0.74724100       0.97433100 </v>
   <v>       0.96278000       0.74951700       0.46184600 </v>
   <v>       0.98039800       0.24907500       0.97373100 </v>
   <v>       0.44789200       0.25361500       0.47101700 </v>
   <v>       0.03924200       0.74852900       0.03174700 </v>
   <v>       0.53539900       0.74768800       0.52138600 </v>
   <v>       0.53437900       0.25060400       0.04351700 </v>
   <v>       0.01577300       0.25250000       0.53295800 </v>
   <v>       0.25641000       0.46695100       0.95221700 </v>
   <v>       0.94575500       0.53109700       0.74310600 </v>
   <v>       0.54297500       0.03251500       0.75229400 </v>
   <v>       0.04745300       0.02848200       0.25313500 </v>
   <v>       0.75481300       0.97663000       0.04020900 </v>
   <v>       0.24900200       0.96269900       0.55007100 </v>
   <v>       0.25040500       0.03041000       0.94807700 </v>
   <v>       0.74403700       0.03928100       0.45215000 </v>
   <v>       0.44651900       0.96799100       0.24786000 </v>
   <v>       0.95270100       0.96366800       0.74804800 </v>
   <v>       0.75799500       0.53592300       0.05044200 </v>
   <v>       0.24144600       0.53839700       0.55078400 </v>
   <v>       0.55860900       0.46332600       0.75410300 </v>
   <v>       0.05793000       0.46767100       0.25105500 </v>
   <v>       0.61445600       0.49508900       0.34220800 </v>
  </varray>
 </structure>
</modeling>
