 running on   64 total cores
 distrk:  each k-point on   64 cores,    1 groups
 distr:  one band on    8 cores,    8 groups
 using from now: INCAR     
 vasp.5.4.4.18Apr17-6-g9f103f2a35 (build Jun 22 2020 09:27:21) complex           
 POSCAR found type information on POSCAR  Cs Pb Br
 POSCAR found :  3 types and      39 ions
 scaLAPACK will be used
 LDA part: xc-table for Pade appr. of Perdew
 POSCAR found type information on POSCAR  Cs Pb Br
 POSCAR found :  3 types and      39 ions
 POSCAR, INCAR and KPOINTS ok, starting setup
 FFT: planning ...
 WAVECAR not read
 entering main loop
       N       E                     dE             d eps       ncg     rms          rms(c)
DAV:   1     0.133223613670E+04    0.13322E+04   -0.11059E+05  3472   0.973E+02
DAV:   2    -0.111426175154E+04   -0.24465E+04   -0.23658E+04  4080   0.300E+02
DAV:   3    -0.147423348365E+04   -0.35997E+03   -0.35801E+03  4416   0.136E+02
DAV:   4    -0.148641895182E+04   -0.12185E+02   -0.12147E+02  3912   0.331E+01
DAV:   5    -0.148698002936E+04   -0.56108E+00   -0.56078E+00  4440   0.556E+00BRMIX: very serious problems
 the old and the new charge density differ
 old charge density:   345.00000 new  344.00000
    0.104E+01
DAV:   6    -0.140932954517E+04    0.77650E+02   -0.23560E+01  4328   0.310E+01    0.740E+00
DAV:   7    -0.140881833290E+04    0.51121E+00   -0.85435E+00  4064   0.559E+00    0.372E+00
DAV:   8    -0.140899174812E+04   -0.17342E+00   -0.44259E-01  4056   0.204E+00    0.216E+00
DAV:   9    -0.140905749611E+04   -0.65748E-01   -0.16881E-01  3816   0.133E+00    0.457E-01
DAV:  10    -0.140906077246E+04   -0.32763E-02   -0.23097E-02  4576   0.452E-01    0.321E-01
DAV:  11    -0.140906274032E+04   -0.19679E-02   -0.28176E-03  3880   0.161E-01    0.148E-01
DAV:  12    -0.140906529453E+04   -0.25542E-02   -0.51098E-03  3616   0.191E-01    0.102E-01
DAV:  13    -0.140906487182E+04    0.42271E-03   -0.15193E-03  4448   0.115E-01    0.487E-02
DAV:  14    -0.140906479556E+04    0.76266E-04   -0.43990E-04  3880   0.411E-02    0.269E-02
DAV:  15    -0.140906478039E+04    0.15169E-04   -0.32587E-05  3808   0.150E-02    0.162E-02
DAV:  16    -0.140906483951E+04   -0.59124E-04   -0.36167E-05  3896   0.184E-02    0.673E-03
DAV:  17    -0.140906484303E+04   -0.35203E-05   -0.65307E-06  3752   0.655E-03    0.537E-03
DAV:  18    -0.140906483973E+04    0.33033E-05   -0.11150E-06  2456   0.261E-03    0.271E-03
DAV:  19    -0.140906483508E+04    0.46485E-05   -0.67241E-07  2320   0.227E-03    0.136E-03
DAV:  20    -0.140906483264E+04    0.24374E-05   -0.49532E-07  2112   0.163E-03    0.974E-04
DAV:  21    -0.140906483111E+04    0.15342E-05   -0.16097E-07  2024   0.140E-03    0.963E-04
DAV:  22    -0.140906483091E+04    0.20027E-06   -0.83529E-08  1984   0.872E-04
   1 F= -.14090648E+04 E0= -.14090648E+04  d E =-.263869E-27
Application 1923293 resources: utime ~32823s, stime ~126s, Rss ~78584, inblocks ~1334, outblocks ~111128
