CsPbBr3 cubic bulk                      
           1
     8.456489    0.000000    8.040301
     0.000000   11.729847    0.000000
    -8.456489    0.000000    8.040301
   Cs   Pb   Br
   8   8  23
Direct configuration=     1
   0.26516300  0.23933900  0.20001200
   0.77599300  0.23460600  0.72962600
   0.71412200  0.77064000  0.26215600
   0.21391000  0.75317500  0.77807100
   0.27446700  0.24421500  0.72888100
   0.80172700  0.24716900  0.22676200
   0.72865400  0.75487200  0.79059700
   0.22386500  0.75716000  0.29314500
   0.00313500  0.99703500  0.99984500
   0.49648700  0.00224600  0.49946600
   0.49979700  0.00051300  0.00006500
   0.99716500  0.99967900  0.50049900
   0.50968000  0.49610400  0.99662300
   0.99823700  0.50227500  0.49726900
   0.00535400  0.50061600  0.99779600
   0.48928000  0.49912400  0.51028200
   0.47691300  0.74724100  0.97433100
   0.96278000  0.74951700  0.46184600
   0.98039800  0.24907500  0.97373100
   0.44789200  0.25361500  0.47101700
   0.03924200  0.74852900  0.03174700
   0.53539900  0.74768800  0.52138600
   0.53437900  0.25060400  0.04351700
   0.01577300  0.25250000  0.53295800
   0.25641000  0.46695100  0.95221700
   0.94575500  0.53109700  0.74310600
   0.54297500  0.03251500  0.75229400
   0.04745300  0.02848200  0.25313500
   0.75481300  0.97663000  0.04020900
   0.24900200  0.96269900  0.55007100
   0.25040500  0.03041000  0.94807700
   0.74403700  0.03928100  0.45215000
   0.44651900  0.96799100  0.24786000
   0.95270100  0.96366800  0.74804800
   0.75799500  0.53592300  0.05044200
   0.24144600  0.53839700  0.55078400
   0.55860900  0.46332600  0.75410300
   0.05793000  0.46767100  0.25105500
   0.61445600  0.49508900  0.34220800
