  20  20   1   0
  0.4037315E+02  0.8401482E-09  0.1211672E-08  0.7931981E-09  0.5000000E-15
   1.0000000000000000E-004
  CAR 
 CsPbBr3 cubic bulk                      
      8.74838193    -22.24509903  301      0.49636762      1.00000000
    -22.245  0.0000E+00  0.0000E+00
    -22.142  0.0000E+00  0.0000E+00
    -22.038  0.0000E+00  0.0000E+00
    -21.935  0.0000E+00  0.0000E+00
    -21.832  0.0000E+00  0.0000E+00
    -21.729  0.0000E+00  0.0000E+00
    -21.625  0.0000E+00  0.0000E+00
    -21.522  0.0000E+00  0.0000E+00
    -21.419  0.0000E+00  0.0000E+00
    -21.315  0.0000E+00  0.0000E+00
    -21.212  0.0000E+00  0.0000E+00
    -21.109  0.0000E+00  0.0000E+00
    -21.005  0.0000E+00  0.0000E+00
    -20.902  0.0000E+00  0.0000E+00
    -20.799  0.7744E+00  0.8000E-01
    -20.695  0.0000E+00  0.8000E-01
    -20.592  0.0000E+00  0.8000E-01
    -20.489  0.0000E+00  0.8000E-01
    -20.385  0.0000E+00  0.8000E-01
    -20.282  0.0000E+00  0.8000E-01
    -20.179  0.0000E+00  0.8000E-01
    -20.076  0.0000E+00  0.8000E-01
    -19.972  0.0000E+00  0.8000E-01
    -19.869  0.0000E+00  0.8000E-01
    -19.766  0.0000E+00  0.8000E-01
    -19.662  0.0000E+00  0.8000E-01
    -19.559  0.0000E+00  0.8000E-01
    -19.456  0.0000E+00  0.8000E-01
    -19.352  0.0000E+00  0.8000E-01
    -19.249  0.0000E+00  0.8000E-01
    -19.146  0.0000E+00  0.8000E-01
    -19.042  0.0000E+00  0.8000E-01
    -18.939  0.0000E+00  0.8000E-01
    -18.836  0.0000E+00  0.8000E-01
    -18.733  0.0000E+00  0.8000E-01
    -18.629  0.0000E+00  0.8000E-01
    -18.526  0.0000E+00  0.8000E-01
    -18.423  0.0000E+00  0.8000E-01
    -18.319  0.0000E+00  0.8000E-01
    -18.216  0.0000E+00  0.8000E-01
    -18.113  0.0000E+00  0.8000E-01
    -18.009  0.0000E+00  0.8000E-01
    -17.906  0.0000E+00  0.8000E-01
    -17.803  0.0000E+00  0.8000E-01
    -17.699  0.0000E+00  0.8000E-01
    -17.596  0.0000E+00  0.8000E-01
    -17.493  0.0000E+00  0.8000E-01
    -17.389  0.0000E+00  0.8000E-01
    -17.286  0.0000E+00  0.8000E-01
    -17.183  0.0000E+00  0.8000E-01
    -17.080  0.0000E+00  0.8000E-01
    -16.976  0.0000E+00  0.8000E-01
    -16.873  0.0000E+00  0.8000E-01
    -16.770  0.0000E+00  0.8000E-01
    -16.666  0.0000E+00  0.8000E-01
    -16.563  0.6547E-12  0.8000E-01
    -16.460  0.1006E+01  0.1839E+00
    -16.356  0.1954E+01  0.4306E+00
    -16.253  0.0000E+00  0.4800E+00
    -16.150  0.0000E+00  0.4800E+00
    -16.046  0.0000E+00  0.4800E+00
    -15.943  0.0000E+00  0.4800E+00
    -15.840  0.0000E+00  0.4800E+00
    -15.736  0.0000E+00  0.4800E+00
    -15.633  0.0000E+00  0.4800E+00
    -15.530  0.0000E+00  0.4800E+00
    -15.427  0.0000E+00  0.4800E+00
    -15.323  0.0000E+00  0.4800E+00
    -15.220  0.0000E+00  0.4800E+00
    -15.117  0.0000E+00  0.4800E+00
    -15.013  0.0000E+00  0.4800E+00
    -14.910  0.0000E+00  0.4800E+00
    -14.807  0.0000E+00  0.4800E+00
    -14.703  0.0000E+00  0.4800E+00
    -14.600  0.0000E+00  0.4800E+00
    -14.497  0.0000E+00  0.4800E+00
    -14.393  0.2799E-19  0.4800E+00
    -14.290  0.3736E-01  0.4839E+00
    -14.187  0.1828E+00  0.5062E+00
    -14.083  0.2913E+00  0.5429E+00
    -13.980  0.3793E+00  0.5888E+00
    -13.877  0.4168E+00  0.6509E+00
    -13.774  0.4148E+00  0.7063E+00
    -13.670  0.1512E-01  0.7200E+00
    -13.567  0.0000E+00  0.7200E+00
    -13.464  0.0000E+00  0.7200E+00
    -13.360  0.0000E+00  0.7200E+00
    -13.257  0.0000E+00  0.7200E+00
    -13.154  0.0000E+00  0.7200E+00
    -13.050  0.0000E+00  0.7200E+00
    -12.947  0.0000E+00  0.7200E+00
    -12.844  0.0000E+00  0.7200E+00
    -12.740  0.0000E+00  0.7200E+00
    -12.637  0.0000E+00  0.7200E+00
    -12.534  0.0000E+00  0.7200E+00
    -12.430  0.0000E+00  0.7200E+00
    -12.327  0.0000E+00  0.7200E+00
    -12.224  0.0000E+00  0.7200E+00
    -12.121  0.0000E+00  0.7200E+00
    -12.017  0.0000E+00  0.7200E+00
    -11.914  0.0000E+00  0.7200E+00
    -11.811  0.0000E+00  0.7200E+00
    -11.707  0.0000E+00  0.7200E+00
    -11.604  0.0000E+00  0.7200E+00
    -11.501  0.0000E+00  0.7200E+00
    -11.397  0.0000E+00  0.7200E+00
    -11.294  0.0000E+00  0.7200E+00
    -11.191  0.0000E+00  0.7200E+00
    -11.087  0.0000E+00  0.7200E+00
    -10.984  0.0000E+00  0.7200E+00
    -10.881  0.0000E+00  0.7200E+00
    -10.778  0.0000E+00  0.7200E+00
    -10.674  0.0000E+00  0.7200E+00
    -10.571  0.0000E+00  0.7200E+00
    -10.468  0.0000E+00  0.7200E+00
    -10.364  0.0000E+00  0.7200E+00
    -10.261  0.0000E+00  0.7200E+00
    -10.158  0.0000E+00  0.7200E+00
    -10.054  0.0000E+00  0.7200E+00
     -9.951  0.0000E+00  0.7200E+00
     -9.848  0.0000E+00  0.7200E+00
     -9.744  0.0000E+00  0.7200E+00
     -9.641  0.0000E+00  0.7200E+00
     -9.538  0.0000E+00  0.7200E+00
     -9.434  0.0000E+00  0.7200E+00
     -9.331  0.0000E+00  0.7200E+00
     -9.228  0.0000E+00  0.7200E+00
     -9.125  0.0000E+00  0.7200E+00
     -9.021  0.0000E+00  0.7200E+00
     -8.918  0.0000E+00  0.7200E+00
     -8.815  0.0000E+00  0.7200E+00
     -8.711  0.0000E+00  0.7200E+00
     -8.608  0.0000E+00  0.7200E+00
     -8.505  0.0000E+00  0.7200E+00
     -8.401  0.0000E+00  0.7200E+00
     -8.298  0.0000E+00  0.7200E+00
     -8.195  0.5133E-07  0.7200E+00
     -8.091  0.9779E-02  0.7210E+00
     -7.988  0.2384E-01  0.7240E+00
     -7.885  0.2939E-01  0.7274E+00
     -7.781  0.5430E-01  0.7337E+00
     -7.678  0.7463E-01  0.7420E+00
     -7.575  0.7125E-01  0.7523E+00
     -7.472  0.8670E-01  0.7628E+00
     -7.368  0.6865E-01  0.7714E+00
     -7.265  0.1659E+00  0.7911E+00
     -7.162  0.1863E+01  0.1019E+01
     -7.058  0.5836E-01  0.1031E+01
     -6.955  0.2565E-01  0.1035E+01
     -6.852  0.1531E-01  0.1037E+01
     -6.748  0.9255E-02  0.1039E+01
     -6.645  0.8199E-02  0.1040E+01
     -6.542  0.5041E-03  0.1040E+01
     -6.438  0.0000E+00  0.1040E+01
     -6.335  0.0000E+00  0.1040E+01
     -6.232  0.0000E+00  0.1040E+01
     -6.128  0.0000E+00  0.1040E+01
     -6.025  0.0000E+00  0.1040E+01
     -5.922  0.0000E+00  0.1040E+01
     -5.819  0.0000E+00  0.1040E+01
     -5.715  0.0000E+00  0.1040E+01
     -5.612  0.0000E+00  0.1040E+01
     -5.509  0.0000E+00  0.1040E+01
     -5.405  0.0000E+00  0.1040E+01
     -5.302  0.0000E+00  0.1040E+01
     -5.199  0.0000E+00  0.1040E+01
     -5.095  0.0000E+00  0.1040E+01
     -4.992  0.0000E+00  0.1040E+01
     -4.889  0.0000E+00  0.1040E+01
     -4.785  0.0000E+00  0.1040E+01
     -4.682  0.0000E+00  0.1040E+01
     -4.579  0.0000E+00  0.1040E+01
     -4.476  0.0000E+00  0.1040E+01
     -4.372  0.0000E+00  0.1040E+01
     -4.269  0.0000E+00  0.1040E+01
     -4.166  0.0000E+00  0.1040E+01
     -4.062  0.0000E+00  0.1040E+01
     -3.959  0.0000E+00  0.1040E+01
     -3.856  0.0000E+00  0.1040E+01
     -3.752  0.0000E+00  0.1040E+01
     -3.649  0.0000E+00  0.1040E+01
     -3.546  0.0000E+00  0.1040E+01
     -3.442  0.0000E+00  0.1040E+01
     -3.339  0.2757E-06  0.1040E+01
     -3.236  0.2810E-01  0.1043E+01
     -3.132  0.1560E+00  0.1062E+01
     -3.029  0.1594E+00  0.1084E+01
     -2.926  0.1339E+00  0.1103E+01
     -2.823  0.7249E-01  0.1115E+01
     -2.719  0.1220E+00  0.1131E+01
     -2.616  0.9844E-01  0.1143E+01
     -2.513  0.4427E-01  0.1150E+01
     -2.409  0.1041E+00  0.1162E+01
     -2.306  0.7893E-01  0.1174E+01
     -2.203  0.7580E-01  0.1185E+01
     -2.099  0.1546E+00  0.1204E+01
     -1.996  0.3347E+00  0.1245E+01
     -1.893  0.1107E+00  0.1267E+01
     -1.789  0.1211E+00  0.1282E+01
     -1.686  0.2371E+00  0.1314E+01
     -1.583  0.2432E+00  0.1349E+01
     -1.479  0.2973E+00  0.1387E+01
     -1.376  0.4471E+00  0.1443E+01
     -1.273  0.5402E+00  0.1514E+01
     -1.170  0.4912E+00  0.1581E+01
     -1.066  0.4694E+00  0.1646E+01
     -0.963  0.2306E+00  0.1680E+01
     -0.860  0.7721E-01  0.1688E+01
     -0.756  0.1372E+00  0.1709E+01
     -0.653  0.1073E+00  0.1723E+01
     -0.550  0.6334E-01  0.1733E+01
     -0.446  0.7597E-01  0.1742E+01
     -0.343  0.3165E-01  0.1747E+01
     -0.240  0.4865E-01  0.1752E+01
     -0.136  0.2157E-01  0.1755E+01
     -0.033  0.1444E-01  0.1757E+01
      0.070  0.5170E-02  0.1759E+01
      0.174  0.4962E-02  0.1759E+01
      0.277  0.2521E-02  0.1760E+01
      0.380  0.3950E-03  0.1760E+01
      0.483  0.0000E+00  0.1760E+01
      0.587  0.0000E+00  0.1760E+01
      0.690  0.0000E+00  0.1760E+01
      0.793  0.0000E+00  0.1760E+01
      0.897  0.0000E+00  0.1760E+01
      1.000  0.0000E+00  0.1760E+01
      1.103  0.0000E+00  0.1760E+01
      1.207  0.0000E+00  0.1760E+01
      1.310  0.0000E+00  0.1760E+01
      1.413  0.0000E+00  0.1760E+01
      1.517  0.0000E+00  0.1760E+01
      1.620  0.0000E+00  0.1760E+01
      1.723  0.0000E+00  0.1760E+01
      1.827  0.0000E+00  0.1760E+01
      1.930  0.0000E+00  0.1760E+01
      2.033  0.0000E+00  0.1760E+01
      2.136  0.0000E+00  0.1760E+01
      2.240  0.0000E+00  0.1760E+01
      2.343  0.0000E+00  0.1760E+01
      2.446  0.0000E+00  0.1760E+01
      2.550  0.2470E-04  0.1760E+01
      2.653  0.4045E-02  0.1760E+01
      2.756  0.6163E-02  0.1761E+01
      2.860  0.2061E-01  0.1763E+01
      2.963  0.3871E-01  0.1768E+01
      3.066  0.4084E-01  0.1774E+01
      3.170  0.6688E-01  0.1782E+01
      3.273  0.6927E-01  0.1791E+01
      3.376  0.6340E-01  0.1800E+01
      3.479  0.6661E-01  0.1811E+01
      3.583  0.6293E-01  0.1819E+01
      3.686  0.7256E-01  0.1829E+01
      3.789  0.5941E-01  0.1837E+01
      3.893  0.4842E-01  0.1844E+01
      3.996  0.4389E-01  0.1850E+01
      4.099  0.4688E-01  0.1855E+01
      4.203  0.5193E-01  0.1862E+01
      4.306  0.5921E-01  0.1869E+01
      4.409  0.6896E-01  0.1878E+01
      4.513  0.1164E-01  0.1880E+01
      4.616  0.5488E-01  0.1888E+01
      4.719  0.3403E-01  0.1894E+01
      4.823  0.5327E-01  0.1902E+01
      4.926  0.3908E-01  0.1907E+01
      5.029  0.5543E-01  0.1915E+01
      5.132  0.8090E-01  0.1926E+01
      5.236  0.4069E-01  0.1934E+01
      5.339  0.5095E-01  0.1941E+01
      5.442  0.6359E-01  0.1949E+01
      5.546  0.9642E-01  0.1961E+01
      5.649  0.6141E-01  0.1969E+01
      5.752  0.9054E-01  0.1981E+01
      5.856  0.9060E-01  0.1994E+01
      5.959  0.9482E-01  0.2007E+01
      6.062  0.9166E-01  0.2020E+01
      6.166  0.1124E+00  0.2035E+01
      6.269  0.1232E+00  0.2051E+01
      6.372  0.9859E-01  0.2065E+01
      6.476  0.1233E+00  0.2082E+01
      6.579  0.1965E+00  0.2106E+01
      6.682  0.2351E+00  0.2138E+01
      6.785  0.2263E+00  0.2168E+01
      6.889  0.2049E+00  0.2195E+01
      6.992  0.1568E+00  0.2215E+01
      7.095  0.1215E+00  0.2233E+01
      7.199  0.3462E-01  0.2239E+01
      7.302  0.2521E-02  0.2240E+01
      7.405  0.1008E-02  0.2240E+01
      7.509  0.0000E+00  0.2240E+01
      7.612  0.0000E+00  0.2240E+01
      7.715  0.0000E+00  0.2240E+01
      7.819  0.0000E+00  0.2240E+01
      7.922  0.0000E+00  0.2240E+01
      8.025  0.0000E+00  0.2240E+01
      8.129  0.0000E+00  0.2240E+01
      8.232  0.0000E+00  0.2240E+01
      8.335  0.0000E+00  0.2240E+01
      8.438  0.0000E+00  0.2240E+01
      8.542  0.0000E+00  0.2240E+01
      8.645  0.0000E+00  0.2240E+01
      8.748  0.0000E+00  0.2240E+01
      8.74838193    -22.24509903  301      0.49636762      1.00000000
    -22.245  0.0000E+00  0.0000E+00  0.0000E+00
    -22.142  0.0000E+00  0.0000E+00  0.0000E+00
    -22.038  0.0000E+00  0.0000E+00  0.0000E+00
    -21.935  0.0000E+00  0.0000E+00  0.0000E+00
    -21.832  0.0000E+00  0.0000E+00  0.0000E+00
    -21.729  0.0000E+00  0.0000E+00  0.0000E+00
    -21.625  0.0000E+00  0.0000E+00  0.0000E+00
    -21.522  0.0000E+00  0.0000E+00  0.0000E+00
    -21.419  0.0000E+00  0.0000E+00  0.0000E+00
    -21.315  0.0000E+00  0.0000E+00  0.0000E+00
    -21.212  0.0000E+00  0.0000E+00  0.0000E+00
    -21.109  0.0000E+00  0.0000E+00  0.0000E+00
    -21.005  0.0000E+00  0.0000E+00  0.0000E+00
    -20.902  0.0000E+00  0.0000E+00  0.0000E+00
    -20.799  0.1719E+02  0.7156E-05  0.5208E-05
    -20.695  0.0000E+00  0.0000E+00  0.0000E+00
    -20.592  0.0000E+00  0.0000E+00  0.0000E+00
    -20.489  0.0000E+00  0.0000E+00  0.0000E+00
    -20.385  0.0000E+00  0.0000E+00  0.0000E+00
    -20.282  0.0000E+00  0.0000E+00  0.0000E+00
    -20.179  0.0000E+00  0.0000E+00  0.0000E+00
    -20.076  0.0000E+00  0.0000E+00  0.0000E+00
    -19.972  0.0000E+00  0.0000E+00  0.0000E+00
    -19.869  0.0000E+00  0.0000E+00  0.0000E+00
    -19.766  0.0000E+00  0.0000E+00  0.0000E+00
    -19.662  0.0000E+00  0.0000E+00  0.0000E+00
    -19.559  0.0000E+00  0.0000E+00  0.0000E+00
    -19.456  0.0000E+00  0.0000E+00  0.0000E+00
    -19.352  0.0000E+00  0.0000E+00  0.0000E+00
    -19.249  0.0000E+00  0.0000E+00  0.0000E+00
    -19.146  0.0000E+00  0.0000E+00  0.0000E+00
    -19.042  0.0000E+00  0.0000E+00  0.0000E+00
    -18.939  0.0000E+00  0.0000E+00  0.0000E+00
    -18.836  0.0000E+00  0.0000E+00  0.0000E+00
    -18.733  0.0000E+00  0.0000E+00  0.0000E+00
    -18.629  0.0000E+00  0.0000E+00  0.0000E+00
    -18.526  0.0000E+00  0.0000E+00  0.0000E+00
    -18.423  0.0000E+00  0.0000E+00  0.0000E+00
    -18.319  0.0000E+00  0.0000E+00  0.0000E+00
    -18.216  0.0000E+00  0.0000E+00  0.0000E+00
    -18.113  0.0000E+00  0.0000E+00  0.0000E+00
    -18.009  0.0000E+00  0.0000E+00  0.0000E+00
    -17.906  0.0000E+00  0.0000E+00  0.0000E+00
    -17.803  0.0000E+00  0.0000E+00  0.0000E+00
    -17.699  0.0000E+00  0.0000E+00  0.0000E+00
    -17.596  0.0000E+00  0.0000E+00  0.0000E+00
    -17.493  0.0000E+00  0.0000E+00  0.0000E+00
    -17.389  0.0000E+00  0.0000E+00  0.0000E+00
    -17.286  0.0000E+00  0.0000E+00  0.0000E+00
    -17.183  0.0000E+00  0.0000E+00  0.0000E+00
    -17.080  0.0000E+00  0.0000E+00  0.0000E+00
    -16.976  0.0000E+00  0.0000E+00  0.0000E+00
    -16.873  0.0000E+00  0.0000E+00  0.0000E+00
    -16.770  0.0000E+00  0.0000E+00  0.0000E+00
    -16.666  0.0000E+00  0.0000E+00  0.0000E+00
    -16.563  0.1898E-15  0.8847E-16  0.1167E-16
    -16.460  0.9647E-04  0.8074E-04  0.1640E-04
    -16.356  0.5341E-04  0.2987E-04  0.3543E-05
    -16.253  0.0000E+00  0.0000E+00  0.0000E+00
    -16.150  0.0000E+00  0.0000E+00  0.0000E+00
    -16.046  0.0000E+00  0.0000E+00  0.0000E+00
    -15.943  0.0000E+00  0.0000E+00  0.0000E+00
    -15.840  0.0000E+00  0.0000E+00  0.0000E+00
    -15.736  0.0000E+00  0.0000E+00  0.0000E+00
    -15.633  0.0000E+00  0.0000E+00  0.0000E+00
    -15.530  0.0000E+00  0.0000E+00  0.0000E+00
    -15.427  0.0000E+00  0.0000E+00  0.0000E+00
    -15.323  0.0000E+00  0.0000E+00  0.0000E+00
    -15.220  0.0000E+00  0.0000E+00  0.0000E+00
    -15.117  0.0000E+00  0.0000E+00  0.0000E+00
    -15.013  0.0000E+00  0.0000E+00  0.0000E+00
    -14.910  0.0000E+00  0.0000E+00  0.0000E+00
    -14.807  0.0000E+00  0.0000E+00  0.0000E+00
    -14.703  0.0000E+00  0.0000E+00  0.0000E+00
    -14.600  0.0000E+00  0.0000E+00  0.0000E+00
    -14.497  0.0000E+00  0.0000E+00  0.0000E+00
    -14.393  0.1111E-20  0.4434E-23  0.3496E-23
    -14.290  0.1193E-02  0.1918E-03  0.5046E-05
    -14.187  0.2562E-02  0.2773E-02  0.5527E-04
    -14.083  0.1246E-02  0.4391E-02  0.1856E-03
    -13.980  0.1637E-02  0.4693E-02  0.4121E-03
    -13.877  0.1178E-02  0.3599E-02  0.3833E-03
    -13.774  0.8716E-03  0.2753E-02  0.4065E-03
    -13.670  0.6472E-04  0.4829E-04  0.1089E-04
    -13.567  0.0000E+00  0.0000E+00  0.0000E+00
    -13.464  0.0000E+00  0.0000E+00  0.0000E+00
    -13.360  0.0000E+00  0.0000E+00  0.0000E+00
    -13.257  0.0000E+00  0.0000E+00  0.0000E+00
    -13.154  0.0000E+00  0.0000E+00  0.0000E+00
    -13.050  0.0000E+00  0.0000E+00  0.0000E+00
    -12.947  0.0000E+00  0.0000E+00  0.0000E+00
    -12.844  0.0000E+00  0.0000E+00  0.0000E+00
    -12.740  0.0000E+00  0.0000E+00  0.0000E+00
    -12.637  0.0000E+00  0.0000E+00  0.0000E+00
    -12.534  0.0000E+00  0.0000E+00  0.0000E+00
    -12.430  0.0000E+00  0.0000E+00  0.0000E+00
    -12.327  0.0000E+00  0.0000E+00  0.0000E+00
    -12.224  0.0000E+00  0.0000E+00  0.0000E+00
    -12.121  0.0000E+00  0.0000E+00  0.0000E+00
    -12.017  0.0000E+00  0.0000E+00  0.0000E+00
    -11.914  0.0000E+00  0.0000E+00  0.0000E+00
    -11.811  0.0000E+00  0.0000E+00  0.0000E+00
    -11.707  0.0000E+00  0.0000E+00  0.0000E+00
    -11.604  0.0000E+00  0.0000E+00  0.0000E+00
    -11.501  0.0000E+00  0.0000E+00  0.0000E+00
    -11.397  0.0000E+00  0.0000E+00  0.0000E+00
    -11.294  0.0000E+00  0.0000E+00  0.0000E+00
    -11.191  0.0000E+00  0.0000E+00  0.0000E+00
    -11.087  0.0000E+00  0.0000E+00  0.0000E+00
    -10.984  0.0000E+00  0.0000E+00  0.0000E+00
    -10.881  0.0000E+00  0.0000E+00  0.0000E+00
    -10.778  0.0000E+00  0.0000E+00  0.0000E+00
    -10.674  0.0000E+00  0.0000E+00  0.0000E+00
    -10.571  0.0000E+00  0.0000E+00  0.0000E+00
    -10.468  0.0000E+00  0.0000E+00  0.0000E+00
    -10.364  0.0000E+00  0.0000E+00  0.0000E+00
    -10.261  0.0000E+00  0.0000E+00  0.0000E+00
    -10.158  0.0000E+00  0.0000E+00  0.0000E+00
    -10.054  0.0000E+00  0.0000E+00  0.0000E+00
     -9.951  0.0000E+00  0.0000E+00  0.0000E+00
     -9.848  0.0000E+00  0.0000E+00  0.0000E+00
     -9.744  0.0000E+00  0.0000E+00  0.0000E+00
     -9.641  0.0000E+00  0.0000E+00  0.0000E+00
     -9.538  0.0000E+00  0.0000E+00  0.0000E+00
     -9.434  0.0000E+00  0.0000E+00  0.0000E+00
     -9.331  0.0000E+00  0.0000E+00  0.0000E+00
     -9.228  0.0000E+00  0.0000E+00  0.0000E+00
     -9.125  0.0000E+00  0.0000E+00  0.0000E+00
     -9.021  0.0000E+00  0.0000E+00  0.0000E+00
     -8.918  0.0000E+00  0.0000E+00  0.0000E+00
     -8.815  0.0000E+00  0.0000E+00  0.0000E+00
     -8.711  0.0000E+00  0.0000E+00  0.0000E+00
     -8.608  0.0000E+00  0.0000E+00  0.0000E+00
     -8.505  0.0000E+00  0.0000E+00  0.0000E+00
     -8.401  0.0000E+00  0.0000E+00  0.0000E+00
     -8.298  0.0000E+00  0.0000E+00  0.0000E+00
     -8.195  0.1135E-21  0.1100E-09  0.2827E-10
     -8.091  0.7683E-08  0.1174E-03  0.5351E-05
     -7.988  0.1452E-06  0.9618E-03  0.1312E-04
     -7.885  0.5597E-06  0.2389E-02  0.1552E-04
     -7.781  0.2217E-05  0.8040E-02  0.2942E-04
     -7.678  0.4651E-05  0.2213E-01  0.3455E-04
     -7.575  0.9459E-05  0.3704E-01  0.2766E-04
     -7.472  0.1629E-04  0.7830E-01  0.3341E-04
     -7.368  0.2066E-04  0.1273E+00  0.2540E-04
     -7.265  0.2887E-04  0.1924E+01  0.3157E-04
     -7.162  0.6625E-04  0.3465E+02  0.7324E-04
     -7.058  0.2107E-04  0.3030E+00  0.2158E-04
     -6.955  0.1731E-04  0.3337E-01  0.9722E-05
     -6.852  0.1302E-04  0.8967E-02  0.5114E-05
     -6.748  0.8316E-05  0.3648E-02  0.3004E-05
     -6.645  0.8091E-05  0.2471E-02  0.1790E-05
     -6.542  0.5009E-06  0.1221E-03  0.7477E-07
     -6.438  0.0000E+00  0.0000E+00  0.0000E+00
     -6.335  0.0000E+00  0.0000E+00  0.0000E+00
     -6.232  0.0000E+00  0.0000E+00  0.0000E+00
     -6.128  0.0000E+00  0.0000E+00  0.0000E+00
     -6.025  0.0000E+00  0.0000E+00  0.0000E+00
     -5.922  0.0000E+00  0.0000E+00  0.0000E+00
     -5.819  0.0000E+00  0.0000E+00  0.0000E+00
     -5.715  0.0000E+00  0.0000E+00  0.0000E+00
     -5.612  0.0000E+00  0.0000E+00  0.0000E+00
     -5.509  0.0000E+00  0.0000E+00  0.0000E+00
     -5.405  0.0000E+00  0.0000E+00  0.0000E+00
     -5.302  0.0000E+00  0.0000E+00  0.0000E+00
     -5.199  0.0000E+00  0.0000E+00  0.0000E+00
     -5.095  0.0000E+00  0.0000E+00  0.0000E+00
     -4.992  0.0000E+00  0.0000E+00  0.0000E+00
     -4.889  0.0000E+00  0.0000E+00  0.0000E+00
     -4.785  0.0000E+00  0.0000E+00  0.0000E+00
     -4.682  0.0000E+00  0.0000E+00  0.0000E+00
     -4.579  0.0000E+00  0.0000E+00  0.0000E+00
     -4.476  0.0000E+00  0.0000E+00  0.0000E+00
     -4.372  0.0000E+00  0.0000E+00  0.0000E+00
     -4.269  0.0000E+00  0.0000E+00  0.0000E+00
     -4.166  0.0000E+00  0.0000E+00  0.0000E+00
     -4.062  0.0000E+00  0.0000E+00  0.0000E+00
     -3.959  0.0000E+00  0.0000E+00  0.0000E+00
     -3.856  0.0000E+00  0.0000E+00  0.0000E+00
     -3.752  0.0000E+00  0.0000E+00  0.0000E+00
     -3.649  0.0000E+00  0.0000E+00  0.0000E+00
     -3.546  0.0000E+00  0.0000E+00  0.0000E+00
     -3.442  0.0000E+00  0.0000E+00  0.0000E+00
     -3.339  0.1046E-08  0.5253E-07  0.6077E-09
     -3.236  0.1124E-03  0.5043E-02  0.1748E-03
     -3.132  0.3583E-03  0.1980E-01  0.1656E-02
     -3.029  0.2000E-03  0.1863E-01  0.1593E-02
     -2.926  0.2056E-03  0.9381E-02  0.1260E-02
     -2.823  0.7932E-04  0.8657E-02  0.5161E-03
     -2.719  0.4058E-03  0.1118E-01  0.1111E-02
     -2.616  0.3826E-03  0.7514E-02  0.7299E-03
     -2.513  0.5243E-03  0.4974E-02  0.4229E-03
     -2.409  0.9809E-03  0.1282E-01  0.9694E-03
     -2.306  0.8304E-03  0.4241E-02  0.6671E-03
     -2.203  0.1604E-02  0.8285E-02  0.8491E-03
     -2.099  0.7543E-02  0.1561E-01  0.2666E-02
     -1.996  0.2291E-01  0.4291E-01  0.5571E-02
     -1.893  0.2158E-02  0.3099E-01  0.1506E-02
     -1.789  0.7581E-03  0.6054E-01  0.2020E-02
     -1.686  0.2921E-02  0.9448E-01  0.8368E-02
     -1.583  0.2133E-02  0.7226E-01  0.8420E-02
     -1.479  0.2934E-02  0.5308E-01  0.1302E-01
     -1.376  0.4396E-02  0.7522E-01  0.1767E-01
     -1.273  0.4532E-02  0.7680E-01  0.1812E-01
     -1.170  0.2456E-02  0.7289E-01  0.1289E-01
     -1.066  0.2131E-02  0.6360E-01  0.9233E-02
     -0.963  0.9261E-03  0.1864E-01  0.7079E-02
     -0.860  0.3347E-03  0.8532E-02  0.1928E-02
     -0.756  0.6628E-03  0.1403E-01  0.2556E-02
     -0.653  0.4807E-03  0.5994E-02  0.1580E-02
     -0.550  0.1376E-03  0.2952E-02  0.8316E-03
     -0.446  0.1876E-03  0.3328E-02  0.8120E-03
     -0.343  0.3965E-04  0.9050E-03  0.4053E-03
     -0.240  0.3815E-04  0.1217E-02  0.7074E-03
     -0.136  0.1141E-04  0.4071E-03  0.3220E-03
     -0.033  0.4703E-05  0.2495E-03  0.1580E-03
      0.070  0.1409E-05  0.8687E-04  0.4754E-04
      0.174  0.2610E-06  0.3393E-04  0.4655E-04
      0.277  0.6088E-10  0.1391E-04  0.2292E-04
      0.380  0.4488E-20  0.1348E-05  0.3580E-05
      0.483  0.0000E+00  0.0000E+00  0.0000E+00
      0.587  0.0000E+00  0.0000E+00  0.0000E+00
      0.690  0.0000E+00  0.0000E+00  0.0000E+00
      0.793  0.0000E+00  0.0000E+00  0.0000E+00
      0.897  0.0000E+00  0.0000E+00  0.0000E+00
      1.000  0.0000E+00  0.0000E+00  0.0000E+00
      1.103  0.0000E+00  0.0000E+00  0.0000E+00
      1.207  0.0000E+00  0.0000E+00  0.0000E+00
      1.310  0.0000E+00  0.0000E+00  0.0000E+00
      1.413  0.0000E+00  0.0000E+00  0.0000E+00
      1.517  0.0000E+00  0.0000E+00  0.0000E+00
      1.620  0.0000E+00  0.0000E+00  0.0000E+00
      1.723  0.0000E+00  0.0000E+00  0.0000E+00
      1.827  0.0000E+00  0.0000E+00  0.0000E+00
      1.930  0.0000E+00  0.0000E+00  0.0000E+00
      2.033  0.0000E+00  0.0000E+00  0.0000E+00
      2.136  0.0000E+00  0.0000E+00  0.0000E+00
      2.240  0.0000E+00  0.0000E+00  0.0000E+00
      2.343  0.0000E+00  0.0000E+00  0.0000E+00
      2.446  0.0000E+00  0.0000E+00  0.0000E+00
      2.550  0.3488E-07  0.3471E-06  0.1010E-05
      2.653  0.6445E-05  0.6275E-04  0.1613E-03
      2.756  0.5977E-05  0.1157E-03  0.2525E-03
      2.860  0.3847E-04  0.3574E-03  0.8881E-03
      2.963  0.1164E-03  0.6646E-03  0.1927E-02
      3.066  0.1250E-03  0.1146E-02  0.1836E-02
      3.170  0.3286E-03  0.1822E-02  0.3038E-02
      3.273  0.5153E-03  0.2658E-02  0.2588E-02
      3.376  0.4363E-03  0.1950E-02  0.2681E-02
      3.479  0.4770E-03  0.1957E-02  0.3142E-02
      3.583  0.6495E-03  0.1828E-02  0.2997E-02
      3.686  0.4971E-03  0.2057E-02  0.2771E-02
      3.789  0.6971E-03  0.1241E-02  0.2571E-02
      3.893  0.3940E-03  0.1016E-02  0.2332E-02
      3.996  0.2256E-03  0.1085E-02  0.2177E-02
      4.099  0.2445E-03  0.9584E-03  0.2951E-02
      4.203  0.2974E-03  0.1219E-02  0.2883E-02
      4.306  0.4655E-03  0.1607E-02  0.4078E-02
      4.409  0.3705E-03  0.1646E-02  0.3781E-02
      4.513  0.1945E-03  0.2314E-03  0.8921E-03
      4.616  0.7941E-03  0.1191E-02  0.3071E-02
      4.719  0.3237E-03  0.8775E-03  0.2142E-02
      4.823  0.4388E-03  0.1679E-02  0.5610E-02
      4.926  0.3198E-02  0.1751E-02  0.4778E-02
      5.029  0.1098E-01  0.2577E-02  0.5497E-02
      5.132  0.1039E-01  0.4259E-02  0.8921E-02
      5.236  0.3827E-02  0.1980E-02  0.5920E-02
      5.339  0.2914E-03  0.1266E-02  0.1000E-01
      5.442  0.5950E-02  0.2761E-02  0.1087E-01
      5.546  0.2033E-01  0.7410E-02  0.1322E-01
      5.649  0.5537E-02  0.2104E-02  0.1070E-01
      5.752  0.1118E-01  0.3963E-02  0.1744E-01
      5.856  0.1612E-01  0.4794E-02  0.2650E-01
      5.959  0.2043E-01  0.5933E-02  0.8250E-01
      6.062  0.2243E-01  0.6791E-02  0.1304E+00
      6.166  0.3262E-01  0.1376E-01  0.1992E+00
      6.269  0.3712E-01  0.1802E-01  0.2221E+00
      6.372  0.3490E-01  0.1709E-01  0.1868E+00
      6.476  0.3121E-01  0.2017E-01  0.2921E+00
      6.579  0.3406E-01  0.3148E-01  0.5202E+00
      6.682  0.2915E-01  0.4420E-01  0.6555E+00
      6.785  0.1345E-01  0.3591E-01  0.6915E+00
      6.889  0.1474E-01  0.2888E-01  0.7133E+00
      6.992  0.1325E-01  0.2664E-01  0.5583E+00
      7.095  0.1400E-01  0.3020E-01  0.3658E+00
      7.199  0.4771E-02  0.1220E-01  0.9251E-01
      7.302  0.6519E-03  0.6203E-03  0.7194E-02
      7.405  0.4808E-03  0.1068E-03  0.2392E-02
      7.509  0.0000E+00  0.0000E+00  0.0000E+00
      7.612  0.0000E+00  0.0000E+00  0.0000E+00
      7.715  0.0000E+00  0.0000E+00  0.0000E+00
      7.819  0.0000E+00  0.0000E+00  0.0000E+00
      7.922  0.0000E+00  0.0000E+00  0.0000E+00
      8.025  0.0000E+00  0.0000E+00  0.0000E+00
      8.129  0.0000E+00  0.0000E+00  0.0000E+00
      8.232  0.0000E+00  0.0000E+00  0.0000E+00
      8.335  0.0000E+00  0.0000E+00  0.0000E+00
      8.438  0.0000E+00  0.0000E+00  0.0000E+00
      8.542  0.0000E+00  0.0000E+00  0.0000E+00
      8.645  0.0000E+00  0.0000E+00  0.0000E+00
      8.748  0.0000E+00  0.0000E+00  0.0000E+00
      8.74838193    -22.24509903  301      0.49636762      1.00000000
    -22.245  0.0000E+00  0.0000E+00  0.0000E+00
    -22.142  0.0000E+00  0.0000E+00  0.0000E+00
    -22.038  0.0000E+00  0.0000E+00  0.0000E+00
    -21.935  0.0000E+00  0.0000E+00  0.0000E+00
    -21.832  0.0000E+00  0.0000E+00  0.0000E+00
    -21.729  0.0000E+00  0.0000E+00  0.0000E+00
    -21.625  0.0000E+00  0.0000E+00  0.0000E+00
    -21.522  0.0000E+00  0.0000E+00  0.0000E+00
    -21.419  0.0000E+00  0.0000E+00  0.0000E+00
    -21.315  0.0000E+00  0.0000E+00  0.0000E+00
    -21.212  0.0000E+00  0.0000E+00  0.0000E+00
    -21.109  0.0000E+00  0.0000E+00  0.0000E+00
    -21.005  0.0000E+00  0.0000E+00  0.0000E+00
    -20.902  0.0000E+00  0.0000E+00  0.0000E+00
    -20.799  0.1719E+02  0.7154E-05  0.5217E-05
    -20.695  0.0000E+00  0.0000E+00  0.0000E+00
    -20.592  0.0000E+00  0.0000E+00  0.0000E+00
    -20.489  0.0000E+00  0.0000E+00  0.0000E+00
    -20.385  0.0000E+00  0.0000E+00  0.0000E+00
    -20.282  0.0000E+00  0.0000E+00  0.0000E+00
    -20.179  0.0000E+00  0.0000E+00  0.0000E+00
    -20.076  0.0000E+00  0.0000E+00  0.0000E+00
    -19.972  0.0000E+00  0.0000E+00  0.0000E+00
    -19.869  0.0000E+00  0.0000E+00  0.0000E+00
    -19.766  0.0000E+00  0.0000E+00  0.0000E+00
    -19.662  0.0000E+00  0.0000E+00  0.0000E+00
    -19.559  0.0000E+00  0.0000E+00  0.0000E+00
    -19.456  0.0000E+00  0.0000E+00  0.0000E+00
    -19.352  0.0000E+00  0.0000E+00  0.0000E+00
    -19.249  0.0000E+00  0.0000E+00  0.0000E+00
    -19.146  0.0000E+00  0.0000E+00  0.0000E+00
    -19.042  0.0000E+00  0.0000E+00  0.0000E+00
    -18.939  0.0000E+00  0.0000E+00  0.0000E+00
    -18.836  0.0000E+00  0.0000E+00  0.0000E+00
    -18.733  0.0000E+00  0.0000E+00  0.0000E+00
    -18.629  0.0000E+00  0.0000E+00  0.0000E+00
    -18.526  0.0000E+00  0.0000E+00  0.0000E+00
    -18.423  0.0000E+00  0.0000E+00  0.0000E+00
    -18.319  0.0000E+00  0.0000E+00  0.0000E+00
    -18.216  0.0000E+00  0.0000E+00  0.0000E+00
    -18.113  0.0000E+00  0.0000E+00  0.0000E+00
    -18.009  0.0000E+00  0.0000E+00  0.0000E+00
    -17.906  0.0000E+00  0.0000E+00  0.0000E+00
    -17.803  0.0000E+00  0.0000E+00  0.0000E+00
    -17.699  0.0000E+00  0.0000E+00  0.0000E+00
    -17.596  0.0000E+00  0.0000E+00  0.0000E+00
    -17.493  0.0000E+00  0.0000E+00  0.0000E+00
    -17.389  0.0000E+00  0.0000E+00  0.0000E+00
    -17.286  0.0000E+00  0.0000E+00  0.0000E+00
    -17.183  0.0000E+00  0.0000E+00  0.0000E+00
    -17.080  0.0000E+00  0.0000E+00  0.0000E+00
    -16.976  0.0000E+00  0.0000E+00  0.0000E+00
    -16.873  0.0000E+00  0.0000E+00  0.0000E+00
    -16.770  0.0000E+00  0.0000E+00  0.0000E+00
    -16.666  0.0000E+00  0.0000E+00  0.0000E+00
    -16.563  0.1892E-15  0.8764E-16  0.1151E-16
    -16.460  0.9481E-04  0.7063E-04  0.1577E-04
    -16.356  0.5355E-04  0.3000E-04  0.3574E-05
    -16.253  0.0000E+00  0.0000E+00  0.0000E+00
    -16.150  0.0000E+00  0.0000E+00  0.0000E+00
    -16.046  0.0000E+00  0.0000E+00  0.0000E+00
    -15.943  0.0000E+00  0.0000E+00  0.0000E+00
    -15.840  0.0000E+00  0.0000E+00  0.0000E+00
    -15.736  0.0000E+00  0.0000E+00  0.0000E+00
    -15.633  0.0000E+00  0.0000E+00  0.0000E+00
    -15.530  0.0000E+00  0.0000E+00  0.0000E+00
    -15.427  0.0000E+00  0.0000E+00  0.0000E+00
    -15.323  0.0000E+00  0.0000E+00  0.0000E+00
    -15.220  0.0000E+00  0.0000E+00  0.0000E+00
    -15.117  0.0000E+00  0.0000E+00  0.0000E+00
    -15.013  0.0000E+00  0.0000E+00  0.0000E+00
    -14.910  0.0000E+00  0.0000E+00  0.0000E+00
    -14.807  0.0000E+00  0.0000E+00  0.0000E+00
    -14.703  0.0000E+00  0.0000E+00  0.0000E+00
    -14.600  0.0000E+00  0.0000E+00  0.0000E+00
    -14.497  0.0000E+00  0.0000E+00  0.0000E+00
    -14.393  0.1111E-20  0.4434E-23  0.3496E-23
    -14.290  0.1242E-02  0.1458E-03  0.6049E-05
    -14.187  0.2989E-02  0.2445E-02  0.5539E-04
    -14.083  0.1041E-02  0.5679E-02  0.1831E-03
    -13.980  0.7400E-03  0.3287E-02  0.3162E-03
    -13.877  0.1235E-02  0.3873E-02  0.5043E-03
    -13.774  0.1271E-02  0.2766E-02  0.3550E-03
    -13.670  0.3240E-04  0.4639E-04  0.9046E-05
    -13.567  0.0000E+00  0.0000E+00  0.0000E+00
    -13.464  0.0000E+00  0.0000E+00  0.0000E+00
    -13.360  0.0000E+00  0.0000E+00  0.0000E+00
    -13.257  0.0000E+00  0.0000E+00  0.0000E+00
    -13.154  0.0000E+00  0.0000E+00  0.0000E+00
    -13.050  0.0000E+00  0.0000E+00  0.0000E+00