 vasp.5.4.4.18Apr17-6-g9f103f2a35 (build Jun 29 2021 14:23:36) complex           
 executed on tx2_gcc-7.3_libsci-1 date 2021.09.16  11:50:46
 running on  256 total cores
 distrk:  each k-point on  256 cores,    1 groups
 distr:  one band on NCORES_PER_BAND=  32 cores,    8 groups


--------------------------------------------------------------------------------------------------------


 INCAR:
 POTCAR:    PAW_PBE Cs_sv 08Apr2002               
 POTCAR:    PAW_PBE Pb_d 06Sep2000                
 POTCAR:    PAW_PBE Br 06Sep2000                  
 POTCAR:    PAW_PBE Cs_sv 08Apr2002               
   SHA256 =  c1463496f0f6037ed62c6012a8013a89ee9ad6ffb38599dcd6c079e7ed31779b Cs
   COPYR  = (c) Copyright 08Apr2002 Georg Kresse                                
   COPYR  = This file is part of the software VASP. Any use, copying, and all ot
   COPYR  = If you do not have a valid VASP license, you may not use, copy or di
   VRHFIN =Cs: 5s5p6s                                                           
   LEXCH  = PE                                                                  
   EATOM  =   555.6835 eV,   40.8416 Ry                                         
                                                                                
   TITEL  = PAW_PBE Cs_sv 08Apr2002                                             
   LULTRA =        F    use ultrasoft PP ?                                      
   IUNSCR =        1    unscreen: 0-lin 1-nonlin 2-no                           
   RPACOR =    2.200    partial core radius                                     
   POMASS =  132.900; ZVAL   =    9.000    mass and valenz                      
   RCORE  =    2.500    outmost cutoff radius                                   
   RWIGS  =    2.500; RWIGS  =    1.323    wigner-seitz radius (au A)           
   ENMAX  =  220.318; ENMIN  =  165.238 eV                                      
   RCLOC  =    2.207    cutoff for local pot                                    
   LCOR   =        T    correct aug charges                                     
   LPAW   =        T    paw PP                                                  
   EAUG   =  407.933                                                            
   DEXC   =    0.000                                                            
   RMAX   =    2.554    core radius for proj-oper                               
   RAUG   =    1.300    factor for augmentation sphere                          
   RDEP   =    2.590    radius for radial grids                                 
   RDEPT  =    2.117    core radius for aug-charge                              
                                                                                
   Atomic configuration                                                         
   13 entries                                                                   
     n  l   j            E        occ.                                          
     1  0  0.50    -35790.1377   2.0000                                         
     2  0  0.50     -5613.6201   2.0000                                         
     2  1  1.50     -5035.0101   6.0000                                         
     3  0  0.50     -1167.0767   2.0000                                         
     3  1  1.50      -980.9754   6.0000                                         
     3  2  2.50      -708.0703  10.0000                                         
     4  0  0.50      -220.2386   2.0000                                         
     4  1  1.50      -160.7596   6.0000                                         
     4  2  2.50       -74.2354  10.0000                                         
     5  0  0.50       -26.7287   2.0000                                         
     6  0  0.50        -2.0862   1.0000                                         
     5  1  1.50       -13.5159   6.0000                                         
     5  2  2.50        -0.4136   0.0000                                         
   Description                                                                  
     l       E           TYP  RCUT    TYP  RCUT                                 
     0    -26.7287425     23  1.900                                             
     0     -2.0862306     23  1.900                                             
     1    -13.5158719     23  2.500                                             
     1     -2.7211652     23  2.500                                             
     2     -0.4136171     23  2.500                                             
  local pseudopotential read in
  partial core-charges read in
  partial kinetic energy density read in
  atomic valenz-charges read in
  non local Contribution for L=           0  read in
    real space projection operators read in
  non local Contribution for L=           0  read in
    real space projection operators read in
  non local Contribution for L=           1  read in
    real space projection operators read in
  non local Contribution for L=           1  read in
    real space projection operators read in
  non local Contribution for L=           2  read in
    real space projection operators read in
    PAW grid and wavefunctions read in

   number of l-projection  operators is LMAX  =           5
   number of lm-projection operators is LMMAX =          13

 POTCAR:    PAW_PBE Pb_d 06Sep2000                
   SHA256 =  fb885b08f0fba73a15f6a6b0e39bd200c13ec96ef97cf3ecd8e63bade5137abd Pb
   COPYR  = (c) Copyright 06Sep2000 Georg Kresse                                
   COPYR  = This file is part of the software VASP. Any use, copying, and all ot
   COPYR  = If you do not have a valid VASP license, you may not use, copy or di
   VRHFIN =Pb:                                                                  
   LEXCH  = PE                                                                  
   EATOM  =  1661.6185 eV,  122.1255 Ry                                         
                                                                                
   TITEL  = PAW_PBE Pb_d 06Sep2000                                              
   LULTRA =        F    use ultrasoft PP ?                                      
   IUNSCR =        1    unscreen: 0-lin 1-nonlin 2-no                           
   RPACOR =    2.200    partial core radius                                     
   POMASS =  207.200; ZVAL   =   14.000    mass and valenz                      
   RCORE  =    2.500    outmost cutoff radius                                   
   RWIGS  =    3.260; RWIGS  =    1.725    wigner-seitz radius (au A)           
   ENMAX  =  237.835; ENMIN  =  178.376 eV                                      
   ICORE  =        3    local potential                                         
   LCOR   =        T    correct aug charges                                     
   LPAW   =        T    paw PP                                                  
   EAUG   =  391.914                                                            
   DEXC   =    0.000                                                            
   RMAX   =    2.565    core radius for proj-oper                               
   RAUG   =    1.300    factor for augmentation sphere                          
   RDEP   =    2.643    radius for radial grids                                 
   RDEPT  =    2.092    core radius for aug-charge                              
                                                                                
   Atomic configuration                                                         
   16 entries                                                                   
     n  l   j            E        occ.                                          
     1  0  0.50    -88091.8466   2.0000                                         
     2  0  0.50    -15753.4197   2.0000                                         
     2  1  1.50    -13508.1797   6.0000                                         
     3  0  0.50     -3781.7194   2.0000                                         
     3  1  1.50     -3138.2529   6.0000                                         
     3  2  2.50     -2483.2977  10.0000                                         
     4  0  0.50      -856.2895   2.0000                                         
     4  1  1.50      -645.4942   6.0000                                         
     4  2  2.50      -401.8768  10.0000                                         
     4  3  3.50      -132.9059  14.0000                                         
     5  0  0.50      -144.0950   2.0000                                         
     5  1  1.50       -85.7879   6.0000                                         
     5  2  2.50       -21.1769  10.0000                                         
     6  0  0.50       -12.0372   2.0000                                         
     6  1  1.50        -3.4971   2.0000                                         
     5  3  2.50        -2.7212   0.0000                                         
   Description                                                                  
     l       E           TYP  RCUT    TYP  RCUT                                 
     2    -21.1768523     23  2.500                                             
     2      1.3605826     23  2.500                                             
     0    -12.0371562     23  2.500                                             
     0     13.6058260     23  2.500                                             
     1     -3.4971339     23  2.500                                             
     1     13.6058260     23  2.500                                             
     3     -1.3605826      7  2.500                                             
  local pseudopotential read in
  partial core-charges read in
  partial kinetic energy density read in
  atomic valenz-charges read in
  non local Contribution for L=           2  read in
    real space projection operators read in
  non local Contribution for L=           2  read in
    real space projection operators read in
  non local Contribution for L=           0  read in
    real space projection operators read in
  non local Contribution for L=           0  read in
    real space projection operators read in
  non local Contribution for L=           1  read in
    real space projection operators read in
  non local Contribution for L=           1  read in
    real space projection operators read in
    PAW grid and wavefunctions read in

   number of l-projection  operators is LMAX  =           6
   number of lm-projection operators is LMMAX =          18

 POTCAR:    PAW_PBE Br 06Sep2000                  
   SHA256 =  96a73d2954943bbee26f4990d676cc6c3bf44b8dd2c75cd4b3b825d8403f0103 Br
   COPYR  = (c) Copyright 06Sep2000 Georg Kresse                                
   COPYR  = This file is part of the software VASP. Any use, copying, and all ot
   COPYR  = If you do not have a valid VASP license, you may not use, copy or di
   VRHFIN =Br: s2p5                                                             
   LEXCH  = PE                                                                  
   EATOM  =   368.4488 eV,   27.0802 Ry                                         
                                                                                
   TITEL  = PAW_PBE Br 06Sep2000                                                
   LULTRA =        F    use ultrasoft PP ?                                      
   IUNSCR =        1    unscreen: 0-lin 1-nonlin 2-no                           
   RPACOR =    1.900    partial core radius                                     
   POMASS =   79.904; ZVAL   =    7.000    mass and valenz                      
   RCORE  =    2.100    outmost cutoff radius                                   
   RWIGS  =    2.200; RWIGS  =    1.164    wigner-seitz radius (au A)           
   ENMAX  =  216.285; ENMIN  =  162.214 eV                                      
   ICORE  =        3    local potential                                         
   LCOR   =        T    correct aug charges                                     
   LPAW   =        T    paw PP                                                  
   EAUG   =  503.852                                                            
   DEXC   =    0.000                                                            
   RMAX   =    2.139    core radius for proj-oper                               
   RAUG   =    1.300    factor for augmentation sphere                          
   RDEP   =    2.186    radius for radial grids                                 
   RDEPT  =    1.890    core radius for aug-charge                              
                                                                                
   Atomic configuration                                                         
   10 entries                                                                   
     n  l   j            E        occ.                                          
     1  0  0.50    -13316.2796   2.0000                                         
     2  0  0.50     -1732.8239   2.0000                                         
     2  1  1.50     -1528.2193   6.0000                                         
     3  0  0.50      -238.0460   2.0000                                         
     3  1  1.50      -173.4609   6.0000                                         
     3  2  2.50       -66.7132  10.0000                                         
     4  0  0.50       -20.1334   2.0000                                         
     4  1  0.50        -7.8591   5.0000                                         
     4  2  2.50        -8.1635   0.0000                                         
     4  3  2.50        -8.1635   0.0000                                         
   Description                                                                  
     l       E           TYP  RCUT    TYP  RCUT                                 
     0    -20.1333652     23  2.100                                             
     0    -21.4939478     23  2.100                                             
     1     -7.8591052     23  2.100                                             
     1     -3.1608434     23  2.100                                             
     2     -8.1634956     23  2.100                                             
     3     -1.3605826      7  2.100                                             
  local pseudopotential read in
  partial core-charges read in
  partial kinetic energy density read in
  atomic valenz-charges read in
  non local Contribution for L=           0  read in
    real space projection operators read in
  non local Contribution for L=           0  read in
    real space projection operators read in
  non local Contribution for L=           1  read in
    real space projection operators read in
  non local Contribution for L=           1  read in
    real space projection operators read in
  non local Contribution for L=           2  read in
    real space projection operators read in
    PAW grid and wavefunctions read in

   number of l-projection  operators is LMAX  =           5
   number of lm-projection operators is LMMAX =          13

 Optimization of the real space projectors (new method)

 maximal supplied QI-value         = 15.12
 optimisation between [QCUT,QGAM] = [ 12.55, 25.10] = [ 44.09,176.36] Ry 
 Optimized for a Real-space Cutoff    1.47 Angstroem

   l    n(q)    QCUT    max X(q) W(low)/X(q) W(high)/X(q)  e(spline) 
   0     11    12.548    25.322    0.38E-04    0.18E-04    0.10E-05
   0     11    12.548    99.187    0.36E-04    0.17E-04    0.98E-06
   1     11    12.548    11.761    0.23E-03    0.31E-03    0.90E-06
   1     11    12.548     8.275    0.24E-03    0.34E-03    0.99E-06
   2     10    12.548     3.829    0.23E-03    0.26E-04    0.72E-06
 Optimization of the real space projectors (new method)

 maximal supplied QI-value         = 15.12
 optimisation between [QCUT,QGAM] = [ 12.55, 25.10] = [ 44.09,176.36] Ry 
 Optimized for a Real-space Cutoff    1.39 Angstroem

   l    n(q)    QCUT    max X(q) W(low)/X(q) W(high)/X(q)  e(spline) 
   2      9    12.548     3.846    0.15E-03    0.13E-04    0.17E-06
   2      9    12.548     8.593    0.12E-03    0.38E-04    0.12E-06
   0     10    12.548    20.082    0.44E-04    0.25E-04    0.28E-06
   0     10    12.548     8.597    0.57E-04    0.35E-04    0.39E-06
   1     10    12.548    33.223    0.72E-04    0.14E-03    0.14E-06
   1     10    12.548    15.899    0.64E-04    0.13E-03    0.12E-06
 Optimization of the real space projectors (new method)

 maximal supplied QI-value         = 17.95
 optimisation between [QCUT,QGAM] = [ 12.39, 24.95] = [ 42.97,174.37] Ry 
 Optimized for a Real-space Cutoff    1.20 Angstroem

   l    n(q)    QCUT    max X(q) W(low)/X(q) W(high)/X(q)  e(spline) 
   0      9    12.387   175.082    0.21E-03    0.13E-03    0.49E-07
   0      9    12.387   174.004    0.20E-03    0.12E-03    0.48E-07
   1      8    12.387    54.315    0.17E-03    0.15E-03    0.16E-06
   1      8    12.387    42.441    0.17E-03    0.14E-03    0.16E-06
   2      8    12.387     3.596    0.23E-03    0.14E-03    0.41E-07
  PAW_PBE Cs_sv 08Apr2002               :
 energy of atom  1       EATOM= -555.6835
 kinetic energy error for atom=    0.0012 (will be added to EATOM!!)
  PAW_PBE Pb_d 06Sep2000                :
 energy of atom  2       EATOM=-1661.6185
 kinetic energy error for atom=    0.0014 (will be added to EATOM!!)
  PAW_PBE Br 06Sep2000                  :
 energy of atom  3       EATOM= -368.4488
 kinetic energy error for atom=    0.0009 (will be added to EATOM!!)


 POSCAR: Cs4 Pb4 Br12                            
  positions in direct lattice
  velocities in cartesian coordinates

 METAGGA = SCAN     LMAXTAU =  6    LMIXTAU =  F

 exchange correlation table for  LEXCH =        8
   RHO(1)=    0.500       N(1)  =     2000
   RHO(2)=  100.500       N(2)  =     4000

 VTST: version 3.2, (02/03/18)

 CHAIN: initializing optimizer
 
 OPT: Using VASP Conjugate-Gradient optimizer
 CHAIN: Read ICHAIN            0

 POSCAR: Cs4 Pb4 Br12                            
  positions in direct lattice
  velocities in cartesian coordinates



--------------------------------------------------------------------------------------------------------


 ion  position               nearest neighbor table
   1  0.063  0.250  0.480-
   2  0.437  0.750  0.980-
   3  0.563  0.250  0.020-
   4  0.937  0.750  0.520-
   5  0.000  0.000  0.000-  15 2.99  18 2.99  16 3.00  17 3.00  10 3.05  11 3.05
   6  0.500  0.000  0.500-  17 2.99  16 2.99  15 3.00  18 3.00   9 3.05  12 3.05
   7  0.500  0.500  0.500-  13 2.99  19 2.99  14 3.00  20 3.00   9 3.05  12 3.05
   8  0.000  0.500  0.000-  14 2.99  20 2.99  19 3.00  13 3.00  10 3.05  11 3.05
   9  0.502  0.750  0.453-   6 3.05   7 3.05
  10  0.998  0.250  0.953-   5 3.05   8 3.05
  11  0.002  0.750  0.047-   5 3.05   8 3.05
  12  0.498  0.250  0.547-   6 3.05   7 3.05
  13  0.308  0.472  0.186-   7 2.99   8 3.00
  14  0.192  0.528  0.686-   8 2.99   7 3.00
  15  0.808  0.028  0.314-   5 2.99   6 3.00
  16  0.692  0.972  0.814-   6 2.99   5 3.00
  17  0.308  0.028  0.186-   6 2.99   5 3.00
  18  0.192  0.972  0.686-   5 2.99   6 3.00
  19  0.692  0.528  0.814-   7 2.99   8 3.00
  20  0.808  0.472  0.314-   8 2.99   7 3.00

  LATTYP: Found a simple orthorhombic cell.
 ALAT       =     7.9319807319
 B/A-ratio  =     1.0591908620
 C/A-ratio  =     1.5275783474
  
  Lattice vectors:
  
 A1 = (   0.0000000000,   0.0000000000,   7.9319807319)
 A2 = (  -8.4014815090,   0.0000000000,   0.0000000000)
 A3 = (   0.0000000000, -12.1167220182,   0.0000000000)


Analysis of symmetry for initial positions (statically):
=====================================================================
 Subroutine PRICEL returns:
 Original cell was already a primitive cell.
 

 Routine SETGRP: Setting up the symmetry group for a 
 simple orthorhombic supercell.


 Subroutine GETGRP returns: Found  8 space group operations
 (whereof  2 operations were pure point group operations)
 out of a pool of  8 trial point group operations.


The static configuration has the point symmetry S_2 .
 The point group associated with its full space group is D_2h.


Analysis of symmetry for dynamics (positions and initial velocities):
=====================================================================
 Subroutine PRICEL returns:
 Original cell was already a primitive cell.
 

 Routine SETGRP: Setting up the symmetry group for a 
 simple orthorhombic supercell.


 Subroutine GETGRP returns: Found  8 space group operations
 (whereof  2 operations were pure point group operations)
 out of a pool of  8 trial point group operations.


The dynamic configuration has the point symmetry S_2 .
 The point group associated with its full space group is D_2h.


 Subroutine INISYM returns: Found  8 space group operations
 (whereof  2 operations are pure point group operations),
 and found     1 'primitive' translations



 KPOINTS: 1x1x1                                   

Automatic generation of k-mesh.
Space group operators:
 irot       det(A)        alpha          n_x          n_y          n_z        tau_x        tau_y        tau_z
    1     1.000000     0.000000     1.000000     0.000000     0.000000     0.000000     0.000000     0.000000
    2    -1.000000     0.000000     1.000000     0.000000     0.000000     0.000000     0.000000     0.000000
    3     1.000000   180.000000     0.000000     1.000000     0.000000     0.000000    -0.500000     0.000000
    4    -1.000000   180.000000     0.000000     1.000000     0.000000     0.000000    -0.500000     0.000000
    5     1.000000   180.000000     1.000000     0.000000     0.000000    -0.500000    -0.500000     0.500000
    6    -1.000000   180.000000     1.000000     0.000000     0.000000    -0.500000    -0.500000     0.500000
    7     1.000000   180.000000     0.000000     0.000000     1.000000    -0.500000     0.000000     0.500000
    8    -1.000000   180.000000     0.000000     0.000000     1.000000    -0.500000     0.000000     0.500000
 
 Subroutine IBZKPT returns following result:
 ===========================================
 
 Found    100 irreducible k-points:
 
 Following reciprocal coordinates:
            Coordinates               Weight
  0.000000  0.000000  0.000000      1.000000
  0.125000  0.000000  0.000000      2.000000
  0.250000  0.000000  0.000000      2.000000
  0.375000  0.000000  0.000000      2.000000
  0.500000  0.000000  0.000000      1.000000
  0.000000  0.166667  0.000000      2.000000
  0.125000  0.166667  0.000000      4.000000
  0.250000  0.166667  0.000000      4.000000
  0.375000  0.166667  0.000000      4.000000
  0.500000  0.166667  0.000000      2.000000
  0.000000  0.333333  0.000000      2.000000
  0.125000  0.333333  0.000000      4.000000
  0.250000  0.333333  0.000000      4.000000
  0.375000  0.333333  0.000000      4.000000
  0.500000  0.333333  0.000000      2.000000
  0.000000  0.500000  0.000000      1.000000
  0.125000  0.500000  0.000000      2.000000
  0.250000  0.500000  0.000000      2.000000
  0.375000  0.500000  0.000000      2.000000
  0.500000  0.500000  0.000000      1.000000
  0.000000  0.000000  0.125000      2.000000
  0.125000  0.000000  0.125000      4.000000
  0.250000  0.000000  0.125000      4.000000
  0.375000  0.000000  0.125000      4.000000
  0.500000  0.000000  0.125000      2.000000
  0.000000  0.166667  0.125000      4.000000
  0.125000  0.166667  0.125000      8.000000
  0.250000  0.166667  0.125000      8.000000
  0.375000  0.166667  0.125000      8.000000
  0.500000  0.166667  0.125000      4.000000
  0.000000  0.333333  0.125000      4.000000
  0.125000  0.333333  0.125000      8.000000
  0.250000  0.333333  0.125000      8.000000
  0.375000  0.333333  0.125000      8.000000
  0.500000  0.333333  0.125000      4.000000
  0.000000  0.500000  0.125000      2.000000
  0.125000  0.500000  0.125000      4.000000
  0.250000  0.500000  0.125000      4.000000
  0.375000  0.500000  0.125000      4.000000
  0.500000  0.500000  0.125000      2.000000
  0.000000  0.000000  0.250000      2.000000
  0.125000  0.000000  0.250000      4.000000
  0.250000  0.000000  0.250000      4.000000
  0.375000  0.000000  0.250000      4.000000
  0.500000  0.000000  0.250000      2.000000
  0.000000  0.166667  0.250000      4.000000
  0.125000  0.166667  0.250000      8.000000
  0.250000  0.166667  0.250000      8.000000
  0.375000  0.166667  0.250000      8.000000
  0.500000  0.166667  0.250000      4.000000
  0.000000  0.333333  0.250000      4.000000
  0.125000  0.333333  0.250000      8.000000
  0.250000  0.333333  0.250000      8.000000
  0.375000  0.333333  0.250000      8.000000
  0.500000  0.333333  0.250000      4.000000
  0.000000  0.500000  0.250000      2.000000
  0.125000  0.500000  0.250000      4.000000
  0.250000  0.500000  0.250000      4.000000
  0.375000  0.500000  0.250000      4.000000
  0.500000  0.500000  0.250000      2.000000
  0.000000  0.000000  0.375000      2.000000
  0.125000  0.000000  0.375000      4.000000
  0.250000  0.000000  0.375000      4.000000
  0.375000  0.000000  0.375000      4.000000
  0.500000  0.000000  0.375000      2.000000
  0.000000  0.166667  0.375000      4.000000
  0.125000  0.166667  0.375000      8.000000
  0.250000  0.166667  0.375000      8.000000
  0.375000  0.166667  0.375000      8.000000
  0.500000  0.166667  0.375000      4.000000
  0.000000  0.333333  0.375000      4.000000
  0.125000  0.333333  0.375000      8.000000
  0.250000  0.333333  0.375000      8.000000
  0.375000  0.333333  0.375000      8.000000
  0.500000  0.333333  0.375000      4.000000
  0.000000  0.500000  0.375000      2.000000
  0.125000  0.500000  0.375000      4.000000
  0.250000  0.500000  0.375000      4.000000
  0.375000  0.500000  0.375000      4.000000
  0.500000  0.500000  0.375000      2.000000
  0.000000  0.000000  0.500000      1.000000
  0.125000  0.000000  0.500000      2.000000
  0.250000  0.000000  0.500000      2.000000
  0.375000  0.000000  0.500000      2.000000
  0.500000  0.000000  0.500000      1.000000
  0.000000  0.166667  0.500000      2.000000
  0.125000  0.166667  0.500000      4.000000
  0.250000  0.166667  0.500000      4.000000
  0.375000  0.166667  0.500000      4.000000
  0.500000  0.166667  0.500000      2.000000
  0.000000  0.333333  0.500000      2.000000
  0.125000  0.333333  0.500000      4.000000
  0.250000  0.333333  0.500000      4.000000
  0.375000  0.333333  0.500000      4.000000
  0.500000  0.333333  0.500000      2.000000
  0.000000  0.500000  0.500000      1.000000
  0.125000  0.500000  0.500000      2.000000
  0.250000  0.500000  0.500000      2.000000
  0.375000  0.500000  0.500000      2.000000
  0.500000  0.500000  0.500000      1.000000
 
 Following cartesian coordinates:
            Coordinates               Weight
  0.000000  0.000000  0.000000      1.000000
  0.014878  0.000000  0.000000      2.000000
  0.029757  0.000000  0.000000      2.000000
  0.044635  0.000000  0.000000      2.000000
  0.059513  0.000000  0.000000      1.000000
  0.000000  0.013755  0.000000      2.000000
  0.014878  0.013755  0.000000      4.000000
  0.029757  0.013755  0.000000      4.000000
  0.044635  0.013755  0.000000      4.000000
  0.059513  0.013755  0.000000      2.000000
  0.000000  0.027510  0.000000      2.000000
  0.014878  0.027510  0.000000      4.000000
  0.029757  0.027510  0.000000      4.000000
  0.044635  0.027510  0.000000      4.000000
  0.059513  0.027510  0.000000      2.000000
  0.000000  0.041265  0.000000      1.000000
  0.014878  0.041265  0.000000      2.000000
  0.029757  0.041265  0.000000      2.000000
  0.044635  0.041265  0.000000      2.000000
  0.059513  0.041265  0.000000      1.000000
  0.000000  0.000000  0.015759      2.000000
  0.014878  0.000000  0.015759      4.000000
  0.029757  0.000000  0.015759      4.000000
  0.044635  0.000000  0.015759      4.000000
  0.059513  0.000000  0.015759      2.000000
  0.000000  0.013755  0.015759      4.000000
  0.014878  0.013755  0.015759      8.000000
  0.029757  0.013755  0.015759      8.000000
  0.044635  0.013755  0.015759      8.000000
  0.059513  0.013755  0.015759      4.000000
  0.000000  0.027510  0.015759      4.000000
  0.014878  0.027510  0.015759      8.000000
  0.029757  0.027510  0.015759      8.000000
  0.044635  0.027510  0.015759      8.000000
  0.059513  0.027510  0.015759      4.000000
  0.000000  0.041265  0.015759      2.000000
  0.014878  0.041265  0.015759      4.000000
  0.029757  0.041265  0.015759      4.000000
  0.044635  0.041265  0.015759      4.000000
  0.059513  0.041265  0.015759      2.000000
  0.000000  0.000000  0.031518      2.000000
  0.014878  0.000000  0.031518      4.000000
  0.029757  0.000000  0.031518      4.000000
  0.044635  0.000000  0.031518      4.000000
  0.059513  0.000000  0.031518      2.000000
  0.000000  0.013755  0.031518      4.000000
  0.014878  0.013755  0.031518      8.000000
  0.029757  0.013755  0.031518      8.000000
  0.044635  0.013755  0.031518      8.000000
  0.059513  0.013755  0.031518      4.000000
  0.000000  0.027510  0.031518      4.000000
  0.014878  0.027510  0.031518      8.000000
  0.029757  0.027510  0.031518      8.000000
  0.044635  0.027510  0.031518      8.000000
  0.059513  0.027510  0.031518      4.000000
  0.000000  0.041265  0.031518      2.000000
  0.014878  0.041265  0.031518      4.000000
  0.029757  0.041265  0.031518      4.000000
  0.044635  0.041265  0.031518      4.000000
  0.059513  0.041265  0.031518      2.000000
  0.000000  0.000000  0.047277      2.000000
  0.014878  0.000000  0.047277      4.000000
  0.029757  0.000000  0.047277      4.000000
  0.044635  0.000000  0.047277      4.000000
  0.059513  0.000000  0.047277      2.000000
  0.000000  0.013755  0.047277      4.000000
  0.014878  0.013755  0.047277      8.000000
  0.029757  0.013755  0.047277      8.000000
  0.044635  0.013755  0.047277      8.000000
  0.059513  0.013755  0.047277      4.000000
  0.000000  0.027510  0.047277      4.000000
  0.014878  0.027510  0.047277      8.000000
  0.029757  0.027510  0.047277      8.000000
  0.044635  0.027510  0.047277      8.000000
  0.059513  0.027510  0.047277      4.000000
  0.000000  0.041265  0.047277      2.000000
  0.014878  0.041265  0.047277      4.000000
  0.029757  0.041265  0.047277      4.000000
  0.044635  0.041265  0.047277      4.000000
  0.059513  0.041265  0.047277      2.000000
  0.000000  0.000000  0.063036      1.000000
  0.014878  0.000000  0.063036      2.000000
  0.029757  0.000000  0.063036      2.000000
  0.044635  0.000000  0.063036      2.000000
  0.059513  0.000000  0.063036      1.000000
  0.000000  0.013755  0.063036      2.000000
  0.014878  0.013755  0.063036      4.000000
  0.029757  0.013755  0.063036      4.000000
  0.044635  0.013755  0.063036      4.000000
  0.059513  0.013755  0.063036      2.000000
  0.000000  0.027510  0.063036      2.000000
  0.014878  0.027510  0.063036      4.000000
  0.029757  0.027510  0.063036      4.000000
  0.044635  0.027510  0.063036      4.000000
  0.059513  0.027510  0.063036      2.000000
  0.000000  0.041265  0.063036      1.000000
  0.014878  0.041265  0.063036      2.000000
  0.029757  0.041265  0.063036      2.000000
  0.044635  0.041265  0.063036      2.000000
  0.059513  0.041265  0.063036      1.000000
 


--------------------------------------------------------------------------------------------------------




 Dimension of arrays:
   k-points           NKPTS =    100   k-points in BZ     NKDIM =    100   number of bands    NBANDS=    112
   number of dos      NEDOS =    301   number of ions     NIONS =     20
   non local maximal  LDIM  =      6   non local SUM 2l+1 LMDIM =     18
   total plane-waves  NPLWV = 439040
   max r-space proj   IRMAX =   7295   max aug-charges    IRDMAX= 231115
   dimension x,y,z NGX =    70 NGY =   98 NGZ =   64
   dimension x,y,z NGXF=   140 NGYF=  196 NGZF=  128
   support grid    NGXF=   280 NGYF=  392 NGZF=  256
   ions per type =               4   4  12
   NGX,Y,Z   is equivalent  to a cutoff of  13.85, 13.45, 13.41 a.u.
   NGXF,Y,Z  is equivalent  to a cutoff of  27.70, 26.89, 26.83 a.u.

 SYSTEM =  CsPbBr3 cubic bulk                      
 POSCAR =  Cs4 Pb4 Br12                            

 Startparameter for this run:
   NWRITE =      2    write-flag & timer
   PREC   = accura    normal or accurate (medium, high low for compatibility)
   ISTART =      0    job   : 0-new  1-cont  2-samecut
   ICHARG =      2    charge: 1-file 2-atom 10-const
   ISPIN  =      1    spin polarized calculation?
   LNONCOLLINEAR =      F non collinear calculations
   LSORBIT =      F    spin-orbit coupling
   INIWAV =      1    electr: 0-lowe 1-rand  2-diag
   LASPH  =      T    aspherical Exc in radial PAW
   METAGGA=      F    non-selfconsistent MetaGGA calc.

 Electronic Relaxation 1
   ENCUT  =  600.0 eV  44.10 Ry    6.64 a.u.  16.78 24.20 15.84*2*pi/ulx,y,z
   ENINI  =  600.0     initial cutoff
   ENAUG  =  503.9 eV  augmentation charge cutoff
   NELM   =    200;   NELMIN=  2; NELMDL=  0     # of ELM steps 
   EDIFF  = 0.1E-07   stopping-criterion for ELM
   LREAL  =      T    real-space projection
   NLSPLINE    = F    spline interpolate recip. space projectors
   LCOMPAT=      F    compatible to vasp.4.4
   GGA_COMPAT  = T    GGA compatible to vasp.4.4-vasp.4.6
   LMAXPAW     = -100 max onsite density
   LMAXMIX     =    2 max onsite mixed and CHGCAR
   VOSKOWN=      0    Vosko Wilk Nusair interpolation
   ROPT   =   -0.00025  -0.00025  -0.00025
 Ionic relaxation
   EDIFFG = -.1E-02   stopping-criterion for IOM
   NSW    =    100    number of steps for IOM
   NBLOCK =      1;   KBLOCK =    100    inner block; outer block 
   IBRION =      2    ionic relax: 0-MD 1-quasi-New 2-CG
   NFREE  =      1    steps in history (QN), initial steepest desc. (CG)
   ISIF   =      3    stress and relaxation
   IWAVPR =     11    prediction:  0-non 1-charg 2-wave 3-comb
   ISYM   =      2    0-nonsym 1-usesym 2-fastsym
   LCORR  =      T    Harris-Foulkes like correction to forces

   POTIM  = 0.5000    time-step for ionic-motion
   TEIN   =    0.0    initial temperature
   TEBEG  =    0.0;   TEEND  =   0.0 temperature during run
   SMASS  =  -3.00    Nose mass-parameter (am)
   estimated Nose-frequenzy (Omega)   =  0.10E-29 period in steps =****** mass=  -0.161E-26a.u.
   SCALEE = 1.0000    scale energy and forces
   NPACO  =    256;   APACO  = 16.0  distance and # of slots for P.C.
   PSTRESS=    0.0 pullay stress

  Mass of Ions in am
   POMASS = 132.90207.20 79.90
  Ionic Valenz
   ZVAL   =   9.00 14.00  7.00
  Atomic Wigner-Seitz radii
   RWIGS  =  -1.00 -1.00 -1.00
  virtual crystal weights 
   VCA    =   1.00  1.00  1.00
   NELECT =     176.0000    total number of electrons
   NUPDOWN=      -1.0000    fix difference up-down

 DOS related values:
   EMIN   =  10.00;   EMAX   =-10.00  energy-range for DOS
   EFERMI =   0.00
   ISMEAR =     0;   SIGMA  =   0.01  broadening in eV -4-tet -1-fermi 0-gaus

 Electronic relaxation 2 (details)
   IALGO  =     38    algorithm
   LDIAG  =      T    sub-space diagonalisation (order eigenvalues)
   LSUBROT=      F    optimize rotation matrix (better conditioning)
   TURBO    =      0    0=normal 1=particle mesh
   IRESTART =      0    0=no restart 2=restart with 2 vectors
   NREBOOT  =      0    no. of reboots
   NMIN     =      0    reboot dimension
   EREF     =   0.00    reference energy to select bands
   IMIX   =      4    mixing-type and parameters
     AMIX     =   0.40;   BMIX     =  1.00
     AMIX_MAG =   1.60;   BMIX_MAG =  1.00
     AMIN     =   0.10
     WC   =   100.;   INIMIX=   1;  MIXPRE=   1;  MAXMIX= -45

 Intra band minimization:
   WEIMIN = 0.0010     energy-eigenvalue tresh-hold
   EBREAK =  0.22E-10  absolut break condition
   DEPER  =   0.30     relativ break condition  

   TIME   =   0.40     timestep for ELM

  volume/ion in A,a.u.               =      40.37       272.45
  Fermi-wavevector in a.u.,A,eV,Ry     =   0.985231  1.861817 13.206911  0.970681
  Thomas-Fermi vector in A             =   2.116523

 Write flags
   LWAVE        =      F    write WAVECAR
   LDOWNSAMPLE  =      F    k-point downsampling of WAVECAR
   LCHARG       =      F    write CHGCAR
   LVTOT        =      F    write LOCPOT, total local potential
   LVHAR        =      T    write LOCPOT, Hartree potential only
   LELF         =      F    write electronic localiz. function (ELF)
   LORBIT       =     10    0 simple, 1 ext, 2 COOP (PROOUT), +10 PAW based schemes


 Dipole corrections
   LMONO  =      F    monopole corrections only (constant potential shift)
   LDIPOL =      F    correct potential (dipole corrections)
   IDIPOL =      0    1-x, 2-y, 3-z, 4-all directions 
   EPSILON=  1.0000000 bulk dielectric constant

 Exchange correlation treatment:
   GGA     =    --    GGA type
   LEXCH   =     8    internal setting for exchange type
   VOSKOWN=      0    Vosko Wilk Nusair interpolation
   LHFCALC =     F    Hartree Fock is set to
   LHFONE  =     F    Hartree Fock one center treatment
   AEXX    =    0.0000 exact exchange contribution

 Linear response parameters
   LEPSILON=     F    determine dielectric tensor
   LRPA    =     F    only Hartree local field effects (RPA)
   LNABLA  =     F    use nabla operator in PAW spheres
   LVEL    =     F    velocity operator in full k-point grid
   LINTERFAST=   F  fast interpolation
   KINTER  =     0    interpolate to denser k-point grid
   CSHIFT  =0.1000    complex shift for real part using Kramers Kronig
   OMEGAMAX=  -1.0    maximum frequency
   DEG_THRESHOLD= 0.2000000E-02 threshold for treating states as degnerate
   RTIME   =   -0.100 relaxation time in fs
  (WPLASMAI=    0.000 imaginary part of plasma frequency in eV, 0.658/RTIME)
   DFIELD  = 0.0000000 0.0000000 0.0000000 field for delta impulse in time

 Orbital magnetization related:
   ORBITALMAG=     F  switch on orbital magnetization
   LCHIMAG   =     F  perturbation theory with respect to B field
   DQ        =  0.001000  dq finite difference perturbation B field
   LLRAUG    =     F  two centre corrections for induced B field



--------------------------------------------------------------------------------------------------------


 conjugate gradient relaxation of ions
 charge density and potential will be updated during run
 non-spin polarized calculation
 Variant of blocked Davidson
 Davidson routine will perform the subspace rotation
 perform sub-space diagonalisation
    after iterative eigenvector-optimisation
 modified Broyden-mixing scheme, WC =      100.0
 initial mixing is a Kerker type mixing with AMIX =  0.4000 and BMIX =      1.0000
 Hartree-type preconditioning will be used
 using additional bands           24
 real space projection scheme for non local part
 use partial core corrections
 calculate Harris-corrections to forces   (improved forces if not selfconsistent)
 use gradient corrections 
 use of overlap-Matrix (Vanderbilt PP)
 Gauss-broadening in eV      SIGMA  =   0.01


--------------------------------------------------------------------------------------------------------


  energy-cutoff  :      600.00
  volume of cell :      807.46
      direct lattice vectors                 reciprocal lattice vectors
     8.401481509  0.000000000  0.000000000     0.119026626  0.000000000  0.000000000
     0.000000000 12.116722018  0.000000000     0.000000000  0.082530572  0.000000000
     0.000000000  0.000000000  7.931980732     0.000000000  0.000000000  0.126071915

  length of vectors
     8.401481509 12.116722018  7.931980732     0.119026626  0.082530572  0.126071915



 k-points in units of 2pi/SCALE and weight: 1x1x1                                   
   0.00000000  0.00000000  0.00000000       0.003
   0.01487833  0.00000000  0.00000000       0.005
   0.02975666  0.00000000  0.00000000       0.005
   0.04463498  0.00000000  0.00000000       0.005
   0.05951331  0.00000000  0.00000000       0.003
   0.00000000  0.01375510  0.00000000       0.005
   0.01487833  0.01375510  0.00000000       0.010
   0.02975666  0.01375510  0.00000000       0.010
   0.04463498  0.01375510  0.00000000       0.010
   0.05951331  0.01375510  0.00000000       0.005
   0.00000000  0.02751019  0.00000000       0.005
   0.01487833  0.02751019  0.00000000       0.010
   0.02975666  0.02751019  0.00000000       0.010
   0.04463498  0.02751019  0.00000000       0.010
   0.05951331  0.02751019  0.00000000       0.005
   0.00000000  0.04126529  0.00000000       0.003
   0.01487833  0.04126529  0.00000000       0.005
   0.02975666  0.04126529  0.00000000       0.005
   0.04463498  0.04126529  0.00000000       0.005
   0.05951331  0.04126529  0.00000000       0.003
   0.00000000  0.00000000  0.01575899       0.005
   0.01487833  0.00000000  0.01575899       0.010
   0.02975666  0.00000000  0.01575899       0.010
   0.04463498  0.00000000  0.01575899       0.010
   0.05951331  0.00000000  0.01575899       0.005
   0.00000000  0.01375510  0.01575899       0.010
   0.01487833  0.01375510  0.01575899       0.021
   0.02975666  0.01375510  0.01575899       0.021
   0.04463498  0.01375510  0.01575899       0.021
   0.05951331  0.01375510  0.01575899       0.010
   0.00000000  0.02751019  0.01575899       0.010
   0.01487833  0.02751019  0.01575899       0.021
   0.02975666  0.02751019  0.01575899       0.021
   0.04463498  0.02751019  0.01575899       0.021
   0.05951331  0.02751019  0.01575899       0.010
   0.00000000  0.04126529  0.01575899       0.005
   0.01487833  0.04126529  0.01575899       0.010
   0.02975666  0.04126529  0.01575899       0.010
   0.04463498  0.04126529  0.01575899       0.010
   0.05951331  0.04126529  0.01575899       0.005
   0.00000000  0.00000000  0.03151798       0.005
   0.01487833  0.00000000  0.03151798       0.010
   0.02975666  0.00000000  0.03151798       0.010
   0.04463498  0.00000000  0.03151798       0.010
   0.05951331  0.00000000  0.03151798       0.005
   0.00000000  0.01375510  0.03151798       0.010
   0.01487833  0.01375510  0.03151798       0.021
   0.02975666  0.01375510  0.03151798       0.021
   0.04463498  0.01375510  0.03151798       0.021
   0.05951331  0.01375510  0.03151798       0.010
   0.00000000  0.02751019  0.03151798       0.010
   0.01487833  0.02751019  0.03151798       0.021
   0.02975666  0.02751019  0.03151798       0.021
   0.04463498  0.02751019  0.03151798       0.021
   0.05951331  0.02751019  0.03151798       0.010
   0.00000000  0.04126529  0.03151798       0.005
   0.01487833  0.04126529  0.03151798       0.010
   0.02975666  0.04126529  0.03151798       0.010
   0.04463498  0.04126529  0.03151798       0.010
   0.05951331  0.04126529  0.03151798       0.005
   0.00000000  0.00000000  0.04727697       0.005
   0.01487833  0.00000000  0.04727697       0.010
   0.02975666  0.00000000  0.04727697       0.010
   0.04463498  0.00000000  0.04727697       0.010
   0.05951331  0.00000000  0.04727697       0.005
   0.00000000  0.01375510  0.04727697       0.010
   0.01487833  0.01375510  0.04727697       0.021
   0.02975666  0.01375510  0.04727697       0.021
   0.04463498  0.01375510  0.04727697       0.021
   0.05951331  0.01375510  0.04727697       0.010
   0.00000000  0.02751019  0.04727697       0.010
   0.01487833  0.02751019  0.04727697       0.021
   0.02975666  0.02751019  0.04727697       0.021
   0.04463498  0.02751019  0.04727697       0.021
   0.05951331  0.02751019  0.04727697       0.010
   0.00000000  0.04126529  0.04727697       0.005
   0.01487833  0.04126529  0.04727697       0.010
   0.02975666  0.04126529  0.04727697       0.010
   0.04463498  0.04126529  0.04727697       0.010
   0.05951331  0.04126529  0.04727697       0.005
   0.00000000  0.00000000  0.06303596       0.003
   0.01487833  0.00000000  0.06303596       0.005
   0.02975666  0.00000000  0.06303596       0.005
   0.04463498  0.00000000  0.06303596       0.005
   0.05951331  0.00000000  0.06303596       0.003
   0.00000000  0.01375510  0.06303596       0.005
   0.01487833  0.01375510  0.06303596       0.010
   0.02975666  0.01375510  0.06303596       0.010
   0.04463498  0.01375510  0.06303596       0.010
   0.05951331  0.01375510  0.06303596       0.005
   0.00000000  0.02751019  0.06303596       0.005
   0.01487833  0.02751019  0.06303596       0.010
   0.02975666  0.02751019  0.06303596       0.010
   0.04463498  0.02751019  0.06303596       0.010
   0.05951331  0.02751019  0.06303596       0.005
   0.00000000  0.04126529  0.06303596       0.003
   0.01487833  0.04126529  0.06303596       0.005
   0.02975666  0.04126529  0.06303596       0.005
   0.04463498  0.04126529  0.06303596       0.005
   0.05951331  0.04126529  0.06303596       0.003

 k-points in reciprocal lattice and weights: 1x1x1                                   
   0.00000000  0.00000000  0.00000000       0.003
   0.12500000  0.00000000  0.00000000       0.005
   0.25000000  0.00000000  0.00000000       0.005
   0.37500000  0.00000000  0.00000000       0.005
   0.50000000  0.00000000  0.00000000       0.003
   0.00000000  0.16666667  0.00000000       0.005
   0.12500000  0.16666667  0.00000000       0.010
   0.25000000  0.16666667  0.00000000       0.010
   0.37500000  0.16666667  0.00000000       0.010
   0.50000000  0.16666667  0.00000000       0.005
   0.00000000  0.33333333  0.00000000       0.005
   0.12500000  0.33333333  0.00000000       0.010
   0.25000000  0.33333333  0.00000000       0.010
   0.37500000  0.33333333  0.00000000       0.010
   0.50000000  0.33333333  0.00000000       0.005
   0.00000000  0.50000000  0.00000000       0.003
   0.12500000  0.50000000  0.00000000       0.005
   0.25000000  0.50000000  0.00000000       0.005
   0.37500000  0.50000000  0.00000000       0.005
   0.50000000  0.50000000  0.00000000       0.003
   0.00000000  0.00000000  0.12500000       0.005
   0.12500000  0.00000000  0.12500000       0.010
   0.25000000  0.00000000  0.12500000       0.010
   0.37500000  0.00000000  0.12500000       0.010
   0.50000000  0.00000000  0.12500000       0.005
   0.00000000  0.16666667  0.12500000       0.010
   0.12500000  0.16666667  0.12500000       0.021
   0.25000000  0.16666667  0.12500000       0.021
   0.37500000  0.16666667  0.12500000       0.021
   0.50000000  0.16666667  0.12500000       0.010
   0.00000000  0.33333333  0.12500000       0.010
   0.12500000  0.33333333  0.12500000       0.021
   0.25000000  0.33333333  0.12500000       0.021
   0.37500000  0.33333333  0.12500000       0.021
   0.50000000  0.33333333  0.12500000       0.010
   0.00000000  0.50000000  0.12500000       0.005
   0.12500000  0.50000000  0.12500000       0.010
   0.25000000  0.50000000  0.12500000       0.010
   0.37500000  0.50000000  0.12500000       0.010
   0.50000000  0.50000000  0.12500000       0.005
   0.00000000  0.00000000  0.25000000       0.005
   0.12500000  0.00000000  0.25000000       0.010
   0.25000000  0.00000000  0.25000000       0.010
   0.37500000  0.00000000  0.25000000       0.010
   0.50000000  0.00000000  0.25000000       0.005
   0.00000000  0.16666667  0.25000000       0.010
   0.12500000  0.16666667  0.25000000       0.021
   0.25000000  0.16666667  0.25000000       0.021
   0.37500000  0.16666667  0.25000000       0.021
   0.50000000  0.16666667  0.25000000       0.010
   0.00000000  0.33333333  0.25000000       0.010
   0.12500000  0.33333333  0.25000000       0.021
   0.25000000  0.33333333  0.25000000       0.021
   0.37500000  0.33333333  0.25000000       0.021
   0.50000000  0.33333333  0.25000000       0.010
   0.00000000  0.50000000  0.25000000       0.005
   0.12500000  0.50000000  0.25000000       0.010
   0.25000000  0.50000000  0.25000000       0.010
   0.37500000  0.50000000  0.25000000       0.010
   0.50000000  0.50000000  0.25000000       0.005
   0.00000000  0.00000000  0.37500000       0.005
   0.12500000  0.00000000  0.37500000       0.010
   0.25000000  0.00000000  0.37500000       0.010
   0.37500000  0.00000000  0.37500000       0.010
   0.50000000  0.00000000  0.37500000       0.005
   0.00000000  0.16666667  0.37500000       0.010
   0.12500000  0.16666667  0.37500000       0.021
   0.25000000  0.16666667  0.37500000       0.021
   0.37500000  0.16666667  0.37500000       0.021
   0.50000000  0.16666667  0.37500000       0.010
   0.00000000  0.33333333  0.37500000       0.010
   0.12500000  0.33333333  0.37500000       0.021
   0.25000000  0.33333333  0.37500000       0.021
   0.37500000  0.33333333  0.37500000       0.021
   0.50000000  0.33333333  0.37500000       0.010
   0.00000000  0.50000000  0.37500000       0.005
   0.12500000  0.50000000  0.37500000       0.010
   0.25000000  0.50000000  0.37500000       0.010
   0.37500000  0.50000000  0.37500000       0.010
   0.50000000  0.50000000  0.37500000       0.005
   0.00000000  0.00000000  0.50000000       0.003
   0.12500000  0.00000000  0.50000000       0.005
   0.25000000  0.00000000  0.50000000       0.005
   0.37500000  0.00000000  0.50000000       0.005
   0.50000000  0.00000000  0.50000000       0.003
   0.00000000  0.16666667  0.50000000       0.005
   0.12500000  0.16666667  0.50000000       0.010
   0.25000000  0.16666667  0.50000000       0.010
   0.37500000  0.16666667  0.50000000       0.010
   0.50000000  0.16666667  0.50000000       0.005
   0.00000000  0.33333333  0.50000000       0.005
   0.12500000  0.33333333  0.50000000       0.010
   0.25000000  0.33333333  0.50000000       0.010
   0.37500000  0.33333333  0.50000000       0.010
   0.50000000  0.33333333  0.50000000       0.005
   0.00000000  0.50000000  0.50000000       0.003
   0.12500000  0.50000000  0.50000000       0.005
   0.25000000  0.50000000  0.50000000       0.005
   0.37500000  0.50000000  0.50000000       0.005
   0.50000000  0.50000000  0.50000000       0.003

 position of ions in fractional coordinates (direct lattice) 
   0.06280470  0.25000000  0.47959687
   0.43719530  0.75000000  0.97959687
   0.56280470  0.25000000  0.02040313
   0.93719530  0.75000000  0.52040313
   0.00000000  0.00000000  0.00000000
   0.50000000  0.00000000  0.50000000
   0.50000000  0.50000000  0.50000000
   0.00000000  0.50000000  0.00000000
   0.50197573  0.75000000  0.45339607
   0.99802427  0.25000000  0.95339607
   0.00197573  0.75000000  0.04660393
   0.49802427  0.25000000  0.54660393
   0.30764996  0.47203110  0.18599845
   0.19235004  0.52796890  0.68599845
   0.80764996  0.02796890  0.31400155
   0.69235004  0.97203110  0.81400155
   0.30764996  0.02796890  0.18599845
   0.19235004  0.97203110  0.68599845
   0.69235004  0.52796890  0.81400155
   0.80764996  0.47203110  0.31400155

 position of ions in cartesian coordinates  (Angst):
   0.52765256  3.02918050  3.80415316
   3.67308820  9.08754151  7.77014353
   4.72839331  3.02918050  0.16183721
   7.87382895  9.08754151  4.12782757
   0.00000000  0.00000000  0.00000000
   4.20074075  0.00000000  3.96599037
   4.20074075  6.05836101  3.96599037
   0.00000000  6.05836101  0.00000000
   4.21733985  9.08754151  3.59632891
   8.38488242  3.02918050  7.56231928
   0.01659909  9.08754151  0.36966145
   4.18414166  3.02918050  4.33565182
   2.58471548  5.71946960  1.47533610
   1.61602528  6.39725241  5.44132647
   6.78545623  0.33889140  2.49065426
   5.81676603 11.77783061  6.45664463
   2.58471548  0.33889140  1.47533610
   1.61602528 11.77783061  5.44132647
   5.81676603  6.39725241  6.45664463
   6.78545623  5.71946960  2.49065426



--------------------------------------------------------------------------------------------------------


 k-point  1 :   0.0000 0.0000 0.0000  plane waves:   26903
 k-point  2 :   0.1250 0.0000 0.0000  plane waves:   26929
 k-point  3 :   0.2500 0.0000 0.0000  plane waves:   26926
 k-point  4 :   0.3750 0.0000 0.0000  plane waves:   26930
 k-point  5 :   0.5000 0.0000 0.0000  plane waves:   26934
 k-point  6 :   0.0000 0.1667 0.0000  plane waves:   26929
 k-point  7 :   0.1250 0.1667 0.0000  plane waves:   26934
 k-point  8 :   0.2500 0.1667 0.0000  plane waves:   26923
 k-point  9 :   0.3750 0.1667 0.0000  plane waves:   26945
 k-point 10 :   0.5000 0.1667 0.0000  plane waves:   26944
 k-point 11 :   0.0000 0.3333 0.0000  plane waves:   26928
 k-point 12 :   0.1250 0.3333 0.0000  plane waves:   26936
 k-point 13 :   0.2500 0.3333 0.0000  plane waves:   26966
 k-point 14 :   0.3750 0.3333 0.0000  plane waves:   26984
 k-point 15 :   0.5000 0.3333 0.0000  plane waves:   26948
 k-point 16 :   0.0000 0.5000 0.0000  plane waves:   26932
 k-point 17 :   0.1250 0.5000 0.0000  plane waves:   26930
 k-point 18 :   0.2500 0.5000 0.0000  plane waves:   26968
 k-point 19 :   0.3750 0.5000 0.0000  plane waves:   26990
 k-point 20 :   0.5000 0.5000 0.0000  plane waves:   26948
 k-point 21 :   0.0000 0.0000 0.1250  plane waves:   26921
 k-point 22 :   0.1250 0.0000 0.1250  plane waves:   26956
 k-point 23 :   0.2500 0.0000 0.1250  plane waves:   26921
 k-point 24 :   0.3750 0.0000 0.1250  plane waves:   26928
 k-point 25 :   0.5000 0.0000 0.1250  plane waves:   26932
 k-point 26 :   0.0000 0.1667 0.1250  plane waves:   26929
 k-point 27 :   0.1250 0.1667 0.1250  plane waves:   26920
 k-point 28 :   0.2500 0.1667 0.1250  plane waves:   26927
 k-point 29 :   0.3750 0.1667 0.1250  plane waves:   26934
 k-point 30 :   0.5000 0.1667 0.1250  plane waves:   26938
 k-point 31 :   0.0000 0.3333 0.1250  plane waves:   26918
 k-point 32 :   0.1250 0.3333 0.1250  plane waves:   26916
 k-point 33 :   0.2500 0.3333 0.1250  plane waves:   26935
 k-point 34 :   0.3750 0.3333 0.1250  plane waves:   26976
 k-point 35 :   0.5000 0.3333 0.1250  plane waves:   26962
 k-point 36 :   0.0000 0.5000 0.1250  plane waves:   26910
 k-point 37 :   0.1250 0.5000 0.1250  plane waves:   26916
 k-point 38 :   0.2500 0.5000 0.1250  plane waves:   26966
 k-point 39 :   0.3750 0.5000 0.1250  plane waves:   26980
 k-point 40 :   0.5000 0.5000 0.1250  plane waves:   26964
 k-point 41 :   0.0000 0.0000 0.2500  plane waves:   27000
 k-point 42 :   0.1250 0.0000 0.2500  plane waves:   26957
 k-point 43 :   0.2500 0.0000 0.2500  plane waves:   26943
 k-point 44 :   0.3750 0.0000 0.2500  plane waves:   26934
 k-point 45 :   0.5000 0.0000 0.2500  plane waves:   26962
 k-point 46 :   0.0000 0.1667 0.2500  plane waves:   26953
 k-point 47 :   0.1250 0.1667 0.2500  plane waves:   26945
 k-point 48 :   0.2500 0.1667 0.2500  plane waves:   26941
 k-point 49 :   0.3750 0.1667 0.2500  plane waves:   26930
 k-point 50 :   0.5000 0.1667 0.2500  plane waves:   26948
 k-point 51 :   0.0000 0.3333 0.2500  plane waves:   26947
 k-point 52 :   0.1250 0.3333 0.2500  plane waves:   26954
 k-point 53 :   0.2500 0.3333 0.2500  plane waves:   26949
 k-point 54 :   0.3750 0.3333 0.2500  plane waves:   26959
 k-point 55 :   0.5000 0.3333 0.2500  plane waves:   26936
 k-point 56 :   0.0000 0.5000 0.2500  plane waves:   26920
 k-point 57 :   0.1250 0.5000 0.2500  plane waves:   26960
 k-point 58 :   0.2500 0.5000 0.2500  plane waves:   26928
 k-point 59 :   0.3750 0.5000 0.2500  plane waves:   26942
 k-point 60 :   0.5000 0.5000 0.2500  plane waves:   26964
 k-point 61 :   0.0000 0.0000 0.3750  plane waves:   26966
 k-point 62 :   0.1250 0.0000 0.3750  plane waves:   26949
 k-point 63 :   0.2500 0.0000 0.3750  plane waves:   26964
 k-point 64 :   0.3750 0.0000 0.3750  plane waves:   26961
 k-point 65 :   0.5000 0.0000 0.3750  plane waves:   26950
 k-point 66 :   0.0000 0.1667 0.3750  plane waves:   26963
 k-point 67 :   0.1250 0.1667 0.3750  plane waves:   26950
 k-point 68 :   0.2500 0.1667 0.3750  plane waves:   26954
 k-point 69 :   0.3750 0.1667 0.3750  plane waves:   26948
 k-point 70 :   0.5000 0.1667 0.3750  plane waves:   26972
 k-point 71 :   0.0000 0.3333 0.3750  plane waves:   26967
 k-point 72 :   0.1250 0.3333 0.3750  plane waves:   26962
 k-point 73 :   0.2500 0.3333 0.3750  plane waves:   26934
 k-point 74 :   0.3750 0.3333 0.3750  plane waves:   26943
 k-point 75 :   0.5000 0.3333 0.3750  plane waves:   26934
 k-point 76 :   0.0000 0.5000 0.3750  plane waves:   26962
 k-point 77 :   0.1250 0.5000 0.3750  plane waves:   26970
 k-point 78 :   0.2500 0.5000 0.3750  plane waves:   26950
 k-point 79 :   0.3750 0.5000 0.3750  plane waves:   26950
 k-point 80 :   0.5000 0.5000 0.3750  plane waves:   26972
 k-point 81 :   0.0000 0.0000 0.5000  plane waves:   26968
 k-point 82 :   0.1250 0.0000 0.5000  plane waves:   26966
 k-point 83 :   0.2500 0.0000 0.5000  plane waves:   26956
 k-point 84 :   0.3750 0.0000 0.5000  plane waves:   26962
 k-point 85 :   0.5000 0.0000 0.5000  plane waves:   26936
 k-point 86 :   0.0000 0.1667 0.5000  plane waves:   26996
 k-point 87 :   0.1250 0.1667 0.5000  plane waves:   26964
 k-point 88 :   0.2500 0.1667 0.5000  plane waves:   26922
 k-point 89 :   0.3750 0.1667 0.5000  plane waves:   26964
 k-point 90 :   0.5000 0.1667 0.5000  plane waves:   26964
 k-point 91 :   0.0000 0.3333 0.5000  plane waves:   26962
 k-point 92 :   0.1250 0.3333 0.5000  plane waves:   26960
 k-point 93 :   0.2500 0.3333 0.5000  plane waves:   26960
 k-point 94 :   0.3750 0.3333 0.5000  plane waves:   26950
 k-point 95 :   0.5000 0.3333 0.5000  plane waves:   26944
 k-point 96 :   0.0000 0.5000 0.5000  plane waves:   26960
 k-point 97 :   0.1250 0.5000 0.5000  plane waves:   26980
 k-point 98 :   0.2500 0.5000 0.5000  plane waves:   26972
 k-point 99 :   0.3750 0.5000 0.5000  plane waves:   26940
 k-point ** :   0.5000 0.5000 0.5000  plane waves:   26984

 maximum and minimum number of plane-waves per node :       872      808

 maximum number of plane-waves:     27000
 maximum index in each direction: 
   IXMAX=   16   IYMAX=   24   IZMAX=   15
   IXMIN=  -17   IYMIN=  -24   IZMIN=  -16


 real space projection operators:
  total allocation   :      10754.62 KBytes
  max/ min on nodes  :        693.41        188.30


 parallel 3D FFT for wavefunctions:
    minimum data exchange during FFTs selected (reduces bandwidth)
 parallel 3D FFT for charge:
    minimum data exchange during FFTs selected (reduces bandwidth)


 total amount of memory used by VASP MPI-rank0    60118. kBytes
=======================================================================

   base      :      30000. kBytes
   nonlr-proj:       3288. kBytes
   fftplans  :       3917. kBytes
   grid      :       3186. kBytes
   one-center:         15. kBytes
   wavefun   :      19712. kBytes

     INWAV:  cpu time    0.0000: real time    0.0000
 Broyden mixing: mesh for mixing (old mesh)
   NGX = 33   NGY = 49   NGZ = 31
  (NGX  =140   NGY  =196   NGZ  =128)
  gives a total of  50127 points

 initial charge density was supplied:
 charge density of overlapping atoms calculated
 number of electron     176.0000000 magnetization 
 keeping initial charge density in first step


--------------------------------------------------------------------------------------------------------


 Maximum index for non-local projection operator          808
 Maximum index for augmentation-charges         7363 (set IRDMAX)


--------------------------------------------------------------------------------------------------------


 First call to EWALD:  gamma=   0.190
 Maximum number of real-space cells 3x 2x 3
 Maximum number of reciprocal cells 3x 3x 2

    FEWALD:  cpu time    0.0022: real time    0.0022


--------------------------------------- Iteration      1(   1)  ---------------------------------------


    POTLOK:  cpu time    0.2420: real time    0.2652
    SETDIJ:  cpu time    1.1660: real time    1.1662
     EDDAV:  cpu time   50.6259: real time   50.6912
       DOS:  cpu time    0.0066: real time    0.0066
    --------------------------------------------
      LOOP:  cpu time   52.0404: real time   52.1292

 eigenvalue-minimisations  : 22400
 total energy-change (2. order) : 0.1122643E+04  (-0.7966435E+04)
 number of electron     176.0000000 magnetization 
 augmentation part      176.0000000 magnetization 

 Free energy of the ion-electron system (eV)
  ---------------------------------------------------
  alpha Z        PSCENC =       446.84264249
  Ewald energy   TEWEN  =     -9216.00586227
  -Hartree energ DENC   =     -3659.66910474
  -exchange      EXHF   =         0.00000000
  -V(xc)+E(xc)   XCENC  =       461.82010692
  PAW double counting   =     10816.98087266   -11353.96092700
  entropy T*S    EENTRO =        -0.00028148
  eigenvalues    EBANDS =       336.06341541
  atomic energy  EATOM  =     13290.57232999
  Solvation  Ediel_sol  =         0.00000000
  ---------------------------------------------------
  free energy    TOTEN  =      1122.64319198 eV

  energy without entropy =     1122.64347345  energy(sigma->0) =     1122.64333272


--------------------------------------------------------------------------------------------------------




--------------------------------------- Iteration      1(   2)  ---------------------------------------


     EDDAV:  cpu time   53.7888: real time   53.8074
       DOS:  cpu time    0.0064: real time    0.0064
    --------------------------------------------
      LOOP:  cpu time   53.7952: real time   53.8138

 eigenvalue-minimisations  : 25264
 total energy-change (2. order) :-0.1571004E+04  (-0.1468793E+04)
 number of electron     176.0000000 magnetization 
 augmentation part      176.0000000 magnetization 

 Free energy of the ion-electron system (eV)
  ---------------------------------------------------
  alpha Z        PSCENC =       446.84264249
  Ewald energy   TEWEN  =     -9216.00586227
  -Hartree energ DENC   =     -3659.66910474
  -exchange      EXHF   =         0.00000000
  -V(xc)+E(xc)   XCENC  =       461.82010692
  PAW double counting   =     10816.98087266   -11353.96092700
  entropy T*S    EENTRO =        -0.00021826
  eigenvalues    EBANDS =     -1234.94039015
  atomic energy  EATOM  =     13290.57232999
  Solvation  Ediel_sol  =         0.00000000
  ---------------------------------------------------
  free energy    TOTEN  =      -448.36055037 eV

  energy without entropy =     -448.36033211  energy(sigma->0) =     -448.36044124


--------------------------------------------------------------------------------------------------------




--------------------------------------- Iteration      1(   3)  ---------------------------------------


     EDDAV:  cpu time   62.9281: real time   62.9423
       DOS:  cpu time    0.0035: real time    0.0035
    --------------------------------------------
      LOOP:  cpu time   62.9316: real time   62.9458

 eigenvalue-minimisations  : 31368
 total energy-change (2. order) :-0.2929230E+03  (-0.2888132E+03)
 number of electron     176.0000000 magnetization 
 augmentation part      176.0000000 magnetization 

 Free energy of the ion-electron system (eV)
  ---------------------------------------------------
  alpha Z        PSCENC =       446.84264249
  Ewald energy   TEWEN  =     -9216.00586227
  -Hartree energ DENC   =     -3659.66910474
  -exchange      EXHF   =         0.00000000
  -V(xc)+E(xc)   XCENC  =       461.82010692
  PAW double counting   =     10816.98087266   -11353.96092700
  entropy T*S    EENTRO =        -0.00000000
  eigenvalues    EBANDS =     -1527.86357864
  atomic energy  EATOM  =     13290.57232999
  Solvation  Ediel_sol  =         0.00000000
  ---------------------------------------------------
  free energy    TOTEN  =      -741.28352060 eV

  energy without entropy =     -741.28352060  energy(sigma->0) =     -741.28352060


--------------------------------------------------------------------------------------------------------




--------------------------------------- Iteration      1(   4)  ---------------------------------------


     EDDAV:  cpu time   56.4261: real time   56.4910
       DOS:  cpu time    0.0042: real time    0.0042
    --------------------------------------------
      LOOP:  cpu time   56.4303: real time   56.4952

 eigenvalue-minimisations  : 27376
 total energy-change (2. order) :-0.1304552E+02  (-0.1297773E+02)
 number of electron     176.0000000 magnetization 
 augmentation part      176.0000000 magnetization 

 Free energy of the ion-electron system (eV)
  ---------------------------------------------------
  alpha Z        PSCENC =       446.84264249
  Ewald energy   TEWEN  =     -9216.00586227
  -Hartree energ DENC   =     -3659.66910474
  -exchange      EXHF   =         0.00000000
  -V(xc)+E(xc)   XCENC  =       461.82010692
  PAW double counting   =     10816.98087266   -11353.96092700
  entropy T*S    EENTRO =        -0.00000000
  eigenvalues    EBANDS =     -1540.90909526
  atomic energy  EATOM  =     13290.57232999
  Solvation  Ediel_sol  =         0.00000000
  ---------------------------------------------------
  free energy    TOTEN  =      -754.32903721 eV

  energy without entropy =     -754.32903721  energy(sigma->0) =     -754.32903721


--------------------------------------------------------------------------------------------------------




--------------------------------------- Iteration      1(   5)  ---------------------------------------


     EDDAV:  cpu time   59.7021: real time   59.7308
       DOS:  cpu time    0.0043: real time    0.0043
    CHARGE:  cpu time    7.4255: real time    7.4259
    MIXING:  cpu time    0.0008: real time    0.0008
    --------------------------------------------
      LOOP:  cpu time   67.1328: real time   67.1618

 eigenvalue-minimisations  : 29320
 total energy-change (2. order) :-0.5728469E+00  (-0.5722970E+00)
 number of electron     176.0000000 magnetization 
 augmentation part       -3.2834039 magnetization 

 Broyden mixing:
  rms(total) = 0.70941E+00    rms(broyden)= 0.70939E+00
  rms(prec ) = 0.97054E+00
  weight for this iteration     100.00

 Free energy of the ion-electron system (eV)
  ---------------------------------------------------
  alpha Z        PSCENC =       446.84264249
  Ewald energy   TEWEN  =     -9216.00586227
  -Hartree energ DENC   =     -3659.66910474
  -exchange      EXHF   =         0.00000000
  -V(xc)+E(xc)   XCENC  =       461.82010692
  PAW double counting   =     10816.98087266   -11353.96092700
  entropy T*S    EENTRO =        -0.00000000
  eigenvalues    EBANDS =     -1541.48194215
  atomic energy  EATOM  =     13290.57232999
  Solvation  Ediel_sol  =         0.00000000
  ---------------------------------------------------
  free energy    TOTEN  =      -754.90188410 eV

  energy without entropy =     -754.90188410  energy(sigma->0) =     -754.90188410


--------------------------------------------------------------------------------------------------------




--------------------------------------- Iteration      1(   6)  ---------------------------------------


    POTLOK:  cpu time    0.2572: real time    0.2755
    SETDIJ:  cpu time    1.1482: real time    1.1483
     EDDAV:  cpu time   59.8136: real time   59.8161
       DOS:  cpu time    0.0041: real time    0.0041
    CHARGE:  cpu time    7.3829: real time    7.3832
    MIXING:  cpu time    0.0010: real time    0.0010
    --------------------------------------------
      LOOP:  cpu time   68.6070: real time   68.6281

 eigenvalue-minimisations  : 29976
 total energy-change (2. order) : 0.3978598E+02  (-0.1195816E+01)
 number of electron     176.0000000 magnetization 
 augmentation part       -2.5860481 magnetization 

 Broyden mixing:
  rms(total) = 0.49610E+00    rms(broyden)= 0.49610E+00
  rms(prec ) = 0.61349E+00
  weight for this iteration     100.00

 eigenvalues of (default mixing * dielectric matrix)
  average eigenvalue GAMMA=   1.1941
  1.1941

 Free energy of the ion-electron system (eV)
  ---------------------------------------------------
  alpha Z        PSCENC =       446.84264249
  Ewald energy   TEWEN  =     -9216.00586227
  -Hartree energ DENC   =     -3649.41307423
  -exchange      EXHF   =         0.00000000
  -V(xc)+E(xc)   XCENC  =       477.40402367
  PAW double counting   =     10960.68104901   -11496.80976388
  entropy T*S    EENTRO =        -0.00000000
  eigenvalues    EBANDS =     -1528.38724800
  atomic energy  EATOM  =     13290.57232999
  Solvation  Ediel_sol  =         0.00000000
  ---------------------------------------------------
  free energy    TOTEN  =      -715.11590320 eV

  energy without entropy =     -715.11590320  energy(sigma->0) =     -715.11590320


--------------------------------------------------------------------------------------------------------




--------------------------------------- Iteration      1(   7)  ---------------------------------------


    POTLOK:  cpu time    0.2681: real time    0.2795
    SETDIJ:  cpu time    1.1526: real time    1.1526
     EDDAV:  cpu time   57.9368: real time   57.9389
       DOS:  cpu time    0.0041: real time    0.0041
    CHARGE:  cpu time    7.3596: real time    7.3599
    MIXING:  cpu time    0.0009: real time    0.0009
    --------------------------------------------
      LOOP:  cpu time   66.7221: real time   66.7360

 eigenvalue-minimisations  : 28168
 total energy-change (2. order) : 0.2131369E+00  (-0.4093266E+00)
 number of electron     176.0000000 magnetization 
 augmentation part       -2.3145309 magnetization 

 Broyden mixing:
  rms(total) = 0.25229E+00    rms(broyden)= 0.25229E+00
  rms(prec ) = 0.27620E+00
  weight for this iteration     100.00

 eigenvalues of (default mixing * dielectric matrix)
  average eigenvalue GAMMA=   1.3055
  1.3055  1.3055

 Free energy of the ion-electron system (eV)
  ---------------------------------------------------
  alpha Z        PSCENC =       446.84264249
  Ewald energy   TEWEN  =     -9216.00586227
  -Hartree energ DENC   =     -3669.00267244
  -exchange      EXHF   =         0.00000000
  -V(xc)+E(xc)   XCENC  =       479.99526573
  PAW double counting   =     11264.89915376   -11800.19045320
  entropy T*S    EENTRO =        -0.00000000
  eigenvalues    EBANDS =     -1512.01317037
  atomic energy  EATOM  =     13290.57232999
  Solvation  Ediel_sol  =         0.00000000
  ---------------------------------------------------
  free energy    TOTEN  =      -714.90276632 eV

  energy without entropy =     -714.90276632  energy(sigma->0) =     -714.90276632


--------------------------------------------------------------------------------------------------------




--------------------------------------- Iteration      1(   8)  ---------------------------------------


    POTLOK:  cpu time    0.2522: real time    0.2713
    SETDIJ:  cpu time    1.1506: real time    1.1507
     EDDAV:  cpu time   57.6698: real time   57.6823
       DOS:  cpu time    0.0042: real time    0.0042
    CHARGE:  cpu time    7.3667: real time    7.3670
    MIXING:  cpu time    0.0010: real time    0.0010
    --------------------------------------------
      LOOP:  cpu time   66.4446: real time   66.4765

 eigenvalue-minimisations  : 27920
 total energy-change (2. order) :-0.1080753E+00  (-0.2115838E-01)
 number of electron     176.0000000 magnetization 
 augmentation part       -2.3599200 magnetization 

 Broyden mixing:
  rms(total) = 0.14850E+00    rms(broyden)= 0.14850E+00
  rms(prec ) = 0.16352E+00
  weight for this iteration     100.00

 eigenvalues of (default mixing * dielectric matrix)
  average eigenvalue GAMMA=   1.7307
  1.2003  1.2003  2.7917

 Free energy of the ion-electron system (eV)
  ---------------------------------------------------
  alpha Z        PSCENC =       446.84264249
  Ewald energy   TEWEN  =     -9216.00586227
  -Hartree energ DENC   =     -3671.33946201
  -exchange      EXHF   =         0.00000000
  -V(xc)+E(xc)   XCENC  =       480.39496980
  PAW double counting   =     11375.20684896   -11910.68696719
  entropy T*S    EENTRO =        -0.00000000
  eigenvalues    EBANDS =     -1509.99534140
  atomic energy  EATOM  =     13290.57232999
  Solvation  Ediel_sol  =         0.00000000
  ---------------------------------------------------
  free energy    TOTEN  =      -715.01084162 eV

  energy without entropy =     -715.01084162  energy(sigma->0) =     -715.01084162


--------------------------------------------------------------------------------------------------------




--------------------------------------- Iteration      1(   9)  ---------------------------------------


    POTLOK:  cpu time    0.2646: real time    0.2740
    SETDIJ:  cpu time    1.1495: real time    1.1495
     EDDAV:  cpu time   53.2059: real time   53.2083
       DOS:  cpu time    0.0043: real time    0.0043
    CHARGE:  cpu time    7.3712: real time    7.3714
    MIXING:  cpu time    0.0011: real time    0.0011
    --------------------------------------------
      LOOP:  cpu time   61.9965: real time   62.0086

 eigenvalue-minimisations  : 24176
 total energy-change (2. order) :-0.4873739E-01  (-0.9778588E-02)
 number of electron     176.0000000 magnetization 
 augmentation part       -2.3793196 magnetization 

 Broyden mixing:
  rms(total) = 0.33917E-01    rms(broyden)= 0.33917E-01
  rms(prec ) = 0.36157E-01
  weight for this iteration     100.00

 eigenvalues of (default mixing * dielectric matrix)
  average eigenvalue GAMMA=   1.4687
  2.5496  1.2454  1.2454  0.8345

 Free energy of the ion-electron system (eV)
  ---------------------------------------------------
  alpha Z        PSCENC =       446.84264249
  Ewald energy   TEWEN  =     -9216.00586227
  -Hartree energ DENC   =     -3673.74756809
  -exchange      EXHF   =         0.00000000
  -V(xc)+E(xc)   XCENC  =       481.48442147
  PAW double counting   =     11543.60684004   -12079.52523571
  entropy T*S    EENTRO =        -0.00000000
  eigenvalues    EBANDS =     -1508.28714695
  atomic energy  EATOM  =     13290.57232999
  Solvation  Ediel_sol  =         0.00000000
  ---------------------------------------------------
  free energy    TOTEN  =      -715.05957901 eV

  energy without entropy =     -715.05957901  energy(sigma->0) =     -715.05957901


--------------------------------------------------------------------------------------------------------




--------------------------------------- Iteration      1(  10)  ---------------------------------------


    POTLOK:  cpu time    0.2543: real time    0.2818
    SETDIJ:  cpu time    1.1502: real time    1.1502
     EDDAV:  cpu time   64.5981: real time   64.6005
       DOS:  cpu time    0.0045: real time    0.0045
    CHARGE:  cpu time    7.3484: real time    7.3487
    MIXING:  cpu time    0.0010: real time    0.0010
    --------------------------------------------
      LOOP:  cpu time   73.3566: real time   73.3868

 eigenvalue-minimisations  : 33136
 total energy-change (2. order) :-0.7316125E-03  (-0.5182118E-03)
 number of electron     176.0000000 magnetization 
 augmentation part       -2.3728425 magnetization 

 Broyden mixing:
  rms(total) = 0.19294E-01    rms(broyden)= 0.19294E-01
  rms(prec ) = 0.21250E-01
  weight for this iteration     100.00

 eigenvalues of (default mixing * dielectric matrix)
  average eigenvalue GAMMA=   1.5213
  2.2637  2.2637  1.1071  1.1071  0.8647

 Free energy of the ion-electron system (eV)
  ---------------------------------------------------
  alpha Z        PSCENC =       446.84264249
  Ewald energy   TEWEN  =     -9216.00586227
  -Hartree energ DENC   =     -3672.76200050
  -exchange      EXHF   =         0.00000000
  -V(xc)+E(xc)   XCENC  =       481.33758899
  PAW double counting   =     11523.20559291   -12059.14926676
  entropy T*S    EENTRO =        -0.00000000
  eigenvalues    EBANDS =     -1509.10133548
  atomic energy  EATOM  =     13290.57232999
  Solvation  Ediel_sol  =         0.00000000
  ---------------------------------------------------
  free energy    TOTEN  =      -715.06031062 eV

  energy without entropy =     -715.06031062  energy(sigma->0) =     -715.06031062


--------------------------------------------------------------------------------------------------------




--------------------------------------- Iteration      1(  11)  ---------------------------------------


    POTLOK:  cpu time    0.2721: real time    0.2825
    SETDIJ:  cpu time    1.1488: real time    1.1488
     EDDAV:  cpu time   53.7777: real time   53.7798
       DOS:  cpu time    0.0041: real time    0.0041
    CHARGE:  cpu time    7.3926: real time    7.3928
    MIXING:  cpu time    0.0010: real time    0.0010
    --------------------------------------------
      LOOP:  cpu time   62.5961: real time   62.6089

 eigenvalue-minimisations  : 25080
 total energy-change (2. order) :-0.1157763E-02  (-0.1290188E-03)
 number of electron     176.0000000 magnetization 
 augmentation part       -2.3728519 magnetization 

 Broyden mixing:
  rms(total) = 0.67719E-02    rms(broyden)= 0.67718E-02
  rms(prec ) = 0.82461E-02
  weight for this iteration     100.00

 eigenvalues of (default mixing * dielectric matrix)
  average eigenvalue GAMMA=   1.5785
  2.5762  2.5762  1.2370  1.2370  0.9222  0.9222

 Free energy of the ion-electron system (eV)
  ---------------------------------------------------
  alpha Z        PSCENC =       446.84264249
  Ewald energy   TEWEN  =     -9216.00586227
  -Hartree energ DENC   =     -3671.66036852
  -exchange      EXHF   =         0.00000000
  -V(xc)+E(xc)   XCENC  =       481.29532165
  PAW double counting   =     11509.93321627   -12045.99460574
  entropy T*S    EENTRO =        -0.00000000
  eigenvalues    EBANDS =     -1510.04414226
  atomic energy  EATOM  =     13290.57232999
  Solvation  Ediel_sol  =         0.00000000
  ---------------------------------------------------
  free energy    TOTEN  =      -715.06146839 eV

  energy without entropy =     -715.06146839  energy(sigma->0) =     -715.06146839


--------------------------------------------------------------------------------------------------------




--------------------------------------- Iteration      1(  12)  ---------------------------------------


    POTLOK:  cpu time    0.2696: real time    0.2854
    SETDIJ:  cpu time    1.1517: real time    1.1517
     EDDAV:  cpu time   52.6099: real time   52.6119
       DOS:  cpu time    0.0037: real time    0.0037
    CHARGE:  cpu time    7.3881: real time    7.3884
    MIXING:  cpu time    0.0010: real time    0.0010
    --------------------------------------------
      LOOP:  cpu time   61.4240: real time   61.4420

 eigenvalue-minimisations  : 24032
 total energy-change (2. order) :-0.4077832E-03  (-0.6122874E-04)
 number of electron     176.0000000 magnetization 
 augmentation part       -2.3743431 magnetization 

 Broyden mixing:
  rms(total) = 0.27095E-02    rms(broyden)= 0.27094E-02
  rms(prec ) = 0.29723E-02
  weight for this iteration     100.00

 eigenvalues of (default mixing * dielectric matrix)
  average eigenvalue GAMMA=   1.6361
  3.0506  2.3900  1.8457  1.1853  1.0444  0.9685  0.9685

 Free energy of the ion-electron system (eV)
  ---------------------------------------------------
  alpha Z        PSCENC =       446.84264249
  Ewald energy   TEWEN  =     -9216.00586227
  -Hartree energ DENC   =     -3671.62775345
  -exchange      EXHF   =         0.00000000
  -V(xc)+E(xc)   XCENC  =       481.35933374
  PAW double counting   =     11512.92307992   -12049.05541086
  entropy T*S    EENTRO =        -0.00000000
  eigenvalues    EBANDS =     -1510.07023573
  atomic energy  EATOM  =     13290.57232999
  Solvation  Ediel_sol  =         0.00000000
  ---------------------------------------------------
  free energy    TOTEN  =      -715.06187617 eV

  energy without entropy =     -715.06187617  energy(sigma->0) =     -715.06187617


--------------------------------------------------------------------------------------------------------




--------------------------------------- Iteration      1(  13)  ---------------------------------------


    POTLOK:  cpu time    0.2564: real time    0.2722
    SETDIJ:  cpu time    1.1511: real time    1.1512
[...]
     65      -1.7562      2.00000
     66      -1.7562      2.00000
     67      -1.7194      2.00000
     68      -1.7194      2.00000
     69      -1.4428      2.00000
     70      -1.4428      2.00000
     71      -1.3747      2.00000
     72      -1.3747      2.00000
     73      -1.3040      2.00000
     74      -1.3040      2.00000
     75      -1.2899      2.00000
     76      -1.2899      2.00000
     77      -1.2242      2.00000
     78      -1.2242      2.00000
     79      -1.2168      2.00000
     80      -1.2168      2.00000
     81      -1.0891      2.00000
     82      -1.0891      2.00000
     83      -1.0677      2.00000
     84      -1.0677      2.00000
     85      -0.7099      2.00000
     86      -0.7099      2.00000
     87      -0.6599      2.00000
     88      -0.6599      2.00000
     89       3.4634      0.00000
     90       3.4634      0.00000
     91       3.4798      0.00000
     92       3.4798      0.00000
     93       4.3262      0.00000
     94       4.3262      0.00000
     95       4.3536      0.00000
     96       4.3536      0.00000
     97       5.6201      0.00000
     98       5.6201      0.00000
     99       5.6429      0.00000
    100       5.6429      0.00000
    101       6.4878      0.00000
    102       6.4878      0.00000
    103       6.5378      0.00000
    104       6.5378      0.00000
    105       6.6023      0.00000
    106       6.6023      0.00000
    107       6.6892      0.00000
    108       6.6892      0.00000
    109       6.9238      0.00000
    110       6.9238      0.00000
    111       7.1102      0.00000
    112       7.1102      0.00000

 k-point   100 :       0.5000    0.5000    0.5000
  band No.  band energies     occupation 
      1     -20.8337      2.00000
      2     -20.8337      2.00000
      3     -20.8336      2.00000
      4     -20.8336      2.00000
      5     -16.4989      2.00000
      6     -16.4989      2.00000
      7     -16.4989      2.00000
      8     -16.4989      2.00000
      9     -16.4462      2.00000
     10     -16.4462      2.00000
     11     -16.4462      2.00000
     12     -16.4462      2.00000
     13     -16.3753      2.00000
     14     -16.3753      2.00000
     15     -16.3753      2.00000
     16     -16.3753      2.00000
     17     -16.3674      2.00000
     18     -16.3674      2.00000
     19     -16.3674      2.00000
     20     -16.3674      2.00000
     21     -16.3553      2.00000
     22     -16.3553      2.00000
     23     -16.3553      2.00000
     24     -16.3553      2.00000
     25     -14.0960      2.00000
     26     -14.0960      2.00000
     27     -14.0960      2.00000
     28     -14.0960      2.00000
     29     -14.0403      2.00000
     30     -14.0403      2.00000
     31     -14.0403      2.00000
     32     -14.0403      2.00000
     33     -13.8114      2.00000
     34     -13.8114      2.00000
     35     -13.8114      2.00000
     36     -13.8114      2.00000
     37      -7.4771      2.00000
     38      -7.4771      2.00000
     39      -7.4771      2.00000
     40      -7.4771      2.00000
     41      -7.2280      2.00000
     42      -7.2280      2.00000
     43      -7.2280      2.00000
     44      -7.2280      2.00000
     45      -7.2016      2.00000
     46      -7.2016      2.00000
     47      -7.2016      2.00000
     48      -7.2016      2.00000
     49      -7.1842      2.00000
     50      -7.1842      2.00000
     51      -7.1842      2.00000
     52      -7.1842      2.00000
     53      -3.1148      2.00000
     54      -3.1148      2.00000
     55      -3.1148      2.00000
     56      -3.1148      2.00000
     57      -2.4086      2.00000
     58      -2.4086      2.00000
     59      -2.4086      2.00000
     60      -2.4086      2.00000
     61      -2.0128      2.00000
     62      -2.0128      2.00000
     63      -2.0128      2.00000
     64      -2.0128      2.00000
     65      -1.7400      2.00000
     66      -1.7400      2.00000
     67      -1.7400      2.00000
     68      -1.7400      2.00000
     69      -1.3908      2.00000
     70      -1.3908      2.00000
     71      -1.3908      2.00000
     72      -1.3908      2.00000
     73      -1.3014      2.00000
     74      -1.3014      2.00000
     75      -1.3014      2.00000
     76      -1.3014      2.00000
     77      -1.2308      2.00000
     78      -1.2308      2.00000
     79      -1.2308      2.00000
     80      -1.2308      2.00000
     81      -1.0764      2.00000
     82      -1.0764      2.00000
     83      -1.0764      2.00000
     84      -1.0764      2.00000
     85      -0.6362      2.00000
     86      -0.6362      2.00000
     87      -0.6362      2.00000
     88      -0.6362      2.00000
     89       3.3706      0.00000
     90       3.3706      0.00000
     91       3.3706      0.00000
     92       3.3706      0.00000
     93       4.3446      0.00000
     94       4.3446      0.00000
     95       4.3446      0.00000
     96       4.3446      0.00000
     97       5.7364      0.00000
     98       5.7364      0.00000
     99       5.7364      0.00000
    100       5.7364      0.00000
    101       6.5773      0.00000
    102       6.5773      0.00000
    103       6.5773      0.00000
    104       6.5773      0.00000
    105       6.6667      0.00000
    106       6.6667      0.00000
    107       6.6667      0.00000
    108       6.6667      0.00000
    109       7.0415      0.00000
    110       7.0415      0.00000
    111       7.0415      0.00000
    112       7.0415      0.00000


--------------------------------------------------------------------------------------------------------


 soft charge-density along one line, spin component           1
         0         1         2         3         4         5         6         7         8         9
 total charge-density along one line

 pseudopotential strength for first ion, spin component:           1
 17.988  -4.709   0.000  -0.001  -0.001  -0.000   0.001   0.001
 -4.709   1.241  -0.000   0.000   0.000   0.000  -0.000  -0.000
  0.000  -0.000   2.271  -0.000   0.000  -2.718   0.000  -0.000
 -0.001   0.000  -0.000   2.273  -0.001   0.000  -2.720   0.001
 -0.001   0.000   0.000  -0.001   2.272  -0.000   0.001  -2.719
 -0.000   0.000  -2.718   0.000  -0.000   3.221  -0.000   0.000
  0.001  -0.000   0.000  -2.720   0.001  -0.000   3.224  -0.002
  0.001  -0.000  -0.000   0.001  -2.719   0.000  -0.002   3.223
  0.000  -0.000   0.001  -0.000  -0.000  -0.001   0.000   0.000
 -0.000   0.000   0.000  -0.000  -0.000  -0.000   0.000   0.000
  0.001  -0.000  -0.000  -0.001   0.001   0.000   0.002  -0.001
 -0.001   0.000  -0.000  -0.000   0.000   0.000   0.000  -0.000
  0.000  -0.000  -0.000   0.000  -0.002   0.000  -0.000   0.002
 total augmentation occupancy for first ion, spin component:           1
  1.910  -0.146   0.000  -0.000  -0.000   0.000  -0.000  -0.001   0.000   0.000   0.001  -0.002   0.001
 -0.146   0.113   0.000  -0.003  -0.002   0.000   0.001   0.002   0.000   0.000  -0.003   0.006  -0.001
  0.000   0.000   2.001   0.000   0.000  -0.003   0.000   0.000   0.002   0.000   0.000   0.000   0.000
 -0.000  -0.003   0.000   2.005  -0.003   0.000  -0.000  -0.002   0.000   0.000  -0.003  -0.000   0.000
 -0.000  -0.002   0.000  -0.003   2.004   0.000  -0.002  -0.001   0.000   0.000   0.001   0.001  -0.003
  0.000   0.000  -0.003   0.000   0.000   0.009   0.000   0.000  -0.002  -0.001   0.000   0.000   0.000
 -0.000   0.001   0.000  -0.000  -0.002   0.000   0.007   0.002   0.000   0.000   0.002  -0.001   0.000
 -0.001   0.002   0.000  -0.002  -0.001   0.000   0.002   0.008   0.000   0.000  -0.001  -0.001   0.003
  0.000   0.000   0.002   0.000   0.000  -0.002   0.000   0.000   0.006   0.002   0.000   0.000   0.000
  0.000   0.000   0.000   0.000   0.000  -0.001   0.000   0.000   0.002   0.004   0.000   0.000   0.000
  0.001  -0.003   0.000  -0.003   0.001   0.000   0.002  -0.001   0.000   0.000   0.005  -0.002  -0.000
 -0.002   0.006   0.000  -0.000   0.001   0.000  -0.001  -0.001   0.000   0.000  -0.002   0.003   0.000
  0.001  -0.001   0.000   0.000  -0.003   0.000   0.000   0.003   0.000   0.000  -0.000   0.000   0.005


------------------------ aborting loop because EDIFF is reached ----------------------------------------





 total charge     

# of ion       s       p       d       tot
------------------------------------------
    1        1.786   4.712   0.017   6.516
    2        1.786   4.712   0.017   6.516
    3        1.786   4.712   0.017   6.516
    4        1.786   4.712   0.017   6.516
    5        1.552   0.418   9.840  11.809
    6        1.552   0.417   9.840  11.809
    7        1.552   0.417   9.840  11.809
    8        1.552   0.418   9.840  11.809
    9        1.615   3.285   0.005   4.905
   10        1.615   3.286   0.005   4.906
   11        1.615   3.286   0.005   4.906
   12        1.615   3.285   0.005   4.905
   13        1.617   3.277   0.007   4.901
   14        1.615   3.301   0.006   4.922
   15        1.615   3.301   0.006   4.922
   16        1.617   3.277   0.007   4.901
   17        1.617   3.277   0.007   4.901
   18        1.615   3.301   0.006   4.922
   19        1.617   3.277   0.007   4.901
   20        1.615   3.301   0.006   4.922
--------------------------------------------------
tot         32.738  59.974  39.500 132.212

    CHARGE:  cpu time    0.9248: real time    0.9249
    FORLOC:  cpu time    0.0026: real time    0.0026
    FORNL :  cpu time    4.2295: real time    4.2296
    STRESS:  cpu time  124.8809: real time  124.8855
    FORCOR:  cpu time    0.1774: real time    0.1774
    FORHAR:  cpu time    0.0282: real time    0.0282
    MIXING:  cpu time    0.0013: real time    0.0013
    OFIELD:  cpu time    0.0000: real time    0.0000

  FORCE on cell =-STRESS in cart. coord.  units (eV):
  Direction    XX          YY          ZZ          XY          YZ          ZX
  --------------------------------------------------------------------------------------
  Alpha Z   446.84264   446.84264   446.84264
  Ewald   -2985.42441 -3116.86197 -3113.74559     0.00000    -0.00000     0.00000
  Hartree  1288.86012  1173.93406  1209.00749     0.00000    -0.00000    -0.00000
  E(xc)    -738.75241  -738.98412  -738.82227    -0.00040    -0.00028    -0.03036
  Local   -1569.05795 -1321.26856 -1362.67218     0.00000     0.00000     0.00000
  n-local   899.37745   896.40580   898.49641     0.02092     0.01962    -0.00673
  augment   406.34778   405.81723   405.72782     0.00000     0.00000     0.00000
  Kinetic  2251.81850  2250.08943  2255.18250    -0.01549    -0.01886    -1.62044
  Fock        0.00000     0.00000     0.00000     0.00000     0.00000     0.00000
  -------------------------------------------------------------------------------------
  Total       0.01173    -4.02549     0.01682     0.00000     0.00000     0.00000
  in kB       0.02327    -7.98743     0.03337     0.00000     0.00000     0.00000
  external pressure =       -2.64 kB  Pullay stress =        0.00 kB


 VOLUME and BASIS-vectors are now :
 -----------------------------------------------------------------------------
  energy-cutoff  :      600.00
  volume of cell :      807.46
      direct lattice vectors                 reciprocal lattice vectors
     8.401481509  0.000000000  0.000000000     0.119026626  0.000000000  0.000000000
     0.000000000 12.116722018  0.000000000     0.000000000  0.082530572  0.000000000
     0.000000000  0.000000000  7.931980732     0.000000000  0.000000000  0.126071915

  length of vectors
     8.401481509 12.116722018  7.931980732     0.119026626  0.082530572  0.126071915


 FORCES acting on ions
    electron-ion (+dipol)            ewald-force                    non-local-force                 convergence-correction
 -----------------------------------------------------------------------------------------------
   0.241E+02 -.116E-13 -.140E+02   -.240E+02 0.355E-14 0.141E+02   -.834E-01 0.000E+00 -.732E-01   0.167E-04 0.675E-13 -.264E-04
   -.241E+02 -.479E-12 -.140E+02   0.240E+02 -.107E-13 0.141E+02   0.834E-01 0.000E+00 -.732E-01   -.167E-04 -.703E-13 -.264E-04
   0.241E+02 0.423E-11 0.140E+02   -.240E+02 -.711E-14 -.141E+02   -.834E-01 0.000E+00 0.732E-01   0.167E-04 0.949E-13 0.264E-04
   -.241E+02 -.201E-11 0.140E+02   0.240E+02 0.142E-13 -.141E+02   0.834E-01 0.000E+00 0.732E-01   -.167E-04 -.412E-13 0.264E-04
   -.941E-11 -.256E-11 -.216E-10   -.161E-11 0.473E-12 0.114E-12   0.000E+00 0.000E+00 0.299E-25   0.652E-13 -.443E-13 -.639E-14
   0.258E-11 0.709E-11 -.108E-10   0.353E-11 -.139E-11 0.568E-13   0.000E+00 0.000E+00 0.108E-23   0.127E-12 0.355E-13 -.838E-13
   0.476E-11 -.282E-11 -.155E-10   0.351E-11 0.131E-11 0.426E-13   0.000E+00 0.000E+00 0.316E-24   0.110E-12 -.337E-12 -.666E-13
   -.944E-11 0.452E-11 -.216E-10   -.163E-11 -.512E-12 0.853E-13   0.000E+00 0.000E+00 -.287E-24   0.653E-13 -.281E-12 -.299E-13
   0.120E+02 -.219E-12 0.283E+02   -.121E+02 0.142E-13 -.284E+02   0.124E+00 0.000E+00 0.126E+00   0.969E-05 -.856E-14 0.237E-04
   -.120E+02 -.236E-11 0.283E+02   0.121E+02 0.142E-13 -.284E+02   -.124E+00 -.678E-20 0.126E+00   -.969E-05 0.134E-12 0.237E-04
   0.120E+02 -.211E-12 -.283E+02   -.121E+02 0.284E-13 0.284E+02   0.124E+00 0.678E-20 -.126E+00   0.969E-05 -.628E-13 -.237E-04
   -.120E+02 0.178E-11 -.283E+02   0.121E+02 -.142E-13 0.284E+02   -.124E+00 0.000E+00 -.126E+00   -.969E-05 0.784E-13 -.237E-04
   -.231E+02 0.150E+02 0.285E+02   0.234E+02 -.152E+02 -.288E+02   -.226E+00 0.144E+00 0.274E+00   0.583E-05 -.106E-04 -.287E-05
   0.231E+02 -.150E+02 0.285E+02   -.234E+02 0.152E+02 -.288E+02   0.226E+00 -.144E+00 0.274E+00   -.583E-05 0.106E-04 -.287E-05
   -.231E+02 -.150E+02 -.285E+02   0.234E+02 0.152E+02 0.288E+02   -.226E+00 -.144E+00 -.274E+00   0.583E-05 0.106E-04 0.287E-05
   0.231E+02 0.150E+02 -.285E+02   -.234E+02 -.152E+02 0.288E+02   0.226E+00 0.144E+00 -.274E+00   -.583E-05 -.106E-04 0.287E-05
   -.231E+02 -.150E+02 0.285E+02   0.234E+02 0.152E+02 -.288E+02   -.226E+00 -.144E+00 0.274E+00   0.583E-05 0.106E-04 -.287E-05
   0.231E+02 0.150E+02 0.285E+02   -.234E+02 -.152E+02 -.288E+02   0.226E+00 0.144E+00 0.274E+00   -.583E-05 -.106E-04 -.287E-05
   0.231E+02 -.150E+02 -.285E+02   -.234E+02 0.152E+02 0.288E+02   0.226E+00 -.144E+00 -.274E+00   -.583E-05 0.106E-04 0.287E-05
   -.231E+02 0.150E+02 -.285E+02   0.234E+02 -.152E+02 0.288E+02   -.226E+00 0.144E+00 -.274E+00   0.583E-05 -.106E-04 0.287E-05
 -----------------------------------------------------------------------------------------------
   -.290E-10 0.388E-11 -.218E-09   0.426E-13 -.213E-13 0.355E-13   -.555E-16 0.000E+00 0.000E+00   0.395E-12 -.679E-12 -.221E-12


 POSITION                                       TOTAL-FORCE (eV/Angst)
 -----------------------------------------------------------------------------------
      0.52765      3.02918      3.80415        -0.000466      0.000000     -0.000438
      3.67309      9.08754      7.77014         0.000466      0.000000     -0.000438
      4.72839      3.02918      0.16184        -0.000466     -0.000000      0.000438
      7.87383      9.08754      4.12783         0.000466      0.000000      0.000438
      0.00000      0.00000      0.00000         0.000000      0.000000     -0.000000
      4.20074      0.00000      3.96599         0.000000      0.000000     -0.000000
      4.20074      6.05836      3.96599         0.000000      0.000000     -0.000000
      0.00000      6.05836      0.00000         0.000000      0.000000     -0.000000
      4.21734      9.08754      3.59633         0.000283     -0.000000      0.000599
      8.38488      3.02918      7.56232        -0.000283      0.000000      0.000599
      0.01660      9.08754      0.36966         0.000283     -0.000000     -0.000599
      4.18414      3.02918      4.33565        -0.000283      0.000000     -0.000599
      2.58472      5.71947      1.47534        -0.000307      0.000509      0.000081
      1.61603      6.39725      5.44133         0.000307     -0.000509      0.000081
      6.78546      0.33889      2.49065        -0.000307     -0.000509     -0.000081
      5.81677     11.77783      6.45664         0.000307      0.000509     -0.000081
      2.58472      0.33889      1.47534        -0.000307     -0.000509      0.000081
      1.61603     11.77783      5.44133         0.000307      0.000509      0.000081
      5.81677      6.39725      6.45664         0.000307     -0.000509     -0.000081
      6.78546      5.71947      2.49065        -0.000307      0.000509     -0.000081
 -----------------------------------------------------------------------------------
    total drift:                               -0.000000      0.000000     -0.000000


--------------------------------------------------------------------------------------------------------



  FREE ENERGIE OF THE ION-ELECTRON SYSTEM (eV)
  ---------------------------------------------------
  free  energy   TOTEN  =      -715.06190546 eV

  energy  without entropy=     -715.06190546  energy(sigma->0) =     -715.06190546



--------------------------------------------------------------------------------------------------------


    POTLOK:  cpu time    1.3958: real time    1.3958


--------------------------------------------------------------------------------------------------------


 stress matrix after NEB project (eV)
      0.01173      0.00000      0.00000
      0.00000     -4.02549      0.00000
      0.00000      0.00000      0.01682
  FORCES: max atom, RMS     0.000662    0.000560
  FORCE total and by dimension    0.002504    0.000599
  Stress total and by dimension    4.025544    4.025492


--------------------------------------------------------------------------------------------------------


  
 reached required accuracy - stopping structural energy minimisation
     LOOP+:  cpu time 1358.7131: real time 1359.3152
    4ORBIT:  cpu time    0.0000: real time    0.0000



 total charge     

# of ion       s       p       d       tot
------------------------------------------
    1        1.786   4.712   0.017   6.516
    2        1.786   4.712   0.017   6.516
    3        1.786   4.712   0.017   6.516
    4        1.786   4.712   0.017   6.516
    5        1.552   0.418   9.840  11.809
    6        1.552   0.417   9.840  11.809
    7        1.552   0.417   9.840  11.809
    8        1.552   0.418   9.840  11.809
    9        1.615   3.285   0.005   4.905
   10        1.615   3.286   0.005   4.906
   11        1.615   3.286   0.005   4.906
   12        1.615   3.285   0.005   4.905
   13        1.617   3.277   0.007   4.901
   14        1.615   3.301   0.006   4.922
   15        1.615   3.301   0.006   4.922
   16        1.617   3.277   0.007   4.901
   17        1.617   3.277   0.007   4.901
   18        1.615   3.301   0.006   4.922
   19        1.617   3.277   0.007   4.901
   20        1.615   3.301   0.006   4.922
--------------------------------------------------
tot         32.738  59.974  39.500 132.212


 total amount of memory used by VASP MPI-rank0    60118. kBytes
=======================================================================

   base      :      30000. kBytes
   nonlr-proj:       3288. kBytes
   fftplans  :       3917. kBytes
   grid      :       3186. kBytes
   one-center:         15. kBytes
   wavefun   :      19712. kBytes

  
  
 General timing and accounting informations for this job:
 ========================================================
  
                  Total CPU time used (sec):     1390.961
                            User time (sec):     1367.142
                          System time (sec):       23.819
                         Elapsed time (sec):     1392.400
  
                   Maximum memory used (kb):      170328.
                   Average memory used (kb):           0.
  
                          Minor page faults:       380561
                          Major page faults:            1
                 Voluntary context switches:         1781
