  39  39   1   0
  0.4103261E+02  0.1166835E-08  0.1176381E-08  0.1166835E-08  0.5000000E-15
   1.0000000000000000E-004
  CAR 
 CsPbBr3 cubic bulk                      
      7.95683690    -22.93430306  301      0.25979453      1.00000000
    -22.934  0.0000E+00  0.0000E+00
    -22.831  0.0000E+00  0.0000E+00
    -22.728  0.0000E+00  0.0000E+00
    -22.625  0.0000E+00  0.0000E+00
    -22.522  0.0000E+00  0.0000E+00
    -22.419  0.0000E+00  0.0000E+00
    -22.316  0.0000E+00  0.0000E+00
    -22.214  0.0000E+00  0.0000E+00
    -22.111  0.0000E+00  0.0000E+00
    -22.008  0.0000E+00  0.0000E+00
    -21.905  0.0000E+00  0.0000E+00
    -21.802  0.0000E+00  0.0000E+00
    -21.699  0.0000E+00  0.0000E+00
    -21.596  0.0000E+00  0.0000E+00
    -21.493  0.1942E+02  0.2000E+01
    -21.390  0.0000E+00  0.2000E+01
    -21.287  0.0000E+00  0.2000E+01
    -21.184  0.0000E+00  0.2000E+01
    -21.081  0.0000E+00  0.2000E+01
    -20.978  0.3189E+02  0.5283E+01
    -20.875  0.5781E+02  0.1195E+02
    -20.772  0.1942E+02  0.1400E+02
    -20.669  0.0000E+00  0.1400E+02
    -20.566  0.0000E+00  0.1400E+02
    -20.463  0.0000E+00  0.1400E+02
    -20.360  0.0000E+00  0.1400E+02
    -20.257  0.0000E+00  0.1400E+02
    -20.154  0.0000E+00  0.1400E+02
    -20.051  0.0000E+00  0.1400E+02
    -19.948  0.0000E+00  0.1400E+02
    -19.845  0.0000E+00  0.1400E+02
    -19.742  0.0000E+00  0.1400E+02
    -19.639  0.0000E+00  0.1400E+02
    -19.536  0.0000E+00  0.1400E+02
    -19.433  0.0000E+00  0.1400E+02
    -19.330  0.0000E+00  0.1400E+02
    -19.227  0.0000E+00  0.1400E+02
    -19.124  0.0000E+00  0.1400E+02
    -19.021  0.0000E+00  0.1400E+02
    -18.918  0.0000E+00  0.1400E+02
    -18.815  0.0000E+00  0.1400E+02
    -18.713  0.0000E+00  0.1400E+02
    -18.610  0.0000E+00  0.1400E+02
    -18.507  0.0000E+00  0.1400E+02
    -18.404  0.0000E+00  0.1400E+02
    -18.301  0.0000E+00  0.1400E+02
    -18.198  0.0000E+00  0.1400E+02
    -18.095  0.0000E+00  0.1400E+02
    -17.992  0.0000E+00  0.1400E+02
    -17.889  0.0000E+00  0.1400E+02
    -17.786  0.0000E+00  0.1400E+02
    -17.683  0.0000E+00  0.1400E+02
    -17.580  0.0000E+00  0.1400E+02
    -17.477  0.0000E+00  0.1400E+02
    -17.374  0.0000E+00  0.1400E+02
    -17.271  0.0000E+00  0.1400E+02
    -17.168  0.0000E+00  0.1400E+02
    -17.065  0.0000E+00  0.1400E+02
    -16.962  0.0000E+00  0.1400E+02
    -16.859  0.0000E+00  0.1400E+02
    -16.756  0.6533E+00  0.1407E+02
    -16.653  0.1440E+03  0.2982E+02
    -16.550  0.3644E+03  0.6902E+02
    -16.447  0.2331E+03  0.9400E+02
    -16.344  0.0000E+00  0.9400E+02
    -16.241  0.0000E+00  0.9400E+02
    -16.138  0.0000E+00  0.9400E+02
    -16.035  0.0000E+00  0.9400E+02
    -15.932  0.0000E+00  0.9400E+02
    -15.829  0.0000E+00  0.9400E+02
    -15.726  0.0000E+00  0.9400E+02
    -15.623  0.0000E+00  0.9400E+02
    -15.520  0.0000E+00  0.9400E+02
    -15.417  0.0000E+00  0.9400E+02
    -15.314  0.0000E+00  0.9400E+02
    -15.212  0.0000E+00  0.9400E+02
    -15.109  0.0000E+00  0.9400E+02
    -15.006  0.0000E+00  0.9400E+02
    -14.903  0.0000E+00  0.9400E+02
    -14.800  0.0000E+00  0.9400E+02
    -14.697  0.0000E+00  0.9400E+02
    -14.594  0.7312E-03  0.9400E+02
    -14.491  0.2020E+02  0.9608E+02
    -14.388  0.1301E+02  0.9834E+02
    -14.285  0.6153E+02  0.1053E+03
    -14.182  0.5309E+02  0.1132E+03
    -14.079  0.6729E+02  0.1212E+03
    -13.976  0.5906E+02  0.1303E+03
    -13.873  0.5616E+02  0.1385E+03
    -13.770  0.1457E+02  0.1420E+03
    -13.667  0.0000E+00  0.1420E+03
    -13.564  0.0000E+00  0.1420E+03
    -13.461  0.0000E+00  0.1420E+03
    -13.358  0.0000E+00  0.1420E+03
    -13.255  0.0000E+00  0.1420E+03
    -13.152  0.0000E+00  0.1420E+03
    -13.049  0.0000E+00  0.1420E+03
    -12.946  0.0000E+00  0.1420E+03
    -12.843  0.0000E+00  0.1420E+03
    -12.740  0.0000E+00  0.1420E+03
    -12.637  0.0000E+00  0.1420E+03
    -12.534  0.0000E+00  0.1420E+03
    -12.431  0.0000E+00  0.1420E+03
    -12.328  0.0000E+00  0.1420E+03
    -12.225  0.0000E+00  0.1420E+03
    -12.122  0.0000E+00  0.1420E+03
    -12.019  0.0000E+00  0.1420E+03
    -11.916  0.0000E+00  0.1420E+03
    -11.813  0.0000E+00  0.1420E+03
    -11.711  0.0000E+00  0.1420E+03
    -11.608  0.0000E+00  0.1420E+03
    -11.505  0.0000E+00  0.1420E+03
    -11.402  0.0000E+00  0.1420E+03
    -11.299  0.0000E+00  0.1420E+03
    -11.196  0.0000E+00  0.1420E+03
    -11.093  0.0000E+00  0.1420E+03
    -10.990  0.0000E+00  0.1420E+03
    -10.887  0.0000E+00  0.1420E+03
    -10.784  0.0000E+00  0.1420E+03
    -10.681  0.0000E+00  0.1420E+03
    -10.578  0.0000E+00  0.1420E+03
    -10.475  0.0000E+00  0.1420E+03
    -10.372  0.0000E+00  0.1420E+03
    -10.269  0.0000E+00  0.1420E+03
    -10.166  0.0000E+00  0.1420E+03
    -10.063  0.0000E+00  0.1420E+03
     -9.960  0.0000E+00  0.1420E+03
     -9.857  0.0000E+00  0.1420E+03
     -9.754  0.0000E+00  0.1420E+03
     -9.651  0.0000E+00  0.1420E+03
     -9.548  0.0000E+00  0.1420E+03
     -9.445  0.0000E+00  0.1420E+03
     -9.342  0.0000E+00  0.1420E+03
     -9.239  0.0000E+00  0.1420E+03
     -9.136  0.0000E+00  0.1420E+03
     -9.033  0.0000E+00  0.1420E+03
     -8.930  0.0000E+00  0.1420E+03
     -8.827  0.0000E+00  0.1420E+03
     -8.724  0.0000E+00  0.1420E+03
     -8.621  0.0000E+00  0.1420E+03
     -8.518  0.0000E+00  0.1420E+03
     -8.415  0.1456E-09  0.1420E+03
     -8.312  0.2428E+01  0.1422E+03
     -8.210  0.1527E+01  0.1424E+03
     -8.107  0.7208E+01  0.1435E+03
     -8.004  0.4894E+01  0.1443E+03
     -7.901  0.5817E+02  0.1505E+03
     -7.798  0.1942E+02  0.1537E+03
     -7.695  0.6703E+01  0.1544E+03
     -7.592  0.2919E+02  0.1580E+03
     -7.489  0.4851E+01  0.1590E+03
     -7.386  0.7577E+02  0.1668E+03
     -7.283  0.1609E+03  0.1888E+03
     -7.180  0.6312E+02  0.1982E+03
     -7.077  0.9347E+01  0.1992E+03
     -6.974  0.4856E+01  0.1997E+03
     -6.871  0.0000E+00  0.1998E+03
     -6.768  0.3860E+00  0.1998E+03
     -6.665  0.0000E+00  0.2000E+03
     -6.562  0.0000E+00  0.2000E+03
     -6.459  0.0000E+00  0.2000E+03
     -6.356  0.0000E+00  0.2000E+03
     -6.253  0.0000E+00  0.2000E+03
     -6.150  0.0000E+00  0.2000E+03
     -6.047  0.0000E+00  0.2000E+03
     -5.944  0.0000E+00  0.2000E+03
     -5.841  0.0000E+00  0.2000E+03
     -5.738  0.0000E+00  0.2000E+03
     -5.635  0.0000E+00  0.2000E+03
     -5.532  0.0000E+00  0.2000E+03
     -5.429  0.0000E+00  0.2000E+03
     -5.326  0.0000E+00  0.2000E+03
     -5.223  0.0000E+00  0.2000E+03
     -5.120  0.0000E+00  0.2000E+03
     -5.017  0.0000E+00  0.2000E+03
     -4.914  0.0000E+00  0.2000E+03
     -4.812  0.0000E+00  0.2000E+03
     -4.709  0.0000E+00  0.2000E+03
     -4.606  0.0000E+00  0.2000E+03
     -4.503  0.0000E+00  0.2000E+03
     -4.400  0.0000E+00  0.2000E+03
     -4.297  0.0000E+00  0.2000E+03
     -4.194  0.0000E+00  0.2000E+03
     -4.091  0.0000E+00  0.2000E+03
     -3.988  0.0000E+00  0.2000E+03
     -3.885  0.0000E+00  0.2000E+03
     -3.782  0.0000E+00  0.2000E+03
     -3.679  0.0000E+00  0.2000E+03
     -3.576  0.1550E-01  0.2000E+03
     -3.473  0.1357E+02  0.2019E+03
     -3.370  0.2626E+02  0.2050E+03
     -3.267  0.2539E+02  0.2081E+03
     -3.164  0.2399E+02  0.2110E+03
     -3.061  0.5422E+01  0.2118E+03
     -2.958  0.7121E+01  0.2127E+03
     -2.855  0.1324E+02  0.2141E+03
     -2.752  0.2474E+02  0.2175E+03
     -2.649  0.3120E+02  0.2215E+03
     -2.546  0.3745E+02  0.2261E+03
     -2.443  0.3538E+02  0.2309E+03
     -2.340  0.2838E+02  0.2347E+03
     -2.237  0.2781E+02  0.2386E+03
     -2.134  0.3059E+02  0.2432E+03
     -2.031  0.2246E+02  0.2456E+03
     -1.928  0.3464E+02  0.2503E+03
     -1.825  0.3974E+02  0.2561E+03
     -1.722  0.5155E+02  0.2626E+03
     -1.619  0.6649E+02  0.2711E+03
     -1.516  0.1032E+03  0.2841E+03
     -1.413  0.8197E+02  0.2942E+03
     -1.311  0.7935E+02  0.3042E+03
     -1.208  0.8916E+02  0.3157E+03
     -1.105  0.6342E+02  0.3268E+03
     -1.002  0.1129E+02  0.3287E+03
     -0.899  0.2891E+02  0.3327E+03
     -0.796  0.1481E+02  0.3353E+03
     -0.693  0.1790E+02  0.3378E+03
     -0.590  0.1474E+02  0.3400E+03
     -0.487  0.7275E+01  0.3412E+03
     -0.384  0.4856E+01  0.3417E+03
     -0.281  0.7284E+01  0.3425E+03
     -0.178  0.6676E+01  0.3432E+03
     -0.075  0.2428E+01  0.3437E+03
      0.028  0.0000E+00  0.3438E+03
      0.131  0.4313E-14  0.3438E+03
      0.234  0.2428E+01  0.3440E+03
      0.337  0.0000E+00  0.3440E+03
      0.440  0.0000E+00  0.3440E+03
      0.543  0.0000E+00  0.3440E+03
      0.646  0.0000E+00  0.3440E+03
      0.749  0.0000E+00  0.3440E+03
      0.852  0.0000E+00  0.3440E+03
      0.955  0.0000E+00  0.3440E+03
      1.058  0.0000E+00  0.3440E+03
      1.161  0.0000E+00  0.3440E+03
      1.264  0.0000E+00  0.3440E+03
      1.367  0.0000E+00  0.3440E+03
      1.470  0.0000E+00  0.3440E+03
      1.573  0.0000E+00  0.3440E+03
      1.676  0.0000E+00  0.3440E+03
      1.779  0.0000E+00  0.3440E+03
      1.882  0.0000E+00  0.3440E+03
      1.985  0.0000E+00  0.3440E+03
      2.088  0.0000E+00  0.3440E+03
      2.190  0.0000E+00  0.3440E+03
      2.293  0.0000E+00  0.3440E+03
      2.396  0.0000E+00  0.3440E+03
      2.499  0.0000E+00  0.3440E+03
      2.602  0.6202E-02  0.3440E+03
      2.705  0.2474E+01  0.3445E+03
      2.808  0.1254E+02  0.3460E+03
      2.911  0.1362E+02  0.3482E+03
      3.014  0.2185E+02  0.3510E+03
      3.117  0.1964E+02  0.3530E+03
      3.220  0.1697E+02  0.3550E+03
      3.323  0.4851E+01  0.3555E+03
      3.426  0.4857E+01  0.3560E+03
      3.529  0.4855E+01  0.3565E+03
      3.632  0.0000E+00  0.3565E+03
      3.735  0.5257E-08  0.3565E+03
      3.838  0.9776E+01  0.3575E+03
      3.941  0.2383E+01  0.3580E+03
      4.044  0.9071E+01  0.3594E+03
      4.147  0.1222E+02  0.3613E+03
      4.250  0.2131E+02  0.3642E+03
      4.353  0.4063E+02  0.3687E+03
      4.456  0.3667E+02  0.3728E+03
      4.559  0.1686E+02  0.3750E+03
      4.662  0.2211E+02  0.3775E+03
      4.765  0.1406E+02  0.3799E+03
      4.868  0.4855E+01  0.3805E+03
      4.971  0.2428E+01  0.3807E+03
      5.074  0.0000E+00  0.3808E+03
      5.177  0.0000E+00  0.3808E+03
      5.280  0.1589E+01  0.3809E+03
      5.383  0.9133E+01  0.3819E+03
      5.486  0.2409E+02  0.3847E+03
      5.589  0.2634E+02  0.3877E+03
      5.691  0.1793E+02  0.3896E+03
      5.794  0.1475E+02  0.3915E+03
      5.897  0.1232E+02  0.3938E+03
      6.000  0.2150E+02  0.3970E+03
      6.103  0.2459E+02  0.4003E+03
      6.206  0.2626E+02  0.4032E+03
      6.309  0.2753E+02  0.4066E+03
      6.412  0.2910E+02  0.4105E+03
      6.515  0.3760E+02  0.4149E+03
      6.618  0.4856E+01  0.4160E+03
      6.721  0.0000E+00  0.4160E+03
      6.824  0.0000E+00  0.4160E+03
      6.927  0.0000E+00  0.4160E+03
      7.030  0.0000E+00  0.4160E+03
      7.133  0.0000E+00  0.4160E+03
      7.236  0.0000E+00  0.4160E+03
      7.339  0.0000E+00  0.4160E+03
      7.442  0.0000E+00  0.4160E+03
      7.545  0.0000E+00  0.4160E+03
      7.648  0.0000E+00  0.4160E+03
      7.751  0.0000E+00  0.4160E+03
      7.854  0.0000E+00  0.4160E+03
      7.957  0.0000E+00  0.4160E+03
      7.95683690    -22.93430306  301      0.25979453      1.00000000
    -22.934  0.0000E+00  0.0000E+00  0.0000E+00
    -22.831  0.0000E+00  0.0000E+00  0.0000E+00
    -22.728  0.0000E+00  0.0000E+00  0.0000E+00
    -22.625  0.0000E+00  0.0000E+00  0.0000E+00
    -22.522  0.0000E+00  0.0000E+00  0.0000E+00
    -22.419  0.0000E+00  0.0000E+00  0.0000E+00
    -22.316  0.0000E+00  0.0000E+00  0.0000E+00
    -22.214  0.0000E+00  0.0000E+00  0.0000E+00
    -22.111  0.0000E+00  0.0000E+00  0.0000E+00
    -22.008  0.0000E+00  0.0000E+00  0.0000E+00
    -21.905  0.0000E+00  0.0000E+00  0.0000E+00
    -21.802  0.0000E+00  0.0000E+00  0.0000E+00
    -21.699  0.0000E+00  0.0000E+00  0.0000E+00
    -21.596  0.0000E+00  0.0000E+00  0.0000E+00
    -21.493  0.1623E-07  0.2022E-08  0.9034E-10
    -21.390  0.0000E+00  0.0000E+00  0.0000E+00
    -21.287  0.0000E+00  0.0000E+00  0.0000E+00
    -21.184  0.0000E+00  0.0000E+00  0.0000E+00
    -21.081  0.0000E+00  0.0000E+00  0.0000E+00
    -20.978  0.1360E-02  0.1609E-06  0.1855E-07
    -20.875  0.1683E+02  0.1311E-04  0.6064E-05
    -20.772  0.7806E-02  0.4716E-06  0.3655E-07
    -20.669  0.0000E+00  0.0000E+00  0.0000E+00
    -20.566  0.0000E+00  0.0000E+00  0.0000E+00
    -20.463  0.0000E+00  0.0000E+00  0.0000E+00
    -20.360  0.0000E+00  0.0000E+00  0.0000E+00
    -20.257  0.0000E+00  0.0000E+00  0.0000E+00
    -20.154  0.0000E+00  0.0000E+00  0.0000E+00
    -20.051  0.0000E+00  0.0000E+00  0.0000E+00
    -19.948  0.0000E+00  0.0000E+00  0.0000E+00
    -19.845  0.0000E+00  0.0000E+00  0.0000E+00
    -19.742  0.0000E+00  0.0000E+00  0.0000E+00
    -19.639  0.0000E+00  0.0000E+00  0.0000E+00
    -19.536  0.0000E+00  0.0000E+00  0.0000E+00
    -19.433  0.0000E+00  0.0000E+00  0.0000E+00
    -19.330  0.0000E+00  0.0000E+00  0.0000E+00
    -19.227  0.0000E+00  0.0000E+00  0.0000E+00
    -19.124  0.0000E+00  0.0000E+00  0.0000E+00
    -19.021  0.0000E+00  0.0000E+00  0.0000E+00
    -18.918  0.0000E+00  0.0000E+00  0.0000E+00
    -18.815  0.0000E+00  0.0000E+00  0.0000E+00
    -18.713  0.0000E+00  0.0000E+00  0.0000E+00
    -18.610  0.0000E+00  0.0000E+00  0.0000E+00
    -18.507  0.0000E+00  0.0000E+00  0.0000E+00
    -18.404  0.0000E+00  0.0000E+00  0.0000E+00
    -18.301  0.0000E+00  0.0000E+00  0.0000E+00
    -18.198  0.0000E+00  0.0000E+00  0.0000E+00
    -18.095  0.0000E+00  0.0000E+00  0.0000E+00
    -17.992  0.0000E+00  0.0000E+00  0.0000E+00
    -17.889  0.0000E+00  0.0000E+00  0.0000E+00
    -17.786  0.0000E+00  0.0000E+00  0.0000E+00
    -17.683  0.0000E+00  0.0000E+00  0.0000E+00
    -17.580  0.0000E+00  0.0000E+00  0.0000E+00
    -17.477  0.0000E+00  0.0000E+00  0.0000E+00
    -17.374  0.0000E+00  0.0000E+00  0.0000E+00
    -17.271  0.0000E+00  0.0000E+00  0.0000E+00
    -17.168  0.0000E+00  0.0000E+00  0.0000E+00
    -17.065  0.0000E+00  0.0000E+00  0.0000E+00
    -16.962  0.0000E+00  0.0000E+00  0.0000E+00
    -16.859  0.0000E+00  0.0000E+00  0.0000E+00
    -16.756  0.3560E-07  0.8954E-07  0.9976E-08
    -16.653  0.9465E-04  0.5931E-04  0.1068E-04
    -16.550  0.3638E-04  0.6636E-04  0.1366E-04
    -16.447  0.8710E-04  0.4472E-04  0.5136E-05
    -16.344  0.0000E+00  0.0000E+00  0.0000E+00
    -16.241  0.0000E+00  0.0000E+00  0.0000E+00
    -16.138  0.0000E+00  0.0000E+00  0.0000E+00
    -16.035  0.0000E+00  0.0000E+00  0.0000E+00
    -15.932  0.0000E+00  0.0000E+00  0.0000E+00
    -15.829  0.0000E+00  0.0000E+00  0.0000E+00
    -15.726  0.0000E+00  0.0000E+00  0.0000E+00
    -15.623  0.0000E+00  0.0000E+00  0.0000E+00
    -15.520  0.0000E+00  0.0000E+00  0.0000E+00
    -15.417  0.0000E+00  0.0000E+00  0.0000E+00
    -15.314  0.0000E+00  0.0000E+00  0.0000E+00
    -15.212  0.0000E+00  0.0000E+00  0.0000E+00
    -15.109  0.0000E+00  0.0000E+00  0.0000E+00
    -15.006  0.0000E+00  0.0000E+00  0.0000E+00
    -14.903  0.0000E+00  0.0000E+00  0.0000E+00
    -14.800  0.0000E+00  0.0000E+00  0.0000E+00
    -14.697  0.0000E+00  0.0000E+00  0.0000E+00
    -14.594  0.1367E-06  0.1228E-07  0.3354E-09
    -14.491  0.2973E-02  0.6730E-03  0.1464E-04
    -14.388  0.1314E-02  0.1738E-02  0.3796E-04
    -14.285  0.3993E-02  0.5912E-02  0.2016E-03
    -14.182  0.1410E-02  0.5231E-02  0.1876E-03
    -14.079  0.1696E-02  0.6065E-02  0.8261E-03
    -13.976  0.2847E-02  0.3933E-02  0.4396E-03
    -13.873  0.4377E-03  0.1822E-02  0.2981E-03
    -13.770  0.6010E-04  0.3856E-03  0.9961E-04
    -13.667  0.0000E+00  0.0000E+00  0.0000E+00
    -13.564  0.0000E+00  0.0000E+00  0.0000E+00
    -13.461  0.0000E+00  0.0000E+00  0.0000E+00
    -13.358  0.0000E+00  0.0000E+00  0.0000E+00
    -13.255  0.0000E+00  0.0000E+00  0.0000E+00
    -13.152  0.0000E+00  0.0000E+00  0.0000E+00
    -13.049  0.0000E+00  0.0000E+00  0.0000E+00
    -12.946  0.0000E+00  0.0000E+00  0.0000E+00
    -12.843  0.0000E+00  0.0000E+00  0.0000E+00
    -12.740  0.0000E+00  0.0000E+00  0.0000E+00
    -12.637  0.0000E+00  0.0000E+00  0.0000E+00
    -12.534  0.0000E+00  0.0000E+00  0.0000E+00
    -12.431  0.0000E+00  0.0000E+00  0.0000E+00
    -12.328  0.0000E+00  0.0000E+00  0.0000E+00
    -12.225  0.0000E+00  0.0000E+00  0.0000E+00
    -12.122  0.0000E+00  0.0000E+00  0.0000E+00
    -12.019  0.0000E+00  0.0000E+00  0.0000E+00
    -11.916  0.0000E+00  0.0000E+00  0.0000E+00
    -11.813  0.0000E+00  0.0000E+00  0.0000E+00
    -11.711  0.0000E+00  0.0000E+00  0.0000E+00
    -11.608  0.0000E+00  0.0000E+00  0.0000E+00
    -11.505  0.0000E+00  0.0000E+00  0.0000E+00
    -11.402  0.0000E+00  0.0000E+00  0.0000E+00
    -11.299  0.0000E+00  0.0000E+00  0.0000E+00
    -11.196  0.0000E+00  0.0000E+00  0.0000E+00
    -11.093  0.0000E+00  0.0000E+00  0.0000E+00
    -10.990  0.0000E+00  0.0000E+00  0.0000E+00
    -10.887  0.0000E+00  0.0000E+00  0.0000E+00
    -10.784  0.0000E+00  0.0000E+00  0.0000E+00
    -10.681  0.0000E+00  0.0000E+00  0.0000E+00
    -10.578  0.0000E+00  0.0000E+00  0.0000E+00
    -10.475  0.0000E+00  0.0000E+00  0.0000E+00
    -10.372  0.0000E+00  0.0000E+00  0.0000E+00
    -10.269  0.0000E+00  0.0000E+00  0.0000E+00
    -10.166  0.0000E+00  0.0000E+00  0.0000E+00
    -10.063  0.0000E+00  0.0000E+00  0.0000E+00
     -9.960  0.0000E+00  0.0000E+00  0.0000E+00
     -9.857  0.0000E+00  0.0000E+00  0.0000E+00
     -9.754  0.0000E+00  0.0000E+00  0.0000E+00
     -9.651  0.0000E+00  0.0000E+00  0.0000E+00
     -9.548  0.0000E+00  0.0000E+00  0.0000E+00
     -9.445  0.0000E+00  0.0000E+00  0.0000E+00
     -9.342  0.0000E+00  0.0000E+00  0.0000E+00
     -9.239  0.0000E+00  0.0000E+00  0.0000E+00
     -9.136  0.0000E+00  0.0000E+00  0.0000E+00
     -9.033  0.0000E+00  0.0000E+00  0.0000E+00
     -8.930  0.0000E+00  0.0000E+00  0.0000E+00
     -8.827  0.0000E+00  0.0000E+00  0.0000E+00
     -8.724  0.0000E+00  0.0000E+00  0.0000E+00
     -8.621  0.0000E+00  0.0000E+00  0.0000E+00
     -8.518  0.0000E+00  0.0000E+00  0.0000E+00
     -8.415  0.1051E-22  0.7226E-16  0.6213E-15
     -8.312  0.1753E-12  0.1205E-05  0.1036E-04
     -8.210  0.8397E-13  0.2511E-03  0.5184E-05
     -8.107  0.6545E-06  0.4031E-02  0.1841E-04
     -8.004  0.6784E-08  0.1014E-02  0.1435E-04
     -7.901  0.9717E-05  0.2827E-01  0.2835E-04
     -7.798  0.1380E-05  0.1702E-01  0.4507E-04
     -7.695  0.9895E-06  0.3491E-01  0.9451E-05
     -7.592  0.5762E-04  0.9521E-01  0.6707E-04
     -7.489  0.1402E-07  0.1186E+00  0.7073E-05
     -7.386  0.1363E-03  0.9035E+00  0.5786E-04
     -7.283  0.4686E-04  0.2931E+02  0.5717E-04
     -7.180  0.4798E-04  0.2326E+01  0.5236E-04
     -7.077  0.9566E-04  0.4882E-01  0.1966E-04
     -6.974  0.1529E-04  0.3100E-01  0.1047E-04
     -6.871  0.0000E+00  0.0000E+00  0.0000E+00
     -6.768  0.4872E-05  0.6621E-03  0.7617E-07
     -6.665  0.0000E+00  0.0000E+00  0.0000E+00
     -6.562  0.0000E+00  0.0000E+00  0.0000E+00
     -6.459  0.0000E+00  0.0000E+00  0.0000E+00
     -6.356  0.0000E+00  0.0000E+00  0.0000E+00
     -6.253  0.0000E+00  0.0000E+00  0.0000E+00
     -6.150  0.0000E+00  0.0000E+00  0.0000E+00
     -6.047  0.0000E+00  0.0000E+00  0.0000E+00
     -5.944  0.0000E+00  0.0000E+00  0.0000E+00
     -5.841  0.0000E+00  0.0000E+00  0.0000E+00
     -5.738  0.0000E+00  0.0000E+00  0.0000E+00
     -5.635  0.0000E+00  0.0000E+00  0.0000E+00
     -5.532  0.0000E+00  0.0000E+00  0.0000E+00
     -5.429  0.0000E+00  0.0000E+00  0.0000E+00
     -5.326  0.0000E+00  0.0000E+00  0.0000E+00
     -5.223  0.0000E+00  0.0000E+00  0.0000E+00
     -5.120  0.0000E+00  0.0000E+00  0.0000E+00
     -5.017  0.0000E+00  0.0000E+00  0.0000E+00
     -4.914  0.0000E+00  0.0000E+00  0.0000E+00
     -4.812  0.0000E+00  0.0000E+00  0.0000E+00
     -4.709  0.0000E+00  0.0000E+00  0.0000E+00
     -4.606  0.0000E+00  0.0000E+00  0.0000E+00
     -4.503  0.0000E+00  0.0000E+00  0.0000E+00
     -4.400  0.0000E+00  0.0000E+00  0.0000E+00
     -4.297  0.0000E+00  0.0000E+00  0.0000E+00
     -4.194  0.0000E+00  0.0000E+00  0.0000E+00
     -4.091  0.0000E+00  0.0000E+00  0.0000E+00
     -3.988  0.0000E+00  0.0000E+00  0.0000E+00
     -3.885  0.0000E+00  0.0000E+00  0.0000E+00
     -3.782  0.0000E+00  0.0000E+00  0.0000E+00
     -3.679  0.0000E+00  0.0000E+00  0.0000E+00
     -3.576  0.1831E-13  0.7317E-05  0.1059E-06
     -3.473  0.1033E-05  0.4670E-02  0.1553E-03
     -3.370  0.8981E-04  0.1593E-01  0.1417E-02
     -3.267  0.1570E-03  0.9017E-02  0.1577E-02
     -3.164  0.1973E-03  0.1733E-01  0.2304E-02
     -3.061  0.1954E-10  0.1012E-02  0.6678E-03
     -2.958  0.3601E-04  0.1727E-02  0.2238E-03
     -2.855  0.5542E-04  0.1472E-01  0.7492E-03
     -2.752  0.3048E-03  0.2162E-01  0.1599E-02
     -2.649  0.1453E-02  0.2518E-01  0.2046E-02
     -2.546  0.2307E-02  0.2538E-01  0.2679E-02
     -2.443  0.1841E-02  0.2237E-01  0.2935E-02
     -2.340  0.5553E-02  0.9533E-02  0.3968E-02
     -2.237  0.1570E-01  0.1520E-01  0.1289E-02
     -2.134  0.2491E-01  0.2382E-01  0.3189E-02
     -2.031  0.1149E-02  0.6918E-01  0.2319E-02
     -1.928  0.2967E-02  0.7967E-01  0.6863E-02
     -1.825  0.4466E-02  0.8637E-01  0.7462E-02
     -1.722  0.2516E-02  0.7343E-01  0.1065E-01
     -1.619  0.2677E-02  0.9300E-01  0.1869E-01
     -1.516  0.5221E-02  0.1213E+00  0.2658E-01
     -1.413  0.3688E-02  0.7166E-01  0.1632E-01
     -1.311  0.3032E-02  0.8431E-01  0.1553E-01
     -1.208  0.6259E-03  0.6572E-01  0.1149E-01
     -1.105  0.1015E-02  0.2813E-01  0.8635E-02
     -1.002  0.2542E-03  0.7708E-02  0.2964E-02
     -0.899  0.8060E-03  0.2360E-01  0.2644E-02
     -0.796  0.1521E-03  0.6088E-02  0.1039E-02
     -0.693  0.2257E-03  0.2649E-02  0.1932E-02
     -0.590  0.4505E-04  0.2398E-02  0.1258E-02
     -0.487  0.1944E-03  0.7541E-03  0.2496E-03
     -0.384  0.4568E-12  0.5795E-03  0.1447E-03
     -0.281  0.9944E-05  0.1188E-02  0.7421E-03
     -0.178  0.4845E-06  0.6302E-03  0.5649E-03
     -0.075  0.4705E-13  0.4671E-03  0.2603E-03
      0.028  0.0000E+00  0.0000E+00  0.0000E+00
      0.131  0.7351E-28  0.1841E-19  0.5793E-18
      0.234  0.4138E-13  0.1036E-04  0.3261E-03
      0.337  0.0000E+00  0.0000E+00  0.0000E+00
      0.440  0.0000E+00  0.0000E+00  0.0000E+00
      0.543  0.0000E+00  0.0000E+00  0.0000E+00
      0.646  0.0000E+00  0.0000E+00  0.0000E+00
      0.749  0.0000E+00  0.0000E+00  0.0000E+00
      0.852  0.0000E+00  0.0000E+00  0.0000E+00
      0.955  0.0000E+00  0.0000E+00  0.0000E+00
      1.058  0.0000E+00  0.0000E+00  0.0000E+00
      1.161  0.0000E+00  0.0000E+00  0.0000E+00
      1.264  0.0000E+00  0.0000E+00  0.0000E+00
      1.367  0.0000E+00  0.0000E+00  0.0000E+00
      1.470  0.0000E+00  0.0000E+00  0.0000E+00
      1.573  0.0000E+00  0.0000E+00  0.0000E+00
      1.676  0.0000E+00  0.0000E+00  0.0000E+00
      1.779  0.0000E+00  0.0000E+00  0.0000E+00
      1.882  0.0000E+00  0.0000E+00  0.0000E+00
      1.985  0.0000E+00  0.0000E+00  0.0000E+00
      2.088  0.0000E+00  0.0000E+00  0.0000E+00
      2.190  0.0000E+00  0.0000E+00  0.0000E+00
      2.293  0.0000E+00  0.0000E+00  0.0000E+00
      2.396  0.0000E+00  0.0000E+00  0.0000E+00
      2.499  0.0000E+00  0.0000E+00  0.0000E+00
      2.602  0.8829E-07  0.5987E-06  0.1136E-05
      2.705  0.5380E-06  0.3241E-04  0.9720E-03
      2.808  0.4384E-03  0.9225E-03  0.2774E-02
      2.911  0.3439E-03  0.1420E-02  0.3269E-02
      3.014  0.5301E-03  0.4123E-02  0.4830E-02
      3.117  0.9162E-03  0.2743E-02  0.4224E-02
      3.220  0.4825E-03  0.2329E-02  0.3600E-02
      3.323  0.6621E-04  0.1030E-02  0.3038E-03
      3.426  0.3917E-03  0.5516E-03  0.8069E-03
      3.529  0.2546E-03  0.7790E-03  0.2097E-02
      3.632  0.0000E+00  0.0000E+00  0.0000E+00
      3.735  0.2240E-21  0.1088E-11  0.7143E-12
      3.838  0.3356E-03  0.2233E-02  0.1352E-02
      3.941  0.6871E-04  0.3188E-03  0.9135E-03
      4.044  0.1841E-03  0.6813E-03  0.3743E-02
      4.147  0.5256E-09  0.2775E-02  0.2212E-02
      4.250  0.6526E-03  0.2300E-02  0.1035E-01
      4.353  0.2775E-02  0.5931E-02  0.1340E-01
      4.456  0.2206E-02  0.4946E-02  0.1568E-01
      4.559  0.1345E-02  0.6008E-02  0.6531E-02
      4.662  0.1993E-02  0.5058E-02  0.1230E-01
      4.765  0.1387E-03  0.2403E-02  0.1047E-01
      4.868  0.1208E-01  0.3683E-03  0.2290E-02
      4.971  0.3586E-03  0.6092E-03  0.1209E-02
      5.074  0.0000E+00  0.0000E+00  0.0000E+00
      5.177  0.0000E+00  0.0000E+00  0.0000E+00
      5.280  0.3509E-05  0.2499E-04  0.5434E-03
      5.383  0.1143E-01  0.3335E-02  0.7463E-02
      5.486  0.4196E-01  0.5955E-02  0.1458E-01
      5.589  0.6044E-02  0.7590E-02  0.1815E-01
      5.691  0.2537E-02  0.6731E-02  0.2284E-01
      5.794  0.9498E-03  0.3898E-02  0.1309E-01
      5.897  0.5499E-02  0.4643E-02  0.3862E-01
      6.000  0.4250E-01  0.2678E-01  0.7900E-01
      6.103  0.1255E-01  0.1292E-01  0.2930E+00
      6.206  0.5342E-01  0.1286E-01  0.2873E+00
      6.309  0.2608E-01  0.2082E-01  0.3424E+00
      6.412  0.5191E-02  0.1920E-01  0.3979E+00
      6.515  0.1204E-01  0.3761E-01  0.4581E+00
      6.618  0.1333E-02  0.1559E-01  0.1148E+00
      6.721  0.0000E+00  0.0000E+00  0.0000E+00
      6.824  0.0000E+00  0.0000E+00  0.0000E+00
      6.927  0.0000E+00  0.0000E+00  0.0000E+00
      7.030  0.0000E+00  0.0000E+00  0.0000E+00
      7.133  0.0000E+00  0.0000E+00  0.0000E+00
      7.236  0.0000E+00  0.0000E+00  0.0000E+00
      7.339  0.0000E+00  0.0000E+00  0.0000E+00
      7.442  0.0000E+00  0.0000E+00  0.0000E+00
      7.545  0.0000E+00  0.0000E+00  0.0000E+00
      7.648  0.0000E+00  0.0000E+00  0.0000E+00
      7.751  0.0000E+00  0.0000E+00  0.0000E+00
      7.854  0.0000E+00  0.0000E+00  0.0000E+00
      7.957  0.0000E+00  0.0000E+00  0.0000E+00
      7.95683690    -22.93430306  301      0.25979453      1.00000000
    -22.934  0.0000E+00  0.0000E+00  0.0000E+00
    -22.831  0.0000E+00  0.0000E+00  0.0000E+00
    -22.728  0.0000E+00  0.0000E+00  0.0000E+00
    -22.625  0.0000E+00  0.0000E+00  0.0000E+00
    -22.522  0.0000E+00  0.0000E+00  0.0000E+00
    -22.419  0.0000E+00  0.0000E+00  0.0000E+00
    -22.316  0.0000E+00  0.0000E+00  0.0000E+00
    -22.214  0.0000E+00  0.0000E+00  0.0000E+00
    -22.111  0.0000E+00  0.0000E+00  0.0000E+00
    -22.008  0.0000E+00  0.0000E+00  0.0000E+00
    -21.905  0.0000E+00  0.0000E+00  0.0000E+00
    -21.802  0.0000E+00  0.0000E+00  0.0000E+00
    -21.699  0.0000E+00  0.0000E+00  0.0000E+00
    -21.596  0.0000E+00  0.0000E+00  0.0000E+00
    -21.493  0.8293E-06  0.8621E-08  0.1737E-08
    -21.390  0.0000E+00  0.0000E+00  0.0000E+00
    -21.287  0.0000E+00  0.0000E+00  0.0000E+00
    -21.184  0.0000E+00  0.0000E+00  0.0000E+00
    -21.081  0.0000E+00  0.0000E+00  0.0000E+00
    -20.978  0.1764E-02  0.5816E-07  0.1529E-07
    -20.875  0.1724E+02  0.8797E-05  0.6687E-05
    -20.772  0.1061E-02  0.1660E-06  0.2710E-07
    -20.669  0.0000E+00  0.0000E+00  0.0000E+00
    -20.566  0.0000E+00  0.0000E+00  0.0000E+00
    -20.463  0.0000E+00  0.0000E+00  0.0000E+00
    -20.360  0.0000E+00  0.0000E+00  0.0000E+00
    -20.257  0.0000E+00  0.0000E+00  0.0000E+00
    -20.154  0.0000E+00  0.0000E+00  0.0000E+00
    -20.051  0.0000E+00  0.0000E+00  0.0000E+00
    -19.948  0.0000E+00  0.0000E+00  0.0000E+00
    -19.845  0.0000E+00  0.0000E+00  0.0000E+00
    -19.742  0.0000E+00  0.0000E+00  0.0000E+00
    -19.639  0.0000E+00  0.0000E+00  0.0000E+00
    -19.536  0.0000E+00  0.0000E+00  0.0000E+00
    -19.433  0.0000E+00  0.0000E+00  0.0000E+00
    -19.330  0.0000E+00  0.0000E+00  0.0000E+00
    -19.227  0.0000E+00  0.0000E+00  0.0000E+00
    -19.124  0.0000E+00  0.0000E+00  0.0000E+00
    -19.021  0.0000E+00  0.0000E+00  0.0000E+00
    -18.918  0.0000E+00  0.0000E+00  0.0000E+00
    -18.815  0.0000E+00  0.0000E+00  0.0000E+00
    -18.713  0.0000E+00  0.0000E+00  0.0000E+00
    -18.610  0.0000E+00  0.0000E+00  0.0000E+00
    -18.507  0.0000E+00  0.0000E+00  0.0000E+00
    -18.404  0.0000E+00  0.0000E+00  0.0000E+00
    -18.301  0.0000E+00  0.0000E+00  0.0000E+00
    -18.198  0.0000E+00  0.0000E+00  0.0000E+00
    -18.095  0.0000E+00  0.0000E+00  0.0000E+00
    -17.992  0.0000E+00  0.0000E+00  0.0000E+00
    -17.889  0.0000E+00  0.0000E+00  0.0000E+00
    -17.786  0.0000E+00  0.0000E+00  0.0000E+00
    -17.683  0.0000E+00  0.0000E+00  0.0000E+00
    -17.580  0.0000E+00  0.0000E+00  0.0000E+00
    -17.477  0.0000E+00  0.0000E+00  0.0000E+00
    -17.374  0.0000E+00  0.0000E+00  0.0000E+00
    -17.271  0.0000E+00  0.0000E+00  0.0000E+00
    -17.168  0.0000E+00  0.0000E+00  0.0000E+00
    -17.065  0.0000E+00  0.0000E+00  0.0000E+00
    -16.962  0.0000E+00  0.0000E+00  0.0000E+00
    -16.859  0.0000E+00  0.0000E+00  0.0000E+00
    -16.756  0.9158E-06  0.8400E-06  0.2230E-06
    -16.653  0.8595E-04  0.7621E-04  0.1475E-04
    -16.550  0.1165E-03  0.6903E-04  0.9167E-05
    -16.447  0.1044E-04  0.6324E-05  0.8209E-06
    -16.344  0.0000E+00  0.0000E+00  0.0000E+00
    -16.241  0.0000E+00  0.0000E+00  0.0000E+00
    -16.138  0.0000E+00  0.0000E+00  0.0000E+00
    -16.035  0.0000E+00  0.0000E+00  0.0000E+00
    -15.932  0.0000E+00  0.0000E+00  0.0000E+00
    -15.829  0.0000E+00  0.0000E+00  0.0000E+00
    -15.726  0.0000E+00  0.0000E+00  0.0000E+00
    -15.623  0.0000E+00  0.0000E+00  0.0000E+00
    -15.520  0.0000E+00  0.0000E+00  0.0000E+00
    -15.417  0.0000E+00  0.0000E+00  0.0000E+00
    -15.314  0.0000E+00  0.0000E+00  0.0000E+00
    -15.212  0.0000E+00  0.0000E+00  0.0000E+00
    -15.109  0.0000E+00  0.0000E+00  0.0000E+00
    -15.006  0.0000E+00  0.0000E+00  0.0000E+00
    -14.903  0.0000E+00  0.0000E+00  0.0000E+00
    -14.800  0.0000E+00  0.0000E+00  0.0000E+00
    -14.697  0.0000E+00  0.0000E+00  0.0000E+00
    -14.594  0.1430E-06  0.2440E-07  0.1180E-08
    -14.491  0.2109E-02  0.1763E-02  0.5956E-04
    -14.388  0.2926E-02  0.1103E-02  0.2238E-04
    -14.285  0.2242E-02  0.4908E-02  0.2562E-03
    -14.182  0.1402E-02  0.5898E-02  0.3574E-03
    -14.079  0.1952E-02  0.4274E-02  0.3591E-03
    -13.976  0.2261E-03  0.2237E-02  0.4077E-03
    -13.873  0.1452E-02  0.3711E-02  0.4500E-03
    -13.770  0.1717E-03  0.6273E-03  0.4718E-04