 vasp.5.4.4.18Apr17-6-g9f103f2a35 (build Jun 22 2020 09:27:21) complex           
 executed on tx2_gcc-7.3_libsci-1 date 2021.10.12  05:50:59
 running on   64 total cores
 distrk:  each k-point on   64 cores,    1 groups
 distr:  one band on NCORES_PER_BAND=   8 cores,    8 groups


--------------------------------------------------------------------------------------------------------


 INCAR:
 POTCAR:    PAW_PBE Cs_sv 08Apr2002               
 POTCAR:    PAW_PBE Pb_d 06Sep2000                
 POTCAR:    PAW_PBE Br 06Sep2000                  
 POTCAR:    PAW_PBE Cs_sv 08Apr2002               
 POTCAR:    PAW_PBE Cs_sv 08Apr2002               
   SHA256 =  c1463496f0f6037ed62c6012a8013a89ee9ad6ffb38599dcd6c079e7ed31779b Cs
   COPYR  = (c) Copyright 08Apr2002 Georg Kresse                                
   COPYR  = This file is part of the software VASP. Any use, copying, and all ot
   COPYR  = If you do not have a valid VASP license, you may not use, copy or di
   VRHFIN =Cs: 5s5p6s                                                           
   LEXCH  = PE                                                                  
   EATOM  =   555.6835 eV,   40.8416 Ry                                         
                                                                                
   TITEL  = PAW_PBE Cs_sv 08Apr2002                                             
   LULTRA =        F    use ultrasoft PP ?                                      
   IUNSCR =        1    unscreen: 0-lin 1-nonlin 2-no                           
   RPACOR =    2.200    partial core radius                                     
   POMASS =  132.900; ZVAL   =    9.000    mass and valenz                      
   RCORE  =    2.500    outmost cutoff radius                                   
   RWIGS  =    2.500; RWIGS  =    1.323    wigner-seitz radius (au A)           
   ENMAX  =  220.318; ENMIN  =  165.238 eV                                      
   RCLOC  =    2.207    cutoff for local pot                                    
   LCOR   =        T    correct aug charges                                     
   LPAW   =        T    paw PP                                                  
   EAUG   =  407.933                                                            
   DEXC   =    0.000                                                            
   RMAX   =    2.554    core radius for proj-oper                               
   RAUG   =    1.300    factor for augmentation sphere                          
   RDEP   =    2.590    radius for radial grids                                 
   RDEPT  =    2.117    core radius for aug-charge                              
                                                                                
   Atomic configuration                                                         
   13 entries                                                                   
     n  l   j            E        occ.                                          
     1  0  0.50    -35790.1377   2.0000                                         
     2  0  0.50     -5613.6201   2.0000                                         
     2  1  1.50     -5035.0101   6.0000                                         
     3  0  0.50     -1167.0767   2.0000                                         
     3  1  1.50      -980.9754   6.0000                                         
     3  2  2.50      -708.0703  10.0000                                         
     4  0  0.50      -220.2386   2.0000                                         
     4  1  1.50      -160.7596   6.0000                                         
     4  2  2.50       -74.2354  10.0000                                         
     5  0  0.50       -26.7287   2.0000                                         
     6  0  0.50        -2.0862   1.0000                                         
     5  1  1.50       -13.5159   6.0000                                         
     5  2  2.50        -0.4136   0.0000                                         
   Description                                                                  
     l       E           TYP  RCUT    TYP  RCUT                                 
     0    -26.7287425     23  1.900                                             
     0     -2.0862306     23  1.900                                             
     1    -13.5158719     23  2.500                                             
     1     -2.7211652     23  2.500                                             
     2     -0.4136171     23  2.500                                             
  local pseudopotential read in
  partial core-charges read in
  partial kinetic energy density read in
  atomic valenz-charges read in
  non local Contribution for L=           0  read in
    real space projection operators read in
  non local Contribution for L=           0  read in
    real space projection operators read in
  non local Contribution for L=           1  read in
    real space projection operators read in
  non local Contribution for L=           1  read in
    real space projection operators read in
  non local Contribution for L=           2  read in
    real space projection operators read in
    PAW grid and wavefunctions read in

   number of l-projection  operators is LMAX  =           5
   number of lm-projection operators is LMMAX =          13

 POTCAR:    PAW_PBE Pb_d 06Sep2000                
   SHA256 =  fb885b08f0fba73a15f6a6b0e39bd200c13ec96ef97cf3ecd8e63bade5137abd Pb
   COPYR  = (c) Copyright 06Sep2000 Georg Kresse                                
   COPYR  = This file is part of the software VASP. Any use, copying, and all ot
   COPYR  = If you do not have a valid VASP license, you may not use, copy or di
   VRHFIN =Pb:                                                                  
   LEXCH  = PE                                                                  
   EATOM  =  1661.6185 eV,  122.1255 Ry                                         
                                                                                
   TITEL  = PAW_PBE Pb_d 06Sep2000                                              
   LULTRA =        F    use ultrasoft PP ?                                      
   IUNSCR =        1    unscreen: 0-lin 1-nonlin 2-no                           
   RPACOR =    2.200    partial core radius                                     
   POMASS =  207.200; ZVAL   =   14.000    mass and valenz                      
   RCORE  =    2.500    outmost cutoff radius                                   
   RWIGS  =    3.260; RWIGS  =    1.725    wigner-seitz radius (au A)           
   ENMAX  =  237.835; ENMIN  =  178.376 eV                                      
   ICORE  =        3    local potential                                         
   LCOR   =        T    correct aug charges                                     
   LPAW   =        T    paw PP                                                  
   EAUG   =  391.914                                                            
   DEXC   =    0.000                                                            
   RMAX   =    2.565    core radius for proj-oper                               
   RAUG   =    1.300    factor for augmentation sphere                          
   RDEP   =    2.643    radius for radial grids                                 
   RDEPT  =    2.092    core radius for aug-charge                              
                                                                                
   Atomic configuration                                                         
   16 entries                                                                   
     n  l   j            E        occ.                                          
     1  0  0.50    -88091.8466   2.0000                                         
     2  0  0.50    -15753.4197   2.0000                                         
     2  1  1.50    -13508.1797   6.0000                                         
     3  0  0.50     -3781.7194   2.0000                                         
     3  1  1.50     -3138.2529   6.0000                                         
     3  2  2.50     -2483.2977  10.0000                                         
     4  0  0.50      -856.2895   2.0000                                         
     4  1  1.50      -645.4942   6.0000                                         
     4  2  2.50      -401.8768  10.0000                                         
     4  3  3.50      -132.9059  14.0000                                         
     5  0  0.50      -144.0950   2.0000                                         
     5  1  1.50       -85.7879   6.0000                                         
     5  2  2.50       -21.1769  10.0000                                         
     6  0  0.50       -12.0372   2.0000                                         
     6  1  1.50        -3.4971   2.0000                                         
     5  3  2.50        -2.7212   0.0000                                         
   Description                                                                  
     l       E           TYP  RCUT    TYP  RCUT                                 
     2    -21.1768523     23  2.500                                             
     2      1.3605826     23  2.500                                             
     0    -12.0371562     23  2.500                                             
     0     13.6058260     23  2.500                                             
     1     -3.4971339     23  2.500                                             
     1     13.6058260     23  2.500                                             
     3     -1.3605826      7  2.500                                             
  local pseudopotential read in
  partial core-charges read in
  partial kinetic energy density read in
  atomic valenz-charges read in
  non local Contribution for L=           2  read in
    real space projection operators read in
  non local Contribution for L=           2  read in
    real space projection operators read in
  non local Contribution for L=           0  read in
    real space projection operators read in
  non local Contribution for L=           0  read in
    real space projection operators read in
  non local Contribution for L=           1  read in
    real space projection operators read in
  non local Contribution for L=           1  read in
    real space projection operators read in
    PAW grid and wavefunctions read in

   number of l-projection  operators is LMAX  =           6
   number of lm-projection operators is LMMAX =          18

 POTCAR:    PAW_PBE Br 06Sep2000                  
   SHA256 =  96a73d2954943bbee26f4990d676cc6c3bf44b8dd2c75cd4b3b825d8403f0103 Br
   COPYR  = (c) Copyright 06Sep2000 Georg Kresse                                
   COPYR  = This file is part of the software VASP. Any use, copying, and all ot
   COPYR  = If you do not have a valid VASP license, you may not use, copy or di
   VRHFIN =Br: s2p5                                                             
   LEXCH  = PE                                                                  
   EATOM  =   368.4488 eV,   27.0802 Ry                                         
                                                                                
   TITEL  = PAW_PBE Br 06Sep2000                                                
   LULTRA =        F    use ultrasoft PP ?                                      
   IUNSCR =        1    unscreen: 0-lin 1-nonlin 2-no                           
   RPACOR =    1.900    partial core radius                                     
   POMASS =   79.904; ZVAL   =    7.000    mass and valenz                      
   RCORE  =    2.100    outmost cutoff radius                                   
   RWIGS  =    2.200; RWIGS  =    1.164    wigner-seitz radius (au A)           
   ENMAX  =  216.285; ENMIN  =  162.214 eV                                      
   ICORE  =        3    local potential                                         
   LCOR   =        T    correct aug charges                                     
   LPAW   =        T    paw PP                                                  
   EAUG   =  503.852                                                            
   DEXC   =    0.000                                                            
   RMAX   =    2.139    core radius for proj-oper                               
   RAUG   =    1.300    factor for augmentation sphere                          
   RDEP   =    2.186    radius for radial grids                                 
   RDEPT  =    1.890    core radius for aug-charge                              
                                                                                
   Atomic configuration                                                         
   10 entries                                                                   
     n  l   j            E        occ.                                          
     1  0  0.50    -13316.2796   2.0000                                         
     2  0  0.50     -1732.8239   2.0000                                         
     2  1  1.50     -1528.2193   6.0000                                         
     3  0  0.50      -238.0460   2.0000                                         
     3  1  1.50      -173.4609   6.0000                                         
     3  2  2.50       -66.7132  10.0000                                         
     4  0  0.50       -20.1334   2.0000                                         
     4  1  0.50        -7.8591   5.0000                                         
     4  2  2.50        -8.1635   0.0000                                         
     4  3  2.50        -8.1635   0.0000                                         
   Description                                                                  
     l       E           TYP  RCUT    TYP  RCUT                                 
     0    -20.1333652     23  2.100                                             
     0    -21.4939478     23  2.100                                             
     1     -7.8591052     23  2.100                                             
     1     -3.1608434     23  2.100                                             
     2     -8.1634956     23  2.100                                             
     3     -1.3605826      7  2.100                                             
  local pseudopotential read in
  partial core-charges read in
  partial kinetic energy density read in
  atomic valenz-charges read in
  non local Contribution for L=           0  read in
    real space projection operators read in
  non local Contribution for L=           0  read in
    real space projection operators read in
  non local Contribution for L=           1  read in
    real space projection operators read in
  non local Contribution for L=           1  read in
    real space projection operators read in
  non local Contribution for L=           2  read in
    real space projection operators read in
    PAW grid and wavefunctions read in

   number of l-projection  operators is LMAX  =           5
   number of lm-projection operators is LMMAX =          13

 POTCAR:    PAW_PBE Cs_sv 08Apr2002               
   SHA256 =  c1463496f0f6037ed62c6012a8013a89ee9ad6ffb38599dcd6c079e7ed31779b Cs
   COPYR  = (c) Copyright 08Apr2002 Georg Kresse                                
   COPYR  = This file is part of the software VASP. Any use, copying, and all ot
   COPYR  = If you do not have a valid VASP license, you may not use, copy or di
   VRHFIN =Cs: 5s5p6s                                                           
   LEXCH  = PE                                                                  
   EATOM  =   555.6835 eV,   40.8416 Ry                                         
                                                                                
   TITEL  = PAW_PBE Cs_sv 08Apr2002                                             
   LULTRA =        F    use ultrasoft PP ?                                      
   IUNSCR =        1    unscreen: 0-lin 1-nonlin 2-no                           
   RPACOR =    2.200    partial core radius                                     
   POMASS =  132.900; ZVAL   =    9.000    mass and valenz                      
   RCORE  =    2.500    outmost cutoff radius                                   
   RWIGS  =    2.500; RWIGS  =    1.323    wigner-seitz radius (au A)           
   ENMAX  =  220.318; ENMIN  =  165.238 eV                                      
   RCLOC  =    2.207    cutoff for local pot                                    
   LCOR   =        T    correct aug charges                                     
   LPAW   =        T    paw PP                                                  
   EAUG   =  407.933                                                            
   DEXC   =    0.000                                                            
   RMAX   =    2.554    core radius for proj-oper                               
   RAUG   =    1.300    factor for augmentation sphere                          
   RDEP   =    2.590    radius for radial grids                                 
   RDEPT  =    2.117    core radius for aug-charge                              
                                                                                
   Atomic configuration                                                         
   13 entries                                                                   
     n  l   j            E        occ.                                          
     1  0  0.50    -35790.1377   2.0000                                         
     2  0  0.50     -5613.6201   2.0000                                         
     2  1  1.50     -5035.0101   6.0000                                         
     3  0  0.50     -1167.0767   2.0000                                         
     3  1  1.50      -980.9754   6.0000                                         
     3  2  2.50      -708.0703  10.0000                                         
     4  0  0.50      -220.2386   2.0000                                         
     4  1  1.50      -160.7596   6.0000                                         
     4  2  2.50       -74.2354  10.0000                                         
     5  0  0.50       -26.7287   2.0000                                         
     6  0  0.50        -2.0862   1.0000                                         
     5  1  1.50       -13.5159   6.0000                                         
     5  2  2.50        -0.4136   0.0000                                         
   Description                                                                  
     l       E           TYP  RCUT    TYP  RCUT                                 
     0    -26.7287425     23  1.900                                             
     0     -2.0862306     23  1.900                                             
     1    -13.5158719     23  2.500                                             
     1     -2.7211652     23  2.500                                             
     2     -0.4136171     23  2.500                                             
  local pseudopotential read in
  partial core-charges read in
  partial kinetic energy density read in
  atomic valenz-charges read in
  non local Contribution for L=           0  read in
    real space projection operators read in
  non local Contribution for L=           0  read in
    real space projection operators read in
  non local Contribution for L=           1  read in
    real space projection operators read in
  non local Contribution for L=           1  read in
    real space projection operators read in
  non local Contribution for L=           2  read in
    real space projection operators read in
    PAW grid and wavefunctions read in

   number of l-projection  operators is LMAX  =           5
   number of lm-projection operators is LMMAX =          13

 Optimization of the real space projectors (new method)

 maximal supplied QI-value         = 15.12
 optimisation between [QCUT,QGAM] = [  8.77, 17.69] = [ 21.53, 87.61] Ry 
 Optimized for a Real-space Cutoff    1.85 Angstroem

   l    n(q)    QCUT    max X(q) W(low)/X(q) W(high)/X(q)  e(spline) 
   0     10     8.768    25.322    0.81E-04    0.51E-04    0.48E-06
   0     10     8.768    99.187    0.78E-04    0.50E-04    0.47E-06
   1      9     8.768    11.761    0.21E-03    0.20E-03    0.37E-06
   1      9     8.768     8.275    0.24E-03    0.22E-03    0.41E-06
   2      9     8.768     3.829    0.23E-04    0.15E-03    0.18E-06
 Optimization of the real space projectors (new method)

 maximal supplied QI-value         = 15.12
 optimisation between [QCUT,QGAM] = [  8.77, 17.69] = [ 21.53, 87.61] Ry 
 Optimized for a Real-space Cutoff    1.59 Angstroem

   l    n(q)    QCUT    max X(q) W(low)/X(q) W(high)/X(q)  e(spline) 
   2      7     8.768     3.846    0.48E-04    0.11E-03    0.11E-06
   2      7     8.768     8.593    0.20E-03    0.22E-04    0.24E-06
   0      8     8.768    20.082    0.68E-04    0.88E-04    0.41E-07
   0      8     8.768     8.597    0.89E-04    0.13E-03    0.59E-07
   1      8     8.768    33.223    0.15E-03    0.53E-04    0.87E-07
   1      8     8.768    15.899    0.14E-03    0.44E-04    0.78E-07
 Optimization of the real space projectors (new method)

 maximal supplied QI-value         = 17.95
 optimisation between [QCUT,QGAM] = [  8.80, 17.59] = [ 21.67, 86.68] Ry 
 Optimized for a Real-space Cutoff    1.59 Angstroem

   l    n(q)    QCUT    max X(q) W(low)/X(q) W(high)/X(q)  e(spline) 
   0      8     8.797   175.082    0.82E-04    0.14E-03    0.89E-07
   0      8     8.797   174.004    0.79E-04    0.14E-03    0.86E-07
   1      8     8.797    54.315    0.16E-03    0.14E-04    0.30E-06
   1      8     8.797    42.441    0.16E-03    0.14E-04    0.30E-06
   2      7     8.797     3.596    0.92E-04    0.15E-03    0.85E-07
 Optimization of the real space projectors (new method)

 maximal supplied QI-value         = 15.12
 optimisation between [QCUT,QGAM] = [  8.77, 17.69] = [ 21.53, 87.61] Ry 
 Optimized for a Real-space Cutoff    1.85 Angstroem

   l    n(q)    QCUT    max X(q) W(low)/X(q) W(high)/X(q)  e(spline) 
   0     10     8.768    25.322    0.81E-04    0.51E-04    0.48E-06
   0     10     8.768    99.187    0.78E-04    0.50E-04    0.47E-06
   1      9     8.768    11.761    0.21E-03    0.20E-03    0.37E-06
   1      9     8.768     8.275    0.24E-03    0.22E-03    0.41E-06
   2      9     8.768     3.829    0.23E-04    0.15E-03    0.18E-06
  PAW_PBE Cs_sv 08Apr2002               :
 energy of atom  1       EATOM= -555.6835
 kinetic energy error for atom=    0.0069 (will be added to EATOM!!)
  PAW_PBE Pb_d 06Sep2000                :
 energy of atom  2       EATOM=-1661.6185
 kinetic energy error for atom=    0.0498 (will be added to EATOM!!)
  PAW_PBE Br 06Sep2000                  :
 energy of atom  3       EATOM= -368.4488
 kinetic energy error for atom=    0.0072 (will be added to EATOM!!)
  PAW_PBE Cs_sv 08Apr2002               :
 energy of atom  4       EATOM= -555.6835
 kinetic energy error for atom=    0.0069 (will be added to EATOM!!)


 POSCAR: Cs7 Pb8 Br24                            
  positions in direct lattice
  No initial velocities read in

 METAGGA = SCAN     LMAXTAU =  6    LMIXTAU =  F

 exchange correlation table for  LEXCH =        8
   RHO(1)=    0.500       N(1)  =     2000
   RHO(2)=  100.500       N(2)  =     4000

 VTST: version 3.2, (02/03/18)

 CHAIN: initializing optimizer
 
 OPT: Using VASP Conjugate-Gradient optimizer
 CHAIN: Read ICHAIN            0

 POSCAR: Cs7 Pb8 Br24                            
  positions in direct lattice
  No initial velocities read in



--------------------------------------------------------------------------------------------------------


 ion  position               nearest neighbor table
   1  0.269  0.250  0.194-
   2  0.772  0.250  0.720-
   3  0.212  0.750  0.761-
   4  0.296  0.250  0.748-
   5  0.790  0.250  0.222-
   6  0.252  0.750  0.259-
   7  0.994  0.995  0.994-  19 2.96  29 2.99  34 3.01  17 3.03  31 3.04  28 3.06
   8  0.495  0.006  0.500-  18 2.95  27 2.98  33 2.99  30 3.00  20 3.04  32 3.04
   9  0.508  0.994  0.000-  29 2.95  15 2.96  33 3.00  27 3.03  21 3.03  31 3.09
  10  0.007  0.005  0.500-  30 2.91  22 2.95  34 2.99  28 3.03  16 3.04  32 3.11
  11  0.508  0.506  0.000-  35 2.95  15 2.96  25 3.00  37 3.03  21 3.03  23 3.09
  12  0.007  0.495  0.500-  36 2.91  22 2.95  26 2.99  38 3.03  16 3.04  24 3.11
  13  0.994  0.505  0.994-  19 2.96  35 2.99  26 3.01  17 3.03  23 3.04  38 3.06
  14  0.495  0.494  0.500-  18 2.95  37 2.98  25 2.99  36 3.00  20 3.04  24 3.04
  15  0.451  0.750  0.977-  11 2.96   9 2.96
  16  0.031  0.750  0.467-  12 3.04  10 3.04
  17  0.973  0.250  0.968-  13 3.03   7 3.03
  18  0.445  0.250  0.469-   8 2.95  14 2.95
  19  0.044  0.750  0.024-   7 2.96  13 2.96
  20  0.472  0.750  0.523-   8 3.04  14 3.04
  21  0.529  0.250  0.026-   9 3.03  11 3.03
  22  0.030  0.250  0.552-  12 2.95  10 2.95
  23  0.247  0.473  0.954-  13 3.04  11 3.09
  24  0.746  0.448  0.459-  14 3.04  12 3.11
  25  0.446  0.514  0.247-  14 2.99  11 3.00
  26  0.943  0.542  0.741-  12 2.99  13 3.01
  27  0.546  0.042  0.750-   8 2.98   9 3.03
  28  0.052  0.037  0.248-  10 3.03   7 3.06
  29  0.753  0.972  0.069-   9 2.95   7 2.99
  30  0.250  0.992  0.567-  10 2.91   8 3.00
  31  0.247  0.027  0.954-   7 3.04   9 3.09
  32  0.746  0.052  0.459-   8 3.04  10 3.11
  33  0.446  0.986  0.247-   8 2.99   9 3.00
  34  0.943  0.958  0.741-  10 2.99   7 3.01
  35  0.753  0.528  0.069-  11 2.95  13 2.99
  36  0.250  0.508  0.567-  12 2.91  14 3.00
  37  0.546  0.458  0.750-  14 2.98  11 3.03
  38  0.052  0.463  0.248-  12 3.03  13 3.06
  39  0.742  0.750  0.381-


IMPORTANT INFORMATION: All symmetrisations will be switched off!
NOSYMM: (Re-)initialisation of all symmetry stuff for point group C_1.



 KPOINTS: 1x1x1                                   

Automatic generation of k-mesh.
Space group operators:
 irot       det(A)        alpha          n_x          n_y          n_z        tau_x        tau_y        tau_z
    1     1.000000     0.000000     1.000000     0.000000     0.000000     0.000000     0.000000     0.000000
 
 Subroutine IBZKPT returns following result:
 ===========================================
 
 Found      8 irreducible k-points:
 
 Following reciprocal coordinates:
            Coordinates               Weight
  0.000000  0.000000  0.000000      1.000000
  0.500000  0.000000  0.000000      1.000000
  0.000000  0.500000  0.000000      1.000000
  0.500000  0.500000  0.000000      1.000000
  0.000000  0.000000  0.500000      1.000000
  0.500000  0.000000  0.500000      1.000000
  0.000000  0.500000  0.500000      1.000000
  0.500000  0.500000  0.500000      1.000000
 
 Following cartesian coordinates:
            Coordinates               Weight
  0.000000  0.000000  0.000000      1.000000
  0.029691  0.000000  0.030948      1.000000
  0.000000  0.042503  0.000000      1.000000
  0.029691  0.042503  0.030948      1.000000
 -0.029691  0.000000  0.030948      1.000000
  0.000000  0.000000  0.061897      1.000000
 -0.029691  0.042503  0.030948      1.000000
  0.000000  0.042503  0.061897      1.000000
 


--------------------------------------------------------------------------------------------------------




 Dimension of arrays:
   k-points           NKPTS =      8   k-points in BZ     NKDIM =      8   number of bands    NBANDS=    208
   number of dos      NEDOS =    301   number of ions     NIONS =     39
   non local maximal  LDIM  =      6   non local SUM 2l+1 LMDIM =     18
   total plane-waves  NPLWV = 343000
   max r-space proj   IRMAX =   5716   max aug-charges    IRDMAX=  91227
   dimension x,y,z NGX =    70 NGY =   70 NGZ =   70
   dimension x,y,z NGXF=   140 NGYF=  140 NGZF=  140
   support grid    NGXF=   280 NGYF=  280 NGZF=  280
   ions per type =               6   8  24   1
   NGX,Y,Z   is equivalent  to a cutoff of   9.97,  9.89,  9.97 a.u.
   NGXF,Y,Z  is equivalent  to a cutoff of  19.95, 19.78, 19.95 a.u.

 SYSTEM =  CsPbBr3 cubic bulk                      
 POSCAR =  Cs7 Pb8 Br24                            

 Startparameter for this run:
   NWRITE =      2    write-flag & timer
   PREC   = accura    normal or accurate (medium, high low for compatibility)
   ISTART =      0    job   : 0-new  1-cont  2-samecut
   ICHARG =      2    charge: 1-file 2-atom 10-const
   ISPIN  =      1    spin polarized calculation?
   LNONCOLLINEAR =      F non collinear calculations
   LSORBIT =      F    spin-orbit coupling
   INIWAV =      1    electr: 0-lowe 1-rand  2-diag
   LASPH  =      T    aspherical Exc in radial PAW
   METAGGA=      F    non-selfconsistent MetaGGA calc.

 Electronic Relaxation 1
   ENCUT  =  300.0 eV  22.05 Ry    4.70 a.u.  16.48 16.61 16.48*2*pi/ulx,y,z
   ENINI  =  300.0     initial cutoff
   ENAUG  =  503.9 eV  augmentation charge cutoff
   NELM   =    200;   NELMIN=  2; NELMDL= -5     # of ELM steps 
   EDIFF  = 0.1E-05   stopping-criterion for ELM
   LREAL  =      T    real-space projection
   NLSPLINE    = F    spline interpolate recip. space projectors
   LCOMPAT=      F    compatible to vasp.4.4
   GGA_COMPAT  = T    GGA compatible to vasp.4.4-vasp.4.6
   LMAXPAW     = -100 max onsite density
   LMAXMIX     =    2 max onsite mixed and CHGCAR
   VOSKOWN=      0    Vosko Wilk Nusair interpolation
   ROPT   =   -0.00025  -0.00025  -0.00025  -0.00025
 Ionic relaxation
   EDIFFG = -.1E-01   stopping-criterion for IOM
   NSW    =      0    number of steps for IOM
   NBLOCK =      1;   KBLOCK =      1    inner block; outer block 
   IBRION =     -1    ionic relax: 0-MD 1-quasi-New 2-CG
   NFREE  =      1    steps in history (QN), initial steepest desc. (CG)
   ISIF   =      2    stress and relaxation
   IWAVPR =     10    prediction:  0-non 1-charg 2-wave 3-comb
   ISYM   =      0    0-nonsym 1-usesym 2-fastsym
   LCORR  =      T    Harris-Foulkes like correction to forces

   POTIM  = 0.5000    time-step for ionic-motion
   TEIN   =    0.0    initial temperature
   TEBEG  =    0.0;   TEEND  =   0.0 temperature during run
   SMASS  =  -3.00    Nose mass-parameter (am)
   estimated Nose-frequenzy (Omega)   =  0.10E-29 period in steps =****** mass=  -0.311E-26a.u.
   SCALEE = 1.0000    scale energy and forces
   NPACO  =    256;   APACO  = 16.0  distance and # of slots for P.C.
   PSTRESS=    0.0 pullay stress

  Mass of Ions in am
   POMASS = 132.90207.20 79.90132.90
  Ionic Valenz
   ZVAL   =   9.00 14.00  7.00  9.00
  Atomic Wigner-Seitz radii
   RWIGS  =  -1.00 -1.00 -1.00 -1.00
  virtual crystal weights 
   VCA    =   1.00  1.00  1.00  1.00
   NELECT =     344.0000    total number of electrons
   NUPDOWN=       0.0000    fix difference up-down

 DOS related values:
   EMIN   =  10.00;   EMAX   =-10.00  energy-range for DOS
   EFERMI =   0.00
   ISMEAR =     0;   SIGMA  =   0.01  broadening in eV -4-tet -1-fermi 0-gaus

 Electronic relaxation 2 (details)
   IALGO  =     38    algorithm
   LDIAG  =      T    sub-space diagonalisation (order eigenvalues)
   LSUBROT=      F    optimize rotation matrix (better conditioning)
   TURBO    =      0    0=normal 1=particle mesh
   IRESTART =      0    0=no restart 2=restart with 2 vectors
   NREBOOT  =      0    no. of reboots
   NMIN     =      0    reboot dimension
   EREF     =   0.00    reference energy to select bands
   IMIX   =      4    mixing-type and parameters
     AMIX     =   0.40;   BMIX     =  1.00
     AMIX_MAG =   1.60;   BMIX_MAG =  1.00
     AMIN     =   0.10
     WC   =   100.;   INIMIX=   1;  MIXPRE=   1;  MAXMIX= -45

 Intra band minimization:
   WEIMIN = 0.0000     energy-eigenvalue tresh-hold
   EBREAK =  0.12E-08  absolut break condition
   DEPER  =   0.30     relativ break condition  

   TIME   =   0.40     timestep for ELM

  volume/ion in A,a.u.               =      41.03       276.90
  Fermi-wavevector in a.u.,A,eV,Ry     =   0.980685  1.853227 13.085320  0.961744
  Thomas-Fermi vector in A             =   2.111635

 Write flags
   LWAVE        =      F    write WAVECAR
   LDOWNSAMPLE  =      F    k-point downsampling of WAVECAR
   LCHARG       =      F    write CHGCAR
   LVTOT        =      F    write LOCPOT, total local potential
   LVHAR        =      T    write LOCPOT, Hartree potential only
   LELF         =      F    write electronic localiz. function (ELF)
   LORBIT       =     10    0 simple, 1 ext, 2 COOP (PROOUT), +10 PAW based schemes


 Dipole corrections
   LMONO  =      F    monopole corrections only (constant potential shift)
   LDIPOL =      F    correct potential (dipole corrections)
   IDIPOL =      0    1-x, 2-y, 3-z, 4-all directions 
   EPSILON=  1.0000000 bulk dielectric constant

 Exchange correlation treatment:
   GGA     =    --    GGA type
   LEXCH   =     8    internal setting for exchange type
   VOSKOWN=      0    Vosko Wilk Nusair interpolation
   LHFCALC =     F    Hartree Fock is set to
   LHFONE  =     F    Hartree Fock one center treatment
   AEXX    =    0.0000 exact exchange contribution

 Linear response parameters
   LEPSILON=     F    determine dielectric tensor
   LRPA    =     F    only Hartree local field effects (RPA)
   LNABLA  =     F    use nabla operator in PAW spheres
   LVEL    =     F    velocity operator in full k-point grid
   LINTERFAST=   F  fast interpolation
   KINTER  =     0    interpolate to denser k-point grid
   CSHIFT  =0.1000    complex shift for real part using Kramers Kronig
   OMEGAMAX=  -1.0    maximum frequency
   DEG_THRESHOLD= 0.2000000E-02 threshold for treating states as degnerate
   RTIME   =   -0.100 relaxation time in fs
  (WPLASMAI=    0.000 imaginary part of plasma frequency in eV, 0.658/RTIME)
   DFIELD  = 0.0000000 0.0000000 0.0000000 field for delta impulse in time

 Orbital magnetization related:
   ORBITALMAG=     F  switch on orbital magnetization
   LCHIMAG   =     F  perturbation theory with respect to B field
   DQ        =  0.001000  dq finite difference perturbation B field
   LLRAUG    =     F  two centre corrections for induced B field



--------------------------------------------------------------------------------------------------------


 Static calculation
 charge density and potential will be updated during run
 non-spin polarized calculation
 Variant of blocked Davidson
 Davidson routine will perform the subspace rotation
 perform sub-space diagonalisation
    after iterative eigenvector-optimisation
 modified Broyden-mixing scheme, WC =      100.0
 initial mixing is a Kerker type mixing with AMIX =  0.4000 and BMIX =      1.0000
 Hartree-type preconditioning will be used
 using additional bands           36
 real space projection scheme for non local part
 use partial core corrections
 calculate Harris-corrections to forces   (improved forces if not selfconsistent)
 use gradient corrections 
 use of overlap-Matrix (Vanderbilt PP)
 Gauss-broadening in eV      SIGMA  =   0.01


--------------------------------------------------------------------------------------------------------


  energy-cutoff  :      300.00
  volume of cell :     1600.27
      direct lattice vectors                 reciprocal lattice vectors
     8.420018000  0.000000000  8.077981000     0.059382296 -0.000000000  0.061896655
     0.000000000 11.763808000  0.000000000     0.000000000  0.085006488 -0.000000000
    -8.420018000  0.000000000  8.077981000    -0.059382296  0.000000000  0.061896655

  length of vectors
    11.668353789 11.763808000 11.668353789     0.085775596  0.085006488  0.085775596



 k-points in units of 2pi/SCALE and weight: 1x1x1                                   
   0.00000000  0.00000000  0.00000000       0.125
   0.02969115  0.00000000  0.03094833       0.125
   0.00000000  0.04250324  0.00000000       0.125
   0.02969115  0.04250324  0.03094833       0.125
  -0.02969115  0.00000000  0.03094833       0.125
   0.00000000  0.00000000  0.06189665       0.125
  -0.02969115  0.04250324  0.03094833       0.125
   0.00000000  0.04250324  0.06189665       0.125

 k-points in reciprocal lattice and weights: 1x1x1                                   
   0.00000000  0.00000000  0.00000000       0.125
   0.50000000  0.00000000  0.00000000       0.125
   0.00000000  0.50000000  0.00000000       0.125
   0.50000000  0.50000000  0.00000000       0.125
   0.00000000  0.00000000  0.50000000       0.125
   0.50000000  0.00000000  0.50000000       0.125
   0.00000000  0.50000000  0.50000000       0.125
   0.50000000  0.50000000  0.50000000       0.125

 position of ions in fractional coordinates (direct lattice) 
   0.26910700  0.25000100  0.19373000
   0.77204900  0.25000100  0.71975000
   0.21156600  0.75000100  0.76061800
   0.29584300  0.24999800  0.74766800
   0.79026400  0.24999800  0.22227600
   0.25211100  0.75000100  0.25851700
   0.99363300  0.99463000  0.99418000
   0.49479000  0.00600000  0.50027400
   0.50760600  0.99430300  0.00003200
   0.00694000  0.00522800  0.50006700
   0.50761000  0.50570500  0.00003200
   0.00693900  0.49477100  0.50007800
   0.99363200  0.50536800  0.99416800
   0.49479300  0.49400000  0.50027000
   0.45051100  0.75000100  0.97660700
   0.03111000  0.74999500  0.46746900
   0.97295600  0.25000000  0.96760600
   0.44498200  0.25000000  0.46866300
   0.04440300  0.75000200  0.02399700
   0.47162600  0.75000200  0.52300400
   0.52892800  0.25000100  0.02569100
   0.03049800  0.25000000  0.55178200
   0.24685700  0.47340500  0.95357400
   0.74621100  0.44814300  0.45906500
   0.44585700  0.51390800  0.24729600
   0.94346000  0.54189500  0.74146400
   0.54632100  0.04162000  0.74971500
   0.05230500  0.03660800  0.24843800
   0.75276700  0.97165700  0.06926200
   0.24988700  0.99246500  0.56714700
   0.24685900  0.02659900  0.95357200
   0.74621300  0.05185800  0.45906200
   0.44585700  0.98609100  0.24729600
   0.94345900  0.95810300  0.74146300
   0.75277000  0.52834400  0.06926300
   0.24988900  0.50753200  0.56714400
   0.54632100  0.45837900  0.74971700
   0.05230300  0.46338700  0.24843500
   0.74201500  0.74999800  0.38128400

 position of ions in cartesian coordinates  (Angst):
   0.63467570  2.94096376  3.73878849
   0.44035852  2.94096376 12.05072398
  -4.62302772  8.82286776  7.85328388
  -3.80437463  2.94092847  8.42946203
   4.78246918  2.94092847  8.17927888
  -0.05393864  8.82286776  4.12484328
  -0.00460575 11.70063635 16.05751565
  -0.04617538  0.07058285  8.03810809
   4.27378222 11.69678959  4.10069012
  -4.15213822  0.06150119  4.09559291
   4.27381590  5.94901652  4.10072243
  -4.15223926  5.82039105  4.09567369
  -0.00451313  5.94505212 16.05741063
  -0.04611644  5.81132115  8.03810001
  -4.42973779  8.82286776 11.52823209
  -3.67415063  8.82279718  4.02751169
   0.04504710  2.94095200 15.67582297
  -0.19939445  2.94095200  7.38040695
   0.17181889  8.82287953  0.55253390
  -0.43260368  8.82287953  8.03460224
   4.23726460  2.94096376  4.48020174
  -4.38922066  2.94095200  4.70364678
  -5.95056986  5.56904553  9.69705881
   2.41777449  5.27186821  9.73619663
   1.67188719  6.04551504  5.59927676
   1.70080996  6.37474874 13.61078406
  -1.71258114  0.48960969 10.46935418
  -1.65144339  0.43064948  2.42939624
   5.75512440 11.43038639  6.64033464
  -2.67133491 11.67516771  6.59998513
  -5.95053618  0.31290553  9.69705881
   2.41781659  0.61004756  9.73618855
   1.67188719 11.60018519  5.59927676
   1.70080996 11.27093974 13.61076790
   5.75514124  6.21533737  6.64036696
  -2.67129281  5.97050900  6.59997705
  -1.71259798  5.39228255 10.46937034
  -1.65143497  5.45119570  2.42935585
   3.03736151  8.82283247  9.07398798



--------------------------------------------------------------------------------------------------------


 k-point  1 :   0.0000 0.0000 0.0000  plane waves:   18901
 k-point  2 :   0.5000 0.0000 0.0000  plane waves:   18892
 k-point  3 :   0.0000 0.5000 0.0000  plane waves:   18858
 k-point  4 :   0.5000 0.5000 0.0000  plane waves:   18900
 k-point  5 :   0.0000 0.0000 0.5000  plane waves:   18892
 k-point  6 :   0.5000 0.0000 0.5000  plane waves:   18810
 k-point  7 :   0.0000 0.5000 0.5000  plane waves:   18900
 k-point  8 :   0.5000 0.5000 0.5000  plane waves:   18888

 maximum and minimum number of plane-waves per node :      2391     2328

 maximum number of plane-waves:     18901
 maximum index in each direction: 
   IXMAX=   16   IYMAX=   16   IZMAX=   16
   IXMIN=  -16   IYMIN=  -17   IZMIN=  -16


 real space projection operators:
  total allocation   :      16480.84 KBytes
  max/ min on nodes  :       2153.73       1793.00


 parallel 3D FFT for wavefunctions:
    minimum data exchange during FFTs selected (reduces bandwidth)
 parallel 3D FFT for charge:
    minimum data exchange during FFTs selected (reduces bandwidth)


 total amount of memory used by VASP MPI-rank0    61011. kBytes
=======================================================================

   base      :      30000. kBytes
   nonlr-proj:       6423. kBytes
   fftplans  :       8423. kBytes
   grid      :       7942. kBytes
   one-center:         77. kBytes
   wavefun   :       8146. kBytes

     INWAV:  cpu time    0.0000: real time    0.0000
 Broyden mixing: mesh for mixing (old mesh)
   NGX = 33   NGY = 33   NGZ = 33
  (NGX  =140   NGY  =140   NGZ  =140)
  gives a total of  35937 points

 initial charge density was supplied:
 charge density of overlapping atoms calculated
 number of electron     343.0000000 magnetization 
 keeping initial charge density in first step


--------------------------------------------------------------------------------------------------------


 Maximum index for non-local projection operator          728
 Maximum index for augmentation-charges         3224 (set IRDMAX)


--------------------------------------------------------------------------------------------------------


 First call to EWALD:  gamma=   0.152
 Maximum number of real-space cells 3x 3x 3
 Maximum number of reciprocal cells 3x 3x 3

    FEWALD:  cpu time    0.0037: real time    0.0037


--------------------------------------- Iteration      1(   1)  ---------------------------------------


    POTLOK:  cpu time    0.2640: real time    0.2818
    SETDIJ:  cpu time    1.1972: real time    1.1972
     EDDAV:  cpu time   16.6364: real time   16.6424
       DOS:  cpu time    0.0008: real time    0.0008
    --------------------------------------------
      LOOP:  cpu time   18.0984: real time   18.1222

 eigenvalue-minimisations  :  3472
 total energy-change (2. order) : 0.1355556E+04  (-0.1105458E+05)
 number of electron     343.0000000 magnetization 
 augmentation part      343.0000000 magnetization 

 Free energy of the ion-electron system (eV)
  ---------------------------------------------------
  alpha Z        PSCENC =       835.99855037
  Ewald energy   TEWEN  =    -17464.55681360
  -Hartree energ DENC   =     -7667.49170913
  -exchange      EXHF   =         0.00000000
  -V(xc)+E(xc)   XCENC  =       905.20127690
  PAW double counting   =     21217.07306836   -22257.58625956
  entropy T*S    EENTRO =        -0.00128755
  eigenvalues    EBANDS =      -237.96443783
  atomic energy  EATOM  =     26024.88362379
  Solvation  Ediel_sol  =         0.00000000
  ---------------------------------------------------
  free energy    TOTEN  =      1355.55601175 eV

  energy without entropy =     1355.55729930  energy(sigma->0) =     1355.55665553


--------------------------------------------------------------------------------------------------------




--------------------------------------- Iteration      1(   2)  ---------------------------------------


     EDDAV:  cpu time   18.5322: real time   18.5835
       DOS:  cpu time    0.0004: real time    0.0004
    --------------------------------------------
      LOOP:  cpu time   18.5326: real time   18.5839

 eigenvalue-minimisations  :  4104
 total energy-change (2. order) :-0.2445875E+04  (-0.2363273E+04)
 number of electron     343.0000000 magnetization 
 augmentation part      343.0000000 magnetization 

 Free energy of the ion-electron system (eV)
  ---------------------------------------------------
  alpha Z        PSCENC =       835.99855037
  Ewald energy   TEWEN  =    -17464.55681360
  -Hartree energ DENC   =     -7667.49170913
  -exchange      EXHF   =         0.00000000
  -V(xc)+E(xc)   XCENC  =       905.20127690
  PAW double counting   =     21217.07306836   -22257.58625956
  entropy T*S    EENTRO =        -0.00000000
  eigenvalues    EBANDS =     -2683.84078864
  atomic energy  EATOM  =     26024.88362379
  Solvation  Ediel_sol  =         0.00000000
  ---------------------------------------------------
  free energy    TOTEN  =     -1090.31905151 eV

  energy without entropy =    -1090.31905151  energy(sigma->0) =    -1090.31905151


--------------------------------------------------------------------------------------------------------




--------------------------------------- Iteration      1(   3)  ---------------------------------------


     EDDAV:  cpu time   19.4498: real time   19.5087
       DOS:  cpu time    0.0004: real time    0.0004
    --------------------------------------------
      LOOP:  cpu time   19.4502: real time   19.5091

 eigenvalue-minimisations  :  4432
 total energy-change (2. order) :-0.3628839E+03  (-0.3608332E+03)
 number of electron     343.0000000 magnetization 
 augmentation part      343.0000000 magnetization 

 Free energy of the ion-electron system (eV)
  ---------------------------------------------------
  alpha Z        PSCENC =       835.99855037
  Ewald energy   TEWEN  =    -17464.55681360
  -Hartree energ DENC   =     -7667.49170913
  -exchange      EXHF   =         0.00000000
  -V(xc)+E(xc)   XCENC  =       905.20127690
  PAW double counting   =     21217.07306836   -22257.58625956
  entropy T*S    EENTRO =        -0.00000000
  eigenvalues    EBANDS =     -3046.72470716
  atomic energy  EATOM  =     26024.88362379
  Solvation  Ediel_sol  =         0.00000000
  ---------------------------------------------------
  free energy    TOTEN  =     -1453.20297002 eV

  energy without entropy =    -1453.20297002  energy(sigma->0) =    -1453.20297002


--------------------------------------------------------------------------------------------------------




--------------------------------------- Iteration      1(   4)  ---------------------------------------


     EDDAV:  cpu time   18.0876: real time   18.0910
       DOS:  cpu time    0.0004: real time    0.0004
    --------------------------------------------
      LOOP:  cpu time   18.0880: real time   18.0914

 eigenvalue-minimisations  :  3944
 total energy-change (2. order) :-0.1213284E+02  (-0.1209666E+02)
 number of electron     343.0000000 magnetization 
 augmentation part      343.0000000 magnetization 

 Free energy of the ion-electron system (eV)
  ---------------------------------------------------
  alpha Z        PSCENC =       835.99855037
  Ewald energy   TEWEN  =    -17464.55681360
  -Hartree energ DENC   =     -7667.49170913
  -exchange      EXHF   =         0.00000000
  -V(xc)+E(xc)   XCENC  =       905.20127690
  PAW double counting   =     21217.07306836   -22257.58625956
  entropy T*S    EENTRO =        -0.00000000
  eigenvalues    EBANDS =     -3058.85754976
  atomic energy  EATOM  =     26024.88362379
  Solvation  Ediel_sol  =         0.00000000
  ---------------------------------------------------
  free energy    TOTEN  =     -1465.33581262 eV

  energy without entropy =    -1465.33581262  energy(sigma->0) =    -1465.33581262


--------------------------------------------------------------------------------------------------------




--------------------------------------- Iteration      1(   5)  ---------------------------------------


     EDDAV:  cpu time   19.4501: real time   19.4882
       DOS:  cpu time    0.0004: real time    0.0004
    CHARGE:  cpu time    2.7157: real time    2.7159
    MIXING:  cpu time    0.0014: real time    0.0014
    --------------------------------------------
      LOOP:  cpu time   22.1678: real time   22.2060

 eigenvalue-minimisations  :  4432
 total energy-change (2. order) :-0.5372887E+00  (-0.5370249E+00)
 number of electron     343.9999997 magnetization 
 augmentation part       -4.5853404 magnetization 

 Broyden mixing:
  rms(total) = 0.10188E+01    rms(broyden)= 0.10181E+01
  rms(prec ) = 0.14193E+01
  weight for this iteration     100.00

 Free energy of the ion-electron system (eV)
  ---------------------------------------------------
  alpha Z        PSCENC =       835.99855037
  Ewald energy   TEWEN  =    -17464.55681360
  -Hartree energ DENC   =     -7667.49170913
  -exchange      EXHF   =         0.00000000
  -V(xc)+E(xc)   XCENC  =       905.20127690
  PAW double counting   =     21217.07306836   -22257.58625956
  entropy T*S    EENTRO =        -0.00000000
  eigenvalues    EBANDS =     -3059.39483849
  atomic energy  EATOM  =     26024.88362379
  Solvation  Ediel_sol  =         0.00000000
  ---------------------------------------------------
  free energy    TOTEN  =     -1465.87310136 eV

  energy without entropy =    -1465.87310136  energy(sigma->0) =    -1465.87310136


--------------------------------------------------------------------------------------------------------




--------------------------------------- Iteration      1(   6)  ---------------------------------------


    POTLOK:  cpu time    0.3177: real time    0.3192
    SETDIJ:  cpu time    1.1988: real time    1.1989
     EDDAV:  cpu time   19.1748: real time   19.1757
       DOS:  cpu time    0.0006: real time    0.0006
    CHARGE:  cpu time    2.7069: real time    2.7070
    MIXING:  cpu time    0.0016: real time    0.0016
    --------------------------------------------
      LOOP:  cpu time   23.4004: real time   23.4030

 eigenvalue-minimisations  :  4328
 total energy-change (2. order) : 0.7881233E+02  (-0.2328878E+01)
 number of electron     343.9999997 magnetization 
 augmentation part       -3.1610336 magnetization 

 Broyden mixing:
  rms(total) = 0.71528E+00    rms(broyden)= 0.71518E+00
  rms(prec ) = 0.89454E+00
  weight for this iteration     100.00

 eigenvalues of (default mixing * dielectric matrix)
  average eigenvalue GAMMA=   1.1911
  1.1911

 Free energy of the ion-electron system (eV)
  ---------------------------------------------------
  alpha Z        PSCENC =       835.99855037
  Ewald energy   TEWEN  =    -17464.55681360
  -Hartree energ DENC   =     -7651.09504290
  -exchange      EXHF   =         0.00000000
  -V(xc)+E(xc)   XCENC  =       939.09121084
  PAW double counting   =     21537.12741940   -22576.11368798
  entropy T*S    EENTRO =        -0.00000000
  eigenvalues    EBANDS =     -3032.39602865
  atomic energy  EATOM  =     26024.88362379
  Solvation  Ediel_sol  =         0.00000000
  ---------------------------------------------------
  free energy    TOTEN  =     -1387.06076874 eV

  energy without entropy =    -1387.06076874  energy(sigma->0) =    -1387.06076874


--------------------------------------------------------------------------------------------------------




--------------------------------------- Iteration      1(   7)  ---------------------------------------


    POTLOK:  cpu time    0.2577: real time    0.3164
    SETDIJ:  cpu time    1.1967: real time    1.1967
     EDDAV:  cpu time   18.4317: real time   18.4324
       DOS:  cpu time    0.0004: real time    0.0004
    CHARGE:  cpu time    2.7031: real time    2.7032
    MIXING:  cpu time    0.0016: real time    0.0016
    --------------------------------------------
      LOOP:  cpu time   22.5912: real time   22.6506

 eigenvalue-minimisations  :  4080
 total energy-change (2. order) : 0.4234046E+00  (-0.9287564E+00)
 number of electron     343.9999997 magnetization 
 augmentation part       -2.5416438 magnetization 

 Broyden mixing:
  rms(total) = 0.37937E+00    rms(broyden)= 0.37935E+00
  rms(prec ) = 0.41683E+00
  weight for this iteration     100.00

 eigenvalues of (default mixing * dielectric matrix)
  average eigenvalue GAMMA=   1.2936
  1.2936  1.2936

 Free energy of the ion-electron system (eV)
  ---------------------------------------------------
  alpha Z        PSCENC =       835.99855037
  Ewald energy   TEWEN  =    -17464.55681360
  -Hartree energ DENC   =     -7692.39356452
  -exchange      EXHF   =         0.00000000
  -V(xc)+E(xc)   XCENC  =       944.34183352
  PAW double counting   =     22210.43322346   -23247.64249089
  entropy T*S    EENTRO =        -0.00000000
  eigenvalues    EBANDS =     -2997.70172622
  atomic energy  EATOM  =     26024.88362379
  Solvation  Ediel_sol  =         0.00000000
  ---------------------------------------------------
  free energy    TOTEN  =     -1386.63736411 eV

  energy without entropy =    -1386.63736411  energy(sigma->0) =    -1386.63736411


--------------------------------------------------------------------------------------------------------




--------------------------------------- Iteration      1(   8)  ---------------------------------------


    POTLOK:  cpu time    0.3195: real time    0.3231
    SETDIJ:  cpu time    1.1954: real time    1.1955
     EDDAV:  cpu time   18.1273: real time   18.1280
       DOS:  cpu time    0.0004: real time    0.0004
    CHARGE:  cpu time    2.7050: real time    2.7050
    MIXING:  cpu time    0.0016: real time    0.0016
    --------------------------------------------
      LOOP:  cpu time   22.3492: real time   22.3536

 eigenvalue-minimisations  :  3976
 total energy-change (2. order) :-0.1801753E+00  (-0.4078270E-01)
 number of electron     343.9999997 magnetization 
 augmentation part       -2.6407818 magnetization 

 Broyden mixing:
  rms(total) = 0.22134E+00    rms(broyden)= 0.22134E+00
  rms(prec ) = 0.24740E+00
  weight for this iteration     100.00

 eigenvalues of (default mixing * dielectric matrix)
  average eigenvalue GAMMA=   1.6787
  1.1310  1.2947  2.6103

 Free energy of the ion-electron system (eV)
  ---------------------------------------------------
  alpha Z        PSCENC =       835.99855037
  Ewald energy   TEWEN  =    -17464.55681360
  -Hartree energ DENC   =     -7696.61971403
  -exchange      EXHF   =         0.00000000
  -V(xc)+E(xc)   XCENC  =       944.93004119
  PAW double counting   =     22446.95551099   -23484.59248765
  entropy T*S    EENTRO =        -0.00000000
  eigenvalues    EBANDS =     -2993.81625045
  atomic energy  EATOM  =     26024.88362379
  Solvation  Ediel_sol  =         0.00000000
  ---------------------------------------------------
  free energy    TOTEN  =     -1386.81753940 eV

  energy without entropy =    -1386.81753940  energy(sigma->0) =    -1386.81753940


--------------------------------------------------------------------------------------------------------




--------------------------------------- Iteration      1(   9)  ---------------------------------------


    POTLOK:  cpu time    0.2810: real time    0.3214
    SETDIJ:  cpu time    1.2025: real time    1.2025
     EDDAV:  cpu time   17.0868: real time   17.0875
       DOS:  cpu time    0.0004: real time    0.0004
    CHARGE:  cpu time    2.7046: real time    2.7047
    MIXING:  cpu time    0.0016: real time    0.0016
    --------------------------------------------
      LOOP:  cpu time   21.2769: real time   21.3181

 eigenvalue-minimisations  :  3616
 total energy-change (2. order) :-0.8106709E-01  (-0.1760701E-01)
 number of electron     343.9999997 magnetization 
 augmentation part       -2.6835733 magnetization 

 Broyden mixing:
  rms(total) = 0.44074E-01    rms(broyden)= 0.44070E-01
  rms(prec ) = 0.50565E-01
  weight for this iteration     100.00

 eigenvalues of (default mixing * dielectric matrix)
  average eigenvalue GAMMA=   1.4591
  2.5333  1.2376  1.2376  0.8280

 Free energy of the ion-electron system (eV)
  ---------------------------------------------------
  alpha Z        PSCENC =       835.99855037
  Ewald energy   TEWEN  =    -17464.55681360
  -Hartree energ DENC   =     -7703.10593571
  -exchange      EXHF   =         0.00000000
  -V(xc)+E(xc)   XCENC  =       946.92899320
  PAW double counting   =     22793.36311246   -23831.87376462
  entropy T*S    EENTRO =        -0.00000000
  eigenvalues    EBANDS =     -2988.53637237
  atomic energy  EATOM  =     26024.88362379
  Solvation  Ediel_sol  =         0.00000000
  ---------------------------------------------------
  free energy    TOTEN  =     -1386.89860649 eV

  energy without entropy =    -1386.89860649  energy(sigma->0) =    -1386.89860649


--------------------------------------------------------------------------------------------------------




--------------------------------------- Iteration      1(  10)  ---------------------------------------


    POTLOK:  cpu time    0.2613: real time    0.3171
    SETDIJ:  cpu time    1.1964: real time    1.1965
     EDDAV:  cpu time   20.2422: real time   20.2431
       DOS:  cpu time    0.0004: real time    0.0004
    CHARGE:  cpu time    2.7010: real time    2.7011
    MIXING:  cpu time    0.0020: real time    0.0020
    --------------------------------------------
      LOOP:  cpu time   24.4033: real time   24.4602

 eigenvalue-minimisations  :  4696
 total energy-change (2. order) :-0.2845798E-02  (-0.1591508E-02)
 number of electron     343.9999997 magnetization 
 augmentation part       -2.6703009 magnetization 

 Broyden mixing:
  rms(total) = 0.29015E-01    rms(broyden)= 0.29014E-01
  rms(prec ) = 0.34798E-01
  weight for this iteration     100.00

 eigenvalues of (default mixing * dielectric matrix)
  average eigenvalue GAMMA=   1.4227
  2.0192  2.0192  0.9708  0.9708  1.1338

 Free energy of the ion-electron system (eV)
  ---------------------------------------------------
  alpha Z        PSCENC =       835.99855037
  Ewald energy   TEWEN  =    -17464.55681360
  -Hartree energ DENC   =     -7701.49800063
  -exchange      EXHF   =         0.00000000
  -V(xc)+E(xc)   XCENC  =       946.78203199
  PAW double counting   =     22765.64276642   -23804.22936889
  entropy T*S    EENTRO =        -0.00000000
  eigenvalues    EBANDS =     -2989.92424173
  atomic energy  EATOM  =     26024.88362379
  Solvation  Ediel_sol  =         0.00000000
  ---------------------------------------------------
  free energy    TOTEN  =     -1386.90145228 eV

  energy without entropy =    -1386.90145228  energy(sigma->0) =    -1386.90145228


--------------------------------------------------------------------------------------------------------




--------------------------------------- Iteration      1(  11)  ---------------------------------------


    POTLOK:  cpu time    0.2661: real time    0.3168
    SETDIJ:  cpu time    1.1958: real time    1.1958
     EDDAV:  cpu time   17.0880: real time   17.0886
       DOS:  cpu time    0.0004: real time    0.0004
    CHARGE:  cpu time    2.7092: real time    2.7093
    MIXING:  cpu time    0.0016: real time    0.0016
    --------------------------------------------
      LOOP:  cpu time   21.2611: real time   21.3126

 eigenvalue-minimisations  :  3624
 total energy-change (2. order) :-0.3339153E-02  (-0.3481675E-03)
 number of electron     343.9999997 magnetization 
 augmentation part       -2.6679992 magnetization 

 Broyden mixing:
  rms(total) = 0.10381E-01    rms(broyden)= 0.10381E-01
  rms(prec ) = 0.15387E-01
  weight for this iteration     100.00

 eigenvalues of (default mixing * dielectric matrix)
  average eigenvalue GAMMA=   1.5920
  2.7105  2.7105  1.2004  1.2004  0.8653  0.8653

 Free energy of the ion-electron system (eV)
  ---------------------------------------------------
  alpha Z        PSCENC =       835.99855037
  Ewald energy   TEWEN  =    -17464.55681360
  -Hartree energ DENC   =     -7699.58410614
  -exchange      EXHF   =         0.00000000
  -V(xc)+E(xc)   XCENC  =       946.70893248
  PAW double counting   =     22741.52876323   -23780.37500309
  entropy T*S    EENTRO =        -0.00000000
  eigenvalues    EBANDS =     -2991.50873846
  atomic energy  EATOM  =     26024.88362379
  Solvation  Ediel_sol  =         0.00000000
  ---------------------------------------------------
  free energy    TOTEN  =     -1386.90479144 eV

  energy without entropy =    -1386.90479144  energy(sigma->0) =    -1386.90479144


--------------------------------------------------------------------------------------------------------




--------------------------------------- Iteration      1(  12)  ---------------------------------------


    POTLOK:  cpu time    0.2556: real time    0.3230
    SETDIJ:  cpu time    1.1957: real time    1.1958
     EDDAV:  cpu time   17.5840: real time   17.5848
       DOS:  cpu time    0.0004: real time    0.0004
    CHARGE:  cpu time    2.7111: real time    2.7112
    MIXING:  cpu time    0.0017: real time    0.0017
    --------------------------------------------
      LOOP:  cpu time   21.7485: real time   21.8167

 eigenvalue-minimisations  :  3800
 total energy-change (2. order) :-0.1754866E-02  (-0.2227477E-03)
 number of electron     343.9999997 magnetization 
 augmentation part       -2.6711755 magnetization 

 Broyden mixing:
  rms(total) = 0.70135E-02    rms(broyden)= 0.70127E-02
  rms(prec ) = 0.91292E-02
  weight for this iteration     100.00

 eigenvalues of (default mixing * dielectric matrix)
  average eigenvalue GAMMA=   1.6064
  2.8160  2.8160  1.3540  1.3540  0.9255  0.9895  0.9895

 Free energy of the ion-electron system (eV)
  ---------------------------------------------------
  alpha Z        PSCENC =       835.99855037
  Ewald energy   TEWEN  =    -17464.55681360
  -Hartree energ DENC   =     -7699.27580735
  -exchange      EXHF   =         0.00000000
  -V(xc)+E(xc)   XCENC  =       946.78700841
  PAW double counting   =     22741.27256202   -23780.32166103
  entropy T*S    EENTRO =        -0.00000000
  eigenvalues    EBANDS =     -2991.69400891
  atomic energy  EATOM  =     26024.88362379
  Solvation  Ediel_sol  =         0.00000000
  ---------------------------------------------------
  free energy    TOTEN  =     -1386.90654630 eV

  energy without entropy =    -1386.90654630  energy(sigma->0) =    -1386.90654630


--------------------------------------------------------------------------------------------------------




--------------------------------------- Iteration      1(  13)  ---------------------------------------


    POTLOK:  cpu time    0.2916: real time    0.3054
    SETDIJ:  cpu time    1.1952: real time    1.1953
     EDDAV:  cpu time   19.4573: real time   19.4580
       DOS:  cpu time    0.0004: real time    0.0004
    CHARGE:  cpu time    2.7107: real time    2.7108
    MIXING:  cpu time    0.0019: real time    0.0019
    --------------------------------------------
      LOOP:  cpu time   23.6572: real time   23.6719

 eigenvalue-minimisations  :  4440
 total energy-change (2. order) : 0.2588790E-03  (-0.6842968E-04)
 number of electron     343.9999997 magnetization 
 augmentation part       -2.6720980 magnetization 

 Broyden mixing:
  rms(total) = 0.29598E-02    rms(broyden)= 0.29591E-02
  rms(prec ) = 0.35893E-02
  weight for this iteration     100.00

 eigenvalues of (default mixing * dielectric matrix)
  average eigenvalue GAMMA=   1.5949
  3.1359  2.3564  1.4902  1.4902  1.2082  1.2082  0.9352  0.9352

 Free energy of the ion-electron system (eV)
  ---------------------------------------------------
  alpha Z        PSCENC =       835.99855037
  Ewald energy   TEWEN  =    -17464.55681360
  -Hartree energ DENC   =     -7700.16778155
  -exchange      EXHF   =         0.00000000
  -V(xc)+E(xc)   XCENC  =       946.84081393
  PAW double counting   =     22741.39318641   -23780.41139310
  entropy T*S    EENTRO =        -0.00000000
  eigenvalues    EBANDS =     -2990.88647366
  atomic energy  EATOM  =     26024.88362379
  Solvation  Ediel_sol  =         0.00000000
  ---------------------------------------------------
  free energy    TOTEN  =     -1386.90628742 eV

  energy without entropy =    -1386.90628742  energy(sigma->0) =    -1386.90628742


--------------------------------------------------------------------------------------------------------




--------------------------------------- Iteration      1(  14)  ---------------------------------------


    POTLOK:  cpu time    0.2816: real time    0.3179
    SETDIJ:  cpu time    1.1968: real time    1.1968
     EDDAV:  cpu time   17.4647: real time   17.4656
       DOS:  cpu time    0.0006: real time    0.0006
    CHARGE:  cpu time    2.7091: real time    2.7091
    MIXING:  cpu time    0.0018: real time    0.0018
    --------------------------------------------
      LOOP:  cpu time   21.6545: real time   21.6919

 eigenvalue-minimisations  :  3752
 total energy-change (2. order) : 0.2856749E-04  (-0.1358343E-04)
 number of electron     343.9999997 magnetization 
 augmentation part       -2.6714775 magnetization 

 Broyden mixing:
  rms(total) = 0.15026E-02    rms(broyden)= 0.15014E-02
  rms(prec ) = 0.21257E-02
  weight for this iteration     100.00

 eigenvalues of (default mixing * dielectric matrix)
  average eigenvalue GAMMA=   1.6224
  3.1592  2.3588  2.3588  1.2865  1.2865  1.1544  1.1544  0.9215  0.9215

 Free energy of the ion-electron system (eV)
  ---------------------------------------------------
  alpha Z        PSCENC =       835.99855037
  Ewald energy   TEWEN  =    -17464.55681360
  -Hartree energ DENC   =     -7700.30940882
  -exchange      EXHF   =         0.00000000
  -V(xc)+E(xc)   XCENC  =       946.84854647
  PAW double counting   =     22743.11130839   -23782.11438005
  entropy T*S    EENTRO =        -0.00000000
  eigenvalues    EBANDS =     -2990.76768540
  atomic energy  EATOM  =     26024.88362379
  Solvation  Ediel_sol  =         0.00000000
  ---------------------------------------------------
  free energy    TOTEN  =     -1386.90625886 eV

  energy without entropy =    -1386.90625886  energy(sigma->0) =    -1386.90625886


--------------------------------------------------------------------------------------------------------




--------------------------------------- Iteration      1(  15)  ---------------------------------------


    POTLOK:  cpu time    0.2803: real time    0.3238
    SETDIJ:  cpu time    1.1965: real time    1.1965
     EDDAV:  cpu time   17.2378: real time   17.2390
       DOS:  cpu time    0.0006: real time    0.0006
    CHARGE:  cpu time    2.7169: real time    2.7170
    MIXING:  cpu time    0.0019: real time    0.0019
    --------------------------------------------
      LOOP:  cpu time   21.4340: real time   21.4788

 eigenvalue-minimisations  :  3672
 total energy-change (2. order) : 0.8590527E-05  (-0.2862157E-05)
 number of electron     343.9999997 magnetization 
 augmentation part       -2.6714258 magnetization 

 Broyden mixing:
  rms(total) = 0.82743E-03    rms(broyden)= 0.82560E-03
  rms(prec ) = 0.11989E-02
  weight for this iteration     100.00

 eigenvalues of (default mixing * dielectric matrix)
  average eigenvalue GAMMA=   1.6473
  3.5109  2.4502  2.4502  1.4765  1.4765  1.1932  1.1932  0.9448  0.9448  0.8328

 Free energy of the ion-electron system (eV)
  ---------------------------------------------------
  alpha Z        PSCENC =       835.99855037
  Ewald energy   TEWEN  =    -17464.55681360
  -Hartree energ DENC   =     -7700.49861772
  -exchange      EXHF   =         0.00000000
  -V(xc)+E(xc)   XCENC  =       946.85439465
  PAW double counting   =     22742.55389055   -23781.54700240
  entropy T*S    EENTRO =        -0.00000000
  eigenvalues    EBANDS =     -2990.59427590
  atomic energy  EATOM  =     26024.88362379
  Solvation  Ediel_sol  =         0.00000000
  ---------------------------------------------------
  free energy    TOTEN  =     -1386.90625027 eV

  energy without entropy =    -1386.90625027  energy(sigma->0) =    -1386.90625027


--------------------------------------------------------------------------------------------------------




--------------------------------------- Iteration      1(  16)  ---------------------------------------


    POTLOK:  cpu time    0.3168: real time    0.3199
    SETDIJ:  cpu time    1.1951: real time    1.1952
     EDDAV:  cpu time   17.5649: real time   17.5658
       DOS:  cpu time    0.0006: real time    0.0006
    CHARGE:  cpu time    2.7065: real time    2.7067
    MIXING:  cpu time    0.0019: real time    0.0019
    --------------------------------------------
      LOOP:  cpu time   21.7859: real time   21.7902

 eigenvalue-minimisations  :  3784
 total energy-change (2. order) :-0.4656053E-04  (-0.1547810E-05)
 number of electron     343.9999997 magnetization 
 augmentation part       -2.6710690 magnetization 

 Broyden mixing:
  rms(total) = 0.47984E-03    rms(broyden)= 0.47672E-03
  rms(prec ) = 0.56549E-03
  weight for this iteration     100.00

 eigenvalues of (default mixing * dielectric matrix)
  average eigenvalue GAMMA=   1.7113
  3.9727  2.9429  2.4415  1.8290  1.2297  1.2297  0.9020  1.0249  1.0249  1.1136
  1.1136

 Free energy of the ion-electron system (eV)
  ---------------------------------------------------
  alpha Z        PSCENC =       835.99855037
  Ewald energy   TEWEN  =    -17464.55681360
  -Hartree energ DENC   =     -7700.48446468
  -exchange      EXHF   =         0.00000000
  -V(xc)+E(xc)   XCENC  =       946.84923164
  PAW double counting   =     22742.06667745   -23781.05820366
  entropy T*S    EENTRO =        -0.00000000
  eigenvalues    EBANDS =     -2990.60489814
  atomic energy  EATOM  =     26024.88362379
  Solvation  Ediel_sol  =         0.00000000
  ---------------------------------------------------
  free energy    TOTEN  =     -1386.90629683 eV

  energy without entropy =    -1386.90629683  energy(sigma->0) =    -1386.90629683


--------------------------------------------------------------------------------------------------------




--------------------------------------- Iteration      1(  17)  ---------------------------------------


    POTLOK:  cpu time    0.2604: real time    0.3190
    SETDIJ:  cpu time    1.1959: real time    1.1959
     EDDAV:  cpu time   15.1160: real time   15.1165
       DOS:  cpu time    0.0004: real time    0.0004
    CHARGE:  cpu time    2.7051: real time    2.7052
    MIXING:  cpu time    0.0019: real time    0.0019
    --------------------------------------------
      LOOP:  cpu time   19.2797: real time   19.3390

 eigenvalue-minimisations  :  2912
 total energy-change (2. order) : 0.5111631E-05  (-0.2696957E-06)
 number of electron     343.9999997 magnetization 
 augmentation part       -2.6710004 magnetization 

 Broyden mixing:
  rms(total) = 0.26667E-03    rms(broyden)= 0.26104E-03
  rms(prec ) = 0.30508E-03
  weight for this iteration     100.00

 eigenvalues of (default mixing * dielectric matrix)
  average eigenvalue GAMMA=   1.6811
  4.0142  2.9587  2.4306  1.8580  1.4031  1.4031  1.1419  1.1419  1.0244  1.0244
  0.8863  0.8863

 Free energy of the ion-electron system (eV)
  ---------------------------------------------------
  alpha Z        PSCENC =       835.99855037
  Ewald energy   TEWEN  =    -17464.55681360
  -Hartree energ DENC   =     -7700.48210125
  -exchange      EXHF   =         0.00000000
  -V(xc)+E(xc)   XCENC  =       946.84713912
  PAW double counting   =     22742.51787357   -23781.50538679
  entropy T*S    EENTRO =        -0.00000000
  eigenvalues    EBANDS =     -2990.60917693
  atomic energy  EATOM  =     26024.88362379
  Solvation  Ediel_sol  =         0.00000000
  ---------------------------------------------------
  free energy    TOTEN  =     -1386.90629172 eV

  energy without entropy =    -1386.90629172  energy(sigma->0) =    -1386.90629172


--------------------------------------------------------------------------------------------------------




--------------------------------------- Iteration      1(  18)  ---------------------------------------


    POTLOK:  cpu time    0.2670: real time    0.3202
    SETDIJ:  cpu time    1.1961: real time    1.1962
     EDDAV:  cpu time   12.9317: real time   12.9322
       DOS:  cpu time    0.0004: real time    0.0004
    --------------------------------------------
      LOOP:  cpu time   14.3952: real time   14.4489

 eigenvalue-minimisations  :  2152
 total energy-change (2. order) :-0.3684722E-06  (-0.5678478E-07)
 number of electron     343.9999997 magnetization 
 augmentation part       -2.6710004 magnetization 

 Free energy of the ion-electron system (eV)
  ---------------------------------------------------
  alpha Z        PSCENC =       835.99855037
  Ewald energy   TEWEN  =    -17464.55681360
  -Hartree energ DENC   =     -7700.48351705
  -exchange      EXHF   =         0.00000000
  -V(xc)+E(xc)   XCENC  =       946.84700334
  PAW double counting   =     22742.58408511   -23781.57142848
  entropy T*S    EENTRO =        -0.00000000
  eigenvalues    EBANDS =     -2990.60779556
  atomic energy  EATOM  =     26024.88362379
  Solvation  Ediel_sol  =         0.00000000
  ---------------------------------------------------
  free energy    TOTEN  =     -1386.90629208 eV

  energy without entropy =    -1386.90629208  energy(sigma->0) =    -1386.90629208


--------------------------------------------------------------------------------------------------------




 average (electrostatic) potential at core
  the test charge radii are     1.1312  1.1541  1.0178  1.1312
  (the norm of the test charge is              1.0000)
       1 -55.3479       2 -55.3882       3 -55.3708       4 -55.2765       5 -55.4533
       6 -55.4453       7-101.8497       8-101.9105       9-101.8244      10-101.9277
      11-101.8244      12-101.9277      13-101.8497      14-101.9106      15 -69.0780
      16 -69.2940      17 -69.1543      18 -69.2625      19 -69.1938      20 -69.1393
      21 -69.0885      22 -69.3098      23 -69.0082      24 -69.2059      25 -69.1747
      26 -68.9842      27 -69.0415      28 -69.1263      29 -69.0826      30 -69.2497
      31 -69.0082      32 -69.2058      33 -69.1747      34 -68.9838      35 -69.0826
      36 -69.2496      37 -69.0414      38 -69.1259      39 -55.9959



 E-fermi :   0.2598     XC(G=0):  -7.9262     alpha+bet : -6.8224


 k-point     1 :       0.0000    0.0000    0.0000
  band No.  band energies     occupation 
      1     -21.5302      2.00000
      2     -20.9875      2.00000
      3     -20.9822      2.00000
      4     -20.9256      2.00000
      5     -20.8996      2.00000
      6     -20.8890      2.00000
      7     -20.8198      2.00000
      8     -16.7475      2.00000
      9     -16.7187      2.00000
     10     -16.7178      2.00000
     11     -16.7052      2.00000
     12     -16.6790      2.00000
     13     -16.6732      2.00000
     14     -16.6696      2.00000
     15     -16.6524      2.00000
     16     -16.6498      2.00000
     17     -16.6189      2.00000
     18     -16.6144      2.00000
     19     -16.6045      2.00000
     20     -16.6012      2.00000
     21     -16.5986      2.00000
     22     -16.5899      2.00000
     23     -16.5895      2.00000
     24     -16.5874      2.00000
     25     -16.5862      2.00000
     26     -16.5835      2.00000
     27     -16.5779      2.00000
     28     -16.5776      2.00000
     29     -16.5757      2.00000
     30     -16.5753      2.00000
     31     -16.5687      2.00000
     32     -16.5660      2.00000
     33     -16.5573      2.00000
     34     -16.5566      2.00000
     35     -16.5510      2.00000
     36     -16.5133      2.00000
     37     -16.5121      2.00000
     38     -16.5052      2.00000
     39     -16.5042      2.00000
     40     -16.5020      2.00000
     41     -16.5016      2.00000
     42     -16.4901      2.00000
     43     -16.4893      2.00000
     44     -16.4807      2.00000
     45     -16.4798      2.00000
     46     -16.4764      2.00000
     47     -16.4750      2.00000
     48     -14.5694      2.00000
     49     -14.3850      2.00000
     50     -14.3614      2.00000
     51     -14.3491      2.00000
     52     -14.3475      2.00000
     53     -14.2636      2.00000
     54     -14.2620      2.00000
     55     -14.2277      2.00000
     56     -14.2093      2.00000
     57     -14.1801      2.00000
     58     -14.1606      2.00000
     59     -14.1443      2.00000
     60     -14.1270      2.00000
     61     -14.1062      2.00000
     62     -14.0817      2.00000
     63     -14.0677      2.00000
     64     -14.0539      2.00000
     65     -14.0437      2.00000
     66     -13.9836      2.00000
     67     -13.9804      2.00000
     68     -13.8712      2.00000
     69     -13.8537      2.00000
     70     -13.8401      2.00000
     71     -13.8191      2.00000
     72      -8.3699      2.00000
     73      -7.9688      2.00000
     74      -7.9435      2.00000
     75      -7.9167      2.00000
     76      -7.8918      2.00000
     77      -7.8405      2.00000
     78      -7.8311      2.00000
     79      -7.4274      2.00000
     80      -7.4072      2.00000
     81      -7.3964      2.00000
     82      -7.3947      2.00000
     83      -7.3912      2.00000
     84      -7.3861      2.00000
     85      -7.3626      2.00000
     86      -7.3609      2.00000
     87      -7.3512      2.00000
     88      -7.3445      2.00000
     89      -7.3241      2.00000
     90      -7.3182      2.00000
     91      -7.3166      2.00000
     92      -7.2977      2.00000
     93      -7.2975      2.00000
     94      -7.2830      2.00000
     95      -7.2767      2.00000
     96      -7.2477      2.00000
     97      -7.2448      2.00000
     98      -7.2138      2.00000
     99      -7.2118      2.00000
    100      -6.7609      2.00000
    101      -3.5550      2.00000
    102      -3.5010      2.00000
    103      -3.4655      2.00000
    104      -3.4228      2.00000
    105      -3.3914      2.00000
    106      -3.3106      2.00000
    107      -3.2993      2.00000
    108      -3.2829      2.00000
    109      -3.2465      2.00000
    110      -3.2280      2.00000
    111      -3.1373      2.00000
    112      -3.0559      2.00000
    113      -2.4170      2.00000
    114      -2.3355      2.00000
    115      -2.2806      2.00000
    116      -2.1691      2.00000
    117      -2.1557      2.00000
    118      -2.0922      2.00000
    119      -2.0553      2.00000
    120      -2.0501      2.00000
    121      -2.0098      2.00000
    122      -1.9219      2.00000
    123      -1.9107      2.00000
    124      -1.8836      2.00000
    125      -1.8671      2.00000
    126      -1.8245      2.00000
    127      -1.8199      2.00000
    128      -1.7001      2.00000
    129      -1.6995      2.00000
    130      -1.6819      2.00000
    131      -1.6721      2.00000
    132      -1.6313      2.00000
    133      -1.6276      2.00000
    134      -1.6185      2.00000
    135      -1.6049      2.00000
    136      -1.5897      2.00000
    137      -1.5869      2.00000
    138      -1.5737      2.00000
    139      -1.5525      2.00000
    140      -1.5323      2.00000
    141      -1.5276      2.00000
    142      -1.5016      2.00000
    143      -1.4867      2.00000
    144      -1.4836      2.00000
    145      -1.4691      2.00000
    146      -1.4577      2.00000
    147      -1.4388      2.00000
    148      -1.4297      2.00000
    149      -1.4288      2.00000
    150      -1.3873      2.00000
    151      -1.3869      2.00000
    152      -1.3506      2.00000
    153      -1.3423      2.00000
    154      -1.3134      2.00000
    155      -1.2830      2.00000
    156      -1.2690      2.00000
    157      -1.2431      2.00000
    158      -1.1980      2.00000
[...]


--------------------------------------------------------------------------------------------------------


 soft charge-density along one line, spin component           1
         0         1         2         3         4         5         6         7         8         9
 total charge-density along one line

 pseudopotential strength for first ion, spin component:           1
 18.007  -4.714  -0.000  -0.001  -0.002   0.000   0.001   0.002
 -4.714   1.243   0.000   0.000   0.000  -0.000  -0.000  -0.001
 -0.000   0.000   2.280   0.000   0.000  -2.731  -0.000  -0.000
 -0.001   0.000   0.000   2.282  -0.001  -0.000  -2.733   0.001
 -0.002   0.000   0.000  -0.001   2.282  -0.000   0.001  -2.733
  0.000  -0.000  -2.731  -0.000  -0.000   3.239   0.000   0.000
  0.001  -0.000  -0.000  -2.733   0.001   0.000   3.242  -0.002
  0.002  -0.001  -0.000   0.001  -2.733   0.000  -0.002   3.242
  0.000  -0.000  -0.000  -0.000  -0.000   0.000   0.000   0.000
  0.000  -0.000   0.000  -0.000  -0.000  -0.001   0.000   0.000
  0.001  -0.000   0.000  -0.001   0.000  -0.000   0.002  -0.001
 -0.001   0.000  -0.000  -0.001   0.000   0.000   0.002  -0.000
  0.001  -0.000   0.000  -0.000  -0.002  -0.000   0.000   0.002
 total augmentation occupancy for first ion, spin component:           1
  1.912  -0.139  -0.000  -0.000  -0.000  -0.000  -0.000  -0.001   0.000   0.000   0.001  -0.002   0.001
 -0.139   0.134  -0.000  -0.002  -0.004   0.000   0.001   0.003  -0.000  -0.000  -0.004   0.005  -0.002
 -0.000  -0.000   2.014   0.000   0.000   0.002   0.000   0.000   0.000   0.001   0.000  -0.000   0.000
 -0.000  -0.002   0.000   2.019  -0.003   0.000   0.005  -0.002  -0.000  -0.000  -0.003  -0.001   0.000
 -0.000  -0.004   0.000  -0.003   2.019   0.000  -0.002   0.005  -0.000  -0.000   0.001   0.001  -0.003
 -0.000   0.000   0.002   0.000   0.000   0.011  -0.000  -0.000  -0.001  -0.001  -0.000   0.000  -0.000
 -0.000   0.001   0.000   0.005  -0.002  -0.000   0.009   0.001   0.000   0.000   0.002  -0.000  -0.000
 -0.001   0.003   0.000  -0.002   0.005  -0.000   0.001   0.010   0.000   0.000  -0.001  -0.001   0.002
  0.000  -0.000   0.000  -0.000  -0.000  -0.001   0.000   0.000   0.007   0.002   0.000  -0.000  -0.000
  0.000  -0.000   0.001  -0.000  -0.000  -0.001   0.000   0.000   0.002   0.007   0.000  -0.000  -0.000
  0.001  -0.004   0.000  -0.003   0.001  -0.000   0.002  -0.001   0.000   0.000   0.005  -0.002  -0.001
 -0.002   0.005  -0.000  -0.001   0.001   0.000  -0.000  -0.001  -0.000  -0.000  -0.002   0.004   0.001
  0.001  -0.002   0.000   0.000  -0.003  -0.000  -0.000   0.002  -0.000  -0.000  -0.001   0.001   0.005


------------------------ aborting loop because EDIFF is reached ----------------------------------------





 total charge     

# of ion       s       p       d       tot
------------------------------------------
    1        1.787   4.722   0.022   6.531
    2        1.787   4.722   0.021   6.529
    3        1.786   4.721   0.019   6.526
    4        1.787   4.722   0.023   6.532
    5        1.786   4.721   0.020   6.528
    6        1.787   4.722   0.021   6.529
    7        1.554   0.416   9.833  11.803
    8        1.552   0.427   9.834  11.814
    9        1.555   0.417   9.833  11.804
   10        1.551   0.430   9.833  11.814
   11        1.555   0.417   9.833  11.804
   12        1.551   0.430   9.833  11.814
   13        1.554   0.416   9.833  11.803
   14        1.552   0.427   9.834  11.814
   15        1.615   3.285   0.007   4.907
   16        1.614   3.299   0.006   4.919
   17        1.614   3.291   0.006   4.910
   18        1.615   3.289   0.007   4.912
   19        1.615   3.293   0.007   4.915
   20        1.615   3.286   0.006   4.907
   21        1.614   3.291   0.006   4.911
   22        1.615   3.290   0.007   4.912
   23        1.613   3.289   0.005   4.908
   24        1.614   3.291   0.005   4.910
   25        1.615   3.291   0.006   4.912
   26        1.615   3.275   0.006   4.896
   27        1.614   3.287   0.006   4.907
   28        1.614   3.286   0.005   4.906
   29        1.615   3.280   0.006   4.901
   30        1.616   3.291   0.007   4.914
   31        1.613   3.289   0.005   4.908
   32        1.614   3.291   0.005   4.910
   33        1.615   3.291   0.006   4.912
   34        1.615   3.275   0.006   4.896
   35        1.615   3.280   0.006   4.901
   36        1.616   3.291   0.007   4.914
   37        1.614   3.287   0.006   4.907
   38        1.614   3.286   0.005   4.906
   39        1.786   4.722   0.020   6.529
--------------------------------------------------
tot         63.679 115.337  78.960 257.975

    CHARGE:  cpu time    0.3995: real time    0.3995
    FORLOC:  cpu time    0.0120: real time    0.0120
    FORNL :  cpu time    1.9090: real time    1.9091
    STRESS:  cpu time   49.9775: real time   49.9794
    FORCOR:  cpu time    0.2458: real time    0.2459
    FORHAR:  cpu time    0.0288: real time    0.0288
    MIXING:  cpu time    0.0019: real time    0.0019
    OFIELD:  cpu time    0.0000: real time    0.0000

  FORCE on cell =-STRESS in cart. coord.  units (eV):
  Direction    XX          YY          ZZ          XY          YZ          ZX
  --------------------------------------------------------------------------------------
  Alpha Z   835.99855   835.99855   835.99855
  Ewald   -5810.37269 -5706.64895 -5947.61250     0.01040    -0.01698     0.64358
  Hartree  2597.75514  2603.88808  2498.85052     0.00700    -0.00787   -22.64814
  E(xc)   -1446.88422 -1446.59411 -1446.88148     0.00001    -0.00004     0.07490
  Local   -3175.44771 -3284.20529 -2940.54460    -0.01725     0.02493    22.45365
  n-local  1793.41638  1794.27114  1792.91103    -0.00013    -0.00059    -0.18867
  augment   825.17269   824.52556   824.37990     0.00016    -0.00015    -0.22614
  Kinetic  4383.61180  4386.03074  4387.53469     0.00020    -0.00010     1.00886
  Fock        0.00000     0.00000     0.00000     0.00000     0.00000     0.00000
  -------------------------------------------------------------------------------------
  Total       3.24994     7.26571     4.63612     0.00040    -0.00080     1.11804
  in kB       3.25381     7.27436     4.64164     0.00040    -0.00081     1.11937
  external pressure =        5.06 kB  Pullay stress =        0.00 kB


 VOLUME and BASIS-vectors are now :
 -----------------------------------------------------------------------------
  energy-cutoff  :      300.00
  volume of cell :     1600.27
      direct lattice vectors                 reciprocal lattice vectors
     8.420018000  0.000000000  8.077981000     0.059382296 -0.000000000  0.061896655
     0.000000000 11.763808000  0.000000000     0.000000000  0.085006488 -0.000000000
    -8.420018000  0.000000000  8.077981000    -0.059382296  0.000000000  0.061896655

  length of vectors
    11.668353789 11.763808000 11.668353789     0.085775596  0.085006488  0.085775596


 FORCES acting on ions
    electron-ion (+dipol)            ewald-force                    non-local-force                 convergence-correction
 -----------------------------------------------------------------------------------------------
   0.279E+02 -.207E-02 -.794E+01   -.277E+02 0.220E-02 0.797E+01   -.143E+00 -.118E-03 -.461E-01   0.154E-03 0.152E-05 0.124E-03
   0.348E+02 0.609E-02 -.143E+02   -.347E+02 -.617E-02 0.143E+02   -.133E+00 0.116E-05 0.496E-01   0.170E-03 -.938E-06 -.481E-03
   -.156E+02 0.464E-03 -.184E+02   0.155E+02 -.397E-03 0.184E+02   0.117E+00 -.690E-04 -.222E-01   0.187E-03 -.280E-05 -.316E-03
   0.315E+02 -.465E-02 0.423E+01   -.313E+02 0.466E-02 -.424E+01   -.171E+00 0.549E-04 -.203E-02   0.420E-03 0.112E-05 0.504E-04
   0.264E+02 -.485E-02 0.112E+02   -.263E+02 0.489E-02 -.114E+02   -.116E+00 0.226E-04 0.167E+00   -.312E-03 -.819E-07 0.213E-03
   -.665E+01 0.551E-02 0.709E+01   0.676E+01 -.558E-02 -.714E+01   -.111E+00 0.137E-04 0.451E-01   -.170E-03 -.710E-06 0.324E-03
   0.371E+02 0.494E+02 0.672E+02   -.371E+02 -.487E+02 -.674E+02   0.920E-01 -.647E+00 0.121E+00   -.347E-03 -.110E-02 -.874E-03
   -.447E+02 0.687E+02 -.579E+02   0.458E+02 -.701E+02 0.584E+02   -.116E+01 0.145E+01 -.478E+00   0.571E-03 -.168E-02 0.128E-02
   -.774E+02 0.789E+02 -.353E+02   0.775E+02 -.785E+02 0.343E+02   -.676E-01 -.400E+00 0.876E+00   0.106E-02 -.138E-02 0.434E-04
   0.306E+02 0.390E+02 0.572E+02   -.312E+02 -.399E+02 -.598E+02   0.511E+00 0.924E+00 0.273E+01   -.947E-03 -.125E-02 -.103E-02
   -.774E+02 -.789E+02 -.353E+02   0.775E+02 0.785E+02 0.343E+02   -.669E-01 0.402E+00 0.876E+00   0.106E-02 0.138E-02 0.261E-04
   0.306E+02 -.390E+02 0.572E+02   -.311E+02 0.399E+02 -.598E+02   0.510E+00 -.923E+00 0.273E+01   -.941E-03 0.127E-02 -.103E-02
   0.371E+02 -.494E+02 0.672E+02   -.371E+02 0.487E+02 -.674E+02   0.929E-01 0.646E+00 0.121E+00   -.342E-03 0.111E-02 -.881E-03
   -.447E+02 -.687E+02 -.579E+02   0.458E+02 0.701E+02 0.584E+02   -.116E+01 -.145E+01 -.478E+00   0.578E-03 0.169E-02 0.128E-02
   -.432E+02 -.441E-02 0.285E+01   0.430E+02 0.450E-02 -.326E+01   0.151E+00 -.610E-04 0.406E+00   0.983E-03 -.230E-05 0.248E-03
   -.487E+00 -.859E-02 0.287E+02   0.754E+00 0.875E-02 -.285E+02   -.271E+00 0.466E-04 -.155E+00   -.728E-03 -.339E-05 -.865E-04
   -.493E+01 0.575E-02 0.377E+02   0.509E+01 -.584E-02 -.378E+02   -.161E+00 0.114E-03 0.958E-01   0.987E-04 0.163E-05 -.151E-03
   -.164E+02 0.151E-05 0.342E+02   0.164E+02 -.632E-05 -.347E+02   0.843E-01 0.550E-04 0.485E+00   0.933E-05 -.421E-05 0.361E-03
   0.337E+02 0.108E-01 0.376E+01   -.337E+02 -.110E-01 -.343E+01   -.680E-01 0.669E-04 -.288E+00   -.226E-03 -.241E-05 -.705E-03
   0.151E+02 0.713E-02 -.595E+02   -.156E+02 -.723E-02 0.594E+02   0.568E+00 0.860E-05 0.515E-01   0.222E-03 0.184E-05 0.119E-02
   -.235E+02 -.741E-02 -.385E+02   0.236E+02 0.750E-02 0.387E+02   -.924E-01 -.111E-03 -.140E+00   0.168E-03 0.184E-05 -.149E-03
   0.106E+02 0.567E-02 -.261E+02   -.107E+02 -.573E-02 0.266E+02   0.666E-01 -.790E-04 -.462E+00   -.153E-03 0.137E-06 -.110E-03
   -.209E+02 0.765E+00 0.187E+02   0.211E+02 -.837E+00 -.188E+02   -.199E+00 0.747E-01 0.103E+00   0.194E-03 0.326E-03 -.562E-04
   -.145E+02 -.294E+01 0.154E+02   0.147E+02 0.262E+01 -.154E+02   -.134E+00 0.358E+00 0.254E-01   -.466E-03 0.717E-03 0.321E-03
   -.222E+01 -.293E+02 0.349E+01   0.202E+01 0.293E+02 -.372E+01   0.212E+00 0.298E-02 0.239E+00   0.873E-04 0.310E-03 0.432E-03
   0.757E+02 -.705E+02 0.559E+02   -.761E+02 0.710E+02 -.563E+02   0.378E+00 -.452E+00 0.436E+00   -.463E-03 0.945E-03 -.797E-03
   -.368E+02 0.368E+02 -.622E+02   0.369E+02 -.366E+02 0.625E+02   -.190E+00 -.134E+00 -.291E+00   0.513E-03 -.995E-03 0.133E-03
   -.819E+01 -.129E+01 -.970E+01   0.841E+01 0.143E+01 0.988E+01   -.207E+00 -.143E+00 -.165E+00   -.310E-03 -.401E-03 -.310E-04
   0.208E+02 0.776E+02 -.184E+02   -.211E+02 -.779E+02 0.189E+02   0.213E+00 0.213E+00 -.351E+00   0.238E-03 -.859E-03 -.381E-03
   0.194E+02 0.222E+02 -.351E+02   -.196E+02 -.223E+02 0.356E+02   0.247E+00 0.119E+00 -.478E+00   0.911E-04 -.341E-03 0.181E-03
   -.209E+02 -.764E+00 0.187E+02   0.211E+02 0.837E+00 -.188E+02   -.199E+00 -.748E-01 0.103E+00   0.191E-03 -.325E-03 -.576E-04
   -.145E+02 0.294E+01 0.154E+02   0.147E+02 -.263E+01 -.154E+02   -.133E+00 -.358E+00 0.254E-01   -.467E-03 -.718E-03 0.319E-03
   -.222E+01 0.293E+02 0.348E+01   0.202E+01 -.293E+02 -.371E+01   0.212E+00 -.290E-02 0.239E+00   0.865E-04 -.308E-03 0.435E-03
   0.757E+02 0.705E+02 0.559E+02   -.761E+02 -.710E+02 -.563E+02   0.378E+00 0.452E+00 0.436E+00   -.465E-03 -.945E-03 -.799E-03
   0.208E+02 -.776E+02 -.184E+02   -.211E+02 0.779E+02 0.189E+02   0.213E+00 -.213E+00 -.351E+00   0.241E-03 0.859E-03 -.379E-03
   0.194E+02 -.222E+02 -.351E+02   -.196E+02 0.223E+02 0.356E+02   0.247E+00 -.119E+00 -.478E+00   0.852E-04 0.343E-03 0.177E-03
   -.368E+02 -.368E+02 -.622E+02   0.369E+02 0.366E+02 0.625E+02   -.190E+00 0.134E+00 -.291E+00   0.509E-03 0.996E-03 0.136E-03
   -.818E+01 0.128E+01 -.970E+01   0.840E+01 -.142E+01 0.988E+01   -.207E+00 0.143E+00 -.165E+00   -.312E-03 0.402E-03 -.279E-04
   -.265E+02 -.376E-02 0.313E+02   0.264E+02 0.375E-02 -.312E+02   0.194E+00 0.388E-04 -.452E+00   -.824E-03 0.179E-05 0.633E-03
 -----------------------------------------------------------------------------------------------
   0.738E+00 -.197E-03 -.537E+01   -.711E-14 0.167E-12 -.497E-13   -.695E+00 0.265E-03 0.526E+01   0.442E-03 0.239E-04 -.434E-03


 POSITION                                       TOTAL-FORCE (eV/Angst)
 -----------------------------------------------------------------------------------
      0.63468      2.94096      3.73879         0.008144      0.000006     -0.005060
      0.44036      2.94096     12.05072        -0.002099     -0.000095      0.009048
     -4.62303      8.82287      7.85328        -0.009370     -0.000016     -0.006198
     -3.80437      2.94093      8.42946         0.005380      0.000079     -0.004266
      4.78247      2.94093      8.17928         0.012738      0.000071     -0.002424
     -0.05394      8.82287      4.12484        -0.001589     -0.000057     -0.019443
     -0.00461     11.70064     16.05752         0.090615      0.011612     -0.074852
     -0.04618      0.07058      8.03811        -0.110954      0.018785      0.072541
      4.27378     11.69679      4.10069         0.045158     -0.007272     -0.066007
     -4.15214      0.06150      4.09559        -0.072760      0.039754      0.074075
      4.27382      5.94902      4.10072         0.045138      0.007140     -0.066067
     -4.15224      5.82039      4.09567        -0.072001     -0.039848      0.073700
     -0.00451      5.94505     16.05741         0.090102     -0.011490     -0.073813
     -0.04612      5.81132      8.03810        -0.111127     -0.018795      0.072601
     -4.42974      8.82287     11.52823        -0.041096      0.000031      0.016721
     -3.67415      8.82280      4.02751        -0.024511      0.000141     -0.003193
      0.04505      2.94095     15.67582        -0.014054      0.000033      0.007312
     -0.19939      2.94095      7.38041         0.003590      0.000045      0.001539
      0.17182      8.82288      0.55253        -0.015245     -0.000093      0.035077
     -0.43260      8.82288      8.03460         0.119612     -0.000068      0.037241
      4.23726      2.94096      4.48020        -0.001982     -0.000017      0.009790
     -4.38922      2.94095      4.70365         0.006386     -0.000138      0.003576
     -5.95057      5.56905      9.69706        -0.015381      0.000795      0.012314
      2.41777      5.27187      9.73620         0.016446      0.074001     -0.012402
      1.67189      6.04552      5.59928         0.032609      0.024186      0.016344
      1.70081      6.37475     13.61078         0.006280     -0.031779      0.041888
     -1.71258      0.48961     10.46935        -0.028006      0.012760      0.001213
     -1.65144      0.43065      2.42940        -0.000572     -0.014017     -0.006661
      5.75512     11.43039      6.64033        -0.067341     -0.036027      0.063870
     -2.67133     11.67517      6.59999         0.015622     -0.002395      0.005823
     -5.95054      0.31291      9.69706        -0.015517     -0.000846      0.012303
      2.41782      0.61005      9.73619         0.016369     -0.074076     -0.012437
      1.67189     11.60019      5.59928         0.032615     -0.024149      0.016328
      1.70081     11.27094     13.61077         0.006300      0.031861      0.042030
      5.75514      6.21534      6.64037        -0.067438      0.036024      0.063759
     -2.67129      5.97051      6.59998         0.015566      0.002442      0.005841
     -1.71260      5.39228     10.46937        -0.027997     -0.012728      0.001169
     -1.65143      5.45120      2.42936        -0.000728      0.014091     -0.006645
      3.03736      8.82283      9.07399         0.131101      0.000048     -0.336638
 -----------------------------------------------------------------------------------
    total drift:                                0.042977      0.000092     -0.113229


--------------------------------------------------------------------------------------------------------



  FREE ENERGIE OF THE ION-ELECTRON SYSTEM (eV)
  ---------------------------------------------------
  free  energy   TOTEN  =     -1386.90629208 eV

  energy  without entropy=    -1386.90629208  energy(sigma->0) =    -1386.90629208



--------------------------------------------------------------------------------------------------------


    POTLOK:  cpu time    1.4312: real time    1.4312


--------------------------------------------------------------------------------------------------------


 stress matrix after NEB project (eV)
      3.24994      0.00040      1.11804
      0.00040      7.26571     -0.00080
      1.11798     -0.00080      4.63612
  FORCES: max atom, RMS     0.361265    0.087325
  FORCE total and by dimension    0.545342    0.336638
  Stress total and by dimension    9.345912    7.265707
     LOOP+:  cpu time  430.8774: real time  431.6057
    4ORBIT:  cpu time    0.0000: real time    0.0000



 total charge     

# of ion       s       p       d       tot
------------------------------------------
    1        1.787   4.722   0.022   6.531
    2        1.787   4.722   0.021   6.529
    3        1.786   4.721   0.019   6.526
    4        1.787   4.722   0.023   6.532
    5        1.786   4.721   0.020   6.528
    6        1.787   4.722   0.021   6.529
    7        1.554   0.416   9.833  11.803
    8        1.552   0.427   9.834  11.814
    9        1.555   0.417   9.833  11.804
   10        1.551   0.430   9.833  11.814
   11        1.555   0.417   9.833  11.804
   12        1.551   0.430   9.833  11.814
   13        1.554   0.416   9.833  11.803
   14        1.552   0.427   9.834  11.814
   15        1.615   3.285   0.007   4.907
   16        1.614   3.299   0.006   4.919
   17        1.614   3.291   0.006   4.910
   18        1.615   3.289   0.007   4.912
   19        1.615   3.293   0.007   4.915
   20        1.615   3.286   0.006   4.907
   21        1.614   3.291   0.006   4.911
   22        1.615   3.290   0.007   4.912
   23        1.613   3.289   0.005   4.908
   24        1.614   3.291   0.005   4.910
   25        1.615   3.291   0.006   4.912
   26        1.615   3.275   0.006   4.896
   27        1.614   3.287   0.006   4.907
   28        1.614   3.286   0.005   4.906
   29        1.615   3.280   0.006   4.901
   30        1.616   3.291   0.007   4.914
   31        1.613   3.289   0.005   4.908
   32        1.614   3.291   0.005   4.910
   33        1.615   3.291   0.006   4.912
   34        1.615   3.275   0.006   4.896
   35        1.615   3.280   0.006   4.901
   36        1.616   3.291   0.007   4.914
   37        1.614   3.287   0.006   4.907
   38        1.614   3.286   0.005   4.906
   39        1.786   4.722   0.020   6.529
--------------------------------------------------
tot         63.679 115.337  78.960 257.975


 total amount of memory used by VASP MPI-rank0    61011. kBytes
=======================================================================

   base      :      30000. kBytes
   nonlr-proj:       6423. kBytes
   fftplans  :       8423. kBytes
   grid      :       7942. kBytes
   one-center:         77. kBytes
   wavefun   :       8146. kBytes

  
  
 General timing and accounting informations for this job:
 ========================================================
  
                  Total CPU time used (sec):      443.359
                            User time (sec):      441.935
                          System time (sec):        1.424
                         Elapsed time (sec):      444.796
  
                   Maximum memory used (kb):       78416.
                   Average memory used (kb):           0.
  
                          Minor page faults:        20965
                          Major page faults:            2
                 Voluntary context switches:         1798
