PROCAR new format
# of k-points:    8         # of bands:  208         # of ions:   39

 k-point     1 :    0.00000000 0.00000000 0.00000000     weight = 0.12500000

band     1 # energy  -21.53016034 # occ.  2.00000000

ion      s      p      d    tot
    1  0.000  0.000  0.000  0.000
    2  0.000  0.000  0.000  0.000
    3  0.000  0.000  0.000  0.000
    4  0.000  0.000  0.000  0.000
    5  0.000  0.000  0.000  0.000
    6  0.000  0.000  0.000  0.000
    7  0.000  0.000  0.000  0.000
    8  0.000  0.000  0.000  0.000
    9  0.000  0.000  0.000  0.000
   10  0.000  0.000  0.000  0.000
   11  0.000  0.000  0.000  0.000
   12  0.000  0.000  0.000  0.000
   13  0.000  0.000  0.000  0.000
   14  0.000  0.000  0.000  0.000
   15  0.000  0.000  0.000  0.000
   16  0.000  0.000  0.000  0.000
   17  0.000  0.000  0.000  0.000
   18  0.000  0.000  0.000  0.000
   19  0.000  0.000  0.000  0.000
   20  0.000  0.000  0.000  0.000
   21  0.000  0.000  0.000  0.000
   22  0.000  0.000  0.000  0.000
   23  0.000  0.000  0.000  0.000
   24  0.000  0.000  0.000  0.000
   25  0.000  0.000  0.000  0.000
   26  0.000  0.000  0.000  0.000
   27  0.000  0.000  0.000  0.000
   28  0.000  0.000  0.000  0.000
   29  0.000  0.000  0.000  0.000
   30  0.000  0.000  0.000  0.000
   31  0.000  0.000  0.000  0.000
   32  0.000  0.000  0.000  0.000
   33  0.000  0.000  0.000  0.000
   34  0.000  0.000  0.000  0.000
   35  0.000  0.000  0.000  0.000
   36  0.000  0.000  0.000  0.000
   37  0.000  0.000  0.000  0.000
   38  0.000  0.000  0.000  0.000
   39  0.888  0.000  0.000  0.888
tot    0.888  0.000  0.000  0.888

band     2 # energy  -20.98747517 # occ.  2.00000000

ion      s      p      d    tot
    1  0.000  0.000  0.000  0.000
    2  0.000  0.000  0.000  0.000
    3  0.000  0.000  0.000  0.000
    4  0.000  0.000  0.000  0.000
    5  0.887  0.000  0.000  0.887
    6  0.000  0.000  0.000  0.000
    7  0.000  0.000  0.000  0.000
    8  0.000  0.000  0.000  0.000
    9  0.000  0.000  0.000  0.000
   10  0.000  0.000  0.000  0.000
   11  0.000  0.000  0.000  0.000
   12  0.000  0.000  0.000  0.000
   13  0.000  0.000  0.000  0.000
   14  0.000  0.000  0.000  0.000
   15  0.000  0.000  0.000  0.000
   16  0.000  0.000  0.000  0.000
   17  0.000  0.000  0.000  0.000
   18  0.000  0.000  0.000  0.000
   19  0.000  0.000  0.000  0.000
   20  0.000  0.000  0.000  0.000
   21  0.000  0.000  0.000  0.000
   22  0.000  0.000  0.000  0.000
   23  0.000  0.000  0.000  0.000
   24  0.000  0.000  0.000  0.000
   25  0.000  0.000  0.000  0.000
   26  0.000  0.000  0.000  0.000
   27  0.000  0.000  0.000  0.000
   28  0.000  0.000  0.000  0.000
   29  0.000  0.000  0.000  0.000
   30  0.000  0.000  0.000  0.000
   31  0.000  0.000  0.000  0.000
   32  0.000  0.000  0.000  0.000
   33  0.000  0.000  0.000  0.000
   34  0.000  0.000  0.000  0.000
   35  0.000  0.000  0.000  0.000
   36  0.000  0.000  0.000  0.000
   37  0.000  0.000  0.000  0.000
   38  0.000  0.000  0.000  0.000
   39  0.000  0.000  0.000  0.000
tot    0.888  0.000  0.000  0.888

band     3 # energy  -20.98220322 # occ.  2.00000000

ion      s      p      d    tot
    1  0.000  0.000  0.000  0.000
    2  0.000  0.000  0.000  0.000
    3  0.000  0.000  0.000  0.000
    4  0.000  0.000  0.000  0.000
    5  0.000  0.000  0.000  0.000
    6  0.887  0.000  0.000  0.887
    7  0.000  0.000  0.000  0.000
    8  0.000  0.000  0.000  0.000
    9  0.000  0.000  0.000  0.000
   10  0.000  0.000  0.000  0.000
   11  0.000  0.000  0.000  0.000
   12  0.000  0.000  0.000  0.000
   13  0.000  0.000  0.000  0.000
   14  0.000  0.000  0.000  0.000
   15  0.000  0.000  0.000  0.000
   16  0.000  0.000  0.000  0.000
   17  0.000  0.000  0.000  0.000
   18  0.000  0.000  0.000  0.000
   19  0.000  0.000  0.000  0.000
   20  0.000  0.000  0.000  0.000
   21  0.000  0.000  0.000  0.000
   22  0.000  0.000  0.000  0.000
   23  0.000  0.000  0.000  0.000
   24  0.000  0.000  0.000  0.000
   25  0.000  0.000  0.000  0.000
   26  0.000  0.000  0.000  0.000
   27  0.000  0.000  0.000  0.000
   28  0.000  0.000  0.000  0.000
   29  0.000  0.000  0.000  0.000
   30  0.000  0.000  0.000  0.000
   31  0.000  0.000  0.000  0.000
   32  0.000  0.000  0.000  0.000
   33  0.000  0.000  0.000  0.000
   34  0.000  0.000  0.000  0.000
   35  0.000  0.000  0.000  0.000
   36  0.000  0.000  0.000  0.000
   37  0.000  0.000  0.000  0.000
   38  0.000  0.000  0.000  0.000
   39  0.000  0.000  0.000  0.000
tot    0.888  0.000  0.000  0.888

band     4 # energy  -20.92561975 # occ.  2.00000000

ion      s      p      d    tot
    1  0.000  0.000  0.000  0.000
    2  0.887  0.000  0.000  0.887
    3  0.000  0.000  0.000  0.000
    4  0.000  0.000  0.000  0.000
    5  0.000  0.000  0.000  0.000
    6  0.000  0.000  0.000  0.000
    7  0.000  0.000  0.000  0.000
    8  0.000  0.000  0.000  0.000
    9  0.000  0.000  0.000  0.000
   10  0.000  0.000  0.000  0.000
   11  0.000  0.000  0.000  0.000
   12  0.000  0.000  0.000  0.000
   13  0.000  0.000  0.000  0.000
   14  0.000  0.000  0.000  0.000
   15  0.000  0.000  0.000  0.000
   16  0.000  0.000  0.000  0.000
   17  0.000  0.000  0.000  0.000
   18  0.000  0.000  0.000  0.000
   19  0.000  0.000  0.000  0.000
   20  0.000  0.000  0.000  0.000
   21  0.000  0.000  0.000  0.000
   22  0.000  0.000  0.000  0.000
   23  0.000  0.000  0.000  0.000
   24  0.000  0.000  0.000  0.000
   25  0.000  0.000  0.000  0.000
   26  0.000  0.000  0.000  0.000
   27  0.000  0.000  0.000  0.000
   28  0.000  0.000  0.000  0.000
   29  0.000  0.000  0.000  0.000
   30  0.000  0.000  0.000  0.000
   31  0.000  0.000  0.000  0.000
   32  0.000  0.000  0.000  0.000
   33  0.000  0.000  0.000  0.000
   34  0.000  0.000  0.000  0.000
   35  0.000  0.000  0.000  0.000
   36  0.000  0.000  0.000  0.000
   37  0.000  0.000  0.000  0.000
   38  0.000  0.000  0.000  0.000
   39  0.000  0.000  0.000  0.000
tot    0.888  0.000  0.000  0.888

band     5 # energy  -20.89955160 # occ.  2.00000000

ion      s      p      d    tot
    1  0.000  0.000  0.000  0.000
    2  0.000  0.000  0.000  0.000
    3  0.887  0.000  0.000  0.887
    4  0.000  0.000  0.000  0.000
    5  0.000  0.000  0.000  0.000
    6  0.000  0.000  0.000  0.000
    7  0.000  0.000  0.000  0.000
    8  0.000  0.000  0.000  0.000
    9  0.000  0.000  0.000  0.000
   10  0.000  0.000  0.000  0.000
   11  0.000  0.000  0.000  0.000
   12  0.000  0.000  0.000  0.000
   13  0.000  0.000  0.000  0.000
   14  0.000  0.000  0.000  0.000
   15  0.000  0.000  0.000  0.000
   16  0.000  0.000  0.000  0.000
   17  0.000  0.000  0.000  0.000
   18  0.000  0.000  0.000  0.000
   19  0.000  0.000  0.000  0.000
   20  0.000  0.000  0.000  0.000
   21  0.000  0.000  0.000  0.000
   22  0.000  0.000  0.000  0.000
   23  0.000  0.000  0.000  0.000
   24  0.000  0.000  0.000  0.000
   25  0.000  0.000  0.000  0.000
   26  0.000  0.000  0.000  0.000
   27  0.000  0.000  0.000  0.000
   28  0.000  0.000  0.000  0.000
   29  0.000  0.000  0.000  0.000
   30  0.000  0.000  0.000  0.000
   31  0.000  0.000  0.000  0.000
   32  0.000  0.000  0.000  0.000
   33  0.000  0.000  0.000  0.000
   34  0.000  0.000  0.000  0.000
   35  0.000  0.000  0.000  0.000
   36  0.000  0.000  0.000  0.000
   37  0.000  0.000  0.000  0.000
   38  0.000  0.000  0.000  0.000
   39  0.000  0.000  0.000  0.000
tot    0.888  0.000  0.000  0.888

band     6 # energy  -20.88898120 # occ.  2.00000000

ion      s      p      d    tot
    1  0.887  0.000  0.000  0.887
    2  0.000  0.000  0.000  0.000
    3  0.000  0.000  0.000  0.000
    4  0.000  0.000  0.000  0.000
    5  0.000  0.000  0.000  0.000
    6  0.000  0.000  0.000  0.000
    7  0.000  0.000  0.000  0.000
    8  0.000  0.000  0.000  0.000
    9  0.000  0.000  0.000  0.000
   10  0.000  0.000  0.000  0.000
   11  0.000  0.000  0.000  0.000
   12  0.000  0.000  0.000  0.000
   13  0.000  0.000  0.000  0.000
   14  0.000  0.000  0.000  0.000
   15  0.000  0.000  0.000  0.000
   16  0.000  0.000  0.000  0.000
   17  0.000  0.000  0.000  0.000
   18  0.000  0.000  0.000  0.000
   19  0.000  0.000  0.000  0.000
   20  0.000  0.000  0.000  0.000
   21  0.000  0.000  0.000  0.000
   22  0.000  0.000  0.000  0.000
   23  0.000  0.000  0.000  0.000
   24  0.000  0.000  0.000  0.000
   25  0.000  0.000  0.000  0.000
   26  0.000  0.000  0.000  0.000
   27  0.000  0.000  0.000  0.000
   28  0.000  0.000  0.000  0.000
   29  0.000  0.000  0.000  0.000
   30  0.000  0.000  0.000  0.000
   31  0.000  0.000  0.000  0.000
   32  0.000  0.000  0.000  0.000
   33  0.000  0.000  0.000  0.000
   34  0.000  0.000  0.000  0.000
   35  0.000  0.000  0.000  0.000
   36  0.000  0.000  0.000  0.000
   37  0.000  0.000  0.000  0.000
   38  0.000  0.000  0.000  0.000
   39  0.000  0.000  0.000  0.000
tot    0.888  0.000  0.000  0.888

band     7 # energy  -20.81981090 # occ.  2.00000000

ion      s      p      d    tot
    1  0.000  0.000  0.000  0.000
    2  0.000  0.000  0.000  0.000
    3  0.000  0.000  0.000  0.000
    4  0.887  0.000  0.000  0.887
    5  0.000  0.000  0.000  0.000
    6  0.000  0.000  0.000  0.000
    7  0.000  0.000  0.000  0.000
    8  0.000  0.000  0.000  0.000
    9  0.000  0.000  0.000  0.000
   10  0.000  0.000  0.000  0.000
   11  0.000  0.000  0.000  0.000
   12  0.000  0.000  0.000  0.000
   13  0.000  0.000  0.000  0.000
   14  0.000  0.000  0.000  0.000
   15  0.000  0.000  0.000  0.000
   16  0.000  0.000  0.000  0.000
   17  0.000  0.000  0.000  0.000
   18  0.000  0.000  0.000  0.000
   19  0.000  0.000  0.000  0.000
   20  0.000  0.000  0.000  0.000
   21  0.000  0.000  0.000  0.000
   22  0.000  0.000  0.000  0.000
   23  0.000  0.000  0.000  0.000
   24  0.000  0.000  0.000  0.000
   25  0.000  0.000  0.000  0.000
   26  0.000  0.000  0.000  0.000
   27  0.000  0.000  0.000  0.000
   28  0.000  0.000  0.000  0.000
   29  0.000  0.000  0.000  0.000
   30  0.000  0.000  0.000  0.000
   31  0.000  0.000  0.000  0.000
   32  0.000  0.000  0.000  0.000
   33  0.000  0.000  0.000  0.000
   34  0.000  0.000  0.000  0.000
   35  0.000  0.000  0.000  0.000
   36  0.000  0.000  0.000  0.000
   37  0.000  0.000  0.000  0.000
   38  0.000  0.000  0.000  0.000
   39  0.000  0.000  0.000  0.000
tot    0.888  0.000  0.000  0.888

band     8 # energy  -16.74748358 # occ.  2.00000000

ion      s      p      d    tot
    1  0.000  0.000  0.000  0.000
    2  0.000  0.000  0.000  0.000
    3  0.000  0.000  0.000  0.000
    4  0.000  0.000  0.000  0.000
    5  0.000  0.000  0.000  0.000
    6  0.000  0.000  0.000  0.000
    7  0.000  0.000  0.001  0.001
    8  0.000  0.000  0.057  0.057
    9  0.000  0.000  0.000  0.000
   10  0.000  0.000  0.406  0.406
   11  0.000  0.000  0.000  0.000
   12  0.000  0.000  0.405  0.405
   13  0.000  0.000  0.001  0.001
   14  0.000  0.000  0.057  0.057
   15  0.000  0.000  0.000  0.000
   16  0.008  0.000  0.000  0.008
   17  0.000  0.000  0.000  0.000
   18  0.001  0.000  0.000  0.001
   19  0.000  0.000  0.000  0.000
   20  0.000  0.000  0.000  0.000
   21  0.000  0.000  0.000  0.000
   22  0.013  0.000  0.000  0.013
   23  0.000  0.000  0.000  0.000
   24  0.002  0.000  0.000  0.002
   25  0.000  0.000  0.000  0.000
   26  0.000  0.000  0.000  0.000
   27  0.000  0.000  0.000  0.000
   28  0.000  0.000  0.000  0.000
   29  0.000  0.000  0.000  0.000
   30  0.004  0.000  0.000  0.004
   31  0.000  0.000  0.000  0.000
   32  0.002  0.000  0.000  0.002
   33  0.000  0.000  0.000  0.000
   34  0.000  0.000  0.000  0.000
   35  0.000  0.000  0.000  0.000
   36  0.004  0.000  0.000  0.004
   37  0.000  0.000  0.000  0.000
   38  0.000  0.000  0.000  0.000
   39  0.000  0.000  0.000  0.000
tot    0.035  0.000  0.927  0.962

band     9 # energy  -16.71869558 # occ.  2.00000000

ion      s      p      d    tot
    1  0.000  0.000  0.000  0.000
    2  0.000  0.000  0.000  0.000
    3  0.000  0.000  0.000  0.000
    4  0.000  0.000  0.000  0.000
    5  0.000  0.000  0.000  0.000
    6  0.000  0.000  0.000  0.000
    7  0.000  0.000  0.006  0.006
    8  0.000  0.000  0.330  0.330
    9  0.000  0.000  0.002  0.002
   10  0.000  0.000  0.128  0.128
   11  0.000  0.000  0.002  0.002
   12  0.000  0.000  0.127  0.127
   13  0.000  0.000  0.006  0.006
   14  0.000  0.000  0.329  0.329
   15  0.000  0.000  0.000  0.000
   16  0.002  0.000  0.000  0.002
   17  0.000  0.000  0.000  0.000
   18  0.011  0.000  0.000  0.012
   19  0.000  0.000  0.000  0.000
   20  0.006  0.000  0.000  0.006
   21  0.000  0.000  0.000  0.000
   22  0.002  0.000  0.000  0.002
   23  0.000  0.000  0.000  0.000
   24  0.001  0.000  0.000  0.001
   25  0.000  0.000  0.000  0.000
   26  0.001  0.000  0.000  0.001
   27  0.000  0.000  0.000  0.000
   28  0.001  0.000  0.000  0.001
   29  0.000  0.000  0.000  0.000
   30  0.001  0.000  0.000  0.002
   31  0.000  0.000  0.000  0.000
   32  0.001  0.000  0.000  0.001
   33  0.000  0.000  0.000  0.000
   34  0.001  0.000  0.000  0.001
   35  0.000  0.000  0.000  0.000
   36  0.001  0.000  0.000  0.001
   37  0.000  0.000  0.000  0.000
   38  0.001  0.000  0.000  0.001
   39  0.000  0.000  0.000  0.000
tot    0.032  0.000  0.931  0.963

band    10 # energy  -16.71775900 # occ.  2.00000000

ion      s      p      d    tot
    1  0.000  0.000  0.000  0.000
    2  0.000  0.000  0.000  0.000
    3  0.000  0.000  0.000  0.000
    4  0.000  0.000  0.000  0.000
    5  0.000  0.000  0.000  0.000
    6  0.000  0.000  0.000  0.000
    7  0.000  0.000  0.003  0.003
    8  0.000  0.000  0.173  0.173
    9  0.000  0.000  0.003  0.003
   10  0.000  0.000  0.286  0.286
   11  0.000  0.000  0.003  0.003
   12  0.000  0.000  0.287  0.287
   13  0.000  0.000  0.003  0.003
   14  0.000  0.000  0.174  0.174
   15  0.000  0.000  0.000  0.000
   16  0.000  0.000  0.000  0.000
   17  0.000  0.000  0.000  0.000
   18  0.000  0.000  0.000  0.000
   19  0.000  0.000  0.000  0.000
   20  0.000  0.000  0.000  0.000
   21  0.000  0.000  0.000  0.000
   22  0.000  0.000  0.000  0.000
   23  0.000  0.000  0.000  0.000
   24  0.004  0.000  0.000  0.004
   25  0.001  0.000  0.000  0.001
   26  0.001  0.000  0.000  0.001
   27  0.001  0.000  0.000  0.001
   28  0.001  0.000  0.000  0.001
   29  0.000  0.000  0.000  0.000
   30  0.008  0.000  0.000  0.008
   31  0.000  0.000  0.000  0.000
   32  0.004  0.000  0.000  0.004
   33  0.001  0.000  0.000  0.001
   34  0.001  0.000  0.000  0.001
   35  0.000  0.000  0.000  0.000
   36  0.008  0.000  0.000  0.008
   37  0.001  0.000  0.000  0.001
   38  0.001  0.000  0.000  0.001
   39  0.000  0.000  0.000  0.000
tot    0.029  0.001  0.934  0.964

band    11 # energy  -16.70520756 # occ.  2.00000000

ion      s      p      d    tot
    1  0.000  0.000  0.000  0.000
    2  0.000  0.000  0.000  0.000
    3  0.000  0.000  0.000  0.000
    4  0.000  0.000  0.000  0.000
    5  0.000  0.000  0.000  0.000
    6  0.000  0.000  0.000  0.000
    7  0.000  0.000  0.014  0.014
    8  0.000  0.000  0.247  0.247
    9  0.000  0.000  0.016  0.016
   10  0.000  0.000  0.189  0.189
   11  0.000  0.000  0.016  0.016
   12  0.000  0.000  0.189  0.189
   13  0.000  0.000  0.014  0.014
   14  0.000  0.000  0.248  0.248
   15  0.000  0.000  0.000  0.000
   16  0.000  0.000  0.000  0.000
   17  0.000  0.000  0.000  0.000
   18  0.003  0.000  0.000  0.003
   19  0.000  0.000  0.000  0.000
   20  0.002  0.000  0.000  0.002
   21  0.000  0.000  0.000  0.000
   22  0.001  0.000  0.000  0.001
   23  0.000  0.000  0.000  0.000
   24  0.001  0.000  0.000  0.001
   25  0.002  0.000  0.000  0.003
   26  0.002  0.000  0.000  0.002
   27  0.002  0.000  0.000  0.002
   28  0.001  0.000  0.000  0.002
   29  0.000  0.000  0.000  0.000
   30  0.002  0.000  0.000  0.002
   31  0.000  0.000  0.000  0.000
   32  0.001  0.000  0.000  0.001
   33  0.002  0.000  0.000  0.003
   34  0.002  0.000  0.000  0.002
   35  0.000  0.000  0.000  0.000
   36  0.002  0.000  0.000  0.002
   37  0.002  0.000  0.000  0.002
   38  0.001  0.000  0.000  0.002
   39  0.000  0.000  0.000  0.000
tot    0.029  0.001  0.934  0.964

band    12 # energy  -16.67902196 # occ.  2.00000000

ion      s      p      d    tot
    1  0.000  0.000  0.000  0.000
    2  0.000  0.000  0.000  0.000
    3  0.000  0.000  0.000  0.000
    4  0.000  0.000  0.000  0.000
    5  0.000  0.000  0.000  0.000
    6  0.000  0.000  0.000  0.000
    7  0.000  0.000  0.031  0.031
    8  0.000  0.000  0.016  0.016
    9  0.000  0.000  0.001  0.001
   10  0.000  0.000  0.429  0.429
   11  0.000  0.000  0.001  0.001
   12  0.000  0.000  0.430  0.430
   13  0.000  0.000  0.031  0.031
   14  0.000  0.000  0.016  0.016
   15  0.000  0.000  0.000  0.000
   16  0.000  0.000  0.000  0.000
   17  0.000  0.000  0.000  0.000
   18  0.000  0.000  0.000  0.000
   19  0.000  0.000  0.000  0.000
   20  0.000  0.000  0.000  0.000
   21  0.000  0.000  0.000  0.000
   22  0.000  0.001  0.000  0.001
   23  0.000  0.000  0.000  0.000
   24  0.000  0.000  0.000  0.000
   25  0.000  0.000  0.000  0.000
   26  0.003  0.000  0.000  0.003
   27  0.000  0.000  0.000  0.000
   28  0.003  0.000  0.000  0.003
   29  0.000  0.000  0.000  0.000
   30  0.000  0.000  0.000  0.000
   31  0.000  0.000  0.000  0.000
   32  0.000  0.000  0.000  0.000
   33  0.000  0.000  0.000  0.000
   34  0.003  0.000  0.000  0.003
   35  0.000  0.000  0.000  0.000
   36  0.000  0.000  0.000  0.000
   37  0.000  0.000  0.000  0.000
   38  0.003  0.000  0.000  0.003
   39  0.000  0.000  0.000  0.000
tot    0.014  0.001  0.954  0.969

band    13 # energy  -16.67324861 # occ.  2.00000000

ion      s      p      d    tot
    1  0.000  0.000  0.000  0.000
    2  0.000  0.000  0.000  0.000
    3  0.000  0.000  0.000  0.000
    4  0.000  0.000  0.000  0.000
    5  0.000  0.000  0.000  0.000
    6  0.000  0.000  0.000  0.000
    7  0.000  0.000  0.001  0.001
    8  0.000  0.000  0.343  0.343
    9  0.000  0.000  0.036  0.036
   10  0.000  0.000  0.095  0.095
   11  0.000  0.000  0.036  0.036
   12  0.000  0.000  0.095  0.095
   13  0.000  0.000  0.001  0.001
   14  0.000  0.000  0.343  0.343
   15  0.000  0.000  0.000  0.000
   16  0.000  0.000  0.000  0.000
   17  0.000  0.000  0.000  0.000
   18  0.000  0.000  0.000  0.000
   19  0.000  0.000  0.000  0.000
   20  0.000  0.000  0.000  0.000
   21  0.000  0.000  0.000  0.000
   22  0.000  0.000  0.000  0.000
   23  0.000  0.000  0.000  0.000
   24  0.000  0.000  0.000  0.000
   25  0.004  0.000  0.000  0.004
   26  0.000  0.000  0.000  0.000
   27  0.004  0.000  0.000  0.004
   28  0.000  0.000  0.000  0.000
   29  0.000  0.000  0.000  0.000
   30  0.000  0.000  0.000  0.000
   31  0.000  0.000  0.000  0.000
   32  0.000  0.000  0.000  0.000
   33  0.004  0.000  0.000  0.004
   34  0.000  0.000  0.000  0.000
   35  0.000  0.000  0.000  0.000
   36  0.000  0.000  0.000  0.000
   37  0.004  0.000  0.000  0.004
   38  0.000  0.000  0.000  0.000
   39  0.000  0.000  0.000  0.000
tot    0.017  0.001  0.950  0.968

band    14 # energy  -16.66956508 # occ.  2.00000000

ion      s      p      d    tot
    1  0.000  0.000  0.000  0.000
    2  0.000  0.000  0.000  0.000
    3  0.000  0.000  0.000  0.000
    4  0.000  0.000  0.000  0.000
    5  0.000  0.000  0.000  0.000
    6  0.000  0.000  0.000  0.000
    7  0.000  0.000  0.058  0.058
    8  0.000  0.000  0.245  0.245
    9  0.000  0.000  0.022  0.022
   10  0.000  0.000  0.150  0.150
   11  0.000  0.000  0.022  0.022
   12  0.000  0.000  0.151  0.151
   13  0.000  0.000  0.058  0.058
   14  0.000  0.000  0.245  0.245
   15  0.000  0.000  0.000  0.000
   16  0.000  0.000  0.000  0.000
   17  0.001  0.000  0.000  0.001
   18  0.001  0.000  0.000  0.001
   19  0.002  0.000  0.000  0.002
   20  0.000  0.000  0.000  0.000
   21  0.000  0.000  0.000  0.000
   22  0.000  0.000  0.000  0.000
   23  0.000  0.000  0.000  0.000
   24  0.000  0.000  0.000  0.000
   25  0.002  0.000  0.000  0.002
   26  0.001  0.000  0.000  0.001
   27  0.002  0.000  0.000  0.002
   28  0.001  0.000  0.000  0.001
   29  0.000  0.000  0.000  0.000
   30  0.000  0.000  0.000  0.000
   31  0.000  0.000  0.000  0.000
   32  0.000  0.000  0.000  0.000
   33  0.002  0.000  0.000  0.002
   34  0.001  0.000  0.000  0.001
   35  0.000  0.000  0.000  0.000
   36  0.000  0.000  0.000  0.000
   37  0.002  0.000  0.000  0.002
   38  0.001  0.000  0.000  0.001
   39  0.000  0.000  0.000  0.000
tot    0.017  0.001  0.951  0.969

band    15 # energy  -16.65239345 # occ.  2.00000000

ion      s      p      d    tot
    1  0.000  0.000  0.000  0.000
    2  0.000  0.000  0.000  0.000
    3  0.000  0.000  0.000  0.000
    4  0.000  0.000  0.000  0.000
    5  0.000  0.000  0.000  0.000
    6  0.000  0.000  0.000  0.000
    7  0.000  0.000  0.382  0.382
    8  0.000  0.000  0.016  0.016
    9  0.000  0.000  0.037  0.037
   10  0.000  0.000  0.032  0.032
   11  0.000  0.000  0.037  0.037
   12  0.000  0.000  0.032  0.032
   13  0.000  0.000  0.381  0.381
   14  0.000  0.000  0.016  0.016
   15  0.001  0.000  0.000  0.001
   16  0.000  0.000  0.000  0.000
   17  0.008  0.000  0.000  0.008
   18  0.000  0.000  0.000  0.000
   19  0.013  0.000  0.000  0.013
   20  0.000  0.000  0.000  0.000
   21  0.001  0.000  0.000  0.001
   22  0.000  0.000  0.000  0.000
   23  0.001  0.000  0.000  0.001
   24  0.000  0.000  0.000  0.000
   25  0.000  0.000  0.000  0.000
   26  0.000  0.000  0.000  0.000
   27  0.000  0.000  0.000  0.000
   28  0.000  0.000  0.000  0.000
   29  0.002  0.000  0.000  0.002
   30  0.000  0.000  0.000  0.000
   31  0.001  0.000  0.000  0.001
   32  0.000  0.000  0.000  0.000
   33  0.000  0.000  0.000  0.000
   34  0.000  0.000  0.000  0.000
   35  0.002  0.000  0.000  0.002
   36  0.000  0.000  0.000  0.000
   37  0.000  0.000  0.000  0.000
   38  0.000  0.000  0.000  0.000
   39  0.000  0.000  0.000  0.000
tot    0.030  0.000  0.933  0.964

band    16 # energy  -16.64982302 # occ.  2.00000000

ion      s      p      d    tot
    1  0.000  0.000  0.000  0.000
    2  0.000  0.000  0.000  0.000
    3  0.000  0.000  0.000  0.000
    4  0.000  0.000  0.000  0.000
    5  0.000  0.000  0.000  0.000
    6  0.000  0.000  0.000  0.000
    7  0.000  0.000  0.004  0.004
    8  0.000  0.000  0.375  0.375
    9  0.000  0.000  0.002  0.002
   10  0.000  0.000  0.104  0.104
   11  0.000  0.000  0.002  0.002
   12  0.000  0.000  0.104  0.104
   13  0.000  0.000  0.004  0.004
   14  0.000  0.000  0.375  0.375
   15  0.000  0.000  0.000  0.000
   16  0.000  0.000  0.000  0.000
   17  0.000  0.000  0.000  0.000
   18  0.000  0.001  0.000  0.001
   19  0.000  0.000  0.000  0.000
   20  0.000  0.000  0.000  0.000
   21  0.000  0.000  0.000  0.000
   22  0.000  0.000  0.000  0.000
   23  0.000  0.000  0.000  0.000
   24  0.000  0.000  0.000  0.001
   25  0.000  0.000  0.000  0.000
   26  0.000  0.000  0.000  0.000
   27  0.000  0.000  0.000  0.000
   28  0.000  0.000  0.000  0.000
   29  0.000  0.000  0.000  0.000
   30  0.000  0.000  0.000  0.000
   31  0.000  0.000  0.000  0.000
   32  0.000  0.000  0.000  0.001
   33  0.000  0.000  0.000  0.000
   34  0.000  0.000  0.000  0.000
   35  0.000  0.000  0.000  0.000
   36  0.000  0.000  0.000  0.000
   37  0.000  0.000  0.000  0.000
   38  0.000  0.000  0.000  0.000
   39  0.000  0.000  0.000  0.000
tot    0.002  0.002  0.970  0.974

band    17 # energy  -16.61885594 # occ.  2.00000000

ion      s      p      d    tot
    1  0.000  0.000  0.000  0.000
    2  0.000  0.000  0.000  0.000
    3  0.000  0.000  0.000  0.000
    4  0.000  0.000  0.000  0.000
    5  0.000  0.000  0.000  0.000
    6  0.000  0.000  0.000  0.000
    7  0.000  0.000  0.125  0.125
    8  0.000  0.000  0.011  0.011
    9  0.000  0.000  0.313  0.313
   10  0.000  0.000  0.021  0.021
   11  0.000  0.000  0.313  0.313
   12  0.000  0.000  0.021  0.021
   13  0.000  0.000  0.125  0.125
   14  0.000  0.000  0.011  0.011
   15  0.009  0.000  0.000  0.009
   16  0.000  0.000  0.000  0.000
   17  0.001  0.000  0.000  0.001
   18  0.000  0.000  0.000  0.000
   19  0.001  0.000  0.000  0.001
   20  0.000  0.000  0.000  0.000
   21  0.006  0.000  0.000  0.007
   22  0.000  0.000  0.000  0.000
   23  0.001  0.000  0.000  0.001
   24  0.000  0.000  0.000  0.000
   25  0.000  0.000  0.000  0.000
   26  0.000  0.000  0.000  0.000
   27  0.000  0.000  0.000  0.000
   28  0.000  0.000  0.000  0.000
   29  0.002  0.000  0.000  0.002
   30  0.000  0.000  0.000  0.000
   31  0.001  0.000  0.000  0.001
   32  0.000  0.000  0.000  0.000
   33  0.000  0.000  0.000  0.000
   34  0.000  0.000  0.000  0.000
   35  0.002  0.000  0.000  0.002
   36  0.000  0.000  0.000  0.000
   37  0.000  0.000  0.000  0.000
   38  0.000  0.000  0.000  0.000
   39  0.000  0.000  0.000  0.000
tot    0.026  0.001  0.939  0.965

band    18 # energy  -16.61438230 # occ.  2.00000000

ion      s      p      d    tot
    1  0.000  0.000  0.000  0.000
    2  0.000  0.000  0.000  0.000
    3  0.000  0.000  0.000  0.000
    4  0.000  0.000  0.000  0.000
    5  0.000  0.000  0.000  0.000
    6  0.000  0.000  0.000  0.000
    7  0.000  0.000  0.305  0.305
    8  0.000  0.000  0.014  0.014
    9  0.000  0.000  0.141  0.141
   10  0.000  0.000  0.012  0.012
   11  0.000  0.000  0.142  0.142
   12  0.000  0.000  0.012  0.012
   13  0.000  0.000  0.305  0.305
   14  0.000  0.000  0.014  0.014
   15  0.000  0.000  0.000  0.000
   16  0.000  0.000  0.000  0.000
   17  0.000  0.000  0.000  0.000
   18  0.000  0.000  0.000  0.000
   19  0.000  0.000  0.000  0.000
   20  0.000  0.000  0.000  0.000
   21  0.000  0.000  0.000  0.000
   22  0.000  0.000  0.000  0.000
   23  0.004  0.000  0.000  0.004
   24  0.000  0.000  0.000  0.000
   25  0.000  0.000  0.000  0.000
   26  0.000  0.000  0.000  0.000
   27  0.000  0.000  0.000  0.000
   28  0.000  0.000  0.000  0.000
   29  0.006  0.000  0.000  0.006
   30  0.000  0.000  0.000  0.000
   31  0.004  0.000  0.000  0.004
   32  0.000  0.000  0.000  0.000
   33  0.000  0.000  0.000  0.000
   34  0.000  0.000  0.000  0.000
   35  0.006  0.000  0.000  0.006
   36  0.000  0.000  0.000  0.000
   37  0.000  0.000  0.000  0.000
   38  0.000  0.000  0.000  0.000
   39  0.000  0.000  0.000  0.000
tot    0.021  0.001  0.945  0.967

band    19 # energy  -16.60450454 # occ.  2.00000000

ion      s      p      d    tot
    1  0.000  0.000  0.000  0.000
    2  0.000  0.000  0.000  0.000
    3  0.000  0.000  0.000  0.000
    4  0.000  0.000  0.000  0.000
    5  0.000  0.000  0.000  0.000
    6  0.000  0.000  0.000  0.000
    7  0.000  0.000  0.196  0.196
    8  0.000  0.000  0.026  0.026
    9  0.000  0.000  0.240  0.240
   10  0.000  0.000  0.012  0.012
   11  0.000  0.000  0.241  0.241
   12  0.000  0.000  0.012  0.012
   13  0.000  0.000  0.196  0.196
   14  0.000  0.000  0.026  0.026
   15  0.004  0.000  0.000  0.004
   16  0.000  0.000  0.000  0.000
   17  0.000  0.000  0.000  0.000
   18  0.000  0.000  0.000  0.000
   19  0.000  0.000  0.000  0.000
   20  0.000  0.000  0.000  0.000
   21  0.003  0.000  0.000  0.003
   22  0.000  0.000  0.000  0.000
   23  0.001  0.000  0.000  0.001
   24  0.000  0.000  0.000  0.000
   25  0.001  0.000  0.000  0.001
   26  0.001  0.000  0.000  0.001
   27  0.000  0.000  0.000  0.001
   28  0.000  0.000  0.000  0.001
   29  0.002  0.000  0.000  0.002
   30  0.000  0.000  0.000  0.000
   31  0.001  0.000  0.000  0.001
   32  0.000  0.000  0.000  0.000
   33  0.001  0.000  0.000  0.001
   34  0.001  0.000  0.000  0.001
   35  0.002  0.000  0.000  0.002
   36  0.000  0.000  0.000  0.000
   37  0.000  0.000  0.000  0.001
   38  0.000  0.000  0.000  0.001
   39  0.000  0.000  0.000  0.000
tot    0.018  0.001  0.949  0.968

band    20 # energy  -16.60124740 # occ.  2.00000000

ion      s      p      d    tot
    1  0.000  0.000  0.000  0.000
    2  0.000  0.000  0.000  0.000
    3  0.000  0.000  0.000  0.000
    4  0.000  0.000  0.000  0.000
    5  0.000  0.000  0.000  0.000
    6  0.000  0.000  0.000  0.000
    7  0.000  0.000  0.002  0.002
    8  0.000  0.000  0.001  0.001
    9  0.000  0.000  0.002  0.002
   10  0.000  0.000  0.493  0.493
   11  0.000  0.000  0.002  0.002
   12  0.000  0.000  0.473  0.473
   13  0.000  0.000  0.002  0.002
   14  0.000  0.000  0.001  0.001
   15  0.000  0.000  0.000  0.000
   16  0.001  0.000  0.000  0.001
   17  0.000  0.000  0.000  0.000
   18  0.000  0.000  0.000  0.000
   19  0.000  0.000  0.000  0.000
   20  0.000  0.000  0.000  0.000
   21  0.000  0.000  0.000  0.000
   22  0.000  0.000  0.000  0.000
   23  0.000  0.000  0.000  0.000
   24  0.000  0.000  0.000  0.000
   25  0.000  0.000  0.000  0.000
   26  0.000  0.000  0.000  0.000
   27  0.000  0.000  0.000  0.000
   28  0.000  0.000  0.000  0.000
   29  0.000  0.000  0.000  0.000
   30  0.000  0.000  0.000  0.000
   31  0.000  0.000  0.000  0.000
   32  0.000  0.000  0.000  0.000
   33  0.000  0.000  0.000  0.000
   34  0.000  0.000  0.000  0.000
   35  0.000  0.000  0.000  0.000
   36  0.000  0.000  0.000  0.000
   37  0.000  0.000  0.000  0.000
   38  0.000  0.000  0.000  0.000
   39  0.000  0.000  0.000  0.000
tot    0.001  0.000  0.975  0.977

band    21 # energy  -16.59861052 # occ.  2.00000000

ion      s      p      d    tot
    1  0.000  0.000  0.000  0.000
    2  0.000  0.000  0.000  0.000
    3  0.000  0.000  0.000  0.000
    4  0.000  0.000  0.000  0.000
    5  0.000  0.000  0.000  0.000
    6  0.000  0.000  0.000  0.000
    7  0.000  0.000  0.004  0.004
    8  0.000  0.000  0.001  0.001
    9  0.000  0.000  0.000  0.000
   10  0.000  0.000  0.473  0.473
   11  0.000  0.000  0.000  0.000
   12  0.000  0.000  0.493  0.493
   13  0.000  0.000  0.004  0.004
   14  0.000  0.000  0.001  0.001
   15  0.000  0.000  0.000  0.000
   16  0.000  0.000  0.000  0.000
   17  0.000  0.000  0.000  0.000
   18  0.000  0.000  0.000  0.000
   19  0.000  0.000  0.000  0.000
   20  0.000  0.000  0.000  0.000
   21  0.000  0.000  0.000  0.000
   22  0.000  0.000  0.000  0.000
   23  0.000  0.000  0.000  0.000