CsPbBr3 cubic bulk                      
           1
     8.420018    0.000000    8.077981
     0.000000   11.763808    0.000000
    -8.420018    0.000000    8.077981
   Cs   Pb   Br   Cs
   6   8  24   1
Direct configuration=     1
   0.26910700  0.25000100  0.19373000
   0.77204900  0.25000100  0.71975000
   0.21156600  0.75000100  0.76061800
   0.29584300  0.24999800  0.74766800
   0.79026400  0.24999800  0.22227600
   0.25211100  0.75000100  0.25851700
   0.99363300  0.99463000  0.99418000
   0.49479000  0.00600000  0.50027400
   0.50760600  0.99430300  0.00003200
   0.00694000  0.00522800  0.50006700
   0.50761000  0.50570500  0.00003200
   0.00693900  0.49477100  0.50007800
   0.99363200  0.50536800  0.99416800
   0.49479300  0.49400000  0.50027000
   0.45051100  0.75000100  0.97660700
   0.03111000  0.74999500  0.46746900
   0.97295600  0.25000000  0.96760600
   0.44498200  0.25000000  0.46866300
   0.04440300  0.75000200  0.02399700
   0.47162600  0.75000200  0.52300400
   0.52892800  0.25000100  0.02569100
   0.03049800  0.25000000  0.55178200
   0.24685700  0.47340500  0.95357400
   0.74621100  0.44814300  0.45906500
   0.44585700  0.51390800  0.24729600
   0.94346000  0.54189500  0.74146400
   0.54632100  0.04162000  0.74971500
   0.05230500  0.03660800  0.24843800
   0.75276700  0.97165700  0.06926200
   0.24988700  0.99246500  0.56714700
   0.24685900  0.02659900  0.95357200
   0.74621300  0.05185800  0.45906200
   0.44585700  0.98609100  0.24729600
   0.94345900  0.95810300  0.74146300
   0.75277000  0.52834400  0.06926300
   0.24988900  0.50753200  0.56714400
   0.54632100  0.45837900  0.74971700
   0.05230300  0.46338700  0.24843500
   0.74201500  0.74999800  0.38128400
