  20  20   1   0
  0.4028821E+02  0.8411074E-09  0.1199908E-08  0.7983778E-09  0.5000000E-15
   1.0000000000000000E-004
  CAR 
 CsPbBr3 cubic bulk                      
      8.56028787    -22.21037549  301      0.48298874      1.00000000
    -22.210  0.0000E+00  0.0000E+00
    -22.108  0.0000E+00  0.0000E+00
    -22.005  0.0000E+00  0.0000E+00
    -21.903  0.0000E+00  0.0000E+00
    -21.800  0.0000E+00  0.0000E+00
    -21.698  0.0000E+00  0.0000E+00
    -21.595  0.0000E+00  0.0000E+00
    -21.492  0.0000E+00  0.0000E+00
    -21.390  0.0000E+00  0.0000E+00
    -21.287  0.0000E+00  0.0000E+00
    -21.185  0.0000E+00  0.0000E+00
    -21.082  0.0000E+00  0.0000E+00
    -20.980  0.0000E+00  0.0000E+00
    -20.877  0.0000E+00  0.0000E+00
    -20.774  0.7800E+02  0.8000E+01
    -20.672  0.0000E+00  0.8000E+01
    -20.569  0.0000E+00  0.8000E+01
    -20.467  0.0000E+00  0.8000E+01
    -20.364  0.0000E+00  0.8000E+01
    -20.262  0.0000E+00  0.8000E+01
    -20.159  0.0000E+00  0.8000E+01
    -20.056  0.0000E+00  0.8000E+01
    -19.954  0.0000E+00  0.8000E+01
    -19.851  0.0000E+00  0.8000E+01
    -19.749  0.0000E+00  0.8000E+01
    -19.646  0.0000E+00  0.8000E+01
    -19.544  0.0000E+00  0.8000E+01
    -19.441  0.0000E+00  0.8000E+01
    -19.338  0.0000E+00  0.8000E+01
    -19.236  0.0000E+00  0.8000E+01
    -19.133  0.0000E+00  0.8000E+01
    -19.031  0.0000E+00  0.8000E+01
    -18.928  0.0000E+00  0.8000E+01
    -18.826  0.0000E+00  0.8000E+01
    -18.723  0.0000E+00  0.8000E+01
    -18.620  0.0000E+00  0.8000E+01
    -18.518  0.0000E+00  0.8000E+01
    -18.415  0.0000E+00  0.8000E+01
    -18.313  0.0000E+00  0.8000E+01
    -18.210  0.0000E+00  0.8000E+01
    -18.108  0.0000E+00  0.8000E+01
    -18.005  0.0000E+00  0.8000E+01
    -17.902  0.0000E+00  0.8000E+01
    -17.800  0.0000E+00  0.8000E+01
    -17.697  0.0000E+00  0.8000E+01
    -17.595  0.0000E+00  0.8000E+01
    -17.492  0.0000E+00  0.8000E+01
    -17.390  0.0000E+00  0.8000E+01
    -17.287  0.0000E+00  0.8000E+01
    -17.185  0.0000E+00  0.8000E+01
    -17.082  0.0000E+00  0.8000E+01
    -16.979  0.0000E+00  0.8000E+01
    -16.877  0.0000E+00  0.8000E+01
    -16.774  0.0000E+00  0.8000E+01
    -16.672  0.0000E+00  0.8000E+01
    -16.569  0.0000E+00  0.8000E+01
    -16.467  0.3422E+02  0.1151E+02
    -16.364  0.7802E+02  0.2400E+02
    -16.261  0.2340E+03  0.4800E+02
    -16.159  0.0000E+00  0.4800E+02
    -16.056  0.0000E+00  0.4800E+02
    -15.954  0.0000E+00  0.4800E+02
    -15.851  0.0000E+00  0.4800E+02
    -15.749  0.0000E+00  0.4800E+02
    -15.646  0.0000E+00  0.4800E+02
    -15.543  0.0000E+00  0.4800E+02
    -15.441  0.0000E+00  0.4800E+02
    -15.338  0.0000E+00  0.4800E+02
    -15.236  0.0000E+00  0.4800E+02
    -15.133  0.0000E+00  0.4800E+02
    -15.031  0.0000E+00  0.4800E+02
    -14.928  0.0000E+00  0.4800E+02
    -14.825  0.0000E+00  0.4800E+02
    -14.723  0.0000E+00  0.4800E+02
    -14.620  0.0000E+00  0.4800E+02
    -14.518  0.0000E+00  0.4800E+02
    -14.415  0.0000E+00  0.4800E+02
    -14.313  0.1081E+01  0.4811E+02
    -14.210  0.1948E+02  0.5011E+02
    -14.107  0.3038E+02  0.5323E+02
    -14.005  0.2708E+02  0.5744E+02
    -13.902  0.5763E+02  0.6369E+02
    -13.800  0.5061E+02  0.6975E+02
    -13.697  0.1842E+02  0.7200E+02
    -13.595  0.0000E+00  0.7200E+02
    -13.492  0.0000E+00  0.7200E+02
    -13.389  0.0000E+00  0.7200E+02
    -13.287  0.0000E+00  0.7200E+02
    -13.184  0.0000E+00  0.7200E+02
    -13.082  0.0000E+00  0.7200E+02
    -12.979  0.0000E+00  0.7200E+02
    -12.877  0.0000E+00  0.7200E+02
    -12.774  0.0000E+00  0.7200E+02
    -12.671  0.0000E+00  0.7200E+02
    -12.569  0.0000E+00  0.7200E+02
    -12.466  0.0000E+00  0.7200E+02
    -12.364  0.0000E+00  0.7200E+02
    -12.261  0.0000E+00  0.7200E+02
    -12.159  0.0000E+00  0.7200E+02
    -12.056  0.0000E+00  0.7200E+02
    -11.953  0.0000E+00  0.7200E+02
    -11.851  0.0000E+00  0.7200E+02
    -11.748  0.0000E+00  0.7200E+02
    -11.646  0.0000E+00  0.7200E+02
    -11.543  0.0000E+00  0.7200E+02
    -11.441  0.0000E+00  0.7200E+02
    -11.338  0.0000E+00  0.7200E+02
    -11.236  0.0000E+00  0.7200E+02
    -11.133  0.0000E+00  0.7200E+02
    -11.030  0.0000E+00  0.7200E+02
    -10.928  0.0000E+00  0.7200E+02
    -10.825  0.0000E+00  0.7200E+02
    -10.723  0.0000E+00  0.7200E+02
    -10.620  0.0000E+00  0.7200E+02
    -10.518  0.0000E+00  0.7200E+02
    -10.415  0.0000E+00  0.7200E+02
    -10.312  0.0000E+00  0.7200E+02
    -10.210  0.0000E+00  0.7200E+02
    -10.107  0.0000E+00  0.7200E+02
    -10.005  0.0000E+00  0.7200E+02
     -9.902  0.0000E+00  0.7200E+02
     -9.800  0.0000E+00  0.7200E+02
     -9.697  0.0000E+00  0.7200E+02
     -9.594  0.0000E+00  0.7200E+02
     -9.492  0.0000E+00  0.7200E+02
     -9.389  0.0000E+00  0.7200E+02
     -9.287  0.0000E+00  0.7200E+02
     -9.184  0.0000E+00  0.7200E+02
     -9.082  0.0000E+00  0.7200E+02
     -8.979  0.0000E+00  0.7200E+02
     -8.876  0.0000E+00  0.7200E+02
     -8.774  0.0000E+00  0.7200E+02
     -8.671  0.0000E+00  0.7200E+02
     -8.569  0.0000E+00  0.7200E+02
     -8.466  0.0000E+00  0.7200E+02
     -8.364  0.0000E+00  0.7200E+02
     -8.261  0.0000E+00  0.7200E+02
     -8.158  0.8196E+00  0.7208E+02
     -8.056  0.0000E+00  0.7211E+02
     -7.953  0.1930E+01  0.7231E+02
     -7.851  0.4533E-06  0.7278E+02
     -7.748  0.4731E+01  0.7326E+02
     -7.646  0.1083E+01  0.7422E+02
     -7.543  0.1300E+02  0.7556E+02
     -7.440  0.7909E+01  0.7637E+02
     -7.338  0.1285E+02  0.7776E+02
     -7.235  0.2648E+02  0.8049E+02
     -7.133  0.1640E+03  0.1024E+03
     -7.030  0.2089E+01  0.1030E+03
     -6.928  0.1308E+00  0.1032E+03
     -6.825  0.2167E+01  0.1039E+03
     -6.722  0.0000E+00  0.1039E+03
     -6.620  0.1203E-15  0.1039E+03
     -6.517  0.1083E+01  0.1040E+03
     -6.415  0.0000E+00  0.1040E+03
     -6.312  0.0000E+00  0.1040E+03
     -6.210  0.0000E+00  0.1040E+03
     -6.107  0.0000E+00  0.1040E+03
     -6.004  0.0000E+00  0.1040E+03
     -5.902  0.0000E+00  0.1040E+03
     -5.799  0.0000E+00  0.1040E+03
     -5.697  0.0000E+00  0.1040E+03
     -5.594  0.0000E+00  0.1040E+03
     -5.492  0.0000E+00  0.1040E+03
     -5.389  0.0000E+00  0.1040E+03
     -5.287  0.0000E+00  0.1040E+03
     -5.184  0.0000E+00  0.1040E+03
     -5.081  0.0000E+00  0.1040E+03
     -4.979  0.0000E+00  0.1040E+03
     -4.876  0.0000E+00  0.1040E+03
     -4.774  0.0000E+00  0.1040E+03
     -4.671  0.0000E+00  0.1040E+03
     -4.569  0.0000E+00  0.1040E+03
     -4.466  0.0000E+00  0.1040E+03
     -4.363  0.0000E+00  0.1040E+03
     -4.261  0.0000E+00  0.1040E+03
     -4.158  0.0000E+00  0.1040E+03
     -4.056  0.0000E+00  0.1040E+03
     -3.953  0.0000E+00  0.1040E+03
     -3.851  0.0000E+00  0.1040E+03
     -3.748  0.0000E+00  0.1040E+03
     -3.645  0.0000E+00  0.1040E+03
     -3.543  0.0000E+00  0.1040E+03
     -3.440  0.0000E+00  0.1040E+03
     -3.338  0.3843E-08  0.1040E+03
     -3.235  0.5421E+01  0.1046E+03
     -3.133  0.2791E+02  0.1076E+03
     -3.030  0.7838E+01  0.1085E+03
     -2.927  0.1044E+02  0.1096E+03
     -2.825  0.4673E+01  0.1105E+03
     -2.722  0.1912E+02  0.1133E+03
     -2.620  0.6500E+01  0.1140E+03
     -2.517  0.1235E-06  0.1140E+03
     -2.415  0.1125E+02  0.1152E+03
     -2.312  0.2166E+02  0.1178E+03
     -2.209  0.1094E+02  0.1189E+03
     -2.107  0.1723E+02  0.1211E+03
     -2.004  0.2025E+02  0.1240E+03
     -1.902  0.1516E+02  0.1268E+03
     -1.799  0.4692E+01  0.1273E+03
     -1.697  0.2911E+02  0.1309E+03
     -1.594  0.3082E+02  0.1345E+03
     -1.491  0.2900E+02  0.1375E+03
     -1.389  0.4702E+02  0.1433E+03
     -1.286  0.5649E+02  0.1506E+03
     -1.184  0.5023E+02  0.1566E+03
     -1.081  0.5052E+02  0.1637E+03
     -0.979  0.2819E+02  0.1679E+03
     -0.876  0.4892E+01  0.1685E+03
     -0.773  0.2274E+02  0.1710E+03
     -0.671  0.2345E+01  0.1712E+03
     -0.568  0.9416E+01  0.1726E+03
     -0.466  0.6497E+01  0.1742E+03
     -0.363  0.4333E+01  0.1747E+03
     -0.261  0.0000E+00  0.1747E+03
     -0.158  0.2118E+01  0.1749E+03
     -0.055  0.7582E+01  0.1757E+03
      0.047  0.2167E+01  0.1759E+03
      0.150  0.0000E+00  0.1759E+03
      0.252  0.0000E+00  0.1759E+03
      0.355  0.1323E-14  0.1759E+03
      0.457  0.1083E+01  0.1760E+03
      0.560  0.0000E+00  0.1760E+03
      0.662  0.0000E+00  0.1760E+03
      0.765  0.0000E+00  0.1760E+03
      0.868  0.0000E+00  0.1760E+03
      0.970  0.0000E+00  0.1760E+03
      1.073  0.0000E+00  0.1760E+03
      1.175  0.0000E+00  0.1760E+03
      1.278  0.0000E+00  0.1760E+03
      1.380  0.0000E+00  0.1760E+03
      1.483  0.0000E+00  0.1760E+03
      1.586  0.0000E+00  0.1760E+03
      1.688  0.0000E+00  0.1760E+03
      1.791  0.0000E+00  0.1760E+03
      1.893  0.0000E+00  0.1760E+03
      1.996  0.0000E+00  0.1760E+03
      2.098  0.0000E+00  0.1760E+03
      2.201  0.0000E+00  0.1760E+03
      2.304  0.0000E+00  0.1760E+03
      2.406  0.0000E+00  0.1760E+03
      2.509  0.0000E+00  0.1760E+03
      2.611  0.4599E-05  0.1760E+03
      2.714  0.1083E+01  0.1761E+03
      2.816  0.1738E+01  0.1763E+03
      2.919  0.4135E+01  0.1771E+03
      3.022  0.2167E+01  0.1774E+03
      3.124  0.8607E+01  0.1783E+03
      3.227  0.5416E+01  0.1791E+03
      3.329  0.8667E+01  0.1800E+03
      3.432  0.2166E+01  0.1802E+03
      3.534  0.5323E+01  0.1808E+03
      3.637  0.3581E-01  0.1809E+03
      3.740  0.6500E+01  0.1818E+03
      3.842  0.8512E+01  0.1827E+03
      3.945  0.6258E+01  0.1835E+03
      4.047  0.4316E+01  0.1844E+03
      4.150  0.8840E+01  0.1854E+03
      4.252  0.3763E+01  0.1859E+03
      4.355  0.9371E+01  0.1872E+03
      4.458  0.3772E-08  0.1880E+03
      4.560  0.8672E+01  0.1889E+03
      4.663  0.4333E+01  0.1898E+03
      4.765  0.2159E+01  0.1900E+03
      4.868  0.4848E+01  0.1905E+03
      4.970  0.0000E+00  0.1906E+03
      5.073  0.2968E+01  0.1909E+03
      5.176  0.3004E+01  0.1922E+03
      5.278  0.1046E+02  0.1941E+03
      5.381  0.1083E+02  0.1952E+03
      5.483  0.3420E+01  0.1956E+03
      5.586  0.4333E+01  0.1962E+03
      5.688  0.4334E+01  0.1967E+03
      5.791  0.2390E+00  0.1969E+03
      5.893  0.4910E+01  0.1985E+03
      5.996  0.1430E+02  0.2001E+03
      6.099  0.4318E+01  0.2020E+03
      6.201  0.9383E+01  0.2031E+03
      6.304  0.1749E+02  0.2049E+03
      6.406  0.1896E+02  0.2074E+03
      6.509  0.4193E+01  0.2087E+03
      6.611  0.1527E+02  0.2110E+03
      6.714  0.2656E+02  0.2146E+03
      6.817  0.1856E+02  0.2168E+03
      6.919  0.1727E+02  0.2198E+03
      7.022  0.1649E+02  0.2217E+03
      7.124  0.1544E+02  0.2234E+03
      7.227  0.4333E+01  0.2240E+03
      7.329  0.0000E+00  0.2240E+03
      7.432  0.0000E+00  0.2240E+03
      7.535  0.0000E+00  0.2240E+03
      7.637  0.0000E+00  0.2240E+03
      7.740  0.0000E+00  0.2240E+03
      7.842  0.0000E+00  0.2240E+03
      7.945  0.0000E+00  0.2240E+03
      8.047  0.0000E+00  0.2240E+03
      8.150  0.0000E+00  0.2240E+03
      8.253  0.0000E+00  0.2240E+03
      8.355  0.0000E+00  0.2240E+03
      8.458  0.0000E+00  0.2240E+03
      8.560  0.0000E+00  0.2240E+03
      8.56028787    -22.21037549  301      0.48298874      1.00000000
    -22.210  0.0000E+00  0.0000E+00  0.0000E+00
    -22.108  0.0000E+00  0.0000E+00  0.0000E+00
    -22.005  0.0000E+00  0.0000E+00  0.0000E+00
    -21.903  0.0000E+00  0.0000E+00  0.0000E+00
    -21.800  0.0000E+00  0.0000E+00  0.0000E+00
    -21.698  0.0000E+00  0.0000E+00  0.0000E+00
    -21.595  0.0000E+00  0.0000E+00  0.0000E+00
    -21.492  0.0000E+00  0.0000E+00  0.0000E+00
    -21.390  0.0000E+00  0.0000E+00  0.0000E+00
    -21.287  0.0000E+00  0.0000E+00  0.0000E+00
    -21.185  0.0000E+00  0.0000E+00  0.0000E+00
    -21.082  0.0000E+00  0.0000E+00  0.0000E+00
    -20.980  0.0000E+00  0.0000E+00  0.0000E+00
    -20.877  0.0000E+00  0.0000E+00  0.0000E+00
    -20.774  0.1731E+02  0.7956E-05  0.4199E-05
    -20.672  0.0000E+00  0.0000E+00  0.0000E+00
    -20.569  0.0000E+00  0.0000E+00  0.0000E+00
    -20.467  0.0000E+00  0.0000E+00  0.0000E+00
    -20.364  0.0000E+00  0.0000E+00  0.0000E+00
    -20.262  0.0000E+00  0.0000E+00  0.0000E+00
    -20.159  0.0000E+00  0.0000E+00  0.0000E+00
    -20.056  0.0000E+00  0.0000E+00  0.0000E+00
    -19.954  0.0000E+00  0.0000E+00  0.0000E+00
    -19.851  0.0000E+00  0.0000E+00  0.0000E+00
    -19.749  0.0000E+00  0.0000E+00  0.0000E+00
    -19.646  0.0000E+00  0.0000E+00  0.0000E+00
    -19.544  0.0000E+00  0.0000E+00  0.0000E+00
    -19.441  0.0000E+00  0.0000E+00  0.0000E+00
    -19.338  0.0000E+00  0.0000E+00  0.0000E+00
    -19.236  0.0000E+00  0.0000E+00  0.0000E+00
    -19.133  0.0000E+00  0.0000E+00  0.0000E+00
    -19.031  0.0000E+00  0.0000E+00  0.0000E+00
    -18.928  0.0000E+00  0.0000E+00  0.0000E+00
    -18.826  0.0000E+00  0.0000E+00  0.0000E+00
    -18.723  0.0000E+00  0.0000E+00  0.0000E+00
    -18.620  0.0000E+00  0.0000E+00  0.0000E+00
    -18.518  0.0000E+00  0.0000E+00  0.0000E+00
    -18.415  0.0000E+00  0.0000E+00  0.0000E+00
    -18.313  0.0000E+00  0.0000E+00  0.0000E+00
    -18.210  0.0000E+00  0.0000E+00  0.0000E+00
    -18.108  0.0000E+00  0.0000E+00  0.0000E+00
    -18.005  0.0000E+00  0.0000E+00  0.0000E+00
    -17.902  0.0000E+00  0.0000E+00  0.0000E+00
    -17.800  0.0000E+00  0.0000E+00  0.0000E+00
    -17.697  0.0000E+00  0.0000E+00  0.0000E+00
    -17.595  0.0000E+00  0.0000E+00  0.0000E+00
    -17.492  0.0000E+00  0.0000E+00  0.0000E+00
    -17.390  0.0000E+00  0.0000E+00  0.0000E+00
    -17.287  0.0000E+00  0.0000E+00  0.0000E+00
    -17.185  0.0000E+00  0.0000E+00  0.0000E+00
    -17.082  0.0000E+00  0.0000E+00  0.0000E+00
    -16.979  0.0000E+00  0.0000E+00  0.0000E+00
    -16.877  0.0000E+00  0.0000E+00  0.0000E+00
    -16.774  0.0000E+00  0.0000E+00  0.0000E+00
    -16.672  0.0000E+00  0.0000E+00  0.0000E+00
    -16.569  0.0000E+00  0.0000E+00  0.0000E+00
    -16.467  0.5589E-04  0.3175E-04  0.7910E-05
    -16.364  0.2576E-04  0.4221E-04  0.4423E-05
    -16.261  0.6649E-04  0.3818E-04  0.4721E-05
    -16.159  0.0000E+00  0.0000E+00  0.0000E+00
    -16.056  0.0000E+00  0.0000E+00  0.0000E+00
    -15.954  0.0000E+00  0.0000E+00  0.0000E+00
    -15.851  0.0000E+00  0.0000E+00  0.0000E+00
    -15.749  0.0000E+00  0.0000E+00  0.0000E+00
    -15.646  0.0000E+00  0.0000E+00  0.0000E+00
    -15.543  0.0000E+00  0.0000E+00  0.0000E+00
    -15.441  0.0000E+00  0.0000E+00  0.0000E+00
    -15.338  0.0000E+00  0.0000E+00  0.0000E+00
    -15.236  0.0000E+00  0.0000E+00  0.0000E+00
    -15.133  0.0000E+00  0.0000E+00  0.0000E+00
    -15.031  0.0000E+00  0.0000E+00  0.0000E+00
    -14.928  0.0000E+00  0.0000E+00  0.0000E+00
    -14.825  0.0000E+00  0.0000E+00  0.0000E+00
    -14.723  0.0000E+00  0.0000E+00  0.0000E+00
    -14.620  0.0000E+00  0.0000E+00  0.0000E+00
    -14.518  0.0000E+00  0.0000E+00  0.0000E+00
    -14.415  0.0000E+00  0.0000E+00  0.0000E+00
    -14.313  0.4399E-03  0.2277E-05  0.1031E-05
    -14.210  0.3991E-02  0.2466E-02  0.4153E-04
    -14.107  0.1650E-02  0.5091E-02  0.1702E-03
    -14.005  0.1857E-02  0.4136E-02  0.3343E-03
    -13.902  0.1732E-02  0.5650E-02  0.4683E-03
    -13.800  0.1117E-02  0.3591E-02  0.5331E-03
    -13.697  0.5223E-03  0.1153E-02  0.1584E-03
    -13.595  0.0000E+00  0.0000E+00  0.0000E+00
    -13.492  0.0000E+00  0.0000E+00  0.0000E+00
    -13.389  0.0000E+00  0.0000E+00  0.0000E+00
    -13.287  0.0000E+00  0.0000E+00  0.0000E+00
    -13.184  0.0000E+00  0.0000E+00  0.0000E+00
    -13.082  0.0000E+00  0.0000E+00  0.0000E+00
    -12.979  0.0000E+00  0.0000E+00  0.0000E+00
    -12.877  0.0000E+00  0.0000E+00  0.0000E+00
    -12.774  0.0000E+00  0.0000E+00  0.0000E+00
    -12.671  0.0000E+00  0.0000E+00  0.0000E+00
    -12.569  0.0000E+00  0.0000E+00  0.0000E+00
    -12.466  0.0000E+00  0.0000E+00  0.0000E+00
    -12.364  0.0000E+00  0.0000E+00  0.0000E+00
    -12.261  0.0000E+00  0.0000E+00  0.0000E+00
    -12.159  0.0000E+00  0.0000E+00  0.0000E+00
    -12.056  0.0000E+00  0.0000E+00  0.0000E+00
    -11.953  0.0000E+00  0.0000E+00  0.0000E+00
    -11.851  0.0000E+00  0.0000E+00  0.0000E+00
    -11.748  0.0000E+00  0.0000E+00  0.0000E+00
    -11.646  0.0000E+00  0.0000E+00  0.0000E+00
    -11.543  0.0000E+00  0.0000E+00  0.0000E+00
    -11.441  0.0000E+00  0.0000E+00  0.0000E+00
    -11.338  0.0000E+00  0.0000E+00  0.0000E+00
    -11.236  0.0000E+00  0.0000E+00  0.0000E+00
    -11.133  0.0000E+00  0.0000E+00  0.0000E+00
    -11.030  0.0000E+00  0.0000E+00  0.0000E+00
    -10.928  0.0000E+00  0.0000E+00  0.0000E+00
    -10.825  0.0000E+00  0.0000E+00  0.0000E+00
    -10.723  0.0000E+00  0.0000E+00  0.0000E+00
    -10.620  0.0000E+00  0.0000E+00  0.0000E+00
    -10.518  0.0000E+00  0.0000E+00  0.0000E+00
    -10.415  0.0000E+00  0.0000E+00  0.0000E+00
    -10.312  0.0000E+00  0.0000E+00  0.0000E+00
    -10.210  0.0000E+00  0.0000E+00  0.0000E+00
    -10.107  0.0000E+00  0.0000E+00  0.0000E+00
    -10.005  0.0000E+00  0.0000E+00  0.0000E+00
     -9.902  0.0000E+00  0.0000E+00  0.0000E+00
     -9.800  0.0000E+00  0.0000E+00  0.0000E+00
     -9.697  0.0000E+00  0.0000E+00  0.0000E+00
     -9.594  0.0000E+00  0.0000E+00  0.0000E+00
     -9.492  0.0000E+00  0.0000E+00  0.0000E+00
     -9.389  0.0000E+00  0.0000E+00  0.0000E+00
     -9.287  0.0000E+00  0.0000E+00  0.0000E+00
     -9.184  0.0000E+00  0.0000E+00  0.0000E+00
     -9.082  0.0000E+00  0.0000E+00  0.0000E+00
     -8.979  0.0000E+00  0.0000E+00  0.0000E+00
     -8.876  0.0000E+00  0.0000E+00  0.0000E+00
     -8.774  0.0000E+00  0.0000E+00  0.0000E+00
     -8.671  0.0000E+00  0.0000E+00  0.0000E+00
     -8.569  0.0000E+00  0.0000E+00  0.0000E+00
     -8.466  0.0000E+00  0.0000E+00  0.0000E+00
     -8.364  0.0000E+00  0.0000E+00  0.0000E+00
     -8.261  0.0000E+00  0.0000E+00  0.0000E+00
     -8.158  0.3410E-16  0.8206E-05  0.4709E-05
     -8.056  0.0000E+00  0.0000E+00  0.0000E+00
     -7.953  0.1676E-07  0.1672E-02  0.8368E-05
     -7.851  0.3501E-24  0.6335E-09  0.3202E-11
     -7.748  0.4735E-06  0.7110E-02  0.3206E-04
     -7.646  0.2355E-07  0.5183E-02  0.2102E-05
     -7.543  0.1341E-04  0.6508E-01  0.5785E-04
     -7.440  0.9620E-05  0.9151E-01  0.3350E-04
     -7.338  0.4420E-04  0.3882E+00  0.3416E-04
     -7.235  0.3765E-04  0.4155E+01  0.3537E-04
     -7.133  0.5089E-04  0.3063E+02  0.7253E-04
     -7.030  0.1049E-04  0.5697E-01  0.1016E-04
     -6.928  0.1265E-05  0.1047E-02  0.3230E-06
     -6.825  0.1428E-04  0.8258E-02  0.1239E-04
     -6.722  0.0000E+00  0.0000E+00  0.0000E+00
     -6.620  0.1246E-20  0.2872E-18  0.1240E-21
     -6.517  0.1122E-04  0.2587E-02  0.1117E-05
     -6.415  0.0000E+00  0.0000E+00  0.0000E+00
     -6.312  0.0000E+00  0.0000E+00  0.0000E+00
     -6.210  0.0000E+00  0.0000E+00  0.0000E+00
     -6.107  0.0000E+00  0.0000E+00  0.0000E+00
     -6.004  0.0000E+00  0.0000E+00  0.0000E+00
     -5.902  0.0000E+00  0.0000E+00  0.0000E+00
     -5.799  0.0000E+00  0.0000E+00  0.0000E+00
     -5.697  0.0000E+00  0.0000E+00  0.0000E+00
     -5.594  0.0000E+00  0.0000E+00  0.0000E+00
     -5.492  0.0000E+00  0.0000E+00  0.0000E+00
     -5.389  0.0000E+00  0.0000E+00  0.0000E+00
     -5.287  0.0000E+00  0.0000E+00  0.0000E+00
     -5.184  0.0000E+00  0.0000E+00  0.0000E+00
     -5.081  0.0000E+00  0.0000E+00  0.0000E+00
     -4.979  0.0000E+00  0.0000E+00  0.0000E+00
     -4.876  0.0000E+00  0.0000E+00  0.0000E+00
     -4.774  0.0000E+00  0.0000E+00  0.0000E+00
     -4.671  0.0000E+00  0.0000E+00  0.0000E+00
     -4.569  0.0000E+00  0.0000E+00  0.0000E+00
     -4.466  0.0000E+00  0.0000E+00  0.0000E+00
     -4.363  0.0000E+00  0.0000E+00  0.0000E+00
     -4.261  0.0000E+00  0.0000E+00  0.0000E+00
     -4.158  0.0000E+00  0.0000E+00  0.0000E+00
     -4.056  0.0000E+00  0.0000E+00  0.0000E+00
     -3.953  0.0000E+00  0.0000E+00  0.0000E+00
     -3.851  0.0000E+00  0.0000E+00  0.0000E+00
     -3.748  0.0000E+00  0.0000E+00  0.0000E+00
     -3.645  0.0000E+00  0.0000E+00  0.0000E+00
     -3.543  0.0000E+00  0.0000E+00  0.0000E+00
     -3.440  0.0000E+00  0.0000E+00  0.0000E+00
     -3.338  0.1547E-12  0.7837E-11  0.8551E-13
     -3.235  0.1275E-03  0.7786E-02  0.2690E-03
     -3.133  0.3051E-03  0.3005E-01  0.3276E-02
     -3.030  0.1093E-06  0.2321E-02  0.8522E-03
     -2.927  0.4889E-03  0.1483E-01  0.6910E-03
     -2.825  0.2411E-05  0.4162E-02  0.5379E-03
     -2.722  0.6633E-03  0.1871E-01  0.1455E-02
     -2.620  0.1898E-16  0.2780E-02  0.2957E-03
     -2.517  0.1245E-11  0.2305E-09  0.1747E-10
     -2.415  0.5327E-03  0.2313E-01  0.1302E-02
     -2.312  0.2191E-02  0.1645E-01  0.2785E-02
     -2.209  0.3597E-02  0.7590E-02  0.1245E-02
     -2.107  0.8054E-02  0.2403E-01  0.1902E-02
     -2.004  0.1741E-01  0.2808E-01  0.4266E-02
     -1.902  0.7353E-02  0.4269E-01  0.2111E-02
     -1.799  0.7405E-04  0.3103E-01  0.6135E-03
     -1.697  0.3635E-02  0.1040E+00  0.8847E-02
     -1.594  0.1654E-02  0.9602E-01  0.1248E-01
     -1.491  0.2377E-02  0.6931E-01  0.1246E-01
     -1.389  0.3081E-02  0.7188E-01  0.2264E-01
     -1.286  0.5321E-02  0.8503E-01  0.1883E-01
     -1.184  0.3437E-02  0.7574E-01  0.1233E-01
     -1.081  0.1729E-02  0.7812E-01  0.1361E-01
     -0.979  0.1274E-02  0.2056E-01  0.5239E-02
     -0.876  0.7216E-04  0.5232E-02  0.1493E-02
     -0.773  0.1318E-02  0.2886E-01  0.5849E-02
     -0.671  0.1202E-03  0.1626E-02  0.2107E-03
     -0.568  0.4990E-03  0.2545E-02  0.1491E-02
     -0.466  0.3008E-03  0.2872E-02  0.6654E-03
     -0.363  0.1021E-16  0.3056E-02  0.4431E-04
     -0.261  0.0000E+00  0.0000E+00  0.0000E+00
     -0.158  0.1780E-10  0.7471E-04  0.2904E-03
     -0.055  0.3842E-05  0.1570E-02  0.1204E-02
      0.047  0.1921E-05  0.2809E-03  0.2381E-03
      0.150  0.0000E+00  0.0000E+00  0.0000E+00
      0.252  0.0000E+00  0.0000E+00  0.0000E+00
      0.355  0.1757E-30  0.3654E-19  0.1173E-18
      0.457  0.1438E-15  0.2992E-04  0.9603E-04
      0.560  0.0000E+00  0.0000E+00  0.0000E+00
      0.662  0.0000E+00  0.0000E+00  0.0000E+00
      0.765  0.0000E+00  0.0000E+00  0.0000E+00
      0.868  0.0000E+00  0.0000E+00  0.0000E+00
      0.970  0.0000E+00  0.0000E+00  0.0000E+00
      1.073  0.0000E+00  0.0000E+00  0.0000E+00
      1.175  0.0000E+00  0.0000E+00  0.0000E+00
      1.278  0.0000E+00  0.0000E+00  0.0000E+00
      1.380  0.0000E+00  0.0000E+00  0.0000E+00
      1.483  0.0000E+00  0.0000E+00  0.0000E+00
      1.586  0.0000E+00  0.0000E+00  0.0000E+00
      1.688  0.0000E+00  0.0000E+00  0.0000E+00
      1.791  0.0000E+00  0.0000E+00  0.0000E+00
      1.893  0.0000E+00  0.0000E+00  0.0000E+00
      1.996  0.0000E+00  0.0000E+00  0.0000E+00
      2.098  0.0000E+00  0.0000E+00  0.0000E+00
      2.201  0.0000E+00  0.0000E+00  0.0000E+00
      2.304  0.0000E+00  0.0000E+00  0.0000E+00
      2.406  0.0000E+00  0.0000E+00  0.0000E+00
      2.509  0.0000E+00  0.0000E+00  0.0000E+00
      2.611  0.8190E-10  0.6930E-09  0.2045E-08
      2.714  0.1929E-04  0.1632E-03  0.4816E-03
      2.816  0.3053E-04  0.1507E-03  0.1236E-02
      2.919  0.8066E-05  0.8598E-03  0.1761E-02
      3.022  0.2470E-03  0.1624E-03  0.1129E-02
      3.124  0.3308E-03  0.4158E-02  0.1945E-02
      3.227  0.4002E-03  0.1221E-02  0.9811E-03
      3.329  0.8005E-03  0.5038E-02  0.2908E-02
      3.432  0.6015E-04  0.3510E-03  0.2887E-03
      3.534  0.9324E-03  0.1612E-02  0.2677E-02
      3.637  0.3089E-17  0.5661E-05  0.4839E-04
      3.740  0.5956E-03  0.1399E-02  0.4813E-02
      3.842  0.5750E-03  0.1972E-02  0.7262E-02
      3.945  0.6950E-03  0.4292E-03  0.3113E-02
      4.047  0.6116E-03  0.8431E-03  0.1698E-02
      4.150  0.1692E-03  0.1636E-02  0.3309E-02
      4.252  0.2040E-03  0.1160E-02  0.8995E-03
      4.355  0.6739E-03  0.2940E-02  0.8809E-02
      4.458  0.4976E-12  0.6221E-12  0.1235E-11
      4.560  0.1145E-02  0.1431E-02  0.2842E-02
      4.663  0.5283E-03  0.1642E-02  0.1642E-02
      4.765  0.1331E-02  0.7690E-03  0.1164E-02
      4.868  0.8251E-02  0.3650E-03  0.6318E-02
      4.970  0.0000E+00  0.0000E+00  0.0000E+00
      5.073  0.1298E-04  0.1173E-02  0.2950E-02
      5.176  0.1854E-03  0.5463E-03  0.3305E-02
      5.278  0.2451E-01  0.9808E-02  0.6809E-02
      5.381  0.7915E-02  0.6526E-02  0.1114E-01
      5.483  0.1181E-01  0.1865E-02  0.5732E-02
      5.586  0.4201E-14  0.2420E-03  0.1464E-01
      5.688  0.7742E-04  0.3410E-03  0.7380E-02
      5.791  0.5259E-03  0.9624E-04  0.5716E-03
      5.893  0.9286E-07  0.3706E-03  0.4495E-02
      5.996  0.5168E-01  0.2036E-01  0.8993E-01
      6.099  0.6175E-02  0.1573E-02  0.5873E-01
      6.201  0.1170E-01  0.5415E-02  0.2016E+00
      6.304  0.6850E-01  0.3390E-01  0.3012E+00
      6.406  0.6301E-01  0.2531E-01  0.3966E+00
      6.509  0.1603E-02  0.1623E-02  0.1273E+00
      6.611  0.2122E-01  0.1988E-01  0.4342E+00
      6.714  0.4928E-01  0.5419E-01  0.6565E+00
      6.817  0.9059E-02  0.4050E-01  0.5306E+00
      6.919  0.6040E-02  0.1339E-01  0.6936E+00
      7.022  0.2329E-01  0.3845E-01  0.5902E+00
      7.124  0.1105E-01  0.4579E-01  0.4072E+00
      7.227  0.2635E-03  0.1188E-01  0.1764E+00
      7.329  0.0000E+00  0.0000E+00  0.0000E+00
      7.432  0.0000E+00  0.0000E+00  0.0000E+00
      7.535  0.0000E+00  0.0000E+00  0.0000E+00
      7.637  0.0000E+00  0.0000E+00  0.0000E+00
      7.740  0.0000E+00  0.0000E+00  0.0000E+00
      7.842  0.0000E+00  0.0000E+00  0.0000E+00
      7.945  0.0000E+00  0.0000E+00  0.0000E+00
      8.047  0.0000E+00  0.0000E+00  0.0000E+00
      8.150  0.0000E+00  0.0000E+00  0.0000E+00
      8.253  0.0000E+00  0.0000E+00  0.0000E+00
      8.355  0.0000E+00  0.0000E+00  0.0000E+00
      8.458  0.0000E+00  0.0000E+00  0.0000E+00
      8.560  0.0000E+00  0.0000E+00  0.0000E+00
      8.56028787    -22.21037549  301      0.48298874      1.00000000
    -22.210  0.0000E+00  0.0000E+00  0.0000E+00
    -22.108  0.0000E+00  0.0000E+00  0.0000E+00
    -22.005  0.0000E+00  0.0000E+00  0.0000E+00
    -21.903  0.0000E+00  0.0000E+00  0.0000E+00
    -21.800  0.0000E+00  0.0000E+00  0.0000E+00
    -21.698  0.0000E+00  0.0000E+00  0.0000E+00
    -21.595  0.0000E+00  0.0000E+00  0.0000E+00
    -21.492  0.0000E+00  0.0000E+00  0.0000E+00
    -21.390  0.0000E+00  0.0000E+00  0.0000E+00
    -21.287  0.0000E+00  0.0000E+00  0.0000E+00
    -21.185  0.0000E+00  0.0000E+00  0.0000E+00
    -21.082  0.0000E+00  0.0000E+00  0.0000E+00
    -20.980  0.0000E+00  0.0000E+00  0.0000E+00
    -20.877  0.0000E+00  0.0000E+00  0.0000E+00
    -20.774  0.1731E+02  0.7953E-05  0.4218E-05
    -20.672  0.0000E+00  0.0000E+00  0.0000E+00
    -20.569  0.0000E+00  0.0000E+00  0.0000E+00
    -20.467  0.0000E+00  0.0000E+00  0.0000E+00
    -20.364  0.0000E+00  0.0000E+00  0.0000E+00
    -20.262  0.0000E+00  0.0000E+00  0.0000E+00
    -20.159  0.0000E+00  0.0000E+00  0.0000E+00
    -20.056  0.0000E+00  0.0000E+00  0.0000E+00
    -19.954  0.0000E+00  0.0000E+00  0.0000E+00
    -19.851  0.0000E+00  0.0000E+00  0.0000E+00
    -19.749  0.0000E+00  0.0000E+00  0.0000E+00
    -19.646  0.0000E+00  0.0000E+00  0.0000E+00
    -19.544  0.0000E+00  0.0000E+00  0.0000E+00
    -19.441  0.0000E+00  0.0000E+00  0.0000E+00
    -19.338  0.0000E+00  0.0000E+00  0.0000E+00
    -19.236  0.0000E+00  0.0000E+00  0.0000E+00
    -19.133  0.0000E+00  0.0000E+00  0.0000E+00
    -19.031  0.0000E+00  0.0000E+00  0.0000E+00
    -18.928  0.0000E+00  0.0000E+00  0.0000E+00
    -18.826  0.0000E+00  0.0000E+00  0.0000E+00
    -18.723  0.0000E+00  0.0000E+00  0.0000E+00
    -18.620  0.0000E+00  0.0000E+00  0.0000E+00
    -18.518  0.0000E+00  0.0000E+00  0.0000E+00
    -18.415  0.0000E+00  0.0000E+00  0.0000E+00
    -18.313  0.0000E+00  0.0000E+00  0.0000E+00
    -18.210  0.0000E+00  0.0000E+00  0.0000E+00
    -18.108  0.0000E+00  0.0000E+00  0.0000E+00
    -18.005  0.0000E+00  0.0000E+00  0.0000E+00
    -17.902  0.0000E+00  0.0000E+00  0.0000E+00
    -17.800  0.0000E+00  0.0000E+00  0.0000E+00
    -17.697  0.0000E+00  0.0000E+00  0.0000E+00
    -17.595  0.0000E+00  0.0000E+00  0.0000E+00
    -17.492  0.0000E+00  0.0000E+00  0.0000E+00
    -17.390  0.0000E+00  0.0000E+00  0.0000E+00
    -17.287  0.0000E+00  0.0000E+00  0.0000E+00
    -17.185  0.0000E+00  0.0000E+00  0.0000E+00
    -17.082  0.0000E+00  0.0000E+00  0.0000E+00
    -16.979  0.0000E+00  0.0000E+00  0.0000E+00
    -16.877  0.0000E+00  0.0000E+00  0.0000E+00
    -16.774  0.0000E+00  0.0000E+00  0.0000E+00
    -16.672  0.0000E+00  0.0000E+00  0.0000E+00
    -16.569  0.0000E+00  0.0000E+00  0.0000E+00
    -16.467  0.4621E-04  0.2382E-04  0.5537E-05
    -16.364  0.1981E-04  0.5476E-04  0.5675E-05
    -16.261  0.6638E-04  0.3785E-04  0.4690E-05
    -16.159  0.0000E+00  0.0000E+00  0.0000E+00
    -16.056  0.0000E+00  0.0000E+00  0.0000E+00
    -15.954  0.0000E+00  0.0000E+00  0.0000E+00
    -15.851  0.0000E+00  0.0000E+00  0.0000E+00
    -15.749  0.0000E+00  0.0000E+00  0.0000E+00
    -15.646  0.0000E+00  0.0000E+00  0.0000E+00
    -15.543  0.0000E+00  0.0000E+00  0.0000E+00
    -15.441  0.0000E+00  0.0000E+00  0.0000E+00
    -15.338  0.0000E+00  0.0000E+00  0.0000E+00
    -15.236  0.0000E+00  0.0000E+00  0.0000E+00
    -15.133  0.0000E+00  0.0000E+00  0.0000E+00
    -15.031  0.0000E+00  0.0000E+00  0.0000E+00
    -14.928  0.0000E+00  0.0000E+00  0.0000E+00
    -14.825  0.0000E+00  0.0000E+00  0.0000E+00
    -14.723  0.0000E+00  0.0000E+00  0.0000E+00
    -14.620  0.0000E+00  0.0000E+00  0.0000E+00
    -14.518  0.0000E+00  0.0000E+00  0.0000E+00
    -14.415  0.0000E+00  0.0000E+00  0.0000E+00
    -14.313  0.4399E-03  0.2277E-05  0.1031E-05
    -14.210  0.4338E-02  0.1974E-02  0.5230E-04
    -14.107  0.1958E-02  0.5846E-02  0.1526E-03
    -14.005  0.3680E-03  0.1615E-02  0.1539E-03
    -13.902  0.2227E-02  0.6323E-02  0.7138E-03
    -13.800  0.1495E-02  0.3696E-02  0.4665E-03
    -13.697  0.5566E-03  0.1117E-02  0.1480E-03
    -13.595  0.0000E+00  0.0000E+00  0.0000E+00
    -13.492  0.0000E+00  0.0000E+00  0.0000E+00
    -13.389  0.0000E+00  0.0000E+00  0.0000E+00
    -13.287  0.0000E+00  0.0000E+00  0.0000E+00
    -13.184  0.0000E+00  0.0000E+00  0.0000E+00
    -13.082  0.0000E+00  0.0000E+00  0.0000E+00