CsPbBr3 cubic bulk                      
           1
     8.411074    0.000000    0.000000
     0.000000   11.999084    0.000000
     0.000000    0.000000    7.983778
   Cs   Pb   Br
   4   4  12
Direct configuration=     1
   0.06329066  0.25000000  0.47947147
   0.43670934  0.75000000  0.97947147
   0.56329066  0.25000000  0.02052853
   0.93670934  0.75000000  0.52052853
   0.00000000  0.00000000  0.00000000
   0.50000000  0.00000000  0.50000000
   0.50000000  0.50000000  0.50000000
   0.00000000  0.50000000  0.00000000
   0.50345107  0.75000000  0.44609807
   0.99654893  0.25000000  0.94609807
   0.00345107  0.75000000  0.05390193
   0.49654893  0.25000000  0.55390193
   0.30386604  0.46946829  0.19093737
   0.19613396  0.53053171  0.69093737
   0.80386604  0.03053171  0.30906263
   0.69613396  0.96946829  0.80906263
   0.30386604  0.03053171  0.19093737
   0.19613396  0.96946829  0.69093737
   0.69613396  0.53053171  0.80906263
   0.80386604  0.46946829  0.30906263
