  40  40   1   0
  0.4040437E+02  0.1173535E-08  0.1173535E-08  0.1173535E-08  0.5000000E-15
   1.0000000000000000E-004
  CAR 
 CsPbBr3 cubic bulk                      
      8.15449120    -22.21453320  301      0.58754262      1.00000000
    -22.215  0.0000E+00  0.0000E+00
    -22.113  0.0000E+00  0.0000E+00
    -22.012  0.0000E+00  0.0000E+00
    -21.911  0.0000E+00  0.0000E+00
    -21.810  0.0000E+00  0.0000E+00
    -21.708  0.0000E+00  0.0000E+00
    -21.607  0.0000E+00  0.0000E+00
    -21.506  0.0000E+00  0.0000E+00
    -21.405  0.0000E+00  0.0000E+00
    -21.303  0.0000E+00  0.0000E+00
    -21.202  0.0000E+00  0.0000E+00
    -21.101  0.0000E+00  0.0000E+00
    -21.000  0.0000E+00  0.0000E+00
    -20.899  0.0000E+00  0.0000E+00
    -20.797  0.1581E+03  0.1600E+02
    -20.696  0.0000E+00  0.1600E+02
    -20.595  0.0000E+00  0.1600E+02
    -20.494  0.0000E+00  0.1600E+02
    -20.392  0.0000E+00  0.1600E+02
    -20.291  0.0000E+00  0.1600E+02
    -20.190  0.0000E+00  0.1600E+02
    -20.089  0.0000E+00  0.1600E+02
    -19.987  0.0000E+00  0.1600E+02
    -19.886  0.0000E+00  0.1600E+02
    -19.785  0.0000E+00  0.1600E+02
    -19.684  0.0000E+00  0.1600E+02
    -19.583  0.0000E+00  0.1600E+02
    -19.481  0.0000E+00  0.1600E+02
    -19.380  0.0000E+00  0.1600E+02
    -19.279  0.0000E+00  0.1600E+02
    -19.178  0.0000E+00  0.1600E+02
    -19.076  0.0000E+00  0.1600E+02
    -18.975  0.0000E+00  0.1600E+02
    -18.874  0.0000E+00  0.1600E+02
    -18.773  0.0000E+00  0.1600E+02
    -18.671  0.0000E+00  0.1600E+02
    -18.570  0.0000E+00  0.1600E+02
    -18.469  0.0000E+00  0.1600E+02
    -18.368  0.0000E+00  0.1600E+02
    -18.267  0.0000E+00  0.1600E+02
    -18.165  0.0000E+00  0.1600E+02
    -18.064  0.0000E+00  0.1600E+02
    -17.963  0.0000E+00  0.1600E+02
    -17.862  0.0000E+00  0.1600E+02
    -17.760  0.0000E+00  0.1600E+02
    -17.659  0.0000E+00  0.1600E+02
    -17.558  0.0000E+00  0.1600E+02
    -17.457  0.0000E+00  0.1600E+02
    -17.355  0.0000E+00  0.1600E+02
    -17.254  0.0000E+00  0.1600E+02
    -17.153  0.0000E+00  0.1600E+02
    -17.052  0.0000E+00  0.1600E+02
    -16.951  0.0000E+00  0.1600E+02
    -16.849  0.0000E+00  0.1600E+02
    -16.748  0.0000E+00  0.1600E+02
    -16.647  0.0000E+00  0.1600E+02
    -16.546  0.8958E-07  0.1600E+02
    -16.444  0.1272E+03  0.2888E+02
    -16.343  0.1410E+03  0.4802E+02
    -16.242  0.3753E+03  0.9600E+02
    -16.141  0.0000E+00  0.9600E+02
    -16.039  0.0000E+00  0.9600E+02
    -15.938  0.0000E+00  0.9600E+02
    -15.837  0.0000E+00  0.9600E+02
    -15.736  0.0000E+00  0.9600E+02
    -15.635  0.0000E+00  0.9600E+02
    -15.533  0.0000E+00  0.9600E+02
    -15.432  0.0000E+00  0.9600E+02
    -15.331  0.0000E+00  0.9600E+02
    -15.230  0.0000E+00  0.9600E+02
    -15.128  0.0000E+00  0.9600E+02
    -15.027  0.0000E+00  0.9600E+02
    -14.926  0.0000E+00  0.9600E+02
    -14.825  0.0000E+00  0.9600E+02
    -14.724  0.0000E+00  0.9600E+02
    -14.622  0.0000E+00  0.9600E+02
    -14.521  0.0000E+00  0.9600E+02
    -14.420  0.0000E+00  0.9600E+02
    -14.319  0.2464E+01  0.9625E+02
    -14.217  0.4407E+02  0.1007E+03
    -14.116  0.7713E+02  0.1106E+03
    -14.015  0.2320E+02  0.1138E+03
    -13.914  0.7831E+02  0.1222E+03
    -13.812  0.1134E+03  0.1347E+03
    -13.711  0.6437E+02  0.1438E+03
    -13.610  0.0000E+00  0.1440E+03
    -13.509  0.0000E+00  0.1440E+03
    -13.408  0.0000E+00  0.1440E+03
    -13.306  0.0000E+00  0.1440E+03
    -13.205  0.0000E+00  0.1440E+03
    -13.104  0.0000E+00  0.1440E+03
    -13.003  0.0000E+00  0.1440E+03
    -12.901  0.0000E+00  0.1440E+03
    -12.800  0.0000E+00  0.1440E+03
    -12.699  0.0000E+00  0.1440E+03
    -12.598  0.0000E+00  0.1440E+03
    -12.496  0.0000E+00  0.1440E+03
    -12.395  0.0000E+00  0.1440E+03
    -12.294  0.0000E+00  0.1440E+03
    -12.193  0.0000E+00  0.1440E+03
    -12.092  0.0000E+00  0.1440E+03
    -11.990  0.0000E+00  0.1440E+03
    -11.889  0.0000E+00  0.1440E+03
    -11.788  0.0000E+00  0.1440E+03
    -11.687  0.0000E+00  0.1440E+03
    -11.585  0.0000E+00  0.1440E+03
    -11.484  0.0000E+00  0.1440E+03
    -11.383  0.0000E+00  0.1440E+03
    -11.282  0.0000E+00  0.1440E+03
    -11.180  0.0000E+00  0.1440E+03
    -11.079  0.0000E+00  0.1440E+03
    -10.978  0.0000E+00  0.1440E+03
    -10.877  0.0000E+00  0.1440E+03
    -10.776  0.0000E+00  0.1440E+03
    -10.674  0.0000E+00  0.1440E+03
    -10.573  0.0000E+00  0.1440E+03
    -10.472  0.0000E+00  0.1440E+03
    -10.371  0.0000E+00  0.1440E+03
    -10.269  0.0000E+00  0.1440E+03
    -10.168  0.0000E+00  0.1440E+03
    -10.067  0.0000E+00  0.1440E+03
     -9.966  0.0000E+00  0.1440E+03
     -9.864  0.0000E+00  0.1440E+03
     -9.763  0.0000E+00  0.1440E+03
     -9.662  0.0000E+00  0.1440E+03
     -9.561  0.0000E+00  0.1440E+03
     -9.460  0.0000E+00  0.1440E+03
     -9.358  0.0000E+00  0.1440E+03
     -9.257  0.0000E+00  0.1440E+03
     -9.156  0.0000E+00  0.1440E+03
     -9.055  0.0000E+00  0.1440E+03
     -8.953  0.0000E+00  0.1440E+03
     -8.852  0.0000E+00  0.1440E+03
     -8.751  0.0000E+00  0.1440E+03
     -8.650  0.0000E+00  0.1440E+03
     -8.548  0.0000E+00  0.1440E+03
     -8.447  0.0000E+00  0.1440E+03
     -8.346  0.0000E+00  0.1440E+03
     -8.245  0.0000E+00  0.1440E+03
     -8.144  0.2470E+01  0.1442E+03
     -8.042  0.0000E+00  0.1442E+03
     -7.941  0.9878E+01  0.1452E+03
     -7.840  0.4939E+01  0.1457E+03
     -7.739  0.1479E+02  0.1472E+03
     -7.637  0.1976E+02  0.1492E+03
     -7.536  0.9878E+01  0.1502E+03
     -7.435  0.3211E+02  0.1535E+03
     -7.334  0.5902E+01  0.1541E+03
     -7.232  0.2060E+03  0.1756E+03
     -7.131  0.2074E+03  0.2045E+03
     -7.030  0.9880E+01  0.2058E+03
     -6.929  0.9876E+01  0.2068E+03
     -6.828  0.1537E+00  0.2068E+03
     -6.726  0.0000E+00  0.2078E+03
     -6.625  0.0000E+00  0.2078E+03
     -6.524  0.2324E+01  0.2080E+03
     -6.423  0.0000E+00  0.2080E+03
     -6.321  0.0000E+00  0.2080E+03
     -6.220  0.0000E+00  0.2080E+03
     -6.119  0.0000E+00  0.2080E+03
     -6.018  0.0000E+00  0.2080E+03
     -5.916  0.0000E+00  0.2080E+03
     -5.815  0.0000E+00  0.2080E+03
     -5.714  0.0000E+00  0.2080E+03
     -5.613  0.0000E+00  0.2080E+03
     -5.512  0.0000E+00  0.2080E+03
     -5.410  0.0000E+00  0.2080E+03
     -5.309  0.0000E+00  0.2080E+03
     -5.208  0.0000E+00  0.2080E+03
     -5.107  0.0000E+00  0.2080E+03
     -5.005  0.0000E+00  0.2080E+03
     -4.904  0.0000E+00  0.2080E+03
     -4.803  0.0000E+00  0.2080E+03
     -4.702  0.0000E+00  0.2080E+03
     -4.600  0.0000E+00  0.2080E+03
     -4.499  0.0000E+00  0.2080E+03
     -4.398  0.0000E+00  0.2080E+03
     -4.297  0.0000E+00  0.2080E+03
     -4.196  0.0000E+00  0.2080E+03
     -4.094  0.0000E+00  0.2080E+03
     -3.993  0.0000E+00  0.2080E+03
     -3.892  0.0000E+00  0.2080E+03
     -3.791  0.0000E+00  0.2080E+03
     -3.689  0.0000E+00  0.2080E+03
     -3.588  0.0000E+00  0.2080E+03
     -3.487  0.2373E+00  0.2080E+03
     -3.386  0.2613E+02  0.2109E+03
     -3.285  0.2470E+01  0.2120E+03
     -3.183  0.2263E-01  0.2120E+03
     -3.082  0.1984E+02  0.2145E+03
     -2.981  0.2896E+02  0.2179E+03
     -2.880  0.9325E+00  0.2196E+03
     -2.778  0.0000E+00  0.2200E+03
     -2.677  0.2953E-09  0.2200E+03
     -2.576  0.4780E+02  0.2248E+03
     -2.475  0.4990E+02  0.2301E+03
     -2.373  0.3570E+02  0.2346E+03
     -2.272  0.3507E+02  0.2386E+03
     -2.171  0.2979E+02  0.2430E+03
     -2.070  0.8288E+01  0.2453E+03
     -1.969  0.5433E+02  0.2527E+03
     -1.867  0.6187E+01  0.2534E+03
     -1.766  0.2007E+02  0.2565E+03
     -1.665  0.4829E+02  0.2636E+03
     -1.564  0.5191E+02  0.2700E+03
     -1.462  0.7457E+02  0.2778E+03
     -1.361  0.9137E+02  0.2917E+03
     -1.260  0.6420E+02  0.3012E+03
     -1.159  0.8687E+02  0.3100E+03
     -1.057  0.1474E+03  0.3274E+03
     -0.956  0.2488E+02  0.3343E+03
     -0.855  0.2914E+02  0.3377E+03
     -0.754  0.3949E+02  0.3432E+03
     -0.653  0.1358E+02  0.3446E+03
     -0.551  0.5491E+00  0.3453E+03
     -0.450  0.1324E+01  0.3474E+03
     -0.349  0.3532E+00  0.3475E+03
     -0.248  0.2081E+00  0.3485E+03
     -0.146  0.9878E+01  0.3498E+03
     -0.045  0.9878E+01  0.3507E+03
      0.056  0.6550E-02  0.3508E+03
      0.157  0.9872E+01  0.3518E+03
      0.259  0.0000E+00  0.3518E+03
      0.360  0.0000E+00  0.3518E+03
      0.461  0.4591E-01  0.3518E+03
      0.562  0.0000E+00  0.3520E+03
      0.663  0.0000E+00  0.3520E+03
      0.765  0.0000E+00  0.3520E+03
      0.866  0.0000E+00  0.3520E+03
      0.967  0.0000E+00  0.3520E+03
      1.068  0.0000E+00  0.3520E+03
      1.170  0.0000E+00  0.3520E+03
      1.271  0.0000E+00  0.3520E+03
      1.372  0.0000E+00  0.3520E+03
      1.473  0.0000E+00  0.3520E+03
      1.575  0.0000E+00  0.3520E+03
      1.676  0.0000E+00  0.3520E+03
      1.777  0.0000E+00  0.3520E+03
      1.878  0.0000E+00  0.3520E+03
      1.979  0.0000E+00  0.3520E+03
      2.081  0.0000E+00  0.3520E+03
      2.182  0.0000E+00  0.3520E+03
      2.283  0.0000E+00  0.3520E+03
      2.384  0.0000E+00  0.3520E+03
      2.486  0.0000E+00  0.3520E+03
      2.587  0.0000E+00  0.3520E+03
      2.688  0.0000E+00  0.3520E+03
      2.789  0.7376E+01  0.3527E+03
      2.891  0.1098E-03  0.3528E+03
      2.992  0.1974E+02  0.3547E+03
      3.093  0.1258E+02  0.3560E+03
      3.194  0.3457E+02  0.3597E+03
      3.295  0.5469E+01  0.3603E+03
      3.397  0.1917E+02  0.3632E+03
      3.498  0.1894E+01  0.3634E+03
      3.599  0.0000E+00  0.3640E+03
      3.700  0.0000E+00  0.3640E+03
      3.802  0.0000E+00  0.3640E+03
      3.903  0.0000E+00  0.3640E+03
      4.004  0.0000E+00  0.3640E+03
      4.105  0.9426E+01  0.3650E+03
      4.207  0.9878E+01  0.3660E+03
      4.308  0.2855E+02  0.3689E+03
      4.409  0.2954E+02  0.3720E+03
      4.510  0.1976E+02  0.3740E+03
      4.611  0.4445E+02  0.3785E+03
      4.713  0.1164E+02  0.3797E+03
      4.814  0.2963E+02  0.3828E+03
      4.915  0.2880E+02  0.3857E+03
      5.016  0.1388E+02  0.3872E+03
      5.118  0.0000E+00  0.3882E+03
      5.219  0.0000E+00  0.3882E+03
      5.320  0.2634E-11  0.3883E+03
      5.421  0.1464E+02  0.3897E+03
      5.523  0.1408E+02  0.3912E+03
      5.624  0.1234E+02  0.3925E+03
      5.725  0.2717E+02  0.3952E+03
      5.826  0.1235E+02  0.3965E+03
      5.927  0.3958E+02  0.4005E+03
      6.029  0.9878E+01  0.4025E+03
      6.130  0.3045E+02  0.4056E+03
      6.231  0.2201E+02  0.4097E+03
      6.332  0.3951E+02  0.4147E+03
      6.434  0.1230E+02  0.4160E+03
      6.535  0.6595E+01  0.4167E+03
      6.636  0.4289E+02  0.4221E+03
      6.737  0.6449E+02  0.4315E+03
      6.839  0.2470E+01  0.4320E+03
      6.940  0.0000E+00  0.4320E+03
      7.041  0.0000E+00  0.4320E+03
      7.142  0.0000E+00  0.4320E+03
      7.243  0.0000E+00  0.4320E+03
      7.345  0.0000E+00  0.4320E+03
      7.446  0.0000E+00  0.4320E+03
      7.547  0.0000E+00  0.4320E+03
      7.648  0.0000E+00  0.4320E+03
      7.750  0.0000E+00  0.4320E+03
      7.851  0.0000E+00  0.4320E+03
      7.952  0.0000E+00  0.4320E+03
      8.053  0.0000E+00  0.4320E+03
      8.154  0.0000E+00  0.4320E+03
      8.15449120    -22.21453320  301      0.58754262      1.00000000
    -22.215  0.0000E+00  0.0000E+00  0.0000E+00
    -22.113  0.0000E+00  0.0000E+00  0.0000E+00
    -22.012  0.0000E+00  0.0000E+00  0.0000E+00
    -21.911  0.0000E+00  0.0000E+00  0.0000E+00
    -21.810  0.0000E+00  0.0000E+00  0.0000E+00
    -21.708  0.0000E+00  0.0000E+00  0.0000E+00
    -21.607  0.0000E+00  0.0000E+00  0.0000E+00
    -21.506  0.0000E+00  0.0000E+00  0.0000E+00
    -21.405  0.0000E+00  0.0000E+00  0.0000E+00
    -21.303  0.0000E+00  0.0000E+00  0.0000E+00
    -21.202  0.0000E+00  0.0000E+00  0.0000E+00
    -21.101  0.0000E+00  0.0000E+00  0.0000E+00
    -21.000  0.0000E+00  0.0000E+00  0.0000E+00
    -20.899  0.0000E+00  0.0000E+00  0.0000E+00
    -20.797  0.1754E+02  0.1971E-06  0.2986E-04
    -20.696  0.0000E+00  0.0000E+00  0.0000E+00
    -20.595  0.0000E+00  0.0000E+00  0.0000E+00
    -20.494  0.0000E+00  0.0000E+00  0.0000E+00
    -20.392  0.0000E+00  0.0000E+00  0.0000E+00
    -20.291  0.0000E+00  0.0000E+00  0.0000E+00
    -20.190  0.0000E+00  0.0000E+00  0.0000E+00
    -20.089  0.0000E+00  0.0000E+00  0.0000E+00
    -19.987  0.0000E+00  0.0000E+00  0.0000E+00
    -19.886  0.0000E+00  0.0000E+00  0.0000E+00
    -19.785  0.0000E+00  0.0000E+00  0.0000E+00
    -19.684  0.0000E+00  0.0000E+00  0.0000E+00
    -19.583  0.0000E+00  0.0000E+00  0.0000E+00
    -19.481  0.0000E+00  0.0000E+00  0.0000E+00
    -19.380  0.0000E+00  0.0000E+00  0.0000E+00
    -19.279  0.0000E+00  0.0000E+00  0.0000E+00
    -19.178  0.0000E+00  0.0000E+00  0.0000E+00
    -19.076  0.0000E+00  0.0000E+00  0.0000E+00
    -18.975  0.0000E+00  0.0000E+00  0.0000E+00
    -18.874  0.0000E+00  0.0000E+00  0.0000E+00
    -18.773  0.0000E+00  0.0000E+00  0.0000E+00
    -18.671  0.0000E+00  0.0000E+00  0.0000E+00
    -18.570  0.0000E+00  0.0000E+00  0.0000E+00
    -18.469  0.0000E+00  0.0000E+00  0.0000E+00
    -18.368  0.0000E+00  0.0000E+00  0.0000E+00
    -18.267  0.0000E+00  0.0000E+00  0.0000E+00
    -18.165  0.0000E+00  0.0000E+00  0.0000E+00
    -18.064  0.0000E+00  0.0000E+00  0.0000E+00
    -17.963  0.0000E+00  0.0000E+00  0.0000E+00
    -17.862  0.0000E+00  0.0000E+00  0.0000E+00
    -17.760  0.0000E+00  0.0000E+00  0.0000E+00
    -17.659  0.0000E+00  0.0000E+00  0.0000E+00
    -17.558  0.0000E+00  0.0000E+00  0.0000E+00
    -17.457  0.0000E+00  0.0000E+00  0.0000E+00
    -17.355  0.0000E+00  0.0000E+00  0.0000E+00
    -17.254  0.0000E+00  0.0000E+00  0.0000E+00
    -17.153  0.0000E+00  0.0000E+00  0.0000E+00
    -17.052  0.0000E+00  0.0000E+00  0.0000E+00
    -16.951  0.0000E+00  0.0000E+00  0.0000E+00
    -16.849  0.0000E+00  0.0000E+00  0.0000E+00
    -16.748  0.0000E+00  0.0000E+00  0.0000E+00
    -16.647  0.0000E+00  0.0000E+00  0.0000E+00
    -16.546  0.2934E-14  0.2939E-14  0.1105E-13
    -16.444  0.3606E-04  0.2501E-04  0.6580E-05
    -16.343  0.3652E-04  0.6698E-04  0.8563E-05
    -16.242  0.2267E-04  0.1374E-04  0.1601E-05
    -16.141  0.0000E+00  0.0000E+00  0.0000E+00
    -16.039  0.0000E+00  0.0000E+00  0.0000E+00
    -15.938  0.0000E+00  0.0000E+00  0.0000E+00
    -15.837  0.0000E+00  0.0000E+00  0.0000E+00
    -15.736  0.0000E+00  0.0000E+00  0.0000E+00
    -15.635  0.0000E+00  0.0000E+00  0.0000E+00
    -15.533  0.0000E+00  0.0000E+00  0.0000E+00
    -15.432  0.0000E+00  0.0000E+00  0.0000E+00
    -15.331  0.0000E+00  0.0000E+00  0.0000E+00
    -15.230  0.0000E+00  0.0000E+00  0.0000E+00
    -15.128  0.0000E+00  0.0000E+00  0.0000E+00
    -15.027  0.0000E+00  0.0000E+00  0.0000E+00
    -14.926  0.0000E+00  0.0000E+00  0.0000E+00
    -14.825  0.0000E+00  0.0000E+00  0.0000E+00
    -14.724  0.0000E+00  0.0000E+00  0.0000E+00
    -14.622  0.0000E+00  0.0000E+00  0.0000E+00
    -14.521  0.0000E+00  0.0000E+00  0.0000E+00
    -14.420  0.0000E+00  0.0000E+00  0.0000E+00
    -14.319  0.4502E-03  0.7808E-09  0.4460E-05
    -14.217  0.4167E-02  0.1929E-02  0.4835E-04
    -14.116  0.2811E-03  0.4219E-02  0.1613E-03
    -14.015  0.3205E-17  0.3313E-02  0.6925E-04
    -13.914  0.1587E-02  0.3633E-02  0.2682E-03
    -13.812  0.3810E-02  0.8016E-02  0.1066E-02
    -13.711  0.1459E-02  0.4143E-02  0.1701E-03
    -13.610  0.0000E+00  0.0000E+00  0.0000E+00
    -13.509  0.0000E+00  0.0000E+00  0.0000E+00
    -13.408  0.0000E+00  0.0000E+00  0.0000E+00
    -13.306  0.0000E+00  0.0000E+00  0.0000E+00
    -13.205  0.0000E+00  0.0000E+00  0.0000E+00
    -13.104  0.0000E+00  0.0000E+00  0.0000E+00
    -13.003  0.0000E+00  0.0000E+00  0.0000E+00
    -12.901  0.0000E+00  0.0000E+00  0.0000E+00
    -12.800  0.0000E+00  0.0000E+00  0.0000E+00
    -12.699  0.0000E+00  0.0000E+00  0.0000E+00
    -12.598  0.0000E+00  0.0000E+00  0.0000E+00
    -12.496  0.0000E+00  0.0000E+00  0.0000E+00
    -12.395  0.0000E+00  0.0000E+00  0.0000E+00
    -12.294  0.0000E+00  0.0000E+00  0.0000E+00
    -12.193  0.0000E+00  0.0000E+00  0.0000E+00
    -12.092  0.0000E+00  0.0000E+00  0.0000E+00
    -11.990  0.0000E+00  0.0000E+00  0.0000E+00
    -11.889  0.0000E+00  0.0000E+00  0.0000E+00
    -11.788  0.0000E+00  0.0000E+00  0.0000E+00
    -11.687  0.0000E+00  0.0000E+00  0.0000E+00
    -11.585  0.0000E+00  0.0000E+00  0.0000E+00
    -11.484  0.0000E+00  0.0000E+00  0.0000E+00
    -11.383  0.0000E+00  0.0000E+00  0.0000E+00
    -11.282  0.0000E+00  0.0000E+00  0.0000E+00
    -11.180  0.0000E+00  0.0000E+00  0.0000E+00
    -11.079  0.0000E+00  0.0000E+00  0.0000E+00
    -10.978  0.0000E+00  0.0000E+00  0.0000E+00
    -10.877  0.0000E+00  0.0000E+00  0.0000E+00
    -10.776  0.0000E+00  0.0000E+00  0.0000E+00
    -10.674  0.0000E+00  0.0000E+00  0.0000E+00
    -10.573  0.0000E+00  0.0000E+00  0.0000E+00
    -10.472  0.0000E+00  0.0000E+00  0.0000E+00
    -10.371  0.0000E+00  0.0000E+00  0.0000E+00
    -10.269  0.0000E+00  0.0000E+00  0.0000E+00
    -10.168  0.0000E+00  0.0000E+00  0.0000E+00
    -10.067  0.0000E+00  0.0000E+00  0.0000E+00
     -9.966  0.0000E+00  0.0000E+00  0.0000E+00
     -9.864  0.0000E+00  0.0000E+00  0.0000E+00
     -9.763  0.0000E+00  0.0000E+00  0.0000E+00
     -9.662  0.0000E+00  0.0000E+00  0.0000E+00
     -9.561  0.0000E+00  0.0000E+00  0.0000E+00
     -9.460  0.0000E+00  0.0000E+00  0.0000E+00
     -9.358  0.0000E+00  0.0000E+00  0.0000E+00
     -9.257  0.0000E+00  0.0000E+00  0.0000E+00
     -9.156  0.0000E+00  0.0000E+00  0.0000E+00
     -9.055  0.0000E+00  0.0000E+00  0.0000E+00
     -8.953  0.0000E+00  0.0000E+00  0.0000E+00
     -8.852  0.0000E+00  0.0000E+00  0.0000E+00
     -8.751  0.0000E+00  0.0000E+00  0.0000E+00
     -8.650  0.0000E+00  0.0000E+00  0.0000E+00
     -8.548  0.0000E+00  0.0000E+00  0.0000E+00
     -8.447  0.0000E+00  0.0000E+00  0.0000E+00
     -8.346  0.0000E+00  0.0000E+00  0.0000E+00
     -8.245  0.0000E+00  0.0000E+00  0.0000E+00
     -8.144  0.5893E-20  0.5941E-18  0.1957E-19
     -8.042  0.0000E+00  0.0000E+00  0.0000E+00
     -7.941  0.2750E-19  0.1245E-17  0.8096E-05
     -7.840  0.1885E-19  0.9436E-15  0.1952E-05
     -7.739  0.3419E-19  0.5833E-02  0.3683E-04
     -7.637  0.6986E-18  0.2169E-01  0.1021E-04
     -7.536  0.3380E-13  0.2058E-01  0.3625E-04
     -7.435  0.2733E-04  0.1245E+00  0.5350E-04
     -7.334  0.9951E-10  0.8517E-01  0.2473E-05
     -7.232  0.4802E-04  0.1806E+02  0.5639E-04
     -7.131  0.5975E-04  0.1900E+02  0.6850E-04
     -7.030  0.2176E-04  0.1336E+00  0.1224E-04
     -6.929  0.3125E-04  0.1150E+00  0.9882E-05
     -6.828  0.5996E-06  0.4439E-03  0.2285E-06
     -6.726  0.0000E+00  0.0000E+00  0.0000E+00
     -6.625  0.0000E+00  0.0000E+00  0.0000E+00
     -6.524  0.2015E-04  0.8794E-18  0.9761E-05
     -6.423  0.0000E+00  0.0000E+00  0.0000E+00
     -6.321  0.0000E+00  0.0000E+00  0.0000E+00
     -6.220  0.0000E+00  0.0000E+00  0.0000E+00
     -6.119  0.0000E+00  0.0000E+00  0.0000E+00
     -6.018  0.0000E+00  0.0000E+00  0.0000E+00
     -5.916  0.0000E+00  0.0000E+00  0.0000E+00
     -5.815  0.0000E+00  0.0000E+00  0.0000E+00
     -5.714  0.0000E+00  0.0000E+00  0.0000E+00
     -5.613  0.0000E+00  0.0000E+00  0.0000E+00
     -5.512  0.0000E+00  0.0000E+00  0.0000E+00
     -5.410  0.0000E+00  0.0000E+00  0.0000E+00
     -5.309  0.0000E+00  0.0000E+00  0.0000E+00
     -5.208  0.0000E+00  0.0000E+00  0.0000E+00
     -5.107  0.0000E+00  0.0000E+00  0.0000E+00
     -5.005  0.0000E+00  0.0000E+00  0.0000E+00
     -4.904  0.0000E+00  0.0000E+00  0.0000E+00
     -4.803  0.0000E+00  0.0000E+00  0.0000E+00
     -4.702  0.0000E+00  0.0000E+00  0.0000E+00
     -4.600  0.0000E+00  0.0000E+00  0.0000E+00
     -4.499  0.0000E+00  0.0000E+00  0.0000E+00
     -4.398  0.0000E+00  0.0000E+00  0.0000E+00
     -4.297  0.0000E+00  0.0000E+00  0.0000E+00
     -4.196  0.0000E+00  0.0000E+00  0.0000E+00
     -4.094  0.0000E+00  0.0000E+00  0.0000E+00
     -3.993  0.0000E+00  0.0000E+00  0.0000E+00
     -3.892  0.0000E+00  0.0000E+00  0.0000E+00
     -3.791  0.0000E+00  0.0000E+00  0.0000E+00
     -3.689  0.0000E+00  0.0000E+00  0.0000E+00
     -3.588  0.0000E+00  0.0000E+00  0.0000E+00
     -3.487  0.1916E-20  0.2916E-03  0.2654E-09
     -3.386  0.2665E-17  0.9698E-02  0.8036E-03
     -3.285  0.1242E-18  0.6386E-18  0.2221E-16
     -3.183  0.1984E-20  0.2907E-04  0.1050E-17
     -3.082  0.3914E-17  0.8496E-02  0.4540E-03
     -2.981  0.4551E-16  0.1497E-02  0.9073E-03
     -2.880  0.3076E-20  0.2695E-18  0.1699E-18
     -2.778  0.0000E+00  0.0000E+00  0.0000E+00
     -2.677  0.7633E-14  0.2521E-12  0.1614E-13
     -2.576  0.4957E-03  0.3798E-01  0.1678E-02
     -2.475  0.2640E-03  0.2294E-01  0.3717E-02
     -2.373  0.4174E-03  0.1673E-01  0.3552E-02
     -2.272  0.2605E-02  0.3635E-01  0.3142E-02
     -2.171  0.3383E-02  0.3919E-02  0.2703E-02
     -2.070  0.2580E-02  0.6726E-03  0.1862E-02
     -1.969  0.2810E-01  0.4093E-01  0.4940E-02
     -1.867  0.4324E-05  0.2474E-01  0.2106E-03
     -1.766  0.1326E-02  0.8036E-01  0.1841E-02
     -1.665  0.5216E-02  0.8511E-01  0.5395E-02
     -1.564  0.2570E-02  0.1022E+00  0.1080E-01
     -1.462  0.2808E-02  0.3918E-01  0.1048E-01
     -1.361  0.8201E-03  0.5458E-01  0.9081E-02
     -1.260  0.5097E-02  0.4829E-01  0.6942E-02
     -1.159  0.2149E-02  0.1212E+00  0.5416E-02
     -1.057  0.4079E-02  0.1512E+00  0.2605E-01
     -0.956  0.5002E-03  0.3053E-01  0.1421E-02
     -0.855  0.3895E-03  0.1307E-01  0.1973E-02
     -0.754  0.5980E-04  0.2729E-01  0.3488E-02
     -0.653  0.9787E-17  0.2665E-02  0.7694E-03
     -0.551  0.8170E-16  0.1128E-04  0.1464E-04
     -0.450  0.2013E-20  0.2955E-03  0.6563E-19
     -0.349  0.8618E-19  0.3680E-04  0.2551E-04
     -0.248  0.7226E-19  0.9785E-09  0.1755E-04
     -0.146  0.5195E-16  0.1048E-04  0.4961E-03
     -0.045  0.8778E-17  0.1541E-16  0.7399E-03
      0.056  0.2548E-20  0.2981E-18  0.4717E-08
      0.157  0.3841E-17  0.4493E-15  0.7110E-05
      0.259  0.0000E+00  0.0000E+00  0.0000E+00
      0.360  0.0000E+00  0.0000E+00  0.0000E+00
      0.461  0.2906E-19  0.1375E-19  0.3968E-19
      0.562  0.0000E+00  0.0000E+00  0.0000E+00
      0.663  0.0000E+00  0.0000E+00  0.0000E+00
      0.765  0.0000E+00  0.0000E+00  0.0000E+00
      0.866  0.0000E+00  0.0000E+00  0.0000E+00
      0.967  0.0000E+00  0.0000E+00  0.0000E+00
      1.068  0.0000E+00  0.0000E+00  0.0000E+00
      1.170  0.0000E+00  0.0000E+00  0.0000E+00
      1.271  0.0000E+00  0.0000E+00  0.0000E+00
      1.372  0.0000E+00  0.0000E+00  0.0000E+00
      1.473  0.0000E+00  0.0000E+00  0.0000E+00
      1.575  0.0000E+00  0.0000E+00  0.0000E+00
      1.676  0.0000E+00  0.0000E+00  0.0000E+00
      1.777  0.0000E+00  0.0000E+00  0.0000E+00
      1.878  0.0000E+00  0.0000E+00  0.0000E+00
      1.979  0.0000E+00  0.0000E+00  0.0000E+00
      2.081  0.0000E+00  0.0000E+00  0.0000E+00
      2.182  0.0000E+00  0.0000E+00  0.0000E+00
      2.283  0.0000E+00  0.0000E+00  0.0000E+00
      2.384  0.0000E+00  0.0000E+00  0.0000E+00
      2.486  0.0000E+00  0.0000E+00  0.0000E+00
      2.587  0.0000E+00  0.0000E+00  0.0000E+00
      2.688  0.0000E+00  0.0000E+00  0.0000E+00
      2.789  0.1011E-14  0.2462E-15  0.2685E-02
      2.891  0.6626E-21  0.1487E-07  0.2107E-07
      2.992  0.1322E-15  0.1504E-02  0.3280E-02
      3.093  0.2385E-15  0.1355E-02  0.1589E-02
      3.194  0.8421E-03  0.3086E-02  0.5410E-02
      3.295  0.2583E-03  0.6477E-03  0.5518E-03
      3.397  0.9608E-03  0.1801E-02  0.2327E-02
      3.498  0.2918E-04  0.3143E-17  0.3802E-03
      3.599  0.0000E+00  0.0000E+00  0.0000E+00
      3.700  0.0000E+00  0.0000E+00  0.0000E+00
      3.802  0.0000E+00  0.0000E+00  0.0000E+00
      3.903  0.0000E+00  0.0000E+00  0.0000E+00
      4.004  0.0000E+00  0.0000E+00  0.0000E+00
      4.105  0.4402E-14  0.1439E-13  0.5563E-02
      4.207  0.1281E-13  0.1290E-02  0.1015E-02
      4.308  0.8168E-12  0.3594E-02  0.1225E-01
      4.409  0.1903E-02  0.6278E-02  0.5491E-02
      4.510  0.1278E-02  0.3990E-02  0.6685E-02
      4.611  0.7996E-02  0.8152E-02  0.1270E-01
      4.713  0.1089E-01  0.3088E-02  0.1976E-02
      4.814  0.8229E-02  0.3858E-02  0.1785E-01
      4.915  0.1695E-02  0.8751E-02  0.1898E-01
      5.016  0.4545E-02  0.7606E-02  0.9760E-02
      5.118  0.0000E+00  0.0000E+00  0.0000E+00
      5.219  0.0000E+00  0.0000E+00  0.0000E+00
      5.320  0.1436E-25  0.1486E-26  0.4729E-22
      5.421  0.3657E-01  0.9758E-02  0.1310E-01
      5.523  0.1180E-01  0.1053E-02  0.3205E-02
      5.624  0.6342E-04  0.1147E-11  0.3824E-01
      5.725  0.6899E-02  0.1561E-03  0.2767E-01
      5.826  0.1108E-01  0.1864E-02  0.8778E-01
      5.927  0.1056E+00  0.3161E-01  0.1011E+00
      6.029  0.6697E-03  0.9668E-02  0.1296E+00
      6.130  0.3199E-01  0.2019E-01  0.3916E+00
      6.231  0.5832E-05  0.8313E-03  0.4445E-01
      6.332  0.9151E-01  0.1626E-01  0.4952E+00
      6.434  0.2894E-03  0.1298E-01  0.1837E+00
      6.535  0.1725E-02  0.6188E-02  0.8285E-01
      6.636  0.3762E-01  0.4867E-01  0.8162E+00
      6.737  0.1396E-01  0.2549E-01  0.4845E+00
      6.839  0.6974E-05  0.2061E-06  0.4632E-01
      6.940  0.0000E+00  0.0000E+00  0.0000E+00
      7.041  0.0000E+00  0.0000E+00  0.0000E+00
      7.142  0.0000E+00  0.0000E+00  0.0000E+00
      7.243  0.0000E+00  0.0000E+00  0.0000E+00
      7.345  0.0000E+00  0.0000E+00  0.0000E+00
      7.446  0.0000E+00  0.0000E+00  0.0000E+00
      7.547  0.0000E+00  0.0000E+00  0.0000E+00
      7.648  0.0000E+00  0.0000E+00  0.0000E+00
      7.750  0.0000E+00  0.0000E+00  0.0000E+00
      7.851  0.0000E+00  0.0000E+00  0.0000E+00
      7.952  0.0000E+00  0.0000E+00  0.0000E+00
      8.053  0.0000E+00  0.0000E+00  0.0000E+00
      8.154  0.0000E+00  0.0000E+00  0.0000E+00
      8.15449120    -22.21453320  301      0.58754262      1.00000000
    -22.215  0.0000E+00  0.0000E+00  0.0000E+00
    -22.113  0.0000E+00  0.0000E+00  0.0000E+00
    -22.012  0.0000E+00  0.0000E+00  0.0000E+00
    -21.911  0.0000E+00  0.0000E+00  0.0000E+00
    -21.810  0.0000E+00  0.0000E+00  0.0000E+00
    -21.708  0.0000E+00  0.0000E+00  0.0000E+00
    -21.607  0.0000E+00  0.0000E+00  0.0000E+00
    -21.506  0.0000E+00  0.0000E+00  0.0000E+00
    -21.405  0.0000E+00  0.0000E+00  0.0000E+00
    -21.303  0.0000E+00  0.0000E+00  0.0000E+00
    -21.202  0.0000E+00  0.0000E+00  0.0000E+00
    -21.101  0.0000E+00  0.0000E+00  0.0000E+00
    -21.000  0.0000E+00  0.0000E+00  0.0000E+00
    -20.899  0.0000E+00  0.0000E+00  0.0000E+00
    -20.797  0.1754E+02  0.1971E-06  0.2986E-04
    -20.696  0.0000E+00  0.0000E+00  0.0000E+00
    -20.595  0.0000E+00  0.0000E+00  0.0000E+00
    -20.494  0.0000E+00  0.0000E+00  0.0000E+00
    -20.392  0.0000E+00  0.0000E+00  0.0000E+00
    -20.291  0.0000E+00  0.0000E+00  0.0000E+00
    -20.190  0.0000E+00  0.0000E+00  0.0000E+00
    -20.089  0.0000E+00  0.0000E+00  0.0000E+00
    -19.987  0.0000E+00  0.0000E+00  0.0000E+00
    -19.886  0.0000E+00  0.0000E+00  0.0000E+00
    -19.785  0.0000E+00  0.0000E+00  0.0000E+00
    -19.684  0.0000E+00  0.0000E+00  0.0000E+00
    -19.583  0.0000E+00  0.0000E+00  0.0000E+00
    -19.481  0.0000E+00  0.0000E+00  0.0000E+00
    -19.380  0.0000E+00  0.0000E+00  0.0000E+00
    -19.279  0.0000E+00  0.0000E+00  0.0000E+00
    -19.178  0.0000E+00  0.0000E+00  0.0000E+00
    -19.076  0.0000E+00  0.0000E+00  0.0000E+00
    -18.975  0.0000E+00  0.0000E+00  0.0000E+00
    -18.874  0.0000E+00  0.0000E+00  0.0000E+00
    -18.773  0.0000E+00  0.0000E+00  0.0000E+00
    -18.671  0.0000E+00  0.0000E+00  0.0000E+00
    -18.570  0.0000E+00  0.0000E+00  0.0000E+00
    -18.469  0.0000E+00  0.0000E+00  0.0000E+00
    -18.368  0.0000E+00  0.0000E+00  0.0000E+00
    -18.267  0.0000E+00  0.0000E+00  0.0000E+00
    -18.165  0.0000E+00  0.0000E+00  0.0000E+00
    -18.064  0.0000E+00  0.0000E+00  0.0000E+00
    -17.963  0.0000E+00  0.0000E+00  0.0000E+00
    -17.862  0.0000E+00  0.0000E+00  0.0000E+00
    -17.760  0.0000E+00  0.0000E+00  0.0000E+00
    -17.659  0.0000E+00  0.0000E+00  0.0000E+00
    -17.558  0.0000E+00  0.0000E+00  0.0000E+00
    -17.457  0.0000E+00  0.0000E+00  0.0000E+00
    -17.355  0.0000E+00  0.0000E+00  0.0000E+00
    -17.254  0.0000E+00  0.0000E+00  0.0000E+00
    -17.153  0.0000E+00  0.0000E+00  0.0000E+00
    -17.052  0.0000E+00  0.0000E+00  0.0000E+00
    -16.951  0.0000E+00  0.0000E+00  0.0000E+00
    -16.849  0.0000E+00  0.0000E+00  0.0000E+00
    -16.748  0.0000E+00  0.0000E+00  0.0000E+00
    -16.647  0.0000E+00  0.0000E+00  0.0000E+00
    -16.546  0.2934E-14  0.2939E-14  0.1105E-13
    -16.444  0.3606E-04  0.2501E-04  0.6580E-05
    -16.343  0.3652E-04  0.6698E-04  0.8563E-05
    -16.242  0.2267E-04  0.1374E-04  0.1601E-05
    -16.141  0.0000E+00  0.0000E+00  0.0000E+00
    -16.039  0.0000E+00  0.0000E+00  0.0000E+00
    -15.938  0.0000E+00  0.0000E+00  0.0000E+00
    -15.837  0.0000E+00  0.0000E+00  0.0000E+00
    -15.736  0.0000E+00  0.0000E+00  0.0000E+00
    -15.635  0.0000E+00  0.0000E+00  0.0000E+00
    -15.533  0.0000E+00  0.0000E+00  0.0000E+00
    -15.432  0.0000E+00  0.0000E+00  0.0000E+00
    -15.331  0.0000E+00  0.0000E+00  0.0000E+00
    -15.230  0.0000E+00  0.0000E+00  0.0000E+00
    -15.128  0.0000E+00  0.0000E+00  0.0000E+00
    -15.027  0.0000E+00  0.0000E+00  0.0000E+00
    -14.926  0.0000E+00  0.0000E+00  0.0000E+00
    -14.825  0.0000E+00  0.0000E+00  0.0000E+00
    -14.724  0.0000E+00  0.0000E+00  0.0000E+00
    -14.622  0.0000E+00  0.0000E+00  0.0000E+00
    -14.521  0.0000E+00  0.0000E+00  0.0000E+00
    -14.420  0.0000E+00  0.0000E+00  0.0000E+00
    -14.319  0.4502E-03  0.7808E-09  0.4460E-05
    -14.217  0.4167E-02  0.1929E-02  0.4835E-04
    -14.116  0.2811E-03  0.4219E-02  0.1613E-03
    -14.015  0.3666E-17  0.3313E-02  0.6925E-04
    -13.914  0.1587E-02  0.3633E-02  0.2682E-03
    -13.812  0.3810E-02  0.8016E-02  0.1066E-02
    -13.711  0.1459E-02  0.4143E-02  0.1701E-03
    -13.610  0.0000E+00  0.0000E+00  0.0000E+00
    -13.509  0.0000E+00  0.0000E+00  0.0000E+00
    -13.408  0.0000E+00  0.0000E+00  0.0000E+00
    -13.306  0.0000E+00  0.0000E+00  0.0000E+00
    -13.205  0.0000E+00  0.0000E+00  0.0000E+00