 vasp.5.4.4.18Apr17-6-g9f103f2a35 (build Jun 22 2020 09:27:21) complex           
 executed on tx2_gcc-7.3_libsci-1 date 2021.09.22  08:24:40
 running on   64 total cores
 distrk:  each k-point on   64 cores,    1 groups
 distr:  one band on NCORES_PER_BAND=   8 cores,    8 groups


--------------------------------------------------------------------------------------------------------


 INCAR:
 POTCAR:    PAW_PBE Cs_sv 08Apr2002               
 POTCAR:    PAW_PBE Pb_d 06Sep2000                
 POTCAR:    PAW_PBE Br 06Sep2000                  
 POTCAR:    PAW_PBE Cs_sv 08Apr2002               
   SHA256 =  c1463496f0f6037ed62c6012a8013a89ee9ad6ffb38599dcd6c079e7ed31779b Cs
   COPYR  = (c) Copyright 08Apr2002 Georg Kresse                                
   COPYR  = This file is part of the software VASP. Any use, copying, and all ot
   COPYR  = If you do not have a valid VASP license, you may not use, copy or di
   VRHFIN =Cs: 5s5p6s                                                           
   LEXCH  = PE                                                                  
   EATOM  =   555.6835 eV,   40.8416 Ry                                         
                                                                                
   TITEL  = PAW_PBE Cs_sv 08Apr2002                                             
   LULTRA =        F    use ultrasoft PP ?                                      
   IUNSCR =        1    unscreen: 0-lin 1-nonlin 2-no                           
   RPACOR =    2.200    partial core radius                                     
   POMASS =  132.900; ZVAL   =    9.000    mass and valenz                      
   RCORE  =    2.500    outmost cutoff radius                                   
   RWIGS  =    2.500; RWIGS  =    1.323    wigner-seitz radius (au A)           
   ENMAX  =  220.318; ENMIN  =  165.238 eV                                      
   RCLOC  =    2.207    cutoff for local pot                                    
   LCOR   =        T    correct aug charges                                     
   LPAW   =        T    paw PP                                                  
   EAUG   =  407.933                                                            
   DEXC   =    0.000                                                            
   RMAX   =    2.554    core radius for proj-oper                               
   RAUG   =    1.300    factor for augmentation sphere                          
   RDEP   =    2.590    radius for radial grids                                 
   RDEPT  =    2.117    core radius for aug-charge                              
                                                                                
   Atomic configuration                                                         
   13 entries                                                                   
     n  l   j            E        occ.                                          
     1  0  0.50    -35790.1377   2.0000                                         
     2  0  0.50     -5613.6201   2.0000                                         
     2  1  1.50     -5035.0101   6.0000                                         
     3  0  0.50     -1167.0767   2.0000                                         
     3  1  1.50      -980.9754   6.0000                                         
     3  2  2.50      -708.0703  10.0000                                         
     4  0  0.50      -220.2386   2.0000                                         
     4  1  1.50      -160.7596   6.0000                                         
     4  2  2.50       -74.2354  10.0000                                         
     5  0  0.50       -26.7287   2.0000                                         
     6  0  0.50        -2.0862   1.0000                                         
     5  1  1.50       -13.5159   6.0000                                         
     5  2  2.50        -0.4136   0.0000                                         
   Description                                                                  
     l       E           TYP  RCUT    TYP  RCUT                                 
     0    -26.7287425     23  1.900                                             
     0     -2.0862306     23  1.900                                             
     1    -13.5158719     23  2.500                                             
     1     -2.7211652     23  2.500                                             
     2     -0.4136171     23  2.500                                             
  local pseudopotential read in
  partial core-charges read in
  partial kinetic energy density read in
  atomic valenz-charges read in
  non local Contribution for L=           0  read in
    real space projection operators read in
  non local Contribution for L=           0  read in
    real space projection operators read in
  non local Contribution for L=           1  read in
    real space projection operators read in
  non local Contribution for L=           1  read in
    real space projection operators read in
  non local Contribution for L=           2  read in
    real space projection operators read in
    PAW grid and wavefunctions read in

   number of l-projection  operators is LMAX  =           5
   number of lm-projection operators is LMMAX =          13

 POTCAR:    PAW_PBE Pb_d 06Sep2000                
   SHA256 =  fb885b08f0fba73a15f6a6b0e39bd200c13ec96ef97cf3ecd8e63bade5137abd Pb
   COPYR  = (c) Copyright 06Sep2000 Georg Kresse                                
   COPYR  = This file is part of the software VASP. Any use, copying, and all ot
   COPYR  = If you do not have a valid VASP license, you may not use, copy or di
   VRHFIN =Pb:                                                                  
   LEXCH  = PE                                                                  
   EATOM  =  1661.6185 eV,  122.1255 Ry                                         
                                                                                
   TITEL  = PAW_PBE Pb_d 06Sep2000                                              
   LULTRA =        F    use ultrasoft PP ?                                      
   IUNSCR =        1    unscreen: 0-lin 1-nonlin 2-no                           
   RPACOR =    2.200    partial core radius                                     
   POMASS =  207.200; ZVAL   =   14.000    mass and valenz                      
   RCORE  =    2.500    outmost cutoff radius                                   
   RWIGS  =    3.260; RWIGS  =    1.725    wigner-seitz radius (au A)           
   ENMAX  =  237.835; ENMIN  =  178.376 eV                                      
   ICORE  =        3    local potential                                         
   LCOR   =        T    correct aug charges                                     
   LPAW   =        T    paw PP                                                  
   EAUG   =  391.914                                                            
   DEXC   =    0.000                                                            
   RMAX   =    2.565    core radius for proj-oper                               
   RAUG   =    1.300    factor for augmentation sphere                          
   RDEP   =    2.643    radius for radial grids                                 
   RDEPT  =    2.092    core radius for aug-charge                              
                                                                                
   Atomic configuration                                                         
   16 entries                                                                   
     n  l   j            E        occ.                                          
     1  0  0.50    -88091.8466   2.0000                                         
     2  0  0.50    -15753.4197   2.0000                                         
     2  1  1.50    -13508.1797   6.0000                                         
     3  0  0.50     -3781.7194   2.0000                                         
     3  1  1.50     -3138.2529   6.0000                                         
     3  2  2.50     -2483.2977  10.0000                                         
     4  0  0.50      -856.2895   2.0000                                         
     4  1  1.50      -645.4942   6.0000                                         
     4  2  2.50      -401.8768  10.0000                                         
     4  3  3.50      -132.9059  14.0000                                         
     5  0  0.50      -144.0950   2.0000                                         
     5  1  1.50       -85.7879   6.0000                                         
     5  2  2.50       -21.1769  10.0000                                         
     6  0  0.50       -12.0372   2.0000                                         
     6  1  1.50        -3.4971   2.0000                                         
     5  3  2.50        -2.7212   0.0000                                         
   Description                                                                  
     l       E           TYP  RCUT    TYP  RCUT                                 
     2    -21.1768523     23  2.500                                             
     2      1.3605826     23  2.500                                             
     0    -12.0371562     23  2.500                                             
     0     13.6058260     23  2.500                                             
     1     -3.4971339     23  2.500                                             
     1     13.6058260     23  2.500                                             
     3     -1.3605826      7  2.500                                             
  local pseudopotential read in
  partial core-charges read in
  partial kinetic energy density read in
  atomic valenz-charges read in
  non local Contribution for L=           2  read in
    real space projection operators read in
  non local Contribution for L=           2  read in
    real space projection operators read in
  non local Contribution for L=           0  read in
    real space projection operators read in
  non local Contribution for L=           0  read in
    real space projection operators read in
  non local Contribution for L=           1  read in
    real space projection operators read in
  non local Contribution for L=           1  read in
    real space projection operators read in
    PAW grid and wavefunctions read in

   number of l-projection  operators is LMAX  =           6
   number of lm-projection operators is LMMAX =          18

 POTCAR:    PAW_PBE Br 06Sep2000                  
   SHA256 =  96a73d2954943bbee26f4990d676cc6c3bf44b8dd2c75cd4b3b825d8403f0103 Br
   COPYR  = (c) Copyright 06Sep2000 Georg Kresse                                
   COPYR  = This file is part of the software VASP. Any use, copying, and all ot
   COPYR  = If you do not have a valid VASP license, you may not use, copy or di
   VRHFIN =Br: s2p5                                                             
   LEXCH  = PE                                                                  
   EATOM  =   368.4488 eV,   27.0802 Ry                                         
                                                                                
   TITEL  = PAW_PBE Br 06Sep2000                                                
   LULTRA =        F    use ultrasoft PP ?                                      
   IUNSCR =        1    unscreen: 0-lin 1-nonlin 2-no                           
   RPACOR =    1.900    partial core radius                                     
   POMASS =   79.904; ZVAL   =    7.000    mass and valenz                      
   RCORE  =    2.100    outmost cutoff radius                                   
   RWIGS  =    2.200; RWIGS  =    1.164    wigner-seitz radius (au A)           
   ENMAX  =  216.285; ENMIN  =  162.214 eV                                      
   ICORE  =        3    local potential                                         
   LCOR   =        T    correct aug charges                                     
   LPAW   =        T    paw PP                                                  
   EAUG   =  503.852                                                            
   DEXC   =    0.000                                                            
   RMAX   =    2.139    core radius for proj-oper                               
   RAUG   =    1.300    factor for augmentation sphere                          
   RDEP   =    2.186    radius for radial grids                                 
   RDEPT  =    1.890    core radius for aug-charge                              
                                                                                
   Atomic configuration                                                         
   10 entries                                                                   
     n  l   j            E        occ.                                          
     1  0  0.50    -13316.2796   2.0000                                         
     2  0  0.50     -1732.8239   2.0000                                         
     2  1  1.50     -1528.2193   6.0000                                         
     3  0  0.50      -238.0460   2.0000                                         
     3  1  1.50      -173.4609   6.0000                                         
     3  2  2.50       -66.7132  10.0000                                         
     4  0  0.50       -20.1334   2.0000                                         
     4  1  0.50        -7.8591   5.0000                                         
     4  2  2.50        -8.1635   0.0000                                         
     4  3  2.50        -8.1635   0.0000                                         
   Description                                                                  
     l       E           TYP  RCUT    TYP  RCUT                                 
     0    -20.1333652     23  2.100                                             
     0    -21.4939478     23  2.100                                             
     1     -7.8591052     23  2.100                                             
     1     -3.1608434     23  2.100                                             
     2     -8.1634956     23  2.100                                             
     3     -1.3605826      7  2.100                                             
  local pseudopotential read in
  partial core-charges read in
  partial kinetic energy density read in
  atomic valenz-charges read in
  non local Contribution for L=           0  read in
    real space projection operators read in
  non local Contribution for L=           0  read in
    real space projection operators read in
  non local Contribution for L=           1  read in
    real space projection operators read in
  non local Contribution for L=           1  read in
    real space projection operators read in
  non local Contribution for L=           2  read in
    real space projection operators read in
    PAW grid and wavefunctions read in

   number of l-projection  operators is LMAX  =           5
   number of lm-projection operators is LMMAX =          13

 Optimization of the real space projectors (new method)

 maximal supplied QI-value         = 15.12
 optimisation between [QCUT,QGAM] = [  8.77, 17.69] = [ 21.53, 87.61] Ry 
 Optimized for a Real-space Cutoff    1.85 Angstroem

   l    n(q)    QCUT    max X(q) W(low)/X(q) W(high)/X(q)  e(spline) 
   0     10     8.768    25.322    0.81E-04    0.51E-04    0.48E-06
   0     10     8.768    99.187    0.78E-04    0.50E-04    0.47E-06
   1      9     8.768    11.761    0.21E-03    0.20E-03    0.37E-06
   1      9     8.768     8.275    0.24E-03    0.22E-03    0.41E-06
   2      9     8.768     3.829    0.23E-04    0.15E-03    0.18E-06
 Optimization of the real space projectors (new method)

 maximal supplied QI-value         = 15.12
 optimisation between [QCUT,QGAM] = [  8.77, 17.69] = [ 21.53, 87.61] Ry 
 Optimized for a Real-space Cutoff    1.59 Angstroem

   l    n(q)    QCUT    max X(q) W(low)/X(q) W(high)/X(q)  e(spline) 
   2      7     8.768     3.846    0.48E-04    0.11E-03    0.11E-06
   2      7     8.768     8.593    0.20E-03    0.22E-04    0.24E-06
   0      8     8.768    20.082    0.68E-04    0.88E-04    0.41E-07
   0      8     8.768     8.597    0.89E-04    0.13E-03    0.59E-07
   1      8     8.768    33.223    0.15E-03    0.53E-04    0.87E-07
   1      8     8.768    15.899    0.14E-03    0.44E-04    0.78E-07
 Optimization of the real space projectors (new method)

 maximal supplied QI-value         = 17.95
 optimisation between [QCUT,QGAM] = [  8.80, 17.59] = [ 21.67, 86.68] Ry 
 Optimized for a Real-space Cutoff    1.59 Angstroem

   l    n(q)    QCUT    max X(q) W(low)/X(q) W(high)/X(q)  e(spline) 
   0      8     8.797   175.082    0.82E-04    0.14E-03    0.89E-07
   0      8     8.797   174.004    0.79E-04    0.14E-03    0.86E-07
   1      8     8.797    54.315    0.16E-03    0.14E-04    0.30E-06
   1      8     8.797    42.441    0.16E-03    0.14E-04    0.30E-06
   2      7     8.797     3.596    0.92E-04    0.15E-03    0.85E-07
  PAW_PBE Cs_sv 08Apr2002               :
 energy of atom  1       EATOM= -555.6835
 kinetic energy error for atom=    0.0069 (will be added to EATOM!!)
  PAW_PBE Pb_d 06Sep2000                :
 energy of atom  2       EATOM=-1661.6185
 kinetic energy error for atom=    0.0498 (will be added to EATOM!!)
  PAW_PBE Br 06Sep2000                  :
 energy of atom  3       EATOM= -368.4488
 kinetic energy error for atom=    0.0072 (will be added to EATOM!!)


 POSCAR: Cs8 Pb8 Br24                            
  positions in direct lattice
  No initial velocities read in

 METAGGA = SCAN     LMAXTAU =  6    LMIXTAU =  F

 exchange correlation table for  LEXCH =        8
   RHO(1)=    0.500       N(1)  =     2000
   RHO(2)=  100.500       N(2)  =     4000

 VTST: version 3.2, (02/03/18)

 CHAIN: initializing optimizer
 
 OPT: Using VASP Conjugate-Gradient optimizer
 CHAIN: Read ICHAIN            0

 POSCAR: Cs8 Pb8 Br24                            
  positions in direct lattice
  No initial velocities read in



--------------------------------------------------------------------------------------------------------


 ion  position               nearest neighbor table
   1  0.250  0.250  0.250-
   2  0.250  0.250  0.750-
   3  0.250  0.750  0.250-
   4  0.250  0.750  0.750-
   5  0.750  0.250  0.250-
   6  0.750  0.250  0.750-
   7  0.750  0.750  0.250-
   8  0.750  0.750  0.750-
   9  0.000  0.000  0.000-  25 2.93  26 2.93  17 3.04  19 3.04  33 3.04  37 3.04
  10  0.000  0.000  0.500-  25 2.93  26 2.93  18 3.04  20 3.04  34 3.04  38 3.04
  11  0.000  0.500  0.000-  27 2.93  28 2.93  17 3.04  19 3.04  35 3.04  39 3.04
  12  0.000  0.500  0.500-  27 2.93  28 2.93  18 3.04  20 3.04  36 3.04  40 3.04
  13  0.500  0.000  0.000-  29 2.93  30 2.93  21 3.04  23 3.04  33 3.04  37 3.04
  14  0.500  0.000  0.500-  29 2.93  30 2.93  22 3.04  24 3.04  34 3.04  38 3.04
  15  0.500  0.500  0.000-  31 2.93  32 2.93  21 3.04  23 3.04  35 3.04  39 3.04
  16  0.500  0.500  0.500-  31 2.93  32 2.93  22 3.04  24 3.04  36 3.04  40 3.04
  17  0.932  0.250  0.000-   9 3.04  11 3.04
  18  0.932  0.250  0.500-  10 3.04  12 3.04
  19  0.068  0.750  0.000-   9 3.04  11 3.04
  20  0.068  0.750  0.500-  10 3.04  12 3.04
  21  0.568  0.250  0.000-  13 3.04  15 3.04
  22  0.568  0.250  0.500-  14 3.04  16 3.04
  23  0.432  0.750  0.000-  13 3.04  15 3.04
  24  0.432  0.750  0.500-  14 3.04  16 3.04
  25  0.000  0.000  0.250-   9 2.93  10 2.93
  26  0.000  0.000  0.750-   9 2.93  10 2.93
  27  0.000  0.500  0.250-  11 2.93  12 2.93
  28  0.000  0.500  0.750-  11 2.93  12 2.93
  29  0.500  0.000  0.250-  13 2.93  14 2.93
  30  0.500  0.000  0.750-  13 2.93  14 2.93
  31  0.500  0.500  0.250-  15 2.93  16 2.93
  32  0.500  0.500  0.750-  15 2.93  16 2.93
  33  0.250  0.068  0.000-   9 3.04  13 3.04
  34  0.250  0.068  0.500-  10 3.04  14 3.04
  35  0.250  0.432  0.000-  11 3.04  15 3.04
  36  0.250  0.432  0.500-  12 3.04  16 3.04
  37  0.750  0.932  0.000-   9 3.04  13 3.04
  38  0.750  0.932  0.500-  10 3.04  14 3.04
  39  0.750  0.568  0.000-  11 3.04  15 3.04
  40  0.750  0.568  0.500-  12 3.04  16 3.04

  LATTYP: Found a simple cubic cell.
 ALAT       =    11.7353520000
  
  Lattice vectors:
  
 A1 = (  11.7353520000,   0.0000000000,   0.0000000000)
 A2 = (   0.0000000000,  11.7353520000,   0.0000000000)
 A3 = (   0.0000000000,   0.0000000000,  11.7353520000)


Analysis of symmetry for initial positions (statically):
=====================================================================
 Subroutine PRICEL returns following result:
 
  LATTYP: Found a simple tetragonal cell.
 ALAT       =     8.2981469788
 C/A-ratio  =     0.7071067812
  
  Lattice vectors:
  
 A1 = (   5.8676760000,  -5.8676760000,   0.0000000000)
 A2 = (  -5.8676760000,  -5.8676760000,   0.0000000000)
 A3 = (   0.0000000000,   0.0000000000,  -5.8676760000)
 
   4 primitive cells build up your supercell.
 

 Routine SETGRP: Setting up the symmetry group for a 
 simple cubic supercell.


 Subroutine GETGRP returns: Found 16 space group operations
 (whereof  8 operations were pure point group operations)
 out of a pool of 48 trial point group operations.


The static configuration has the point symmetry C_4h.
 The point group associated with its full space group is D_4h.


Analysis of symmetry for dynamics (positions and initial velocities):
=====================================================================
 Subroutine PRICEL returns following result:
 
  LATTYP: Found a simple tetragonal cell.
 ALAT       =     8.2981469788
 C/A-ratio  =     0.7071067812
  
  Lattice vectors:
  
 A1 = (   5.8676760000,  -5.8676760000,   0.0000000000)
 A2 = (  -5.8676760000,  -5.8676760000,   0.0000000000)
 A3 = (   0.0000000000,   0.0000000000,  -5.8676760000)
 
   4 primitive cells build up your supercell.
 

 Routine SETGRP: Setting up the symmetry group for a 
 simple cubic supercell.


 Subroutine GETGRP returns: Found 16 space group operations
 (whereof  8 operations were pure point group operations)
 out of a pool of 48 trial point group operations.


The dynamic configuration has the point symmetry C_4h.
 The point group associated with its full space group is D_4h.


 Subroutine INISYM returns: Found 16 space group operations
 (whereof  8 operations are pure point group operations),
 and found     4 'primitive' translations



 KPOINTS: 1x1x1                                   

Automatic generation of k-mesh.
Space group operators:
 irot       det(A)        alpha          n_x          n_y          n_z        tau_x        tau_y        tau_z
    1     1.000000     0.000000     1.000000     0.000000     0.000000    -0.000000    -0.000000    -0.000000
    2    -1.000000     0.000000     1.000000     0.000000     0.000000    -0.000000    -0.000000    -0.000000
    3     1.000000    90.000000     0.000000     0.000000    -1.000000    -0.000000    -0.000000    -0.000000
    4    -1.000000    90.000000     0.000000     0.000000    -1.000000    -0.000000    -0.000000    -0.000000
    5     1.000000   180.000000     0.000000     0.000000     1.000000    -0.000000    -0.000000    -0.000000
    6    -1.000000   180.000000     0.000000     0.000000     1.000000    -0.000000    -0.000000    -0.000000
    7     1.000000    90.000000     0.000000     0.000000     1.000000    -0.000000    -0.000000    -0.000000
    8    -1.000000    90.000000     0.000000     0.000000     1.000000    -0.000000    -0.000000    -0.000000
    9     1.000000   180.000000     1.000000     0.000000     0.000000     0.000000    -0.500000    -0.000000
   10    -1.000000   180.000000     1.000000     0.000000     0.000000     0.000000    -0.500000    -0.000000
   11     1.000000   180.000000     0.707107     0.707107     0.000000     0.000000    -0.500000    -0.000000
   12    -1.000000   180.000000     0.707107     0.707107     0.000000     0.000000    -0.500000    -0.000000
   13     1.000000   180.000000     0.000000     1.000000     0.000000     0.000000    -0.500000    -0.000000
   14    -1.000000   180.000000     0.000000     1.000000     0.000000     0.000000    -0.500000    -0.000000
   15     1.000000   180.000000     0.707107    -0.707107     0.000000     0.000000    -0.500000    -0.000000
   16    -1.000000   180.000000     0.707107    -0.707107     0.000000     0.000000    -0.500000    -0.000000
 
 Subroutine IBZKPT returns following result:
 ===========================================
 
 Found      6 irreducible k-points:
 
 Following reciprocal coordinates:
            Coordinates               Weight
  0.000000  0.000000  0.000000      1.000000
  0.500000  0.000000  0.000000      2.000000
  0.500000  0.500000  0.000000      1.000000
  0.000000  0.000000  0.500000      1.000000
  0.500000  0.000000  0.500000      2.000000
  0.500000  0.500000  0.500000      1.000000
 
 Following cartesian coordinates:
            Coordinates               Weight
  0.000000  0.000000  0.000000      1.000000
  0.042606  0.000000  0.000000      2.000000
  0.042606  0.042606  0.000000      1.000000
  0.000000  0.000000  0.042606      1.000000
  0.042606  0.000000  0.042606      2.000000
  0.042606  0.042606  0.042606      1.000000
 


--------------------------------------------------------------------------------------------------------




 Dimension of arrays:
   k-points           NKPTS =      6   k-points in BZ     NKDIM =      6   number of bands    NBANDS=    216
   number of dos      NEDOS =    301   number of ions     NIONS =     40
   non local maximal  LDIM  =      6   non local SUM 2l+1 LMDIM =     18
   total plane-waves  NPLWV = 343000
   max r-space proj   IRMAX =   5660   max aug-charges    IRDMAX=  90331
   dimension x,y,z NGX =    70 NGY =   70 NGZ =   70
   dimension x,y,z NGXF=   140 NGYF=  140 NGZF=  140
   support grid    NGXF=   280 NGYF=  280 NGZF=  280
   ions per type =               8   8  24
   NGX,Y,Z   is equivalent  to a cutoff of   9.92,  9.92,  9.92 a.u.
   NGXF,Y,Z  is equivalent  to a cutoff of  19.83, 19.83, 19.83 a.u.

 SYSTEM =  CsPbBr3 cubic bulk                      
 POSCAR =  Cs8 Pb8 Br24                            

 Startparameter for this run:
   NWRITE =      2    write-flag & timer
   PREC   = accura    normal or accurate (medium, high low for compatibility)
   ISTART =      0    job   : 0-new  1-cont  2-samecut
   ICHARG =      2    charge: 1-file 2-atom 10-const
   ISPIN  =      1    spin polarized calculation?
   LNONCOLLINEAR =      F non collinear calculations
   LSORBIT =      F    spin-orbit coupling
   INIWAV =      1    electr: 0-lowe 1-rand  2-diag
   LASPH  =      T    aspherical Exc in radial PAW
   METAGGA=      F    non-selfconsistent MetaGGA calc.

 Electronic Relaxation 1
   ENCUT  =  300.0 eV  22.05 Ry    4.70 a.u.  16.57 16.57 16.57*2*pi/ulx,y,z
   ENINI  =  300.0     initial cutoff
   ENAUG  =  503.9 eV  augmentation charge cutoff
   NELM   =    200;   NELMIN=  2; NELMDL= -5     # of ELM steps 
   EDIFF  = 0.1E-05   stopping-criterion for ELM
   LREAL  =      T    real-space projection
   NLSPLINE    = F    spline interpolate recip. space projectors
   LCOMPAT=      F    compatible to vasp.4.4
   GGA_COMPAT  = T    GGA compatible to vasp.4.4-vasp.4.6
   LMAXPAW     = -100 max onsite density
   LMAXMIX     =    2 max onsite mixed and CHGCAR
   VOSKOWN=      0    Vosko Wilk Nusair interpolation
   ROPT   =   -0.00025  -0.00025  -0.00025
 Ionic relaxation
   EDIFFG = -.1E-01   stopping-criterion for IOM
   NSW    =      0    number of steps for IOM
   NBLOCK =      1;   KBLOCK =      1    inner block; outer block 
   IBRION =     -1    ionic relax: 0-MD 1-quasi-New 2-CG
   NFREE  =      1    steps in history (QN), initial steepest desc. (CG)
   ISIF   =      3    stress and relaxation
   IWAVPR =     10    prediction:  0-non 1-charg 2-wave 3-comb
   ISYM   =      2    0-nonsym 1-usesym 2-fastsym
   LCORR  =      T    Harris-Foulkes like correction to forces

   POTIM  = 0.5000    time-step for ionic-motion
   TEIN   =    0.0    initial temperature
   TEBEG  =    0.0;   TEEND  =   0.0 temperature during run
   SMASS  =  -3.00    Nose mass-parameter (am)
   estimated Nose-frequenzy (Omega)   =  0.10E-29 period in steps =****** mass=  -0.315E-26a.u.
   SCALEE = 1.0000    scale energy and forces
   NPACO  =    256;   APACO  = 16.0  distance and # of slots for P.C.
   PSTRESS=    0.0 pullay stress

  Mass of Ions in am
   POMASS = 132.90207.20 79.90
  Ionic Valenz
   ZVAL   =   9.00 14.00  7.00
  Atomic Wigner-Seitz radii
   RWIGS  =  -1.00 -1.00 -1.00
  virtual crystal weights 
   VCA    =   1.00  1.00  1.00
   NELECT =     352.0000    total number of electrons
   NUPDOWN=      -1.0000    fix difference up-down

 DOS related values:
   EMIN   =  10.00;   EMAX   =-10.00  energy-range for DOS
   EFERMI =   0.00
   ISMEAR =     0;   SIGMA  =   0.01  broadening in eV -4-tet -1-fermi 0-gaus

 Electronic relaxation 2 (details)
   IALGO  =     38    algorithm
   LDIAG  =      T    sub-space diagonalisation (order eigenvalues)
   LSUBROT=      F    optimize rotation matrix (better conditioning)
   TURBO    =      0    0=normal 1=particle mesh
   IRESTART =      0    0=no restart 2=restart with 2 vectors
   NREBOOT  =      0    no. of reboots
   NMIN     =      0    reboot dimension
   EREF     =   0.00    reference energy to select bands
   IMIX   =      4    mixing-type and parameters
     AMIX     =   0.40;   BMIX     =  1.00
     AMIX_MAG =   1.60;   BMIX_MAG =  1.00
     AMIN     =   0.10
     WC   =   100.;   INIMIX=   1;  MIXPRE=   1;  MAXMIX= -45

 Intra band minimization:
   WEIMIN = 0.0000     energy-eigenvalue tresh-hold
   EBREAK =  0.12E-08  absolut break condition
   DEPER  =   0.30     relativ break condition  

   TIME   =   0.40     timestep for ELM

  volume/ion in A,a.u.               =      40.40       272.66
  Fermi-wavevector in a.u.,A,eV,Ry     =   0.984977  1.861337 13.200107  0.970180
  Thomas-Fermi vector in A             =   2.116250

 Write flags
   LWAVE        =      F    write WAVECAR
   LDOWNSAMPLE  =      F    k-point downsampling of WAVECAR
   LCHARG       =      T    write CHGCAR
   LVTOT        =      F    write LOCPOT, total local potential
   LVHAR        =      T    write LOCPOT, Hartree potential only
   LELF         =      F    write electronic localiz. function (ELF)
   LORBIT       =     10    0 simple, 1 ext, 2 COOP (PROOUT), +10 PAW based schemes


 Dipole corrections
   LMONO  =      F    monopole corrections only (constant potential shift)
   LDIPOL =      F    correct potential (dipole corrections)
   IDIPOL =      0    1-x, 2-y, 3-z, 4-all directions 
   EPSILON=  1.0000000 bulk dielectric constant

 Exchange correlation treatment:
   GGA     =    --    GGA type
   LEXCH   =     8    internal setting for exchange type
   VOSKOWN=      0    Vosko Wilk Nusair interpolation
   LHFCALC =     F    Hartree Fock is set to
   LHFONE  =     F    Hartree Fock one center treatment
   AEXX    =    0.0000 exact exchange contribution

 Linear response parameters
   LEPSILON=     F    determine dielectric tensor
   LRPA    =     F    only Hartree local field effects (RPA)
   LNABLA  =     F    use nabla operator in PAW spheres
   LVEL    =     F    velocity operator in full k-point grid
   LINTERFAST=   F  fast interpolation
   KINTER  =     0    interpolate to denser k-point grid
   CSHIFT  =0.1000    complex shift for real part using Kramers Kronig
   OMEGAMAX=  -1.0    maximum frequency
   DEG_THRESHOLD= 0.2000000E-02 threshold for treating states as degnerate
   RTIME   =   -0.100 relaxation time in fs
  (WPLASMAI=    0.000 imaginary part of plasma frequency in eV, 0.658/RTIME)
   DFIELD  = 0.0000000 0.0000000 0.0000000 field for delta impulse in time

 Orbital magnetization related:
   ORBITALMAG=     F  switch on orbital magnetization
   LCHIMAG   =     F  perturbation theory with respect to B field
   DQ        =  0.001000  dq finite difference perturbation B field
   LLRAUG    =     F  two centre corrections for induced B field



--------------------------------------------------------------------------------------------------------


 Static calculation
 charge density and potential will be updated during run
 non-spin polarized calculation
 Variant of blocked Davidson
 Davidson routine will perform the subspace rotation
 perform sub-space diagonalisation
    after iterative eigenvector-optimisation
 modified Broyden-mixing scheme, WC =      100.0
 initial mixing is a Kerker type mixing with AMIX =  0.4000 and BMIX =      1.0000
 Hartree-type preconditioning will be used
 using additional bands           40
 real space projection scheme for non local part
 use partial core corrections
 calculate Harris-corrections to forces   (improved forces if not selfconsistent)
 use gradient corrections 
 use of overlap-Matrix (Vanderbilt PP)
 Gauss-broadening in eV      SIGMA  =   0.01


--------------------------------------------------------------------------------------------------------


  energy-cutoff  :      300.00
  volume of cell :     1616.17
      direct lattice vectors                 reciprocal lattice vectors
    11.735352000  0.000000000  0.000000000     0.085212612  0.000000000  0.000000000
     0.000000000 11.735352000  0.000000000     0.000000000  0.085212612  0.000000000
     0.000000000  0.000000000 11.735352000     0.000000000  0.000000000  0.085212612

  length of vectors
    11.735352000 11.735352000 11.735352000     0.085212612  0.085212612  0.085212612



 k-points in units of 2pi/SCALE and weight: 1x1x1                                   
   0.00000000  0.00000000  0.00000000       0.125
   0.04260631  0.00000000  0.00000000       0.250
   0.04260631  0.04260631  0.00000000       0.125
   0.00000000  0.00000000  0.04260631       0.125
   0.04260631  0.00000000  0.04260631       0.250
   0.04260631  0.04260631  0.04260631       0.125

 k-points in reciprocal lattice and weights: 1x1x1                                   
   0.00000000  0.00000000  0.00000000       0.125
   0.50000000  0.00000000  0.00000000       0.250
   0.50000000  0.50000000  0.00000000       0.125
   0.00000000  0.00000000  0.50000000       0.125
   0.50000000  0.00000000  0.50000000       0.250
   0.50000000  0.50000000  0.50000000       0.125

 position of ions in fractional coordinates (direct lattice) 
   0.25000000  0.25000000  0.25000000
   0.25000000  0.25000000  0.75000000
   0.25000000  0.75000000  0.25000000
   0.25000000  0.75000000  0.75000000
   0.75000000  0.25000000  0.25000000
   0.75000000  0.25000000  0.75000000
   0.75000000  0.75000000  0.25000000
   0.75000000  0.75000000  0.75000000
   0.00000000  0.00000000  0.00000000
   0.00000000  0.00000000  0.50000000
   0.00000000  0.50000000  0.00000000
   0.00000000  0.50000000  0.50000000
   0.50000000  0.00000000  0.00000000
   0.50000000  0.00000000  0.50000000
   0.50000000  0.50000000  0.00000000
   0.50000000  0.50000000  0.50000000
   0.93250000  0.25000000  0.00000000
   0.93250000  0.25000000  0.50000000
   0.06750000  0.75000000  0.00000000
   0.06750000  0.75000000  0.50000000
   0.56750000  0.25000000  0.00000000
   0.56750000  0.25000000  0.50000000
   0.43250000  0.75000000  0.00000000
   0.43250000  0.75000000  0.50000000
   0.00000000  0.00000000  0.25000000
   0.00000000  0.00000000  0.75000000
   0.00000000  0.50000000  0.25000000
   0.00000000  0.50000000  0.75000000
   0.50000000  0.00000000  0.25000000
   0.50000000  0.00000000  0.75000000
   0.50000000  0.50000000  0.25000000
   0.50000000  0.50000000  0.75000000
   0.25000000  0.06750000  0.00000000
   0.25000000  0.06750000  0.50000000
   0.25000000  0.43250000  0.00000000
   0.25000000  0.43250000  0.50000000
   0.75000000  0.93250000  0.00000000
   0.75000000  0.93250000  0.50000000
   0.75000000  0.56750000  0.00000000
   0.75000000  0.56750000  0.50000000

 position of ions in cartesian coordinates  (Angst):
   2.93383800  2.93383800  2.93383800
   2.93383800  2.93383800  8.80151400
   2.93383800  8.80151400  2.93383800
   2.93383800  8.80151400  8.80151400
   8.80151400  2.93383800  2.93383800
   8.80151400  2.93383800  8.80151400
   8.80151400  8.80151400  2.93383800
   8.80151400  8.80151400  8.80151400
   0.00000000  0.00000000  0.00000000
   0.00000000  0.00000000  5.86767600
   0.00000000  5.86767600  0.00000000
   0.00000000  5.86767600  5.86767600
   5.86767600  0.00000000  0.00000000
   5.86767600  0.00000000  5.86767600
   5.86767600  5.86767600  0.00000000
   5.86767600  5.86767600  5.86767600
  10.94321574  2.93383800  0.00000000
  10.94321574  2.93383800  5.86767600
   0.79213626  8.80151400  0.00000000
   0.79213626  8.80151400  5.86767600
   6.65981226  2.93383800  0.00000000
   6.65981226  2.93383800  5.86767600
   5.07553974  8.80151400  0.00000000
   5.07553974  8.80151400  5.86767600
   0.00000000  0.00000000  2.93383800
   0.00000000  0.00000000  8.80151400
   0.00000000  5.86767600  2.93383800
   0.00000000  5.86767600  8.80151400
   5.86767600  0.00000000  2.93383800
   5.86767600  0.00000000  8.80151400
   5.86767600  5.86767600  2.93383800
   5.86767600  5.86767600  8.80151400
   2.93383800  0.79213626  0.00000000
   2.93383800  0.79213626  5.86767600
   2.93383800  5.07553974  0.00000000
   2.93383800  5.07553974  5.86767600
   8.80151400 10.94321574  0.00000000
   8.80151400 10.94321574  5.86767600
   8.80151400  6.65981226  0.00000000
   8.80151400  6.65981226  5.86767600



--------------------------------------------------------------------------------------------------------


 k-point  1 :   0.0000 0.0000 0.0000  plane waves:   19093
 k-point  2 :   0.5000 0.0000 0.0000  plane waves:   19066
 k-point  3 :   0.5000 0.5000 0.0000  plane waves:   19072
 k-point  4 :   0.0000 0.0000 0.5000  plane waves:   19066
 k-point  5 :   0.5000 0.0000 0.5000  plane waves:   19072
 k-point  6 :   0.5000 0.5000 0.5000  plane waves:   19064

 maximum and minimum number of plane-waves per node :      2417     2354

 maximum number of plane-waves:     19093
 maximum index in each direction: 
   IXMAX=   16   IYMAX=   16   IZMAX=   16
   IXMIN=  -17   IYMIN=  -17   IZMIN=  -17


 real space projection operators:
  total allocation   :      16861.50 KBytes
  max/ min on nodes  :       2197.41       1842.53


 parallel 3D FFT for wavefunctions:
    minimum data exchange during FFTs selected (reduces bandwidth)
 parallel 3D FFT for charge:
    minimum data exchange during FFTs selected (reduces bandwidth)


 total amount of memory used by VASP MPI-rank0    58958. kBytes
=======================================================================

   base      :      30000. kBytes
   nonlr-proj:       6586. kBytes
   fftplans  :       8423. kBytes
   grid      :       7465. kBytes
   one-center:         77. kBytes
   wavefun   :       6407. kBytes

     INWAV:  cpu time    0.0000: real time    0.0000
 Broyden mixing: mesh for mixing (old mesh)
   NGX = 33   NGY = 33   NGZ = 33
  (NGX  =140   NGY  =140   NGZ  =140)
  gives a total of  35937 points

 initial charge density was supplied:
 charge density of overlapping atoms calculated
 number of electron     352.0000000 magnetization 
 keeping initial charge density in first step


--------------------------------------------------------------------------------------------------------


 Maximum index for non-local projection operator          712
 Maximum index for augmentation-charges         2962 (set IRDMAX)


--------------------------------------------------------------------------------------------------------


 First call to EWALD:  gamma=   0.151
 Maximum number of real-space cells 3x 3x 3
 Maximum number of reciprocal cells 3x 3x 3

    FEWALD:  cpu time    0.0036: real time    0.0036


--------------------------------------- Iteration      1(   1)  ---------------------------------------


    POTLOK:  cpu time    0.2583: real time    0.2585
    SETDIJ:  cpu time    1.1950: real time    1.1950
     EDDAV:  cpu time   12.7194: real time   12.7252
       DOS:  cpu time    0.0006: real time    0.0006
    --------------------------------------------
      LOOP:  cpu time   14.1732: real time   14.1793

 eigenvalue-minimisations  :  2680
 total energy-change (2. order) : 0.1346971E+04  (-0.1128474E+05)
 number of electron     352.0000000 magnetization 
 augmentation part      352.0000000 magnetization 

 Free energy of the ion-electron system (eV)
  ---------------------------------------------------
  alpha Z        PSCENC =       892.99476195
  Ewald energy   TEWEN  =    -18432.25580060
  -Hartree energ DENC   =     -7316.94322147
  -exchange      EXHF   =         0.00000000
  -V(xc)+E(xc)   XCENC  =       923.76595659
  PAW double counting   =     21633.96174531   -22707.92185401
  entropy T*S    EENTRO =        -0.00000008
  eigenvalues    EBANDS =      -227.19085343
  atomic energy  EATOM  =     26580.56019858
  Solvation  Ediel_sol  =         0.00000000
  ---------------------------------------------------
  free energy    TOTEN  =      1346.97093283 eV

  energy without entropy =     1346.97093292  energy(sigma->0) =     1346.97093287


--------------------------------------------------------------------------------------------------------




--------------------------------------- Iteration      1(   2)  ---------------------------------------


     EDDAV:  cpu time   13.9933: real time   14.0606
       DOS:  cpu time    0.0003: real time    0.0003
    --------------------------------------------
      LOOP:  cpu time   13.9937: real time   14.0610

 eigenvalue-minimisations  :  3120
 total energy-change (2. order) :-0.2473730E+04  (-0.2376387E+04)
 number of electron     352.0000000 magnetization 
 augmentation part      352.0000000 magnetization 

 Free energy of the ion-electron system (eV)
  ---------------------------------------------------
  alpha Z        PSCENC =       892.99476195
  Ewald energy   TEWEN  =    -18432.25580060
  -Hartree energ DENC   =     -7316.94322147
  -exchange      EXHF   =         0.00000000
  -V(xc)+E(xc)   XCENC  =       923.76595659
  PAW double counting   =     21633.96174531   -22707.92185401
  entropy T*S    EENTRO =        -0.00000000
  eigenvalues    EBANDS =     -2700.92117146
  atomic energy  EATOM  =     26580.56019858
  Solvation  Ediel_sol  =         0.00000000
  ---------------------------------------------------
  free energy    TOTEN  =     -1126.75938511 eV

  energy without entropy =    -1126.75938511  energy(sigma->0) =    -1126.75938511


--------------------------------------------------------------------------------------------------------




--------------------------------------- Iteration      1(   3)  ---------------------------------------


     EDDAV:  cpu time   15.0167: real time   15.0450
       DOS:  cpu time    0.0004: real time    0.0004
    --------------------------------------------
      LOOP:  cpu time   15.0171: real time   15.0454

 eigenvalue-minimisations  :  3480
 total energy-change (2. order) :-0.3693208E+03  (-0.3669849E+03)
 number of electron     352.0000000 magnetization 
 augmentation part      352.0000000 magnetization 

 Free energy of the ion-electron system (eV)
  ---------------------------------------------------
  alpha Z        PSCENC =       892.99476195
  Ewald energy   TEWEN  =    -18432.25580060
  -Hartree energ DENC   =     -7316.94322147
  -exchange      EXHF   =         0.00000000
  -V(xc)+E(xc)   XCENC  =       923.76595659
  PAW double counting   =     21633.96174531   -22707.92185401
  entropy T*S    EENTRO =        -0.00000000
  eigenvalues    EBANDS =     -3070.24196630
  atomic energy  EATOM  =     26580.56019858
  Solvation  Ediel_sol  =         0.00000000
  ---------------------------------------------------
  free energy    TOTEN  =     -1496.08017995 eV

  energy without entropy =    -1496.08017995  energy(sigma->0) =    -1496.08017995


--------------------------------------------------------------------------------------------------------




--------------------------------------- Iteration      1(   4)  ---------------------------------------


     EDDAV:  cpu time   13.9542: real time   13.9576
       DOS:  cpu time    0.0003: real time    0.0003
    --------------------------------------------
      LOOP:  cpu time   13.9545: real time   13.9579

 eigenvalue-minimisations  :  3096
 total energy-change (2. order) :-0.1254134E+02  (-0.1250138E+02)
 number of electron     352.0000000 magnetization 
 augmentation part      352.0000000 magnetization 

 Free energy of the ion-electron system (eV)
  ---------------------------------------------------
  alpha Z        PSCENC =       892.99476195
  Ewald energy   TEWEN  =    -18432.25580060
  -Hartree energ DENC   =     -7316.94322147
  -exchange      EXHF   =         0.00000000
  -V(xc)+E(xc)   XCENC  =       923.76595659
  PAW double counting   =     21633.96174531   -22707.92185401
  entropy T*S    EENTRO =        -0.00000000
  eigenvalues    EBANDS =     -3082.78330715
  atomic energy  EATOM  =     26580.56019858
  Solvation  Ediel_sol  =         0.00000000
  ---------------------------------------------------
  free energy    TOTEN  =     -1508.62152080 eV

  energy without entropy =    -1508.62152080  energy(sigma->0) =    -1508.62152080


--------------------------------------------------------------------------------------------------------




--------------------------------------- Iteration      1(   5)  ---------------------------------------


     EDDAV:  cpu time   14.8479: real time   14.8881
       DOS:  cpu time    0.0004: real time    0.0004
    CHARGE:  cpu time    3.0535: real time    3.0536
    MIXING:  cpu time    0.0017: real time    0.0017
    --------------------------------------------
      LOOP:  cpu time   17.9036: real time   17.9438

 eigenvalue-minimisations  :  3424
 total energy-change (2. order) :-0.5612108E+00  (-0.5609330E+00)
 number of electron     351.9999984 magnetization 
 augmentation part       -6.5072308 magnetization 

 Broyden mixing:
  rms(total) = 0.10072E+01    rms(broyden)= 0.10069E+01
  rms(prec ) = 0.14026E+01
  weight for this iteration     100.00

 Free energy of the ion-electron system (eV)
  ---------------------------------------------------
  alpha Z        PSCENC =       892.99476195
  Ewald energy   TEWEN  =    -18432.25580060
  -Hartree energ DENC   =     -7316.94322147
  -exchange      EXHF   =         0.00000000
  -V(xc)+E(xc)   XCENC  =       923.76595659
  PAW double counting   =     21633.96174531   -22707.92185401
  entropy T*S    EENTRO =        -0.00000000
  eigenvalues    EBANDS =     -3083.34451793
  atomic energy  EATOM  =     26580.56019858
  Solvation  Ediel_sol  =         0.00000000
  ---------------------------------------------------
  free energy    TOTEN  =     -1509.18273158 eV

  energy without entropy =    -1509.18273158  energy(sigma->0) =    -1509.18273158


--------------------------------------------------------------------------------------------------------




--------------------------------------- Iteration      1(   6)  ---------------------------------------


    POTLOK:  cpu time    0.2597: real time    0.3031
    SETDIJ:  cpu time    1.1936: real time    1.1936
     EDDAV:  cpu time   14.7223: real time   14.7231
       DOS:  cpu time    0.0005: real time    0.0004
    CHARGE:  cpu time    3.0849: real time    3.0850
    MIXING:  cpu time    0.0016: real time    0.0016
    --------------------------------------------
      LOOP:  cpu time   19.2625: real time   19.3068

 eigenvalue-minimisations  :  3384
 total energy-change (2. order) : 0.7968082E+02  (-0.2385298E+01)
 number of electron     351.9999984 magnetization 
 augmentation part       -5.0550812 magnetization 

 Broyden mixing:
  rms(total) = 0.71700E+00    rms(broyden)= 0.71691E+00
  rms(prec ) = 0.89377E+00
  weight for this iteration     100.00

 eigenvalues of (default mixing * dielectric matrix)
  average eigenvalue GAMMA=   1.1691
  1.1691

 Free energy of the ion-electron system (eV)
  ---------------------------------------------------
  alpha Z        PSCENC =       892.99476195
  Ewald energy   TEWEN  =    -18432.25580060
  -Hartree energ DENC   =     -7299.50970935
  -exchange      EXHF   =         0.00000000
  -V(xc)+E(xc)   XCENC  =       954.82768077
  PAW double counting   =     21933.85807970   -23006.10423100
  entropy T*S    EENTRO =        -0.00000000
  eigenvalues    EBANDS =     -3053.87288925
  atomic energy  EATOM  =     26580.56019858
  Solvation  Ediel_sol  =         0.00000000
  ---------------------------------------------------
  free energy    TOTEN  =     -1429.50190920 eV

  energy without entropy =    -1429.50190920  energy(sigma->0) =    -1429.50190920


--------------------------------------------------------------------------------------------------------




--------------------------------------- Iteration      1(   7)  ---------------------------------------


    POTLOK:  cpu time    0.2905: real time    0.3047
    SETDIJ:  cpu time    1.1916: real time    1.1916
     EDDAV:  cpu time   14.2407: real time   14.2414
       DOS:  cpu time    0.0004: real time    0.0004
    CHARGE:  cpu time    3.1002: real time    3.1005
    MIXING:  cpu time    0.0015: real time    0.0015
    --------------------------------------------
      LOOP:  cpu time   18.8249: real time   18.8401

 eigenvalue-minimisations  :  3216
 total energy-change (2. order) : 0.5108099E+00  (-0.8040186E+00)
 number of electron     351.9999984 magnetization 
 augmentation part       -4.5326642 magnetization 

 Broyden mixing:
  rms(total) = 0.36659E+00    rms(broyden)= 0.36657E+00
  rms(prec ) = 0.40310E+00
  weight for this iteration     100.00

 eigenvalues of (default mixing * dielectric matrix)
  average eigenvalue GAMMA=   1.3212
  1.3212  1.3212

 Free energy of the ion-electron system (eV)
  ---------------------------------------------------
  alpha Z        PSCENC =       892.99476195
  Ewald energy   TEWEN  =    -18432.25580060
  -Hartree energ DENC   =     -7340.98398649
  -exchange      EXHF   =         0.00000000
  -V(xc)+E(xc)   XCENC  =       960.24983756
  PAW double counting   =     22558.51141969   -23628.94378246
  entropy T*S    EENTRO =        -0.00000000
  eigenvalues    EBANDS =     -3019.12374753
  atomic energy  EATOM  =     26580.56019858
  Solvation  Ediel_sol  =         0.00000000
  ---------------------------------------------------
  free energy    TOTEN  =     -1428.99109931 eV

  energy without entropy =    -1428.99109931  energy(sigma->0) =    -1428.99109931


--------------------------------------------------------------------------------------------------------




--------------------------------------- Iteration      1(   8)  ---------------------------------------


    POTLOK:  cpu time    0.2606: real time    0.2996
    SETDIJ:  cpu time    1.1943: real time    1.1943
     EDDAV:  cpu time   13.9631: real time   13.9639
       DOS:  cpu time    0.0004: real time    0.0004
    CHARGE:  cpu time    3.0983: real time    3.0984
    MIXING:  cpu time    0.0015: real time    0.0015
    --------------------------------------------
      LOOP:  cpu time   18.5182: real time   18.5581

 eigenvalue-minimisations  :  3120
 total energy-change (2. order) :-0.1951303E+00  (-0.3920551E-01)
 number of electron     351.9999984 magnetization 
 augmentation part       -4.6129114 magnetization 

 Broyden mixing:
  rms(total) = 0.21036E+00    rms(broyden)= 0.21036E+00
  rms(prec ) = 0.23375E+00
  weight for this iteration     100.00

 eigenvalues of (default mixing * dielectric matrix)
  average eigenvalue GAMMA=   1.7108
  1.1058  1.3269  2.6996

 Free energy of the ion-electron system (eV)
  ---------------------------------------------------
  alpha Z        PSCENC =       892.99476195
  Ewald energy   TEWEN  =    -18432.25580060
  -Hartree energ DENC   =     -7345.74612736
  -exchange      EXHF   =         0.00000000
  -V(xc)+E(xc)   XCENC  =       961.00589797
  PAW double counting   =     22803.63735992   -23874.37764352
  entropy T*S    EENTRO =        -0.00000000
  eigenvalues    EBANDS =     -3015.00487658
  atomic energy  EATOM  =     26580.56019858
  Solvation  Ediel_sol  =         0.00000000
  ---------------------------------------------------
  free energy    TOTEN  =     -1429.18622964 eV

  energy without entropy =    -1429.18622964  energy(sigma->0) =    -1429.18622964


--------------------------------------------------------------------------------------------------------




--------------------------------------- Iteration      1(   9)  ---------------------------------------


    POTLOK:  cpu time    0.2632: real time    0.2867
    SETDIJ:  cpu time    1.1967: real time    1.1968
     EDDAV:  cpu time   13.1929: real time   13.1934
       DOS:  cpu time    0.0006: real time    0.0006
    CHARGE:  cpu time    3.1013: real time    3.1014
    MIXING:  cpu time    0.0015: real time    0.0015
    --------------------------------------------
      LOOP:  cpu time   17.7563: real time   17.7804

 eigenvalue-minimisations  :  2848
 total energy-change (2. order) :-0.8255024E-01  (-0.1675431E-01)
 number of electron     351.9999984 magnetization 
 augmentation part       -4.6537895 magnetization 

 Broyden mixing:
  rms(total) = 0.44344E-01    rms(broyden)= 0.44342E-01
  rms(prec ) = 0.47710E-01
  weight for this iteration     100.00

 eigenvalues of (default mixing * dielectric matrix)
  average eigenvalue GAMMA=   1.4665
  2.5669  1.2421  1.2421  0.8148

 Free energy of the ion-electron system (eV)
  ---------------------------------------------------
  alpha Z        PSCENC =       892.99476195
  Ewald energy   TEWEN  =    -18432.25580060
  -Hartree energ DENC   =     -7351.54292501
  -exchange      EXHF   =         0.00000000
  -V(xc)+E(xc)   XCENC  =       963.04279585
  PAW double counting   =     23144.23285040   -24215.70008734
  entropy T*S    EENTRO =        -0.00000000
  eigenvalues    EBANDS =     -3010.60057370
  atomic energy  EATOM  =     26580.56019858
  Solvation  Ediel_sol  =         0.00000000
  ---------------------------------------------------
  free energy    TOTEN  =     -1429.26877987 eV

  energy without entropy =    -1429.26877987  energy(sigma->0) =    -1429.26877987


--------------------------------------------------------------------------------------------------------




--------------------------------------- Iteration      1(  10)  ---------------------------------------


    POTLOK:  cpu time    0.2727: real time    0.2789
    SETDIJ:  cpu time    1.1952: real time    1.1952
     EDDAV:  cpu time   15.6069: real time   15.6076
       DOS:  cpu time    0.0008: real time    0.0008
    CHARGE:  cpu time    3.1042: real time    3.1043
    MIXING:  cpu time    0.0015: real time    0.0015
    --------------------------------------------
      LOOP:  cpu time   20.1815: real time   20.1884

 eigenvalue-minimisations  :  3696
 total energy-change (2. order) :-0.1794150E-02  (-0.9541748E-03)
 number of electron     351.9999984 magnetization 
 augmentation part       -4.6406521 magnetization 

 Broyden mixing:
  rms(total) = 0.27293E-01    rms(broyden)= 0.27293E-01
  rms(prec ) = 0.30224E-01
  weight for this iteration     100.00

 eigenvalues of (default mixing * dielectric matrix)
  average eigenvalue GAMMA=   1.5787
  2.3876  2.3876  1.1268  1.1268  0.8648

 Free energy of the ion-electron system (eV)
  ---------------------------------------------------
  alpha Z        PSCENC =       892.99476195
  Ewald energy   TEWEN  =    -18432.25580060
  -Hartree energ DENC   =     -7349.92450284
  -exchange      EXHF   =         0.00000000
  -V(xc)+E(xc)   XCENC  =       962.86480272
  PAW double counting   =     23113.53938521   -24185.10131074
  entropy T*S    EENTRO =        -0.00000000
  eigenvalues    EBANDS =     -3011.94810830
  atomic energy  EATOM  =     26580.56019858
  Solvation  Ediel_sol  =         0.00000000
  ---------------------------------------------------
  free energy    TOTEN  =     -1429.27057402 eV

  energy without entropy =    -1429.27057402  energy(sigma->0) =    -1429.27057402


--------------------------------------------------------------------------------------------------------




--------------------------------------- Iteration      1(  11)  ---------------------------------------


    POTLOK:  cpu time    0.2672: real time    0.2981
    SETDIJ:  cpu time    1.1994: real time    1.1994
     EDDAV:  cpu time   13.2493: real time   13.2499
       DOS:  cpu time    0.0006: real time    0.0006
    CHARGE:  cpu time    3.1096: real time    3.1097
    MIXING:  cpu time    0.0017: real time    0.0017
    --------------------------------------------
      LOOP:  cpu time   17.8277: real time   17.8593

 eigenvalue-minimisations  :  2864
 total energy-change (2. order) :-0.3353696E-02  (-0.3228684E-03)
 number of electron     351.9999984 magnetization 
 augmentation part       -4.6391198 magnetization 

 Broyden mixing:
  rms(total) = 0.91300E-02    rms(broyden)= 0.91298E-02
  rms(prec ) = 0.11359E-01
  weight for this iteration     100.00

 eigenvalues of (default mixing * dielectric matrix)
  average eigenvalue GAMMA=   1.5875
  2.6177  2.6177  1.2322  1.2322  0.9125  0.9125

 Free energy of the ion-electron system (eV)
  ---------------------------------------------------
  alpha Z        PSCENC =       892.99476195
  Ewald energy   TEWEN  =    -18432.25580060
  -Hartree energ DENC   =     -7347.43047281
  -exchange      EXHF   =         0.00000000
  -V(xc)+E(xc)   XCENC  =       962.77241820
  PAW double counting   =     23082.92280670   -24154.76341619
  entropy T*S    EENTRO =        -0.00000000
  eigenvalues    EBANDS =     -3014.07442355
  atomic energy  EATOM  =     26580.56019858
  Solvation  Ediel_sol  =         0.00000000
  ---------------------------------------------------
  free energy    TOTEN  =     -1429.27392772 eV

  energy without entropy =    -1429.27392772  energy(sigma->0) =    -1429.27392772


--------------------------------------------------------------------------------------------------------




--------------------------------------- Iteration      1(  12)  ---------------------------------------


    POTLOK:  cpu time    0.2604: real time    0.3004
    SETDIJ:  cpu time    1.1964: real time    1.1964
     EDDAV:  cpu time   13.5235: real time   13.5239
       DOS:  cpu time    0.0004: real time    0.0004
    CHARGE:  cpu time    3.1117: real time    3.1118
    MIXING:  cpu time    0.0018: real time    0.0018
    --------------------------------------------
      LOOP:  cpu time   18.0941: real time   18.1347

 eigenvalue-minimisations  :  2960
 total energy-change (2. order) :-0.4403958E-03  (-0.9226250E-04)
 number of electron     351.9999984 magnetization 
 augmentation part       -4.6427434 magnetization 

 Broyden mixing:
  rms(total) = 0.36102E-02    rms(broyden)= 0.36099E-02
  rms(prec ) = 0.40959E-02
  weight for this iteration     100.00

 eigenvalues of (default mixing * dielectric matrix)
  average eigenvalue GAMMA=   1.6255
  3.0239  2.4194  1.7494  1.2504  1.0027  0.9664  0.9664

 Free energy of the ion-electron system (eV)
  ---------------------------------------------------
  alpha Z        PSCENC =       892.99476195
  Ewald energy   TEWEN  =    -18432.25580060
  -Hartree energ DENC   =     -7347.65463761
  -exchange      EXHF   =         0.00000000
  -V(xc)+E(xc)   XCENC  =       962.89459628
  PAW double counting   =     23091.23193551   -24163.18205872
  entropy T*S    EENTRO =        -0.00000000
  eigenvalues    EBANDS =     -3013.86336350
  atomic energy  EATOM  =     26580.56019858
  Solvation  Ediel_sol  =         0.00000000
  ---------------------------------------------------
  free energy    TOTEN  =     -1429.27436812 eV

  energy without entropy =    -1429.27436812  energy(sigma->0) =    -1429.27436812


--------------------------------------------------------------------------------------------------------




--------------------------------------- Iteration      1(  13)  ---------------------------------------


    POTLOK:  cpu time    0.2565: real time    0.2929
    SETDIJ:  cpu time    1.2000: real time    1.2000
     EDDAV:  cpu time   14.3608: real time   14.3615
       DOS:  cpu time    0.0005: real time    0.0005
    CHARGE:  cpu time    3.1057: real time    3.1067
    MIXING:  cpu time    0.0021: real time    0.0021
    --------------------------------------------
      LOOP:  cpu time   18.9256: real time   18.9638

 eigenvalue-minimisations  :  3256
 total energy-change (2. order) : 0.1770952E-04  (-0.8873591E-05)
 number of electron     351.9999984 magnetization 
 augmentation part       -4.6426916 magnetization 

 Broyden mixing:
  rms(total) = 0.13489E-02    rms(broyden)= 0.13488E-02
  rms(prec ) = 0.14571E-02
  weight for this iteration     100.00

 eigenvalues of (default mixing * dielectric matrix)
  average eigenvalue GAMMA=   1.6475
  2.9934  2.3179  2.1499  1.4703  1.2638  0.9763  1.0043  1.0043

 Free energy of the ion-electron system (eV)
  ---------------------------------------------------
  alpha Z        PSCENC =       892.99476195
  Ewald energy   TEWEN  =    -18432.25580060
  -Hartree energ DENC   =     -7348.00899101
  -exchange      EXHF   =         0.00000000
  -V(xc)+E(xc)   XCENC  =       962.92210201
  PAW double counting   =     23088.72803698   -24160.68032393
  entropy T*S    EENTRO =        -0.00000000
  eigenvalues    EBANDS =     -3013.53433438
  atomic energy  EATOM  =     26580.56019858
  Solvation  Ediel_sol  =         0.00000000
  ---------------------------------------------------
  free energy    TOTEN  =     -1429.27435041 eV

  energy without entropy =    -1429.27435041  energy(sigma->0) =    -1429.27435041


--------------------------------------------------------------------------------------------------------




--------------------------------------- Iteration      1(  14)  ---------------------------------------


    POTLOK:  cpu time    0.2819: real time    0.3076
    SETDIJ:  cpu time    1.1966: real time    1.1967
     EDDAV:  cpu time   13.3977: real time   13.3985
       DOS:  cpu time    0.0012: real time    0.0012
    CHARGE:  cpu time    3.1087: real time    3.1103
    MIXING:  cpu time    0.0019: real time    0.0019
    --------------------------------------------
      LOOP:  cpu time   17.9881: real time   18.0161

 eigenvalue-minimisations  :  2912
 total energy-change (2. order) :-0.8754040E-05  (-0.1037310E-05)
 number of electron     351.9999984 magnetization 
 augmentation part       -4.6421503 magnetization 

 Broyden mixing:
  rms(total) = 0.30693E-03    rms(broyden)= 0.30686E-03
  rms(prec ) = 0.37439E-03
  weight for this iteration     100.00

 eigenvalues of (default mixing * dielectric matrix)
  average eigenvalue GAMMA=   1.6948
  2.9571  2.9571  2.0359  2.0359  1.1754  1.1754  0.9285  0.9942  0.9942

 Free energy of the ion-electron system (eV)
  ---------------------------------------------------
  alpha Z        PSCENC =       892.99476195
  Ewald energy   TEWEN  =    -18432.25580060
  -Hartree energ DENC   =     -7348.06961035
  -exchange      EXHF   =         0.00000000
  -V(xc)+E(xc)   XCENC  =       962.92500918
  PAW double counting   =     23088.17903438   -24160.12343536
  entropy T*S    EENTRO =        -0.00000000
  eigenvalues    EBANDS =     -3013.48451694
  atomic energy  EATOM  =     26580.56019858
  Solvation  Ediel_sol  =         0.00000000
  ---------------------------------------------------
  free energy    TOTEN  =     -1429.27435916 eV

  energy without entropy =    -1429.27435916  energy(sigma->0) =    -1429.27435916


--------------------------------------------------------------------------------------------------------




--------------------------------------- Iteration      1(  15)  ---------------------------------------


    POTLOK:  cpu time    0.2533: real time    0.3021
    SETDIJ:  cpu time    1.2017: real time    1.2017
     EDDAV:  cpu time   10.1097: real time   10.1100
       DOS:  cpu time    0.0006: real time    0.0006
    CHARGE:  cpu time    3.1077: real time    3.1078
    MIXING:  cpu time    0.0018: real time    0.0018
    --------------------------------------------
      LOOP:  cpu time   14.6747: real time   14.7240

 eigenvalue-minimisations  :  1744
 total energy-change (2. order) :-0.1263533E-04  (-0.1257725E-06)
 number of electron     351.9999984 magnetization 
 augmentation part       -4.6422155 magnetization 

 Broyden mixing:
  rms(total) = 0.24179E-03    rms(broyden)= 0.24178E-03
  rms(prec ) = 0.26412E-03
  weight for this iteration     100.00

 eigenvalues of (default mixing * dielectric matrix)
  average eigenvalue GAMMA=   1.6089
  3.0526  2.5931  2.0758  2.0758  1.2172  1.2172  1.0348  1.0348  0.9391  0.8489

 Free energy of the ion-electron system (eV)
  ---------------------------------------------------
  alpha Z        PSCENC =       892.99476195
  Ewald energy   TEWEN  =    -18432.25580060
  -Hartree energ DENC   =     -7348.05491129
  -exchange      EXHF   =         0.00000000
  -V(xc)+E(xc)   XCENC  =       962.92354058
  PAW double counting   =     23087.89939844   -24159.84396651
  entropy T*S    EENTRO =        -0.00000000
  eigenvalues    EBANDS =     -3013.49759295
  atomic energy  EATOM  =     26580.56019858
  Solvation  Ediel_sol  =         0.00000000
  ---------------------------------------------------
  free energy    TOTEN  =     -1429.27437180 eV

  energy without entropy =    -1429.27437180  energy(sigma->0) =    -1429.27437180


--------------------------------------------------------------------------------------------------------




--------------------------------------- Iteration      1(  16)  ---------------------------------------


    POTLOK:  cpu time    0.2599: real time    0.3099
    SETDIJ:  cpu time    1.1946: real time    1.1947
     EDDAV:  cpu time    9.9980: real time    9.9984
       DOS:  cpu time    0.0004: real time    0.0004
    CHARGE:  cpu time    3.1181: real time    3.1184
    MIXING:  cpu time    0.0019: real time    0.0019
    --------------------------------------------
      LOOP:  cpu time   14.5729: real time   14.6236

 eigenvalue-minimisations  :  1696
 total energy-change (2. order) : 0.1451113E-04  (-0.3532337E-07)
 number of electron     351.9999984 magnetization 
 augmentation part       -4.6422909 magnetization 

 Broyden mixing:
  rms(total) = 0.66361E-04    rms(broyden)= 0.66356E-04
  rms(prec ) = 0.82470E-04
  weight for this iteration     100.00

 eigenvalues of (default mixing * dielectric matrix)
  average eigenvalue GAMMA=   1.6759
  2.9414  2.5939  2.5939  1.9342  1.9342  1.2397  1.2397  1.0138  1.0138  0.9651
  0.9651

 Free energy of the ion-electron system (eV)
  ---------------------------------------------------
  alpha Z        PSCENC =       892.99476195
  Ewald energy   TEWEN  =    -18432.25580060
  -Hartree energ DENC   =     -7348.07419810
  -exchange      EXHF   =         0.00000000
  -V(xc)+E(xc)   XCENC  =       962.92516596
  PAW double counting   =     23088.11437881   -24160.05784353
  entropy T*S    EENTRO =        -0.00000000
  eigenvalues    EBANDS =     -3013.48102034
  atomic energy  EATOM  =     26580.56019858
  Solvation  Ediel_sol  =         0.00000000
  ---------------------------------------------------
  free energy    TOTEN  =     -1429.27435729 eV

  energy without entropy =    -1429.27435729  energy(sigma->0) =    -1429.27435729


--------------------------------------------------------------------------------------------------------




--------------------------------------- Iteration      1(  17)  ---------------------------------------


    POTLOK:  cpu time    0.2758: real time    0.2901
    SETDIJ:  cpu time    1.1951: real time    1.1951
     EDDAV:  cpu time    9.8442: real time    9.8446
       DOS:  cpu time    0.0006: real time    0.0006
    CHARGE:  cpu time    3.1167: real time    3.1168
    MIXING:  cpu time    0.0020: real time    0.0020
    --------------------------------------------
      LOOP:  cpu time   14.4344: real time   14.4493

 eigenvalue-minimisations  :  1640
 total energy-change (2. order) : 0.2155909E-05  (-0.1119559E-07)
 number of electron     351.9999984 magnetization 
 augmentation part       -4.6422340 magnetization 

 Broyden mixing:
  rms(total) = 0.37851E-04    rms(broyden)= 0.37849E-04
  rms(prec ) = 0.47433E-04
  weight for this iteration     100.00

 eigenvalues of (default mixing * dielectric matrix)
  average eigenvalue GAMMA=   1.6896
  3.2691  3.0017  2.3293  2.3293  1.6071  1.6071  1.1789  1.1789  0.9809  0.9809
  0.9062  0.9062

 Free energy of the ion-electron system (eV)
  ---------------------------------------------------
  alpha Z        PSCENC =       892.99476195
  Ewald energy   TEWEN  =    -18432.25580060
  -Hartree energ DENC   =     -7348.08569272
  -exchange      EXHF   =         0.00000000
  -V(xc)+E(xc)   XCENC  =       962.92585198
  PAW double counting   =     23088.05852212   -24160.00119329
  entropy T*S    EENTRO =        -0.00000000
  eigenvalues    EBANDS =     -3013.47100314
  atomic energy  EATOM  =     26580.56019858
  Solvation  Ediel_sol  =         0.00000000
  ---------------------------------------------------
  free energy    TOTEN  =     -1429.27435513 eV

  energy without entropy =    -1429.27435513  energy(sigma->0) =    -1429.27435513


--------------------------------------------------------------------------------------------------------




--------------------------------------- Iteration      1(  18)  ---------------------------------------


    POTLOK:  cpu time    0.2903: real time    0.2997
    SETDIJ:  cpu time    1.1924: real time    1.1924
     EDDAV:  cpu time    9.7455: real time    9.7460
       DOS:  cpu time    0.0004: real time    0.0004
    CHARGE:  cpu time    3.1212: real time    3.1213
    MIXING:  cpu time    0.0019: real time    0.0020
    --------------------------------------------
      LOOP:  cpu time   14.3517: real time   14.3618

 eigenvalue-minimisations  :  1608
 total energy-change (2. order) :-0.1479742E-05  (-0.3721933E-08)
 number of electron     351.9999984 magnetization 
 augmentation part       -4.6422502 magnetization 

 Broyden mixing:
  rms(total) = 0.13153E-04    rms(broyden)= 0.13150E-04
  rms(prec ) = 0.15230E-04
  weight for this iteration     100.00

 eigenvalues of (default mixing * dielectric matrix)
  average eigenvalue GAMMA=   1.6738
  3.3361  2.8093  2.3561  2.3561  1.8235  1.8235  1.2150  1.2150  0.9943  0.9943
  0.9456  0.9455  0.9455

 Free energy of the ion-electron system (eV)
  ---------------------------------------------------
  alpha Z        PSCENC =       892.99476195
  Ewald energy   TEWEN  =    -18432.25580060
  -Hartree energ DENC   =     -7348.08180285
  -exchange      EXHF   =         0.00000000
  -V(xc)+E(xc)   XCENC  =       962.92556880
  PAW double counting   =     23088.04486554   -24159.98784814
  entropy T*S    EENTRO =        -0.00000000
  eigenvalues    EBANDS =     -3013.47429989
  atomic energy  EATOM  =     26580.56019858
  Solvation  Ediel_sol  =         0.00000000
  ---------------------------------------------------
  free energy    TOTEN  =     -1429.27435661 eV

  energy without entropy =    -1429.27435661  energy(sigma->0) =    -1429.27435661


--------------------------------------------------------------------------------------------------------




--------------------------------------- Iteration      1(  19)  ---------------------------------------


    POTLOK:  cpu time    0.2764: real time    0.2953
    SETDIJ:  cpu time    1.1946: real time    1.1946
     EDDAV:  cpu time    9.7462: real time    9.7466
       DOS:  cpu time    0.0003: real time    0.0003
    --------------------------------------------
      LOOP:  cpu time   11.2175: real time   11.2369

 eigenvalue-minimisations  :  1608
 total energy-change (2. order) : 0.2990346E-06  (-0.1260720E-08)
 number of electron     351.9999984 magnetization 
 augmentation part       -4.6422502 magnetization 

 Free energy of the ion-electron system (eV)
  ---------------------------------------------------
  alpha Z        PSCENC =       892.99476195
  Ewald energy   TEWEN  =    -18432.25580060
  -Hartree energ DENC   =     -7348.08084876
  -exchange      EXHF   =         0.00000000
  -V(xc)+E(xc)   XCENC  =       962.92554042
  PAW double counting   =     23088.06666770   -24160.00957404
  entropy T*S    EENTRO =        -0.00000000
  eigenvalues    EBANDS =     -3013.47530155
  atomic energy  EATOM  =     26580.56019858
  Solvation  Ediel_sol  =         0.00000000
  ---------------------------------------------------
  free energy    TOTEN  =     -1429.27435631 eV

  energy without entropy =    -1429.27435631  energy(sigma->0) =    -1429.27435631


--------------------------------------------------------------------------------------------------------




 average (electrostatic) potential at core
  the test charge radii are     1.1312  1.1541  1.0178
  (the norm of the test charge is              1.0000)
       1 -55.3035       2 -55.3035       3 -55.3035       4 -55.3035       5 -55.3035
       6 -55.3035       7 -55.3035       8 -55.3035       9-101.6607      10-101.6607
      11-101.6607      12-101.6607      13-101.6607      14-101.6607      15-101.6607
      16-101.6607      17 -68.9215      18 -68.9215      19 -68.9215      20 -68.9215
      21 -68.9215      22 -68.9215      23 -68.9215      24 -68.9215      25 -69.0723
      26 -69.0723      27 -69.0723      28 -69.0723      29 -69.0723      30 -69.0723
      31 -69.0723      32 -69.0723      33 -68.9215      34 -68.9215      35 -68.9215
      36 -68.9215      37 -68.9215      38 -68.9215      39 -68.9215      40 -68.9215



 E-fermi :   0.5875     XC(G=0):  -8.0462     alpha+bet : -7.0048


 k-point     1 :       0.0000    0.0000    0.0000
  band No.  band energies     occupation 
      1     -20.8341      2.00000
      2     -20.8330      2.00000
      3     -20.8330      2.00000
      4     -20.8321      2.00000
      5     -20.8314      2.00000
      6     -20.8305      2.00000
      7     -20.8305      2.00000
      8     -20.8292      2.00000
      9     -16.5073      2.00000
     10     -16.5014      2.00000
     11     -16.5014      2.00000
     12     -16.4886      2.00000
     13     -16.4527      2.00000
     14     -16.4523      2.00000
     15     -16.4368      2.00000
     16     -16.4368      2.00000
     17     -16.4269      2.00000
     18     -16.4139      2.00000
     19     -16.4139      2.00000
     20     -16.4011      2.00000
     21     -16.3943      2.00000
     22     -16.3943      2.00000
     23     -16.3801      2.00000
     24     -16.3798      2.00000
     25     -16.3228      2.00000
     26     -16.3226      2.00000
     27     -16.3222      2.00000
     28     -16.3222      2.00000
     29     -16.3220      2.00000
     30     -16.3220      2.00000
     31     -16.3211      2.00000
     32     -16.3211      2.00000
     33     -16.3168      2.00000
     34     -16.3168      2.00000
     35     -16.3165      2.00000
     36     -16.3165      2.00000
     37     -16.3163      2.00000
     38     -16.3163      2.00000
     39     -16.3161      2.00000
     40     -16.3161      2.00000
     41     -16.3159      2.00000
     42     -16.3159      2.00000
     43     -16.3157      2.00000
     44     -16.3157      2.00000
     45     -16.3150      2.00000
     46     -16.3150      2.00000
     47     -16.3149      2.00000
     48     -16.3149      2.00000
     49     -14.3386      2.00000
     50     -14.1859      2.00000
     51     -14.1859      2.00000
     52     -14.1245      2.00000
     53     -14.1245      2.00000
     54     -14.1232      2.00000
     55     -14.1204      2.00000
     56     -14.0993      2.00000
     57     -14.0327      2.00000
     58     -13.9669      2.00000
     59     -13.9669      2.00000
     60     -13.9482      2.00000
     61     -13.9482      2.00000
     62     -13.9300      2.00000
     63     -13.9300      2.00000
     64     -13.9221      2.00000
     65     -13.9221      2.00000
     66     -13.8791      2.00000
     67     -13.8791      2.00000
     68     -13.7422      2.00000
     69     -13.7320      2.00000
     70     -13.7170      2.00000
     71     -13.7170      2.00000
     72     -13.7153      2.00000
     73      -8.1740      2.00000
     74      -7.7569      2.00000
     75      -7.7569      2.00000
     76      -7.5049      2.00000
     77      -7.3566      2.00000
     78      -7.2866      2.00000
     79      -7.2866      2.00000
     80      -7.2751      2.00000
     81      -7.2751      2.00000
     82      -7.2696      2.00000
     83      -7.2696      2.00000
     84      -7.2593      2.00000
     85      -7.2593      2.00000
     86      -7.2379      2.00000
     87      -7.2379      2.00000
     88      -7.2310      2.00000
     89      -7.2265      2.00000
     90      -7.2265      2.00000
     91      -7.2164      2.00000
     92      -7.2164      2.00000
     93      -7.2065      2.00000
     94      -7.1969      2.00000
     95      -7.1969      2.00000
     96      -7.1943      2.00000
     97      -7.1900      2.00000
     98      -7.1900      2.00000
     99      -7.1757      2.00000
    100      -7.1757      2.00000
    101      -7.1137      2.00000
    102      -7.0063      2.00000
    103      -7.0063      2.00000
    104      -6.5349      2.00000
    105      -3.4777      2.00000
    106      -3.4309      2.00000
    107      -3.4309      2.00000
    108      -3.3212      2.00000
    109      -3.1649      2.00000
    110      -3.1649      2.00000
    111      -3.0671      2.00000
    112      -3.0671      2.00000
    113      -3.0565      2.00000
    114      -3.0565      2.00000
    115      -2.8733      2.00000
    116      -2.8733      2.00000
    117      -2.1579      2.00000
    118      -2.1579      2.00000
    119      -2.1130      2.00000
    120      -2.0963      2.00000
    121      -2.0963      2.00000
    122      -1.8823      2.00000
    123      -1.8823      2.00000
    124      -1.8473      2.00000
    125      -1.8377      2.00000
    126      -1.7308      2.00000
    127      -1.7308      2.00000
    128      -1.6527      2.00000
    129      -1.6527      2.00000
    130      -1.5638      2.00000
    131      -1.5638      2.00000
    132      -1.5282      2.00000
    133      -1.5282      2.00000
    134      -1.5038      2.00000
    135      -1.5038      2.00000
    136      -1.4899      2.00000
    137      -1.4899      2.00000
    138      -1.4806      2.00000
    139      -1.4806      2.00000
    140      -1.4593      2.00000
    141      -1.4316      2.00000
    142      -1.4203      2.00000
    143      -1.4124      2.00000
    144      -1.3981      2.00000
    145      -1.3981      2.00000
    146      -1.3595      2.00000
    147      -1.3595      2.00000
    148      -1.3066      2.00000
    149      -1.3066      2.00000
    150      -1.2918      2.00000
    151      -1.2918      2.00000
    152      -1.2876      2.00000
    153      -1.2876      2.00000
    154      -1.1877      2.00000
    155      -1.1877      2.00000
    156      -1.1795      2.00000
    157      -1.1454      2.00000
    158      -1.1454      2.00000
    159      -1.1189      2.00000
    160      -1.1090      2.00000
    161      -1.1090      2.00000
    162      -1.0578      2.00000
    163      -1.0364      2.00000
    164      -1.0124      2.00000
    165      -1.0124      2.00000
    166      -0.9437      2.00000
    167      -0.9437      2.00000
    168      -0.8566      2.00000
    169      -0.8566      2.00000
    170      -0.8519      2.00000
[...]
 total charge-density along one line

 pseudopotential strength for first ion, spin component:           1
 17.983  -4.708   0.000   0.000   0.000  -0.000  -0.000  -0.000
 -4.708   1.241  -0.000  -0.000  -0.000   0.000   0.000   0.000
  0.000  -0.000   2.269  -0.000  -0.000  -2.715   0.000   0.000
  0.000  -0.000  -0.000   2.267  -0.000   0.000  -2.713   0.000
  0.000  -0.000  -0.000  -0.000   2.274   0.000   0.000  -2.721
 -0.000   0.000  -2.715   0.000   0.000   3.217  -0.000  -0.000
 -0.000   0.000   0.000  -2.713   0.000  -0.000   3.213  -0.000
 -0.000   0.000   0.000   0.000  -2.721  -0.000  -0.000   3.224
 -0.000   0.000   0.000   0.000   0.000  -0.000  -0.000  -0.000
 -0.000   0.000   0.000   0.000   0.000  -0.000  -0.000  -0.000
 -0.003   0.001  -0.000   0.000  -0.000   0.000  -0.000   0.000
 -0.000   0.000   0.000   0.000   0.000  -0.000  -0.000  -0.000
  0.002  -0.001  -0.000   0.000   0.000   0.000  -0.000  -0.000
 total augmentation occupancy for first ion, spin component:           1
  1.911  -0.141   0.000   0.000   0.000   0.000   0.000   0.000   0.000   0.000  -0.004   0.000   0.003
 -0.141   0.116   0.000   0.000   0.000   0.000   0.000   0.000  -0.000   0.000   0.013   0.000  -0.010
  0.000   0.000   2.015   0.000   0.000   0.002   0.000   0.000   0.000  -0.000   0.000  -0.000   0.000
  0.000   0.000   0.000   2.008   0.000   0.000  -0.002   0.000  -0.000   0.000  -0.000  -0.000   0.000
  0.000   0.000   0.000   0.000   2.027   0.000   0.000   0.010   0.000  -0.000  -0.000  -0.000  -0.000
  0.000   0.000   0.002   0.000   0.000   0.009   0.000   0.000  -0.000   0.000  -0.000  -0.000  -0.000
  0.000   0.000   0.000  -0.002   0.000   0.000   0.012   0.000  -0.000   0.000  -0.000   0.000   0.000
  0.000   0.000   0.000   0.000   0.010   0.000   0.000   0.003   0.000  -0.000   0.000   0.000  -0.000
  0.000  -0.000   0.000  -0.000   0.000  -0.000  -0.000   0.000   0.003  -0.000  -0.000  -0.000   0.000
  0.000   0.000  -0.000   0.000  -0.000   0.000   0.000  -0.000  -0.000   0.011  -0.000   0.000  -0.000
 -0.004   0.013   0.000  -0.000  -0.000  -0.000  -0.000   0.000  -0.000  -0.000   0.005  -0.000  -0.002
  0.000   0.000  -0.000  -0.000  -0.000  -0.000   0.000   0.000  -0.000   0.000  -0.000   0.001   0.000
  0.003  -0.010   0.000   0.000  -0.000  -0.000   0.000  -0.000   0.000  -0.000  -0.002   0.000   0.002


------------------------ aborting loop because EDIFF is reached ----------------------------------------





 total charge     

# of ion       s       p       d       tot
------------------------------------------
    1        1.785   4.719   0.018   6.522
    2        1.785   4.719   0.018   6.522
    3        1.785   4.719   0.018   6.522
    4        1.785   4.719   0.018   6.522
    5        1.785   4.719   0.018   6.522
    6        1.785   4.719   0.018   6.522
    7        1.785   4.719   0.018   6.522
    8        1.785   4.719   0.018   6.522
    9        1.555   0.416   9.834  11.805
   10        1.555   0.416   9.834  11.805
   11        1.555   0.416   9.834  11.805
   12        1.555   0.416   9.834  11.805
   13        1.555   0.416   9.834  11.805
   14        1.555   0.416   9.834  11.805
   15        1.555   0.416   9.834  11.805
   16        1.555   0.416   9.834  11.805
   17        1.613   3.299   0.005   4.917
   18        1.613   3.299   0.005   4.917
   19        1.613   3.299   0.005   4.917
   20        1.613   3.299   0.005   4.917
   21        1.613   3.299   0.005   4.917
   22        1.613   3.299   0.005   4.917
   23        1.613   3.299   0.005   4.917
   24        1.613   3.299   0.005   4.917
   25        1.615   3.287   0.007   4.909
   26        1.615   3.287   0.007   4.909
   27        1.615   3.287   0.007   4.909
   28        1.615   3.287   0.007   4.909
   29        1.615   3.287   0.007   4.909
   30        1.615   3.287   0.007   4.909
   31        1.615   3.287   0.007   4.909
   32        1.615   3.287   0.007   4.909
   33        1.615   3.270   0.006   4.890
   34        1.615   3.270   0.006   4.890
   35        1.615   3.270   0.006   4.890
   36        1.615   3.270   0.006   4.890
   37        1.615   3.270   0.006   4.890
   38        1.615   3.270   0.006   4.890
   39        1.615   3.270   0.006   4.890
   40        1.615   3.270   0.006   4.890
--------------------------------------------------
tot         65.458 119.926  78.959 264.343

    CHARGE:  cpu time    0.4225: real time    0.4226
    FORLOC:  cpu time    0.0111: real time    0.0111
    FORNL :  cpu time    1.5528: real time    1.5528
    STRESS:  cpu time   39.7921: real time   39.7936
    FORCOR:  cpu time    0.2401: real time    0.2401
    FORHAR:  cpu time    0.0273: real time    0.0273
    MIXING:  cpu time    0.0021: real time    0.0021
    OFIELD:  cpu time    0.0000: real time    0.0000

  FORCE on cell =-STRESS in cart. coord.  units (eV):
  Direction    XX          YY          ZZ          XY          YZ          ZX
  --------------------------------------------------------------------------------------
  Alpha Z   892.99476   892.99476   892.99476
  Ewald   -6364.96686 -6364.96686 -5702.41007     0.00000     0.00000    -0.00000
  Hartree  2368.70249  2368.70249  2610.67759    -0.00000    -0.00000    -0.00000
  E(xc)   -1478.42328 -1478.26688 -1476.72481     0.00000    -0.00000     0.00000
  Local   -2534.21221 -2534.21221 -3436.88566    -0.00000     0.00000    -0.00000
  n-local  1795.80758  1796.03409  1806.57614     0.00000    -0.00000    -0.00000
  augment   812.72780   812.72780   812.18233     0.00000    -0.00006    -0.00006
  Kinetic  4494.91735  4503.21202  4505.97444     0.00000    -0.00000     0.00000
  Fock        0.00000     0.00000     0.00000     0.00000     0.00000     0.00000
  -------------------------------------------------------------------------------------
  Total      -8.11358    -8.11358    12.38473     0.00000     0.00000     0.00000
  in kB      -8.04331    -8.04331    12.27747     0.00000     0.00000     0.00000
  external pressure =       -1.27 kB  Pullay stress =        0.00 kB


 VOLUME and BASIS-vectors are now :
 -----------------------------------------------------------------------------
  energy-cutoff  :      300.00
  volume of cell :     1616.17
      direct lattice vectors                 reciprocal lattice vectors
    11.735352000  0.000000000  0.000000000     0.085212612  0.000000000  0.000000000
     0.000000000 11.735352000  0.000000000     0.000000000  0.085212612  0.000000000
     0.000000000  0.000000000 11.735352000     0.000000000  0.000000000  0.085212612

  length of vectors
    11.735352000 11.735352000 11.735352000     0.085212612  0.085212612  0.085212612


 FORCES acting on ions
    electron-ion (+dipol)            ewald-force                    non-local-force                 convergence-correction
 -----------------------------------------------------------------------------------------------
   0.862E-10 -.116E-10 0.572E-10   0.230E-13 -.178E-13 0.711E-14   0.000E+00 0.000E+00 -.193E-25   0.762E-13 -.210E-16 0.152E-12
   0.218E-10 -.209E-09 0.106E-09   0.168E-13 -.355E-14 0.711E-14   0.000E+00 0.000E+00 0.802E-26   0.610E-13 0.444E-13 -.108E-12
   0.144E-09 0.745E-10 -.823E-10   0.580E-14 -.888E-14 -.888E-14   0.404E-27 -.103E-24 -.250E-25   0.276E-13 0.645E-13 0.164E-12
   0.379E-10 0.128E-09 0.210E-09   -.130E-14 -.160E-13 -.178E-14   0.000E+00 0.000E+00 0.101E-25   0.676E-14 0.203E-13 -.117E-12
   0.218E-09 0.446E-10 -.493E-10   -.286E-14 -.355E-14 -.107E-13   0.000E+00 -.103E-24 -.195E-25   0.218E-13 0.130E-13 0.182E-12
   0.135E-09 -.103E-10 0.128E-09   0.460E-13 -.355E-14 0.000E+00   0.000E+00 0.000E+00 0.105E-25   0.394E-13 0.664E-13 -.142E-12
   0.370E-09 0.118E-09 0.126E-09   -.700E-14 0.000E+00 0.000E+00   -.646E-26 0.000E+00 -.191E-25   0.718E-13 0.434E-13 0.180E-12
   0.245E-09 -.123E-09 -.613E-10   0.102E-15 0.000E+00 0.711E-14   0.000E+00 0.258E-25 0.864E-26   0.924E-13 -.950E-14 -.142E-12
   -.114E-13 -.279E-13 0.345E-13   0.888E-14 -.115E-12 0.343E-13   -.993E-23 0.248E-23 0.111E-23   0.963E-13 0.809E-13 -.365E-12
   0.208E-13 -.866E-14 0.115E-11   -.711E-14 -.101E-12 0.360E-13   0.331E-23 0.000E+00 0.367E-24   0.297E-13 0.713E-13 -.439E-13
   0.570E-14 0.115E-11 -.158E-13   0.426E-13 0.258E-13 0.322E-13   0.132E-22 -.662E-23 -.576E-24   0.275E-13 -.124E-12 -.425E-12
   -.157E-13 0.116E-11 0.111E-11   0.568E-13 0.711E-14 0.339E-13   -.827E-24 -.517E-25 -.101E-24   -.119E-14 -.125E-12 0.377E-13
   0.113E-11 -.127E-13 0.620E-11   0.613E-13 -.622E-14 0.304E-13   0.662E-23 -.132E-22 -.122E-24   -.664E-13 0.192E-12 -.318E-12
   0.111E-11 -.382E-14 -.764E-11   0.391E-13 -.195E-13 0.322E-13   0.000E+00 0.000E+00 0.260E-23   -.549E-14 0.179E-12 -.968E-13
   0.418E-11 -.380E-11 0.198E-11   0.355E-14 -.835E-13 0.290E-13   -.165E-23 0.972E-23 0.333E-24   -.195E-13 -.220E-12 -.419E-12
   0.171E-11 -.199E-11 -.132E-11   0.000E+00 -.114E-12 0.591E-13   0.000E+00 -.414E-23 -.213E-23   0.126E-13 -.214E-12 0.102E-13
   0.298E+02 0.423E-11 0.502E-08   -.302E+02 0.799E-13 0.395E-14   0.484E+00 0.827E-24 0.240E-22   0.109E-04 0.123E-13 -.847E-13
   0.298E+02 0.376E-12 0.502E-08   -.302E+02 0.711E-13 0.837E-14   0.484E+00 0.000E+00 -.254E-23   0.109E-04 0.132E-13 -.310E-14
   -.298E+02 0.499E-12 -.500E-08   0.302E+02 0.462E-13 -.760E-14   -.484E+00 0.000E+00 -.251E-22   -.109E-04 -.494E-13 -.100E-12
   -.298E+02 0.523E-12 -.500E-08   0.302E+02 0.604E-13 -.319E-14   -.484E+00 0.165E-23 -.255E-22   -.109E-04 -.532E-13 0.101E-13
   -.298E+02 -.372E-12 -.501E-08   0.302E+02 0.648E-13 -.506E-15   -.484E+00 0.000E+00 0.142E-23   -.109E-04 -.739E-13 -.704E-13
   -.298E+02 0.107E-11 -.500E-08   0.302E+02 0.604E-13 -.674E-14   -.484E+00 0.165E-23 0.114E-23   -.109E-04 -.461E-13 -.151E-13
   0.298E+02 0.203E-11 0.501E-08   -.302E+02 0.826E-13 -.490E-15   0.484E+00 0.827E-24 0.223E-22   0.109E-04 0.341E-13 -.824E-13
   0.298E+02 0.199E-11 0.500E-08   -.302E+02 0.959E-13 0.749E-14   0.484E+00 0.000E+00 0.231E-22   0.109E-04 0.449E-14 -.442E-14
   0.106E-13 -.751E-15 -.791E-14   -.568E-13 -.400E-14 -.346E-13   0.000E+00 0.000E+00 0.463E-24   -.274E-14 0.604E-13 0.184E-12
   0.916E-14 0.349E-15 0.869E-13   -.711E-13 -.400E-14 -.346E-13   0.000E+00 0.000E+00 -.847E-24   0.232E-13 0.559E-13 -.328E-13
   0.384E-14 0.123E-12 0.397E-13   -.782E-13 0.888E-15 -.355E-13   0.000E+00 0.000E+00 0.946E-24   -.170E-13 -.583E-13 0.178E-12
   0.104E-14 0.881E-13 0.412E-13   -.711E-13 0.444E-14 -.320E-13   0.000E+00 0.000E+00 -.620E-24   0.147E-14 -.526E-13 -.378E-13
   0.113E-12 0.125E-14 -.701E-11   -.595E-13 -.844E-14 -.320E-13   0.000E+00 -.103E-24 0.929E-24   -.138E-13 0.100E-12 0.145E-12
   0.104E-12 -.587E-15 0.203E-11   -.844E-13 -.111E-13 -.320E-13   0.000E+00 0.000E+00 0.807E-24   -.405E-13 0.978E-13 -.802E-15
   0.639E-12 -.219E-11 -.391E-11   -.355E-13 -.178E-14 -.320E-13   0.000E+00 0.000E+00 -.532E-24   0.757E-14 -.921E-13 0.174E-12
   0.116E-11 -.396E-12 -.334E-12   -.497E-13 0.178E-14 -.284E-13   0.000E+00 -.517E-25 -.884E-24   -.124E-13 -.914E-13 -.338E-13
   -.527E-13 -.298E+02 -.500E-08   0.254E-13 0.302E+02 -.569E-14   0.775E-24 -.484E+00 0.148E-23   0.537E-13 -.109E-04 -.519E-13
   -.463E-13 -.298E+02 -.500E-08   0.396E-13 0.302E+02 -.323E-14   0.000E+00 -.484E+00 -.128E-22   0.192E-13 -.109E-04 0.174E-13
   0.537E-13 0.298E+02 0.500E-08   -.330E-13 -.302E+02 -.443E-14   -.517E-25 0.484E+00 -.293E-22   -.632E-13 0.109E-04 -.135E-12
   0.523E-13 0.298E+02 0.500E-08   -.116E-13 -.302E+02 0.158E-14   0.827E-24 0.484E+00 -.961E-25   -.712E-13 0.109E-04 0.196E-14
   0.993E-13 0.298E+02 0.500E-08   0.577E-14 -.302E+02 -.871E-14   0.000E+00 0.484E+00 0.104E-22   -.912E-13 0.109E-04 -.832E-13
   0.948E-13 0.298E+02 0.500E-08   -.332E-13 -.302E+02 0.440E-14   0.827E-24 0.484E+00 0.127E-22   -.598E-13 0.109E-04 -.619E-13
   0.171E-13 -.298E+02 -.500E-08   0.612E-13 0.302E+02 -.486E-14   0.827E-24 -.484E+00 0.123E-23   0.311E-13 -.109E-04 -.563E-13
   0.140E-13 -.298E+02 -.500E-08   0.329E-13 0.302E+02 0.114E-14   0.827E-24 -.484E+00 0.506E-24   0.363E-13 -.109E-04 0.473E-13
 -----------------------------------------------------------------------------------------------
   0.127E-08 0.248E-10 0.464E-09   -.710E-13 0.355E-14 0.753E-14   0.403E-23 -.111E-15 0.456E-23   0.143E-12 -.133E-12 -.155E-11


 POSITION                                       TOTAL-FORCE (eV/Angst)
 -----------------------------------------------------------------------------------
      2.93384      2.93384      2.93384        -0.000000     -0.000000      0.000000
      2.93384      2.93384      8.80151        -0.000000     -0.000000      0.000000
      2.93384      8.80151      2.93384        -0.000000     -0.000000      0.000000
      2.93384      8.80151      8.80151        -0.000000     -0.000000      0.000000
      8.80151      2.93384      2.93384        -0.000000     -0.000000      0.000000
      8.80151      2.93384      8.80151        -0.000000     -0.000000      0.000000
      8.80151      8.80151      2.93384        -0.000000     -0.000000      0.000000
      8.80151      8.80151      8.80151        -0.000000     -0.000000      0.000000
      0.00000      0.00000      0.00000        -0.000000     -0.000000      0.000000
      0.00000      0.00000      5.86768        -0.000000     -0.000000      0.000000
      0.00000      5.86768      0.00000        -0.000000     -0.000000      0.000000
      0.00000      5.86768      5.86768        -0.000000     -0.000000      0.000000
      5.86768      0.00000      0.00000        -0.000000     -0.000000      0.000000
      5.86768      0.00000      5.86768        -0.000000     -0.000000      0.000000
      5.86768      5.86768      0.00000        -0.000000     -0.000000      0.000000
      5.86768      5.86768      5.86768        -0.000000     -0.000000      0.000000
     10.94322      2.93384      0.00000         0.129885     -0.000000      0.000000
     10.94322      2.93384      5.86768         0.129885     -0.000000     -0.000000
      0.79214      8.80151      0.00000        -0.129885     -0.000000     -0.000000
      0.79214      8.80151      5.86768        -0.129885     -0.000000     -0.000000
      6.65981      2.93384      0.00000        -0.129885     -0.000000     -0.000000
      6.65981      2.93384      5.86768        -0.129885     -0.000000     -0.000000
      5.07554      8.80151      0.00000         0.129885     -0.000000      0.000000
      5.07554      8.80151      5.86768         0.129885     -0.000000      0.000000
      0.00000      0.00000      2.93384        -0.000000     -0.000000      0.000000
      0.00000      0.00000      8.80151        -0.000000     -0.000000      0.000000
      0.00000      5.86768      2.93384        -0.000000     -0.000000      0.000000
      0.00000      5.86768      8.80151        -0.000000     -0.000000      0.000000
      5.86768      0.00000      2.93384        -0.000000     -0.000000      0.000000
      5.86768      0.00000      8.80151        -0.000000     -0.000000      0.000000
      5.86768      5.86768      2.93384        -0.000000     -0.000000      0.000000
      5.86768      5.86768      8.80151        -0.000000     -0.000000      0.000000
      2.93384      0.79214      0.00000        -0.000000     -0.129885     -0.000000
      2.93384      0.79214      5.86768        -0.000000     -0.129885      0.000000
      2.93384      5.07554      0.00000        -0.000000      0.129885     -0.000000
      2.93384      5.07554      5.86768        -0.000000      0.129885      0.000000
      8.80151     10.94322      0.00000        -0.000000      0.129885      0.000000
      8.80151     10.94322      5.86768        -0.000000      0.129885      0.000000
      8.80151      6.65981      0.00000        -0.000000     -0.129885     -0.000000
      8.80151      6.65981      5.86768        -0.000000     -0.129885     -0.000000
 -----------------------------------------------------------------------------------
    total drift:                                0.000000      0.000000      0.000000


--------------------------------------------------------------------------------------------------------



  FREE ENERGIE OF THE ION-ELECTRON SYSTEM (eV)
  ---------------------------------------------------
  free  energy   TOTEN  =     -1429.27435631 eV

  energy  without entropy=    -1429.27435631  energy(sigma->0) =    -1429.27435631



--------------------------------------------------------------------------------------------------------


    POTLOK:  cpu time    1.4285: real time    1.4286


--------------------------------------------------------------------------------------------------------


 stress matrix after NEB project (eV)
     -8.11358      0.00000      0.00000
      0.00000     -8.11358      0.00000
      0.00000      0.00000     12.38473
  FORCES: max atom, RMS     0.129885    0.082147
  FORCE total and by dimension    0.519541    0.129885
  Stress total and by dimension   16.883187   12.384732
     LOOP+:  cpu time  361.2418: real time  362.2182
    4ORBIT:  cpu time    0.0000: real time    0.0000



 total charge     

# of ion       s       p       d       tot
------------------------------------------
    1        1.785   4.719   0.018   6.522
    2        1.785   4.719   0.018   6.522
    3        1.785   4.719   0.018   6.522
    4        1.785   4.719   0.018   6.522
    5        1.785   4.719   0.018   6.522
    6        1.785   4.719   0.018   6.522
    7        1.785   4.719   0.018   6.522
    8        1.785   4.719   0.018   6.522
    9        1.555   0.416   9.834  11.805
   10        1.555   0.416   9.834  11.805
   11        1.555   0.416   9.834  11.805
   12        1.555   0.416   9.834  11.805
   13        1.555   0.416   9.834  11.805
   14        1.555   0.416   9.834  11.805
   15        1.555   0.416   9.834  11.805
   16        1.555   0.416   9.834  11.805
   17        1.613   3.299   0.005   4.917
   18        1.613   3.299   0.005   4.917
   19        1.613   3.299   0.005   4.917
   20        1.613   3.299   0.005   4.917
   21        1.613   3.299   0.005   4.917
   22        1.613   3.299   0.005   4.917
   23        1.613   3.299   0.005   4.917
   24        1.613   3.299   0.005   4.917
   25        1.615   3.287   0.007   4.909
   26        1.615   3.287   0.007   4.909
   27        1.615   3.287   0.007   4.909
   28        1.615   3.287   0.007   4.909
   29        1.615   3.287   0.007   4.909
   30        1.615   3.287   0.007   4.909
   31        1.615   3.287   0.007   4.909
   32        1.615   3.287   0.007   4.909
   33        1.615   3.270   0.006   4.890
   34        1.615   3.270   0.006   4.890
   35        1.615   3.270   0.006   4.890
   36        1.615   3.270   0.006   4.890
   37        1.615   3.270   0.006   4.890
   38        1.615   3.270   0.006   4.890
   39        1.615   3.270   0.006   4.890
   40        1.615   3.270   0.006   4.890
--------------------------------------------------
tot         65.458 119.926  78.959 264.343


 total amount of memory used by VASP MPI-rank0    58958. kBytes
=======================================================================

   base      :      30000. kBytes
   nonlr-proj:       6586. kBytes
   fftplans  :       8423. kBytes
   grid      :       7465. kBytes
   one-center:         77. kBytes
   wavefun   :       6407. kBytes

  
  
 General timing and accounting informations for this job:
 ========================================================
  
                  Total CPU time used (sec):      380.095
                            User time (sec):      376.323
                          System time (sec):        3.772
                         Elapsed time (sec):      381.368
  
                   Maximum memory used (kb):      128012.
                   Average memory used (kb):           0.
  
                          Minor page faults:       256960
                          Major page faults:            1
                 Voluntary context switches:         1797
