<?xml version="1.0" encoding="ISO-8859-1"?>
<modeling>
 <generator>
  <i name="program" type="string">vasp </i>
  <i name="version" type="string">5.4.4.18Apr17-6-g9f103f2a35  </i>
  <i name="subversion" type="string">(build Jun 22 2020 09:27:21) complex            parallel </i>
  <i name="platform" type="string">tx2_gcc-7.3_libsci-18.07_cray-fftw-3.3.8 </i>
  <i name="date" type="string">2021 09 22 </i>
  <i name="time" type="string">08:24:40 </i>
 </generator>
 <incar>
  <i type="string" name="SYSTEM"> CsPbBr3 cubic bulk</i>
  <i type="string" name="PREC">accurate</i>
  <i type="string" name="ALGO"> Normal   ! Electronic minimisation algo</i>
  <i type="logical" name="ADDGRID"> T  </i>
  <i type="int" name="NELM">   200</i>
  <i type="int" name="IBRION">     2</i>
  <i name="EDIFF">      0.00000100</i>
  <i name="EDIFFG">     -0.01000000</i>
  <i type="int" name="NSW">     0</i>
  <i type="int" name="ISIF">     3</i>
  <i type="int" name="ISYM">     2</i>
  <i name="ENCUT">    300.00000000</i>
  <i name="POTIM">      0.50000000</i>
  <i type="string" name="LREAL"> AUTO</i>
  <i type="int" name="ISMEAR">     0</i>
  <i name="SIGMA">      0.01000000</i>
  <i name="PSTRESS">      0.00000000</i>
  <i type="logical" name="LWAVE"> F  </i>
  <i type="logical" name="LCHARG"> T  </i>
  <i type="logical" name="LVHAR"> T  </i>
  <i type="int" name="LORBIT">    10</i>
  <i type="logical" name="LASPH"> T  </i>
  <v type="int" name="KPOINT_BSE">    -1     0     0     0</v>
  <i type="int" name="NELM">   200</i>
  <i type="string" name="METAGGA"> SCAN       ! PBE exchange-correlation</i>
  <i type="logical" name="LASPH"> T  </i>
 </incar>
 <structure name="primitive_cell" >
  <crystal>
   <varray name="basis" >
    <v>       5.86767600      -5.86767600       0.00000000 </v>
    <v>      -5.86767600      -5.86767600       0.00000000 </v>
    <v>       0.00000000       0.00000000      -5.86767600 </v>
   </varray>
   <i name="volume">    404.04372918 </i>
   <varray name="rec_basis" >
    <v>       0.08521261      -0.08521261       0.00000000 </v>
    <v>      -0.08521261      -0.08521261      -0.00000000 </v>
    <v>       0.00000000      -0.00000000      -0.17042522 </v>
   </varray>
  </crystal>
  <varray name="positions" >
   <v>       0.00000000      -0.50000000      -0.50000000 </v>
   <v>       0.18250000      -0.31750000       0.00000000 </v>
   <v>      -0.18250000       0.31750000       0.00000000 </v>
   <v>       0.00000000       0.00000000      -0.50000000 </v>
   <v>      -0.50000000      -0.50000000      -0.50000000 </v>
   <v>      -0.31750000      -0.18250000       0.00000000 </v>
   <v>       0.31750000       0.18250000       0.00000000 </v>
   <v>       0.00000000       0.00000000       0.00000000 </v>
   <v>      -0.50000000      -0.50000000       0.00000000 </v>
   <v>      -0.50000000       0.00000000      -0.50000000 </v>
  </varray>
 </structure>
 <varray name="primitive_index" >
  <v type="int" >        1 </v>
  <v type="int" >       33 </v>
  <v type="int" >       35 </v>
  <v type="int" >       25 </v>
  <v type="int" >       27 </v>
  <v type="int" >       17 </v>
  <v type="int" >       21 </v>
  <v type="int" >        9 </v>
  <v type="int" >       11 </v>
  <v type="int" >        3 </v>
 </varray>
 <kpoints>
  <generation param="Gamma">
   <v type="int" name="divisions">       2        2        2 </v>
   <v name="usershift">      0.00000000       0.00000000       0.00000000 </v>
   <v name="genvec1">      0.50000000       0.00000000       0.00000000 </v>
   <v name="genvec2">      0.00000000       0.50000000       0.00000000 </v>
   <v name="genvec3">      0.00000000       0.00000000       0.50000000 </v>
   <v name="shift">      0.00000000       0.00000000       0.00000000 </v>
  </generation>
  <varray name="kpointlist" >
   <v>       0.00000000       0.00000000       0.00000000 </v>
   <v>       0.50000000       0.00000000       0.00000000 </v>
   <v>       0.50000000       0.50000000       0.00000000 </v>
   <v>       0.00000000       0.00000000       0.50000000 </v>
   <v>       0.50000000       0.00000000       0.50000000 </v>
   <v>       0.50000000       0.50000000       0.50000000 </v>
  </varray>
  <varray name="weights" >
   <v>       0.12500000 </v>
   <v>       0.25000000 </v>
   <v>       0.12500000 </v>
   <v>       0.12500000 </v>
   <v>       0.25000000 </v>
   <v>       0.12500000 </v>
  </varray>
 </kpoints>
 <parameters>
  <separator name="general" >
   <i type="string" name="SYSTEM">CsPbBr3 cubic bulk</i>
   <i type="logical" name="LCOMPAT"> F  </i>
  </separator>
  <separator name="electronic" >
   <i type="string" name="PREC">accura</i>
   <i name="ENMAX">    300.00000000</i>
   <i name="ENAUG">    503.85200000</i>
   <i name="EDIFF">      0.00000100</i>
   <i type="int" name="IALGO">    38</i>
   <i type="int" name="IWAVPR">    10</i>
   <i type="int" name="NBANDS">   216</i>
   <i name="NELECT">    352.00000000</i>
   <i type="int" name="TURBO">     0</i>
   <i type="int" name="IRESTART">     0</i>
   <i type="int" name="NREBOOT">     0</i>
   <i type="int" name="NMIN">     0</i>
   <i name="EREF">      0.00000000</i>
   <separator name="electronic smearing" >
    <i type="int" name="ISMEAR">     0</i>
    <i name="SIGMA">      0.01000000</i>
    <i name="KSPACING">      0.50000000</i>
    <i type="logical" name="KGAMMA"> T  </i>
   </separator>
   <separator name="electronic projectors" >
    <i type="logical" name="LREAL"> T  </i>
    <v name="ROPT">     -0.00025000     -0.00025000     -0.00025000</v>
    <i type="int" name="LMAXPAW">  -100</i>
    <i type="int" name="LMAXMIX">     2</i>
    <i type="logical" name="NLSPLINE"> F  </i>
   </separator>
   <separator name="electronic startup" >
    <i type="int" name="ISTART">     0</i>
    <i type="int" name="ICHARG">     2</i>
    <i type="int" name="INIWAV">     1</i>
   </separator>
   <separator name="electronic spin" >
    <i type="int" name="ISPIN">     1</i>
    <i type="logical" name="LNONCOLLINEAR"> F  </i>
    <v name="MAGMOM">      1.00000000      1.00000000      1.00000000      1.00000000      1.00000000      1.00000000      1.00000000      1.00000000      1.00000000      1.00000000      1.00000000      1.00000000      1.00000000      1.00000000      1.00000000      1.00000000      1.00000000      1.00000000      1.00000000      1.00000000
      1.00000000      1.00000000      1.00000000      1.00000000      1.00000000      1.00000000      1.00000000      1.00000000      1.00000000      1.00000000      1.00000000      1.00000000      1.00000000      1.00000000      1.00000000      1.00000000      1.00000000      1.00000000      1.00000000      1.00000000
</v>
    <i name="NUPDOWN">     -1.00000000</i>
    <i type="logical" name="LSORBIT"> F  </i>
    <v name="SAXIS">      0.00000000      0.00000000      1.00000000</v>
    <i type="logical" name="LSPIRAL"> F  </i>
    <v name="QSPIRAL">      0.00000000      0.00000000      0.00000000</v>
    <i type="logical" name="LZEROZ"> F  </i>
   </separator>
   <separator name="electronic exchange-correlation" >
    <i type="logical" name="LASPH"> T  </i>
    <i type="logical" name="LMETAGGA"> F  </i>
   </separator>
   <separator name="electronic convergence" >
    <i type="int" name="NELM">   200</i>
    <i type="int" name="NELMDL">    -5</i>
    <i type="int" name="NELMIN">     2</i>
    <i name="ENINI">    300.00000000</i>
    <separator name="electronic convergence detail" >
     <i type="logical" name="LDIAG"> T  </i>
     <i type="logical" name="LSUBROT"> F  </i>
     <i name="WEIMIN">      0.00000000</i>
     <i name="EBREAK">      0.00000000</i>
     <i name="DEPER">      0.30000000</i>
     <i type="int" name="NRMM">     4</i>
     <i name="TIME">      0.40000000</i>
    </separator>
   </separator>
   <separator name="electronic mixer" >
    <i name="AMIX">      0.40000000</i>
    <i name="BMIX">      1.00000000</i>
    <i name="AMIN">      0.10000000</i>
    <i name="AMIX_MAG">      1.60000000</i>
    <i name="BMIX_MAG">      1.00000000</i>
    <separator name="electronic mixer details" >
     <i type="int" name="IMIX">     4</i>
     <i type="logical" name="MIXFIRST"> F  </i>
     <i type="int" name="MAXMIX">   -45</i>
     <i name="WC">    100.00000000</i>
     <i type="int" name="INIMIX">     1</i>
     <i type="int" name="MIXPRE">     1</i>
     <i type="int" name="MREMOVE">     5</i>
    </separator>
   </separator>
   <separator name="electronic dipolcorrection" >
    <i type="logical" name="LDIPOL"> F  </i>
    <i type="logical" name="LMONO"> F  </i>
    <i type="int" name="IDIPOL">     0</i>
    <i name="EPSILON">      1.00000000</i>
    <v name="DIPOL">   -100.00000000   -100.00000000   -100.00000000</v>
    <i name="EFIELD">      0.00000000</i>
   </separator>
  </separator>
  <separator name="grids" >
   <i type="int" name="NGX">    70</i>
   <i type="int" name="NGY">    70</i>
   <i type="int" name="NGZ">    70</i>
   <i type="int" name="NGXF">   140</i>
   <i type="int" name="NGYF">   140</i>
   <i type="int" name="NGZF">   140</i>
   <i type="logical" name="ADDGRID"> T  </i>
  </separator>
  <separator name="ionic" >
   <i type="int" name="NSW">     0</i>
   <i type="int" name="IBRION">    -1</i>
   <i type="int" name="MDALGO">     0</i>
   <i type="int" name="ISIF">     3</i>
   <i name="PSTRESS">      0.00000000</i>
   <i name="EDIFFG">     -0.01000000</i>
   <i type="int" name="NFREE">     1</i>
   <i name="POTIM">      0.50000000</i>
   <i name="SMASS">     -3.00000000</i>
   <i name="SCALEE">      1.00000000</i>
  </separator>
  <separator name="ionic md" >
   <i name="TEBEG">      0.00010000</i>
   <i name="TEEND">      0.00010000</i>
   <i type="int" name="NBLOCK">     1</i>
   <i type="int" name="KBLOCK">     1</i>
   <i type="int" name="NPACO">   256</i>
   <i name="APACO">     16.00000000</i>
  </separator>
  <separator name="symmetry" >
   <i type="int" name="ISYM">     2</i>
   <i name="SYMPREC">      0.00001000</i>
  </separator>
  <separator name="dos" >
   <i type="int" name="LORBIT">    10</i>
   <v name="RWIGS">     -1.00000000     -1.00000000     -1.00000000</v>
   <i type="int" name="NEDOS">   301</i>
   <i name="EMIN">     10.00000000</i>
   <i name="EMAX">    -10.00000000</i>
   <i name="EFERMI">      0.00000000</i>
  </separator>
  <separator name="writing" >
   <i type="int" name="NWRITE">     2</i>
   <i type="logical" name="LWAVE"> F  </i>
   <i type="logical" name="LDOWNSAMPLE"> F  </i>
   <i type="logical" name="LCHARG"> T  </i>
   <i type="logical" name="LPARD"> F  </i>
   <i type="logical" name="LVTOT"> F  </i>
   <i type="logical" name="LVHAR"> T  </i>
   <i type="logical" name="LELF"> F  </i>
   <i type="logical" name="LOPTICS"> F  </i>
   <v name="STM">      0.00000000      0.00000000      0.00000000      0.00000000      0.00000000      0.00000000      0.00000000</v>
  </separator>
  <separator name="performance" >
   <i type="int" name="NPAR">     8</i>
   <i type="int" name="NSIM">     4</i>
   <i type="int" name="NBLK">    -1</i>
   <i type="logical" name="LPLANE"> T  </i>
   <i type="logical" name="LSCALAPACK"> T  </i>
   <i type="logical" name="LSCAAWARE"> F  </i>
   <i type="logical" name="LSCALU"> F  </i>
   <i type="logical" name="LASYNC"> F  </i>
   <i type="logical" name="LORBITALREAL"> F  </i>
  </separator>
  <separator name="miscellaneous" >
   <i type="int" name="IDIOT">     3</i>
   <i type="int" name="ISPECIAL">     0</i>
   <i type="logical" name="LMUSIC"> F  </i>
   <v name="POMASS">    132.90000000    207.20000000     79.90400000</v>
   <v name="DARWINR">      0.00000000      0.00000000      0.00000000</v>
   <v name="DARWINV">      1.00000000      1.00000000      1.00000000</v>
   <i type="logical" name="LCORR"> T  </i>
  </separator>
  <i type="logical" name="GGA_COMPAT"> T  </i>
  <i type="logical" name="LBERRY"> F  </i>
  <i type="int" name="ICORELEVEL">     0</i>
  <i type="logical" name="LDAU"> F  </i>
  <i type="int" name="I_CONSTRAINED_M">     0</i>
  <separator name="electronic exchange-correlation" >
   <i type="string" name="GGA">--</i>
   <i type="int" name="VOSKOWN">     0</i>
   <i type="logical" name="LHFCALC"> F  </i>
   <i type="string" name="PRECFOCK"></i>
   <i type="logical" name="LSYMGRAD"> F  </i>
   <i type="logical" name="LHFONE"> F  </i>
   <i type="logical" name="LRHFCALC"> F  </i>
   <i type="logical" name="LTHOMAS"> F  </i>
   <i type="logical" name="LMODELHF"> F  </i>
   <i name="ENCUT4O">     -1.00000000</i>
   <i type="int" name="EXXOEP">     0</i>
   <i type="int" name="FOURORBIT">     0</i>
   <i name="AEXX">      0.00000000</i>
   <i name="HFALPHA">      0.00000000</i>
   <i name="MCALPHA">      0.00000000</i>
   <i name="ALDAX">      1.00000000</i>
   <i name="AGGAX">      1.00000000</i>
   <i name="ALDAC">      1.00000000</i>
   <i name="AGGAC">      1.00000000</i>
   <i type="int" name="NKREDX">     1</i>
   <i type="int" name="NKREDY">     1</i>
   <i type="int" name="NKREDZ">     1</i>
   <i type="logical" name="SHIFTRED"> F  </i>
   <i type="logical" name="ODDONLY"> F  </i>
   <i type="logical" name="EVENONLY"> F  </i>
   <i type="int" name="LMAXFOCK">     0</i>
   <i type="int" name="NMAXFOCKAE">     0</i>
   <i type="logical" name="LFOCKAEDFT"> F  </i>
   <i name="HFSCREEN">      0.00000000</i>
   <i name="HFSCREENC">      0.00000000</i>
   <i type="int" name="NBANDSGWLOW">     0</i>
  </separator>
  <separator name="vdW DFT" >
   <i type="logical" name="LUSE_VDW"> F  </i>
   <i name="Zab_VDW">     -0.84910000</i>
   <i name="PARAM1">      0.12340000</i>
   <i name="PARAM2">      1.00000000</i>
   <i name="PARAM3">      0.00000000</i>
  </separator>
  <separator name="model GW" >
   <i type="int" name="MODEL_GW">     0</i>
   <i name="MODEL_EPS0">     24.24262375</i>
   <i name="MODEL_ALPHA">      1.00000000</i>
  </separator>
  <separator name="linear response parameters" >
   <i type="logical" name="LEPSILON"> F  </i>
   <i type="logical" name="LRPA"> F  </i>
   <i type="logical" name="LNABLA"> F  </i>
   <i type="logical" name="LVEL"> F  </i>
   <i type="int" name="KINTER">     0</i>
   <i name="CSHIFT">      0.10000000</i>
   <i name="OMEGAMAX">     -1.00000000</i>
   <i name="DEG_THRESHOLD">      0.00200000</i>
   <i name="RTIME">     -0.10000000</i>
   <i name="WPLASMAI">      0.00000000</i>
   <v name="DFIELD">      0.00000000      0.00000000      0.00000000</v>
   <v name="WPLASMA">      0.00000000      0.00000000      0.00000000      0.00000000      0.00000000      0.00000000      0.00000000      0.00000000      0.00000000</v>
  </separator>
  <separator name="orbital magnetization" >
   <i type="logical" name="NUCIND"> F  </i>
   <v name="MAGPOS">      0.00000000      0.00000000      0.00000000</v>
   <i type="logical" name="LNICSALL"> T  </i>
   <i type="logical" name="ORBITALMAG"> F  </i>
   <i type="logical" name="LMAGBLOCH"> F  </i>
   <i type="logical" name="LCHIMAG"> F  </i>
   <i type="logical" name="LGAUGE"> T  </i>
   <i type="int" name="MAGATOM">     0</i>
   <v name="MAGDIPOL">      0.00000000      0.00000000      0.00000000</v>
   <v name="AVECCONST">      0.00000000      0.00000000      0.00000000</v>
  </separator>
  <separator name="response functions" >
   <i type="logical" name="LADDER"> F  </i>
   <i type="logical" name="LRPAFORCE"> F  </i>
   <i type="logical" name="LFXC"> F  </i>
   <i type="logical" name="LHARTREE"> T  </i>
   <i type="int" name="IBSE">     0</i>
   <v type="int" name="KPOINT">    -1     0     0     0</v>
   <i type="logical" name="LTCTE"> F  </i>
   <i type="logical" name="LTETE"> F  </i>
   <i type="logical" name="LTRIPLET"> F  </i>
   <i type="logical" name="LFXCEPS"> F  </i>
   <i type="logical" name="LFXHEG"> F  </i>
   <i type="int" name="NATURALO">     2</i>
   <i type="logical" name="L2ORDER"> F  </i>
   <i type="logical" name="LMP2LT"> F  </i>
   <i type="logical" name="LUSEW"> F  </i>
   <i name="ENCUTGW">     -2.00000000</i>
   <i name="ENCUTGWSOFT">     -2.00000000</i>
   <i name="ENCUTLF">     -1.00000000</i>
   <i type="int" name="LMAXMP2">    -1</i>
   <i name="SCISSOR">      0.00000000</i>
   <i type="int" name="NOMEGA">     0</i>
   <i type="int" name="NOMEGAR">     0</i>
   <i type="int" name="NBANDSGW">    -1</i>
   <i type="int" name="NBANDSO">    -1</i>
   <i type="int" name="NBANDSV">    -1</i>
   <i type="int" name="NELM">   200</i>
   <i type="int" name="NELMHF">     1</i>
   <i type="int" name="DIM">     3</i>
   <i type="int" name="ANTIRES">     0</i>
   <i name="OMEGAMAX">    -30.00000000</i>
   <i name="OMEGAMIN">    -30.00000000</i>
   <i name="OMEGATL">   -200.00000000</i>
   <i type="int" name="OMEGAGRID">   140</i>
   <i name="CSHIFT">     -0.10000000</i>
   <i type="logical" name="SELFENERGY"> F  </i>
   <i type="logical" name="LSPECTRAL"> F  </i>
   <i type="logical" name="LSPECTRALGW"> F  </i>
   <i type="logical" name="LSINGLES"> F  </i>
   <i type="logical" name="LFERMIGW"> F  </i>
   <i type="logical" name="ODDONLYGW"> F  </i>
   <i type="logical" name="EVENONLYGW"> F  </i>
   <i type="int" name="NKREDLFX">     1</i>
   <i type="int" name="NKREDLFY">     1</i>
   <i type="int" name="NKREDLFZ">     1</i>
   <i type="int" name="MAXMEM">  2800</i>
   <i type="int" name="TELESCOPE">     0</i>
   <i type="int" name="TAUPAR">     1</i>
   <i type="int" name="OMEGAPAR">    -1</i>
   <i name="LAMBDA">      1.00000000</i>
  </separator>
  <separator name="External order field" >
   <i name="OFIELD_KAPPA">      0.00000000</i>
   <v name="OFIELD_K">      0.00000000      0.00000000      0.00000000</v>
   <i name="OFIELD_Q6_NEAR">      0.00000000</i>
   <i name="OFIELD_Q6_FAR">      0.00000000</i>
   <i name="OFIELD_A">      0.00000000</i>
  </separator>
 </parameters>
 <atominfo>
  <atoms>      40 </atoms>
  <types>       3 </types>
  <array name="atoms" >
   <dimension dim="1">ion</dimension>
   <field type="string">element</field>
   <field type="int">atomtype</field>
   <set>
    <rc><c>Cs</c><c>   1</c></rc>
    <rc><c>Cs</c><c>   1</c></rc>
    <rc><c>Cs</c><c>   1</c></rc>
    <rc><c>Cs</c><c>   1</c></rc>
    <rc><c>Cs</c><c>   1</c></rc>
    <rc><c>Cs</c><c>   1</c></rc>
    <rc><c>Cs</c><c>   1</c></rc>
    <rc><c>Cs</c><c>   1</c></rc>
    <rc><c>Pb</c><c>   2</c></rc>
    <rc><c>Pb</c><c>   2</c></rc>
    <rc><c>Pb</c><c>   2</c></rc>
    <rc><c>Pb</c><c>   2</c></rc>
    <rc><c>Pb</c><c>   2</c></rc>
    <rc><c>Pb</c><c>   2</c></rc>
    <rc><c>Pb</c><c>   2</c></rc>
    <rc><c>Pb</c><c>   2</c></rc>
    <rc><c>Br</c><c>   3</c></rc>
    <rc><c>Br</c><c>   3</c></rc>
    <rc><c>Br</c><c>   3</c></rc>
    <rc><c>Br</c><c>   3</c></rc>
    <rc><c>Br</c><c>   3</c></rc>
    <rc><c>Br</c><c>   3</c></rc>
    <rc><c>Br</c><c>   3</c></rc>
    <rc><c>Br</c><c>   3</c></rc>
    <rc><c>Br</c><c>   3</c></rc>
    <rc><c>Br</c><c>   3</c></rc>
    <rc><c>Br</c><c>   3</c></rc>
    <rc><c>Br</c><c>   3</c></rc>
    <rc><c>Br</c><c>   3</c></rc>
    <rc><c>Br</c><c>   3</c></rc>
    <rc><c>Br</c><c>   3</c></rc>
    <rc><c>Br</c><c>   3</c></rc>
    <rc><c>Br</c><c>   3</c></rc>
    <rc><c>Br</c><c>   3</c></rc>
    <rc><c>Br</c><c>   3</c></rc>
    <rc><c>Br</c><c>   3</c></rc>
    <rc><c>Br</c><c>   3</c></rc>
    <rc><c>Br</c><c>   3</c></rc>
    <rc><c>Br</c><c>   3</c></rc>
    <rc><c>Br</c><c>   3</c></rc>
   </set>
  </array>
  <array name="atomtypes" >
   <dimension dim="1">type</dimension>
   <field type="int">atomspertype</field>
   <field type="string">element</field>
   <field>mass</field>
   <field>valence</field>
   <field type="string">pseudopotential</field>
   <set>
    <rc><c>   8</c><c>Cs</c><c>    132.90000000</c><c>      9.00000000</c><c>  PAW_PBE Cs_sv 08Apr2002               </c></rc>
    <rc><c>   8</c><c>Pb</c><c>    207.20000000</c><c>     14.00000000</c><c>  PAW_PBE Pb_d 06Sep2000                </c></rc>
    <rc><c>  24</c><c>Br</c><c>     79.90400000</c><c>      7.00000000</c><c>  PAW_PBE Br 06Sep2000                  </c></rc>
   </set>
  </array>
 </atominfo>
 <structure name="initialpos" >
  <crystal>
   <varray name="basis" >
    <v>      11.73535200       0.00000000       0.00000000 </v>
    <v>       0.00000000      11.73535200       0.00000000 </v>
    <v>       0.00000000       0.00000000      11.73535200 </v>
   </varray>
   <i name="volume">   1616.17491673 </i>
   <varray name="rec_basis" >
    <v>       0.08521261       0.00000000       0.00000000 </v>
    <v>       0.00000000       0.08521261       0.00000000 </v>
    <v>       0.00000000       0.00000000       0.08521261 </v>
   </varray>
  </crystal>
  <varray name="positions" >
   <v>       0.25000000       0.25000000       0.25000000 </v>
   <v>       0.25000000       0.25000000       0.75000000 </v>
   <v>       0.25000000       0.75000000       0.25000000 </v>
   <v>       0.25000000       0.75000000       0.75000000 </v>
   <v>       0.75000000       0.25000000       0.25000000 </v>
   <v>       0.75000000       0.25000000       0.75000000 </v>
   <v>       0.75000000       0.75000000       0.25000000 </v>
   <v>       0.75000000       0.75000000       0.75000000 </v>
   <v>       0.00000000       0.00000000       0.00000000 </v>
   <v>       0.00000000       0.00000000       0.50000000 </v>
   <v>       0.00000000       0.50000000       0.00000000 </v>
   <v>       0.00000000       0.50000000       0.50000000 </v>
   <v>       0.50000000       0.00000000       0.00000000 </v>
   <v>       0.50000000       0.00000000       0.50000000 </v>
   <v>       0.50000000       0.50000000       0.00000000 </v>
   <v>       0.50000000       0.50000000       0.50000000 </v>
   <v>       0.93250000       0.25000000       0.00000000 </v>
   <v>       0.93250000       0.25000000       0.50000000 </v>
   <v>       0.06750000       0.75000000       0.00000000 </v>
   <v>       0.06750000       0.75000000       0.50000000 </v>
   <v>       0.56750000       0.25000000       0.00000000 </v>
   <v>       0.56750000       0.25000000       0.50000000 </v>
   <v>       0.43250000       0.75000000       0.00000000 </v>
   <v>       0.43250000       0.75000000       0.50000000 </v>
   <v>       0.00000000       0.00000000       0.25000000 </v>
   <v>       0.00000000       0.00000000       0.75000000 </v>
   <v>       0.00000000       0.50000000       0.25000000 </v>
   <v>       0.00000000       0.50000000       0.75000000 </v>
   <v>       0.50000000       0.00000000       0.25000000 </v>
   <v>       0.50000000       0.00000000       0.75000000 </v>
   <v>       0.50000000       0.50000000       0.25000000 </v>
   <v>       0.50000000       0.50000000       0.75000000 </v>
   <v>       0.25000000       0.06750000       0.00000000 </v>
   <v>       0.25000000       0.06750000       0.50000000 </v>
   <v>       0.25000000       0.43250000       0.00000000 </v>
   <v>       0.25000000       0.43250000       0.50000000 </v>
   <v>       0.75000000       0.93250000       0.00000000 </v>
   <v>       0.75000000       0.93250000       0.50000000 </v>
   <v>       0.75000000       0.56750000       0.00000000 </v>
   <v>       0.75000000       0.56750000       0.50000000 </v>
  </varray>
 </structure>
 <calculation>
  <scstep>
   <time name="dav">   12.72   12.73</time>
   <time name="total">   14.17   14.18</time>
   <energy>
    <i name="alphaZ">    892.99476195 </i>
    <i name="ewald"> -18432.25580060 </i>
    <i name="hartreedc">  -7316.94322147 </i>
    <i name="XCdc">    923.76595659 </i>
    <i name="pawpsdc">  21633.96174531 </i>
    <i name="pawaedc"> -22707.92185401 </i>
    <i name="eentropy">     -0.00000008 </i>
    <i name="bandstr">   -227.19085343 </i>
    <i name="atom">  26580.56019858 </i>
    <i name="e_fr_energy">   1346.97093283 </i>
    <i name="e_wo_entrp">   1346.97093292 </i>
    <i name="e_0_energy">   1346.97093287 </i>
   </energy>
  </scstep>
  <scstep>
   <time name="dav">   13.99   14.06</time>
   <time name="total">   13.99   14.06</time>
   <energy>
    <i name="e_fr_energy">  -1126.75938511 </i>
    <i name="e_wo_entrp">  -1126.75938511 </i>
    <i name="e_0_energy">  -1126.75938511 </i>
   </energy>
  </scstep>
  <scstep>
   <time name="dav">   15.02   15.05</time>
   <time name="total">   15.02   15.05</time>
   <energy>
    <i name="e_fr_energy">  -1496.08017995 </i>
    <i name="e_wo_entrp">  -1496.08017995 </i>
    <i name="e_0_energy">  -1496.08017995 </i>
   </energy>
  </scstep>
  <scstep>
   <time name="dav">   13.95   13.96</time>
   <time name="total">   13.95   13.96</time>
   <energy>
    <i name="e_fr_energy">  -1508.62152080 </i>
    <i name="e_wo_entrp">  -1508.62152080 </i>
    <i name="e_0_energy">  -1508.62152080 </i>
   </energy>
  </scstep>
  <scstep>
   <time name="dav">   14.85   14.89</time>
   <time name="total">   17.90   17.94</time>
   <energy>
    <i name="e_fr_energy">  -1509.18273158 </i>
    <i name="e_wo_entrp">  -1509.18273158 </i>
    <i name="e_0_energy">  -1509.18273158 </i>
   </energy>
  </scstep>
  <scstep>
   <time name="dav">   14.72   14.72</time>
   <time name="total">   19.26   19.31</time>
   <energy>
    <i name="e_fr_energy">  -1429.50190920 </i>
    <i name="e_wo_entrp">  -1429.50190920 </i>
    <i name="e_0_energy">  -1429.50190920 </i>
   </energy>
  </scstep>
  <scstep>
   <time name="dav">   14.24   14.24</time>
   <time name="total">   18.82   18.84</time>
   <energy>
    <i name="e_fr_energy">  -1428.99109931 </i>
    <i name="e_wo_entrp">  -1428.99109931 </i>
    <i name="e_0_energy">  -1428.99109931 </i>
   </energy>
  </scstep>
  <scstep>
   <time name="dav">   13.96   13.96</time>
   <time name="total">   18.52   18.56</time>
   <energy>
    <i name="e_fr_energy">  -1429.18622964 </i>
    <i name="e_wo_entrp">  -1429.18622964 </i>
    <i name="e_0_energy">  -1429.18622964 </i>
   </energy>
  </scstep>
  <scstep>
   <time name="dav">   13.19   13.19</time>
   <time name="total">   17.76   17.78</time>
   <energy>
    <i name="e_fr_energy">  -1429.26877987 </i>
    <i name="e_wo_entrp">  -1429.26877987 </i>
    <i name="e_0_energy">  -1429.26877987 </i>
   </energy>
  </scstep>
  <scstep>
   <time name="dav">   15.61   15.61</time>
   <time name="total">   20.18   20.19</time>
   <energy>
    <i name="e_fr_energy">  -1429.27057402 </i>
    <i name="e_wo_entrp">  -1429.27057402 </i>
    <i name="e_0_energy">  -1429.27057402 </i>
   </energy>
  </scstep>
  <scstep>
   <time name="dav">   13.25   13.25</time>
   <time name="total">   17.83   17.86</time>
   <energy>
    <i name="e_fr_energy">  -1429.27392772 </i>
    <i name="e_wo_entrp">  -1429.27392772 </i>
    <i name="e_0_energy">  -1429.27392772 </i>
   </energy>
  </scstep>
  <scstep>
   <time name="dav">   13.52   13.52</time>
   <time name="total">   18.09   18.13</time>
   <energy>
    <i name="e_fr_energy">  -1429.27436812 </i>
    <i name="e_wo_entrp">  -1429.27436812 </i>
    <i name="e_0_energy">  -1429.27436812 </i>
   </energy>
  </scstep>
  <scstep>
   <time name="dav">   14.36   14.36</time>
   <time name="total">   18.93   18.96</time>
   <energy>
    <i name="e_fr_energy">  -1429.27435041 </i>
    <i name="e_wo_entrp">  -1429.27435041 </i>
    <i name="e_0_energy">  -1429.27435041 </i>
   </energy>
  </scstep>
  <scstep>
   <time name="dav">   13.40   13.40</time>
   <time name="total">   17.99   18.02</time>
   <energy>
    <i name="e_fr_energy">  -1429.27435916 </i>
    <i name="e_wo_entrp">  -1429.27435916 </i>
    <i name="e_0_energy">  -1429.27435916 </i>
   </energy>
  </scstep>
  <scstep>
   <time name="dav">   10.11   10.11</time>
   <time name="total">   14.67   14.72</time>
   <energy>
    <i name="e_fr_energy">  -1429.27437180 </i>
    <i name="e_wo_entrp">  -1429.27437180 </i>
    <i name="e_0_energy">  -1429.27437180 </i>
   </energy>
  </scstep>
  <scstep>
   <time name="dav">   10.00   10.00</time>
   <time name="total">   14.57   14.62</time>
   <energy>
    <i name="e_fr_energy">  -1429.27435729 </i>
    <i name="e_wo_entrp">  -1429.27435729 </i>
    <i name="e_0_energy">  -1429.27435729 </i>
   </energy>
  </scstep>
  <scstep>
   <time name="dav">    9.84    9.84</time>
   <time name="total">   14.43   14.45</time>
   <energy>
    <i name="e_fr_energy">  -1429.27435513 </i>
    <i name="e_wo_entrp">  -1429.27435513 </i>
    <i name="e_0_energy">  -1429.27435513 </i>
   </energy>
  </scstep>
  <scstep>
   <time name="dav">    9.75    9.75</time>
   <time name="total">   14.35   14.36</time>
   <energy>
    <i name="e_fr_energy">  -1429.27435661 </i>
    <i name="e_wo_entrp">  -1429.27435661 </i>
    <i name="e_0_energy">  -1429.27435661 </i>
   </energy>
  </scstep>
  <scstep>
   <time name="dav">    9.75    9.75</time>
   <time name="total">   11.22   11.24</time>
   <energy>
    <i name="alphaZ">    892.99476195 </i>
    <i name="ewald"> -18432.25580060 </i>
    <i name="hartreedc">  -7348.08084876 </i>
    <i name="XCdc">    962.92554042 </i>
    <i name="pawpsdc">  23088.06666770 </i>
    <i name="pawaedc"> -24160.00957404 </i>
    <i name="eentropy">     -0.00000000 </i>
    <i name="bandstr">  -3013.47530155 </i>
    <i name="atom">  26580.56019858 </i>
    <i name="e_fr_energy">  -1429.27435631 </i>
    <i name="e_wo_entrp">  -1429.27435631 </i>
    <i name="e_0_energy">  -1429.27435631 </i>
   </energy>
  </scstep>
  <structure>
   <crystal>
    <varray name="basis" >
     <v>      11.73535200       0.00000000       0.00000000 </v>
     <v>       0.00000000      11.73535200       0.00000000 </v>
     <v>       0.00000000       0.00000000      11.73535200 </v>
    </varray>
    <i name="volume">   1616.17491673 </i>
    <varray name="rec_basis" >
     <v>       0.08521261       0.00000000       0.00000000 </v>
     <v>       0.00000000       0.08521261       0.00000000 </v>
     <v>       0.00000000       0.00000000       0.08521261 </v>
    </varray>
   </crystal>
   <varray name="positions" >
    <v>       0.25000000       0.25000000       0.25000000 </v>
    <v>       0.25000000       0.25000000       0.75000000 </v>
    <v>       0.25000000       0.75000000       0.25000000 </v>
    <v>       0.25000000       0.75000000       0.75000000 </v>
    <v>       0.75000000       0.25000000       0.25000000 </v>
    <v>       0.75000000       0.25000000       0.75000000 </v>
    <v>       0.75000000       0.75000000       0.25000000 </v>
    <v>       0.75000000       0.75000000       0.75000000 </v>
    <v>       0.00000000       0.00000000       0.00000000 </v>
    <v>       0.00000000       0.00000000       0.50000000 </v>
    <v>       0.00000000       0.50000000       0.00000000 </v>
    <v>       0.00000000       0.50000000       0.50000000 </v>
    <v>       0.50000000       0.00000000       0.00000000 </v>
    <v>       0.50000000       0.00000000       0.50000000 </v>
    <v>       0.50000000       0.50000000       0.00000000 </v>
    <v>       0.50000000       0.50000000       0.50000000 </v>
    <v>       0.93250000       0.25000000       0.00000000 </v>
    <v>       0.93250000       0.25000000       0.50000000 </v>
    <v>       0.06750000       0.75000000       0.00000000 </v>
    <v>       0.06750000       0.75000000       0.50000000 </v>
    <v>       0.56750000       0.25000000       0.00000000 </v>
    <v>       0.56750000       0.25000000       0.50000000 </v>
    <v>       0.43250000       0.75000000       0.00000000 </v>
    <v>       0.43250000       0.75000000       0.50000000 </v>
    <v>       0.00000000       0.00000000       0.25000000 </v>
    <v>       0.00000000       0.00000000       0.75000000 </v>
    <v>       0.00000000       0.50000000       0.25000000 </v>
    <v>       0.00000000       0.50000000       0.75000000 </v>
    <v>       0.50000000       0.00000000       0.25000000 </v>
    <v>       0.50000000       0.00000000       0.75000000 </v>
    <v>       0.50000000       0.50000000       0.25000000 </v>
    <v>       0.50000000       0.50000000       0.75000000 </v>
    <v>       0.25000000       0.06750000       0.00000000 </v>
    <v>       0.25000000       0.06750000       0.50000000 </v>
    <v>       0.25000000       0.43250000       0.00000000 </v>
    <v>       0.25000000       0.43250000       0.50000000 </v>
    <v>       0.75000000       0.93250000       0.00000000 </v>
    <v>       0.75000000       0.93250000       0.50000000 </v>
    <v>       0.75000000       0.56750000       0.00000000 </v>
    <v>       0.75000000       0.56750000       0.50000000 </v>
   </varray>
  </structure>
  <varray name="forces" >
   <v>      -0.00000000      -0.00000000       0.00000000 </v>
   <v>      -0.00000000      -0.00000000       0.00000000 </v>
   <v>      -0.00000000      -0.00000000       0.00000000 </v>
   <v>      -0.00000000      -0.00000000       0.00000000 </v>
   <v>      -0.00000000      -0.00000000       0.00000000 </v>
   <v>      -0.00000000      -0.00000000       0.00000000 </v>
   <v>      -0.00000000      -0.00000000       0.00000000 </v>
   <v>      -0.00000000      -0.00000000       0.00000000 </v>
   <v>      -0.00000000      -0.00000000       0.00000000 </v>
   <v>      -0.00000000      -0.00000000       0.00000000 </v>
   <v>      -0.00000000      -0.00000000       0.00000000 </v>
   <v>      -0.00000000      -0.00000000       0.00000000 </v>
   <v>      -0.00000000      -0.00000000       0.00000000 </v>
   <v>      -0.00000000      -0.00000000       0.00000000 </v>
   <v>      -0.00000000      -0.00000000       0.00000000 </v>
   <v>      -0.00000000      -0.00000000       0.00000000 </v>
   <v>       0.12988517      -0.00000000       0.00000000 </v>
   <v>       0.12988517      -0.00000000      -0.00000000 </v>
   <v>      -0.12988517      -0.00000000      -0.00000000 </v>
   <v>      -0.12988517      -0.00000000      -0.00000000 </v>
   <v>      -0.12988517      -0.00000000      -0.00000000 </v>
   <v>      -0.12988517      -0.00000000      -0.00000000 </v>
   <v>       0.12988517      -0.00000000       0.00000000 </v>
   <v>       0.12988517      -0.00000000       0.00000000 </v>
   <v>      -0.00000000      -0.00000000       0.00000000 </v>
   <v>      -0.00000000      -0.00000000       0.00000000 </v>
   <v>      -0.00000000      -0.00000000       0.00000000 </v>
   <v>      -0.00000000      -0.00000000       0.00000000 </v>
   <v>      -0.00000000      -0.00000000       0.00000000 </v>
   <v>      -0.00000000      -0.00000000       0.00000000 </v>
   <v>      -0.00000000      -0.00000000       0.00000000 </v>
   <v>      -0.00000000      -0.00000000       0.00000000 </v>
   <v>      -0.00000000      -0.12988517      -0.00000000 </v>
   <v>      -0.00000000      -0.12988517       0.00000000 </v>
   <v>      -0.00000000       0.12988517      -0.00000000 </v>
   <v>      -0.00000000       0.12988517       0.00000000 </v>
   <v>      -0.00000000       0.12988517       0.00000000 </v>
   <v>      -0.00000000       0.12988517       0.00000000 </v>
   <v>      -0.00000000      -0.12988517      -0.00000000 </v>
   <v>      -0.00000000      -0.12988517      -0.00000000 </v>
  </varray>
  <varray name="stress" >
   <v>      -8.04331033       0.00000000       0.00000000 </v>
   <v>       0.00000000      -8.04331033       0.00000000 </v>
   <v>       0.00000000       0.00000000      12.27746826 </v>
  </varray>
  <energy>
   <i name="e_fr_energy">  -1429.27435631 </i>
   <i name="e_wo_entrp">  -1429.27435631 </i>
   <i name="e_0_energy">     -0.00000000 </i>
  </energy>
  <time name="totalsc">  361.24  362.22</time>
  <eigenvalues>
   <array>
    <dimension dim="1">band</dimension>
    <dimension dim="2">kpoint</dimension>
    <dimension dim="3">spin</dimension>
    <field>eigene</field>
    <field>occ</field>
    <set>
     <set comment="spin 1">
      <set comment="kpoint 1">
       <r>  -20.8341    1.0000 </r>
       <r>  -20.8330    1.0000 </r>
       <r>  -20.8330    1.0000 </r>
       <r>  -20.8321    1.0000 </r>
       <r>  -20.8314    1.0000 </r>
       <r>  -20.8305    1.0000 </r>
       <r>  -20.8305    1.0000 </r>
       <r>  -20.8292    1.0000 </r>
       <r>  -16.5073    1.0000 </r>
       <r>  -16.5014    1.0000 </r>
       <r>  -16.5014    1.0000 </r>
       <r>  -16.4886    1.0000 </r>
       <r>  -16.4527    1.0000 </r>
       <r>  -16.4523    1.0000 </r>
       <r>  -16.4368    1.0000 </r>
       <r>  -16.4368    1.0000 </r>
       <r>  -16.4269    1.0000 </r>
       <r>  -16.4139    1.0000 </r>
       <r>  -16.4139    1.0000 </r>
       <r>  -16.4011    1.0000 </r>
       <r>  -16.3943    1.0000 </r>
       <r>  -16.3943    1.0000 </r>
       <r>  -16.3801    1.0000 </r>
       <r>  -16.3798    1.0000 </r>
       <r>  -16.3228    1.0000 </r>
       <r>  -16.3226    1.0000 </r>
       <r>  -16.3222    1.0000 </r>
       <r>  -16.3222    1.0000 </r>
       <r>  -16.3220    1.0000 </r>
       <r>  -16.3220    1.0000 </r>
       <r>  -16.3211    1.0000 </r>
       <r>  -16.3211    1.0000 </r>
       <r>  -16.3168    1.0000 </r>
       <r>  -16.3168    1.0000 </r>
       <r>  -16.3165    1.0000 </r>
       <r>  -16.3165    1.0000 </r>
       <r>  -16.3163    1.0000 </r>
       <r>  -16.3163    1.0000 </r>
       <r>  -16.3161    1.0000 </r>
       <r>  -16.3161    1.0000 </r>
       <r>  -16.3159    1.0000 </r>
       <r>  -16.3159    1.0000 </r>
       <r>  -16.3157    1.0000 </r>
       <r>  -16.3157    1.0000 </r>
       <r>  -16.3150    1.0000 </r>
       <r>  -16.3150    1.0000 </r>
       <r>  -16.3149    1.0000 </r>
       <r>  -16.3149    1.0000 </r>
       <r>  -14.3386    1.0000 </r>
       <r>  -14.1859    1.0000 </r>
       <r>  -14.1859    1.0000 </r>
       <r>  -14.1245    1.0000 </r>
       <r>  -14.1245    1.0000 </r>
       <r>  -14.1232    1.0000 </r>
       <r>  -14.1204    1.0000 </r>
       <r>  -14.0993    1.0000 </r>
       <r>  -14.0327    1.0000 </r>
       <r>  -13.9669    1.0000 </r>
       <r>  -13.9669    1.0000 </r>
       <r>  -13.9482    1.0000 </r>
       <r>  -13.9482    1.0000 </r>
       <r>  -13.9300    1.0000 </r>
       <r>  -13.9300    1.0000 </r>
       <r>  -13.9221    1.0000 </r>
       <r>  -13.9221    1.0000 </r>
       <r>  -13.8791    1.0000 </r>
       <r>  -13.8791    1.0000 </r>
       <r>  -13.7422    1.0000 </r>
       <r>  -13.7320    1.0000 </r>
       <r>  -13.7170    1.0000 </r>
       <r>  -13.7170    1.0000 </r>
       <r>  -13.7153    1.0000 </r>
       <r>   -8.1740    1.0000 </r>
       <r>   -7.7569    1.0000 </r>
       <r>   -7.7569    1.0000 </r>
       <r>   -7.5049    1.0000 </r>
       <r>   -7.3566    1.0000 </r>
       <r>   -7.2866    1.0000 </r>
       <r>   -7.2866    1.0000 </r>
       <r>   -7.2751    1.0000 </r>
       <r>   -7.2751    1.0000 </r>
       <r>   -7.2696    1.0000 </r>
       <r>   -7.2696    1.0000 </r>
       <r>   -7.2593    1.0000 </r>
       <r>   -7.2593    1.0000 </r>
       <r>   -7.2379    1.0000 </r>
       <r>   -7.2379    1.0000 </r>
       <r>   -7.2310    1.0000 </r>
       <r>   -7.2265    1.0000 </r>
       <r>   -7.2265    1.0000 </r>
       <r>   -7.2164    1.0000 </r>
       <r>   -7.2164    1.0000 </r>
       <r>   -7.2065    1.0000 </r>
       <r>   -7.1969    1.0000 </r>
       <r>   -7.1969    1.0000 </r>
       <r>   -7.1943    1.0000 </r>
       <r>   -7.1900    1.0000 </r>
       <r>   -7.1900    1.0000 </r>
       <r>   -7.1757    1.0000 </r>
       <r>   -7.1757    1.0000 </r>
       <r>   -7.1137    1.0000 </r>
       <r>   -7.0063    1.0000 </r>
       <r>   -7.0063    1.0000 </r>
       <r>   -6.5349    1.0000 </r>
       <r>   -3.4777    1.0000 </r>
       <r>   -3.4309    1.0000 </r>
       <r>   -3.4309    1.0000 </r>
       <r>   -3.3212    1.0000 </r>
       <r>   -3.1649    1.0000 </r>
       <r>   -3.1649    1.0000 </r>
       <r>   -3.0671    1.0000 </r>
       <r>   -3.0671    1.0000 </r>
       <r>   -3.0565    1.0000 </r>
       <r>   -3.0565    1.0000 </r>
       <r>   -2.8733    1.0000 </r>
       <r>   -2.8733    1.0000 </r>
       <r>   -2.1579    1.0000 </r>
       <r>   -2.1579    1.0000 </r>
       <r>   -2.1130    1.0000 </r>
       <r>   -2.0963    1.0000 </r>
       <r>   -2.0963    1.0000 </r>
       <r>   -1.8823    1.0000 </r>
       <r>   -1.8823    1.0000 </r>
       <r>   -1.8473    1.0000 </r>
       <r>   -1.8377    1.0000 </r>
       <r>   -1.7308    1.0000 </r>
       <r>   -1.7308    1.0000 </r>
       <r>   -1.6527    1.0000 </r>
       <r>   -1.6527    1.0000 </r>
       <r>   -1.5638    1.0000 </r>
       <r>   -1.5638    1.0000 </r>
       <r>   -1.5282    1.0000 </r>
       <r>   -1.5282    1.0000 </r>
       <r>   -1.5038    1.0000 </r>
       <r>   -1.5038    1.0000 </r>
       <r>   -1.4899    1.0000 </r>
       <r>   -1.4899    1.0000 </r>
       <r>   -1.4806    1.0000 </r>
       <r>   -1.4806    1.0000 </r>
       <r>   -1.4593    1.0000 </r>
       <r>   -1.4316    1.0000 </r>
       <r>   -1.4203    1.0000 </r>
       <r>   -1.4124    1.0000 </r>
       <r>   -1.3981    1.0000 </r>
       <r>   -1.3981    1.0000 </r>
       <r>   -1.3595    1.0000 </r>
       <r>   -1.3595    1.0000 </r>
       <r>   -1.3066    1.0000 </r>
       <r>   -1.3066    1.0000 </r>
       <r>   -1.2918    1.0000 </r>
       <r>   -1.2918    1.0000 </r>
       <r>   -1.2876    1.0000 </r>
       <r>   -1.2876    1.0000 </r>
       <r>   -1.1877    1.0000 </r>
       <r>   -1.1877    1.0000 </r>
       <r>   -1.1795    1.0000 </r>
       <r>   -1.1454    1.0000 </r>
       <r>   -1.1454    1.0000 </r>
       <r>   -1.1189    1.0000 </r>
       <r>   -1.1090    1.0000 </r>
       <r>   -1.1090    1.0000 </r>
       <r>   -1.0578    1.0000 </r>
       <r>   -1.0364    1.0000 </r>
       <r>   -1.0124    1.0000 </r>
       <r>   -1.0124    1.0000 </r>
       <r>   -0.9437    1.0000 </r>
       <r>   -0.9437    1.0000 </r>
       <r>   -0.8566    1.0000 </r>
       <r>   -0.8566    1.0000 </r>
       <r>   -0.8519    1.0000 </r>
       <r>   -0.8519    1.0000 </r>
       <r>   -0.4507    1.0000 </r>
       <r>   -0.2379    1.0000 </r>
       <r>   -0.0859    1.0000 </r>
       <r>   -0.0859    1.0000 </r>
       <r>    0.4757    1.0000 </r>
       <r>    2.7678    0.0000 </r>
       <r>    2.7678    0.0000 </r>
       <r>    2.7731    0.0000 </r>
       <r>    3.0922    0.0000 </r>
       <r>    3.0922    0.0000 </r>
       <r>    3.1621    0.0000 </r>
       <r>    3.1621    0.0000 </r>
       <r>    3.2991    0.0000 </r>
       <r>    3.2991    0.0000 </r>
       <r>    3.4928    0.0000 </r>
       <r>    3.5187    0.0000 </r>
       <r>    3.5187    0.0000 </r>
       <r>    4.7086    0.0000 </r>
       <r>    5.3704    0.0000 </r>
       <r>    5.3704    0.0000 </r>
       <r>    5.6005    0.0000 </r>
       <r>    5.6914    0.0000 </r>
       <r>    5.6979    0.0000 </r>
       <r>    5.6979    0.0000 </r>
       <r>    5.7776    0.0000 </r>
       <r>    5.7968    0.0000 </r>
       <r>    5.7968    0.0000 </r>
       <r>    6.1851    0.0000 </r>
       <r>    6.1851    0.0000 </r>
       <r>    6.2143    0.0000 </r>
       <r>    6.2514    0.0000 </r>
       <r>    6.2514    0.0000 </r>
       <r>    6.2714    0.0000 </r>
       <r>    6.2714    0.0000 </r>
       <r>    6.2782    0.0000 </r>
       <r>    6.2782    0.0000 </r>
       <r>    6.4192    0.0000 </r>
       <r>    6.5838    0.0000 </r>
       <r>    6.5838    0.0000 </r>
       <r>    6.6199    0.0000 </r>
       <r>    6.6201    0.0000 </r>
       <r>    6.6623    0.0000 </r>
       <r>    6.6627    0.0000 </r>
       <r>    6.7131    0.0000 </r>
       <r>    6.7741    0.0000 </r>
      </set>
      <set comment="kpoint 2">
       <r>  -20.8337    1.0000 </r>
       <r>  -20.8337    1.0000 </r>
       <r>  -20.8324    1.0000 </r>
       <r>  -20.8324    1.0000 </r>
       <r>  -20.8308    1.0000 </r>
       <r>  -20.8308    1.0000 </r>
       <r>  -20.8300    1.0000 </r>
       <r>  -20.8300    1.0000 </r>
       <r>  -16.5038    1.0000 </r>
       <r>  -16.5038    1.0000 </r>
       <r>  -16.4938    1.0000 </r>
       <r>  -16.4938    1.0000 </r>
       <r>  -16.4406    1.0000 </r>
       <r>  -16.4406    1.0000 </r>
       <r>  -16.4340    1.0000 </r>
       <r>  -16.4340    1.0000 </r>
       <r>  -16.4148    1.0000 </r>
       <r>  -16.4148    1.0000 </r>
       <r>  -16.4148    1.0000 </r>
       <r>  -16.4148    1.0000 </r>
       <r>  -16.3982    1.0000 </r>
       <r>  -16.3982    1.0000 </r>
       <r>  -16.3917    1.0000 </r>
       <r>  -16.3917    1.0000 </r>
       <r>  -16.3224    1.0000 </r>
       <r>  -16.3224    1.0000 </r>
       <r>  -16.3224    1.0000 </r>
       <r>  -16.3224    1.0000 </r>
       <r>  -16.3217    1.0000 </r>
       <r>  -16.3217    1.0000 </r>
       <r>  -16.3215    1.0000 </r>
       <r>  -16.3215    1.0000 </r>
       <r>  -16.3169    1.0000 </r>
       <r>  -16.3169    1.0000 </r>
       <r>  -16.3165    1.0000 </r>
       <r>  -16.3165    1.0000 </r>
       <r>  -16.3164    1.0000 </r>
       <r>  -16.3164    1.0000 </r>
       <r>  -16.3160    1.0000 </r>
       <r>  -16.3160    1.0000 </r>
       <r>  -16.3156    1.0000 </r>
       <r>  -16.3156    1.0000 </r>
       <r>  -16.3154    1.0000 </r>
       <r>  -16.3154    1.0000 </r>
       <r>  -16.3152    1.0000 </r>
       <r>  -16.3152    1.0000 </r>
       <r>  -16.3151    1.0000 </r>
       <r>  -16.3151    1.0000 </r>
       <r>  -14.2823    1.0000 </r>
       <r>  -14.2823    1.0000 </r>
       <r>  -14.1361    1.0000 </r>
       <r>  -14.1361    1.0000 </r>
       <r>  -14.1238    1.0000 </r>
       <r>  -14.1238    1.0000 </r>
       <r>  -14.1225    1.0000 </r>
       <r>  -14.1225    1.0000 </r>
       <r>  -14.0537    1.0000 </r>
       <r>  -14.0537    1.0000 </r>
       <r>  -13.9446    1.0000 </r>
       <r>  -13.9446    1.0000 </r>
       <r>  -13.9395    1.0000 </r>
       <r>  -13.9395    1.0000 </r>
       <r>  -13.9002    1.0000 </r>
       <r>  -13.9002    1.0000 </r>
       <r>  -13.8169    1.0000 </r>
       <r>  -13.8169    1.0000 </r>
       <r>  -13.7962    1.0000 </r>
       <r>  -13.7962    1.0000 </r>
       <r>  -13.7843    1.0000 </r>
       <r>  -13.7843    1.0000 </r>
       <r>  -13.7237    1.0000 </r>
       <r>  -13.7237    1.0000 </r>
       <r>   -7.9803    1.0000 </r>
       <r>   -7.9803    1.0000 </r>
       <r>   -7.5667    1.0000 </r>
       <r>   -7.5667    1.0000 </r>
       <r>   -7.3309    1.0000 </r>
       <r>   -7.3309    1.0000 </r>
       <r>   -7.2730    1.0000 </r>
       <r>   -7.2730    1.0000 </r>
       <r>   -7.2689    1.0000 </r>
       <r>   -7.2689    1.0000 </r>
       <r>   -7.2585    1.0000 </r>
       <r>   -7.2585    1.0000 </r>
       <r>   -7.2505    1.0000 </r>
       <r>   -7.2505    1.0000 </r>
       <r>   -7.2471    1.0000 </r>
       <r>   -7.2471    1.0000 </r>
       <r>   -7.2321    1.0000 </r>
       <r>   -7.2321    1.0000 </r>
       <r>   -7.2238    1.0000 </r>
       <r>   -7.2238    1.0000 </r>
       <r>   -7.2114    1.0000 </r>
       <r>   -7.2114    1.0000 </r>
       <r>   -7.1861    1.0000 </r>
       <r>   -7.1861    1.0000 </r>
       <r>   -7.1852    1.0000 </r>
       <r>   -7.1852    1.0000 </r>
       <r>   -7.1619    1.0000 </r>
       <r>   -7.1619    1.0000 </r>
       <r>   -7.1543    1.0000 </r>
       <r>   -7.1543    1.0000 </r>
       <r>   -6.8123    1.0000 </r>
       <r>   -6.8123    1.0000 </r>
       <r>   -3.4547    1.0000 </r>
       <r>   -3.4547    1.0000 </r>
       <r>   -3.3783    1.0000 </r>
       <r>   -3.3783    1.0000 </r>
       <r>   -3.1175    1.0000 </r>
       <r>   -3.1175    1.0000 </r>
       <r>   -2.9711    1.0000 </r>
       <r>   -2.9711    1.0000 </r>
       <r>   -2.5425    1.0000 </r>
       <r>   -2.5425    1.0000 </r>
       <r>   -2.4191    1.0000 </r>
       <r>   -2.4191    1.0000 </r>
       <r>   -2.4068    1.0000 </r>
       <r>   -2.4068    1.0000 </r>
       <r>   -2.2173    1.0000 </r>
       <r>   -2.2173    1.0000 </r>
       <r>   -2.0493    1.0000 </r>
       <r>   -2.0493    1.0000 </r>
       <r>   -2.0103    1.0000 </r>
       <r>   -2.0103    1.0000 </r>
       <r>   -1.9924    1.0000 </r>
       <r>   -1.9924    1.0000 </r>
       <r>   -1.7857    1.0000 </r>
       <r>   -1.7857    1.0000 </r>
       <r>   -1.7299    1.0000 </r>
       <r>   -1.7299    1.0000 </r>
       <r>   -1.6861    1.0000 </r>
       <r>   -1.6861    1.0000 </r>
       <r>   -1.5271    1.0000 </r>
       <r>   -1.5271    1.0000 </r>
       <r>   -1.4984    1.0000 </r>
       <r>   -1.4984    1.0000 </r>
       <r>   -1.4669    1.0000 </r>
       <r>   -1.4669    1.0000 </r>
       <r>   -1.4506    1.0000 </r>
       <r>   -1.4506    1.0000 </r>
       <r>   -1.4418    1.0000 </r>
       <r>   -1.4418    1.0000 </r>
       <r>   -1.3739    1.0000 </r>
       <r>   -1.3739    1.0000 </r>
       <r>   -1.3671    1.0000 </r>
       <r>   -1.3671    1.0000 </r>
       <r>   -1.3431    1.0000 </r>
       <r>   -1.3431    1.0000 </r>
       <r>   -1.2954    1.0000 </r>
       <r>   -1.2954    1.0000 </r>
       <r>   -1.2809    1.0000 </r>
       <r>   -1.2809    1.0000 </r>
       <r>   -1.2324    1.0000 </r>
       <r>   -1.2324    1.0000 </r>
       <r>   -1.1817    1.0000 </r>
       <r>   -1.1817    1.0000 </r>
       <r>   -1.1182    1.0000 </r>
       <r>   -1.1182    1.0000 </r>
       <r>   -1.1099    1.0000 </r>
       <r>   -1.1099    1.0000 </r>
       <r>   -1.1000    1.0000 </r>
       <r>   -1.1000    1.0000 </r>
       <r>   -1.0693    1.0000 </r>
       <r>   -1.0693    1.0000 </r>
       <r>   -1.0437    1.0000 </r>
       <r>   -1.0437    1.0000 </r>
       <r>   -0.8945    1.0000 </r>
       <r>   -0.8945    1.0000 </r>
       <r>   -0.8839    1.0000 </r>
       <r>   -0.8839    1.0000 </r>
       <r>   -0.6503    1.0000 </r>
       <r>   -0.6503    1.0000 </r>
       <r>   -0.3361    1.0000 </r>
       <r>   -0.3361    1.0000 </r>
       <r>    0.0788    1.0000 </r>
       <r>    0.0788    1.0000 </r>
       <r>    2.9205    0.0000 </r>
       <r>    2.9205    0.0000 </r>
       <r>    2.9707    0.0000 </r>
       <r>    2.9707    0.0000 </r>
       <r>    3.3257    0.0000 </r>
       <r>    3.3257    0.0000 </r>
       <r>    3.3857    0.0000 </r>
       <r>    3.3857    0.0000 </r>
       <r>    4.0934    0.0000 </r>
       <r>    4.0934    0.0000 </r>
       <r>    4.3925    0.0000 </r>
       <r>    4.3925    0.0000 </r>
       <r>    4.5402    0.0000 </r>
       <r>    4.5402    0.0000 </r>
       <r>    4.7577    0.0000 </r>
       <r>    4.7577    0.0000 </r>
       <r>    5.4064    0.0000 </r>
       <r>    5.4064    0.0000 </r>
       <r>    5.5123    0.0000 </r>
       <r>    5.5123    0.0000 </r>
       <r>    5.9450    0.0000 </r>
       <r>    5.9450    0.0000 </r>
       <r>    5.9900    0.0000 </r>
       <r>    5.9900    0.0000 </r>
       <r>    6.1024    0.0000 </r>
       <r>    6.1024    0.0000 </r>
       <r>    6.1766    0.0000 </r>
       <r>    6.1766    0.0000 </r>
       <r>    6.2568    0.0000 </r>
       <r>    6.2568    0.0000 </r>
       <r>    6.2994    0.0000 </r>
       <r>    6.2994    0.0000 </r>
       <r>    6.6533    0.0000 </r>
       <r>    6.6538    0.0000 </r>
       <r>    6.6553    0.0000 </r>
       <r>    6.6559    0.0000 </r>
       <r>    6.7047    0.0000 </r>
       <r>    6.7115    0.0000 </r>
       <r>    6.7170    0.0000 </r>
       <r>    6.7284    0.0000 </r>
      </set>
      <set comment="kpoint 3">
       <r>  -20.8330    1.0000 </r>
       <r>  -20.8330    1.0000 </r>
       <r>  -20.8330    1.0000 </r>
       <r>  -20.8330    1.0000 </r>
       <r>  -20.8305    1.0000 </r>
       <r>  -20.8305    1.0000 </r>
       <r>  -20.8305    1.0000 </r>
       <r>  -20.8305    1.0000 </r>
       <r>  -16.4978    1.0000 </r>
       <r>  -16.4978    1.0000 </r>
       <r>  -16.4978    1.0000 </r>
       <r>  -16.4978    1.0000 </r>
       <r>  -16.4174    1.0000 </r>
       <r>  -16.4174    1.0000 </r>
       <r>  -16.4174    1.0000 </r>
       <r>  -16.4174    1.0000 </r>
       <r>  -16.4173    1.0000 </r>
       <r>  -16.4173    1.0000 </r>
       <r>  -16.4173    1.0000 </r>
       <r>  -16.4173    1.0000 </r>
       <r>  -16.4139    1.0000 </r>
       <r>  -16.4139    1.0000 </r>
       <r>  -16.4139    1.0000 </r>
       <r>  -16.4139    1.0000 </r>
       <r>  -16.3220    1.0000 </r>
       <r>  -16.3220    1.0000 </r>
       <r>  -16.3220    1.0000 </r>
       <r>  -16.3220    1.0000 </r>
       <r>  -16.3220    1.0000 </r>
       <r>  -16.3220    1.0000 </r>
       <r>  -16.3220    1.0000 </r>
       <r>  -16.3220    1.0000 </r>
       <r>  -16.3165    1.0000 </r>
       <r>  -16.3165    1.0000 </r>
       <r>  -16.3165    1.0000 </r>
       <r>  -16.3165    1.0000 </r>
       <r>  -16.3165    1.0000 </r>
       <r>  -16.3165    1.0000 </r>
       <r>  -16.3165    1.0000 </r>
       <r>  -16.3165    1.0000 </r>
       <r>  -16.3154    1.0000 </r>
       <r>  -16.3154    1.0000 </r>
       <r>  -16.3154    1.0000 </r>
       <r>  -16.3154    1.0000 </r>
       <r>  -16.3152    1.0000 </r>
       <r>  -16.3152    1.0000 </r>
       <r>  -16.3152    1.0000 </r>
       <r>  -16.3152    1.0000 </r>
       <r>  -14.2295    1.0000 </r>
       <r>  -14.2295    1.0000 </r>
       <r>  -14.2295    1.0000 </r>
       <r>  -14.2295    1.0000 </r>
       <r>  -14.1232    1.0000 </r>
       <r>  -14.1232    1.0000 </r>
       <r>  -14.1232    1.0000 </r>
       <r>  -14.1232    1.0000 </r>
       <r>  -14.0167    1.0000 </r>
       <r>  -14.0167    1.0000 </r>
       <r>  -14.0167    1.0000 </r>
       <r>  -14.0167    1.0000 </r>
       <r>  -13.8248    1.0000 </r>
       <r>  -13.8248    1.0000 </r>
       <r>  -13.8248    1.0000 </r>
       <r>  -13.8248    1.0000 </r>
       <r>  -13.8243    1.0000 </r>
       <r>  -13.8243    1.0000 </r>
       <r>  -13.8243    1.0000 </r>
       <r>  -13.8243    1.0000 </r>
       <r>  -13.7926    1.0000 </r>
       <r>  -13.7926    1.0000 </r>
       <r>  -13.7926    1.0000 </r>
       <r>  -13.7926    1.0000 </r>
       <r>   -7.7884    1.0000 </r>
       <r>   -7.7884    1.0000 </r>
       <r>   -7.7884    1.0000 </r>
       <r>   -7.7884    1.0000 </r>
       <r>   -7.2769    1.0000 </r>
       <r>   -7.2769    1.0000 </r>
       <r>   -7.2769    1.0000 </r>
       <r>   -7.2769    1.0000 </r>
       <r>   -7.2629    1.0000 </r>
       <r>   -7.2629    1.0000 </r>
       <r>   -7.2629    1.0000 </r>
       <r>   -7.2629    1.0000 </r>
       <r>   -7.2425    1.0000 </r>
       <r>   -7.2425    1.0000 </r>
       <r>   -7.2425    1.0000 </r>
       <r>   -7.2425    1.0000 </r>
       <r>   -7.2176    1.0000 </r>
       <r>   -7.2176    1.0000 </r>
       <r>   -7.2176    1.0000 </r>
       <r>   -7.2176    1.0000 </r>
       <r>   -7.1914    1.0000 </r>
       <r>   -7.1914    1.0000 </r>
       <r>   -7.1914    1.0000 </r>
       <r>   -7.1914    1.0000 </r>
       <r>   -7.1716    1.0000 </r>
       <r>   -7.1716    1.0000 </r>
       <r>   -7.1716    1.0000 </r>
       <r>   -7.1716    1.0000 </r>
       <r>   -7.0619    1.0000 </r>
       <r>   -7.0619    1.0000 </r>
       <r>   -7.0619    1.0000 </r>
       <r>   -7.0619    1.0000 </r>
       <r>   -3.4175    1.0000 </r>
       <r>   -3.4175    1.0000 </r>
       <r>   -3.4175    1.0000 </r>
       <r>   -3.4175    1.0000 </r>
       <r>   -2.6307    1.0000 </r>
       <r>   -2.6307    1.0000 </r>
       <r>   -2.6307    1.0000 </r>
       <r>   -2.6307    1.0000 </r>
       <r>   -2.4505    1.0000 </r>
       <r>   -2.4505    1.0000 </r>
       <r>   -2.4505    1.0000 </r>
       <r>   -2.4505    1.0000 </r>
       <r>   -2.3076    1.0000 </r>
       <r>   -2.3076    1.0000 </r>
       <r>   -2.3076    1.0000 </r>
       <r>   -2.3076    1.0000 </r>
       <r>   -2.1679    1.0000 </r>
       <r>   -2.1679    1.0000 </r>
       <r>   -2.1679    1.0000 </r>
       <r>   -2.1679    1.0000 </r>
       <r>   -2.0094    1.0000 </r>
       <r>   -2.0094    1.0000 </r>
       <r>   -2.0094    1.0000 </r>
       <r>   -2.0094    1.0000 </r>
       <r>   -1.7655    1.0000 </r>
       <r>   -1.7655    1.0000 </r>
       <r>   -1.7655    1.0000 </r>
       <r>   -1.7655    1.0000 </r>
       <r>   -1.6082    1.0000 </r>
       <r>   -1.6082    1.0000 </r>
       <r>   -1.6082    1.0000 </r>
       <r>   -1.6082    1.0000 </r>
       <r>   -1.4438    1.0000 </r>
       <r>   -1.4438    1.0000 </r>
       <r>   -1.4438    1.0000 </r>
       <r>   -1.4438    1.0000 </r>
       <r>   -1.4404    1.0000 </r>
       <r>   -1.4404    1.0000 </r>
       <r>   -1.4404    1.0000 </r>
       <r>   -1.4404    1.0000 </r>
       <r>   -1.3263    1.0000 </r>
       <r>   -1.3263    1.0000 </r>
       <r>   -1.3263    1.0000 </r>
       <r>   -1.3263    1.0000 </r>
       <r>   -1.2171    1.0000 </r>
       <r>   -1.2171    1.0000 </r>
       <r>   -1.2171    1.0000 </r>
       <r>   -1.2171    1.0000 </r>
       <r>   -1.1965    1.0000 </r>
       <r>   -1.1965    1.0000 </r>
       <r>   -1.1965    1.0000 </r>
       <r>   -1.1965    1.0000 </r>
       <r>   -1.1816    1.0000 </r>
       <r>   -1.1816    1.0000 </r>
       <r>   -1.1816    1.0000 </r>
       <r>   -1.1816    1.0000 </r>
       <r>   -1.1087    1.0000 </r>
       <r>   -1.1087    1.0000 </r>
       <r>   -1.1087    1.0000 </r>
       <r>   -1.1087    1.0000 </r>
       <r>   -1.0222    1.0000 </r>
       <r>   -1.0222    1.0000 </r>
       <r>   -1.0222    1.0000 </r>
       <r>   -1.0222    1.0000 </r>
       <r>   -0.8361    1.0000 </r>
       <r>   -0.8361    1.0000 </r>
       <r>   -0.8361    1.0000 </r>
       <r>   -0.8361    1.0000 </r>
       <r>   -0.2212    1.0000 </r>
       <r>   -0.2212    1.0000 </r>
       <r>   -0.2212    1.0000 </r>
       <r>   -0.2212    1.0000 </r>
       <r>    3.1483    0.0000 </r>
       <r>    3.1483    0.0000 </r>
       <r>    3.1483    0.0000 </r>
       <r>    3.1483    0.0000 </r>
       <r>    4.1794    0.0000 </r>
       <r>    4.1794    0.0000 </r>
       <r>    4.1794    0.0000 </r>
       <r>    4.1794    0.0000 </r>
       <r>    4.2682    0.0000 </r>
       <r>    4.2682    0.0000 </r>
       <r>    4.2682    0.0000 </r>
       <r>    4.2682    0.0000 </r>
       <r>    4.5616    0.0000 </r>
       <r>    4.5616    0.0000 </r>
       <r>    4.5616    0.0000 </r>
       <r>    4.5616    0.0000 </r>
       <r>    4.6915    0.0000 </r>
       <r>    4.6915    0.0000 </r>
       <r>    4.6915    0.0000 </r>
       <r>    4.6915    0.0000 </r>
       <r>    5.8653    0.0000 </r>
       <r>    5.8653    0.0000 </r>
       <r>    5.8653    0.0000 </r>
       <r>    5.8653    0.0000 </r>
       <r>    6.2315    0.0000 </r>
       <r>    6.2315    0.0000 </r>
       <r>    6.2315    0.0000 </r>
       <r>    6.2315    0.0000 </r>
       <r>    6.2877    0.0000 </r>
       <r>    6.2877    0.0000 </r>
       <r>    6.2877    0.0000 </r>
       <r>    6.2877    0.0000 </r>
       <r>    6.3748    0.0000 </r>
       <r>    6.3748    0.0000 </r>
       <r>    6.3748    0.0000 </r>
       <r>    6.3748    0.0000 </r>
       <r>    6.7008    0.0000 </r>
       <r>    6.7122    0.0000 </r>
       <r>    6.7279    0.0000 </r>
       <r>    6.7386    0.0000 </r>
      </set>
      <set comment="kpoint 4">
       <r>  -20.8329    1.0000 </r>
       <r>  -20.8329    1.0000 </r>
       <r>  -20.8316    1.0000 </r>
       <r>  -20.8316    1.0000 </r>
       <r>  -20.8316    1.0000 </r>
       <r>  -20.8316    1.0000 </r>
       <r>  -20.8308    1.0000 </r>
       <r>  -20.8308    1.0000 </r>
       <r>  -16.4678    1.0000 </r>
       <r>  -16.4678    1.0000 </r>
       <r>  -16.4644    1.0000 </r>
       <r>  -16.4644    1.0000 </r>
       <r>  -16.4644    1.0000 </r>
       <r>  -16.4644    1.0000 </r>
       <r>  -16.4527    1.0000 </r>
       <r>  -16.4527    1.0000 </r>
       <r>  -16.4461    1.0000 </r>
       <r>  -16.4461    1.0000 </r>
       <r>  -16.4094    1.0000 </r>
       <r>  -16.4094    1.0000 </r>
       <r>  -16.4094    1.0000 </r>
       <r>  -16.4094    1.0000 </r>
       <r>  -16.3801    1.0000 </r>
       <r>  -16.3801    1.0000 </r>
       <r>  -16.3229    1.0000 </r>
       <r>  -16.3229    1.0000 </r>
       <r>  -16.3219    1.0000 </r>
       <r>  -16.3219    1.0000 </r>
       <r>  -16.3219    1.0000 </r>
       <r>  -16.3219    1.0000 </r>
       <r>  -16.3213    1.0000 </r>
       <r>  -16.3213    1.0000 </r>
       <r>  -16.3163    1.0000 </r>
       <r>  -16.3163    1.0000 </r>
       <r>  -16.3163    1.0000 </r>
       <r>  -16.3163    1.0000 </r>
       <r>  -16.3162    1.0000 </r>
       <r>  -16.3162    1.0000 </r>
       <r>  -16.3162    1.0000 </r>
       <r>  -16.3162    1.0000 </r>
       <r>  -16.3156    1.0000 </r>
       <r>  -16.3156    1.0000 </r>
       <r>  -16.3156    1.0000 </r>
       <r>  -16.3156    1.0000 </r>
       <r>  -16.3153    1.0000 </r>
       <r>  -16.3153    1.0000 </r>
       <r>  -16.3153    1.0000 </r>
       <r>  -16.3153    1.0000 </r>
       <r>  -14.2866    1.0000 </r>
       <r>  -14.2866    1.0000 </r>
       <r>  -14.1623    1.0000 </r>
       <r>  -14.1623    1.0000 </r>
       <r>  -14.1623    1.0000 </r>
       <r>  -14.1623    1.0000 </r>
       <r>  -14.0753    1.0000 </r>
       <r>  -14.0753    1.0000 </r>
       <r>  -13.9575    1.0000 </r>
       <r>  -13.9575    1.0000 </r>
       <r>  -13.9575    1.0000 </r>
       <r>  -13.9575    1.0000 </r>
       <r>  -13.9262    1.0000 </r>
       <r>  -13.9262    1.0000 </r>
       <r>  -13.9262    1.0000 </r>
       <r>  -13.9262    1.0000 </r>
       <r>  -13.8642    1.0000 </r>
       <r>  -13.8642    1.0000 </r>
       <r>  -13.7896    1.0000 </r>
       <r>  -13.7896    1.0000 </r>
       <r>  -13.7896    1.0000 </r>
       <r>  -13.7896    1.0000 </r>
       <r>  -13.7237    1.0000 </r>
       <r>  -13.7237    1.0000 </r>
       <r>   -7.8792    1.0000 </r>
       <r>   -7.8792    1.0000 </r>
       <r>   -7.4687    1.0000 </r>
       <r>   -7.4687    1.0000 </r>
       <r>   -7.4687    1.0000 </r>
       <r>   -7.4687    1.0000 </r>
       <r>   -7.2752    1.0000 </r>
       <r>   -7.2752    1.0000 </r>
       <r>   -7.2752    1.0000 </r>
       <r>   -7.2752    1.0000 </r>
       <r>   -7.2491    1.0000 </r>
       <r>   -7.2491    1.0000 </r>
       <r>   -7.2491    1.0000 </r>
       <r>   -7.2491    1.0000 </r>
       <r>   -7.2201    1.0000 </r>
       <r>   -7.2201    1.0000 </r>
       <r>   -7.2201    1.0000 </r>
       <r>   -7.2201    1.0000 </r>
       <r>   -7.2047    1.0000 </r>
       <r>   -7.2047    1.0000 </r>
       <r>   -7.2005    1.0000 </r>
       <r>   -7.2005    1.0000 </r>
       <r>   -7.1962    1.0000 </r>
       <r>   -7.1962    1.0000 </r>
       <r>   -7.1962    1.0000 </r>
       <r>   -7.1962    1.0000 </r>
       <r>   -7.1905    1.0000 </r>
       <r>   -7.1905    1.0000 </r>
       <r>   -7.1905    1.0000 </r>
       <r>   -7.1905    1.0000 </r>
       <r>   -6.9819    1.0000 </r>
       <r>   -6.9819    1.0000 </r>
       <r>   -3.1137    1.0000 </r>
       <r>   -3.1137    1.0000 </r>
       <r>   -3.1137    1.0000 </r>
       <r>   -3.1137    1.0000 </r>
       <r>   -2.9780    1.0000 </r>
       <r>   -2.9780    1.0000 </r>
       <r>   -2.9780    1.0000 </r>
       <r>   -2.9780    1.0000 </r>
       <r>   -2.4633    1.0000 </r>
       <r>   -2.4633    1.0000 </r>
       <r>   -2.4633    1.0000 </r>
       <r>   -2.4633    1.0000 </r>
       <r>   -2.4504    1.0000 </r>
       <r>   -2.4504    1.0000 </r>
       <r>   -2.3682    1.0000 </r>
       <r>   -2.3682    1.0000 </r>
       <r>   -2.0601    1.0000 </r>
       <r>   -2.0601    1.0000 </r>
       <r>   -2.0601    1.0000 </r>
       <r>   -2.0601    1.0000 </r>
       <r>   -1.9918    1.0000 </r>
       <r>   -1.9918    1.0000 </r>
       <r>   -1.8595    1.0000 </r>
       <r>   -1.8595    1.0000 </r>
       <r>   -1.8595    1.0000 </r>
       <r>   -1.8595    1.0000 </r>
       <r>   -1.7242    1.0000 </r>
       <r>   -1.7242    1.0000 </r>
       <r>   -1.7242    1.0000 </r>
       <r>   -1.7242    1.0000 </r>
       <r>   -1.4274    1.0000 </r>
       <r>   -1.4274    1.0000 </r>
       <r>   -1.4274    1.0000 </r>
       <r>   -1.4274    1.0000 </r>
       <r>   -1.4260    1.0000 </r>
       <r>   -1.4260    1.0000 </r>
       <r>   -1.4032    1.0000 </r>
       <r>   -1.4032    1.0000 </r>
       <r>   -1.4032    1.0000 </r>
       <r>   -1.4032    1.0000 </r>
       <r>   -1.3074    1.0000 </r>
       <r>   -1.3074    1.0000 </r>
       <r>   -1.3049    1.0000 </r>
       <r>   -1.3049    1.0000 </r>
       <r>   -1.3049    1.0000 </r>
       <r>   -1.3049    1.0000 </r>
       <r>   -1.2938    1.0000 </r>
       <r>   -1.2938    1.0000 </r>
       <r>   -1.1838    1.0000 </r>
       <r>   -1.1838    1.0000 </r>
       <r>   -1.1838    1.0000 </r>
       <r>   -1.1838    1.0000 </r>
       <r>   -1.1296    1.0000 </r>
       <r>   -1.1296    1.0000 </r>
       <r>   -1.1296    1.0000 </r>
       <r>   -1.1296    1.0000 </r>
       <r>   -1.0494    1.0000 </r>
       <r>   -1.0494    1.0000 </r>
       <r>   -1.0494    1.0000 </r>
       <r>   -1.0494    1.0000 </r>
       <r>   -1.0253    1.0000 </r>
       <r>   -1.0253    1.0000 </r>
       <r>   -1.0253    1.0000 </r>
       <r>   -1.0253    1.0000 </r>
       <r>   -0.8682    1.0000 </r>
       <r>   -0.8682    1.0000 </r>
       <r>   -0.7000    1.0000 </r>
       <r>   -0.7000    1.0000 </r>
       <r>   -0.7000    1.0000 </r>
       <r>   -0.7000    1.0000 </r>
       <r>   -0.0956    1.0000 </r>
       <r>   -0.0956    1.0000 </r>
       <r>    3.0349    0.0000 </r>
       <r>    3.0349    0.0000 </r>
       <r>    3.0349    0.0000 </r>
       <r>    3.0349    0.0000 </r>
       <r>    3.2972    0.0000 </r>
       <r>    3.2972    0.0000 </r>
       <r>    3.2972    0.0000 </r>
       <r>    3.2972    0.0000 </r>
       <r>    4.5829    0.0000 </r>
       <r>    4.5829    0.0000 </r>
       <r>    4.9054    0.0000 </r>
       <r>    4.9054    0.0000 </r>
       <r>    4.9054    0.0000 </r>
       <r>    4.9054    0.0000 </r>
       <r>    5.0268    0.0000 </r>
       <r>    5.0268    0.0000 </r>
       <r>    5.4848    0.0000 </r>
       <r>    5.4848    0.0000 </r>
       <r>    5.5445    0.0000 </r>
       <r>    5.5445    0.0000 </r>
       <r>    5.5445    0.0000 </r>
       <r>    5.5445    0.0000 </r>
       <r>    5.7847    0.0000 </r>
       <r>    5.7847    0.0000 </r>
       <r>    5.8682    0.0000 </r>
       <r>    5.8682    0.0000 </r>
       <r>    5.8682    0.0000 </r>
       <r>    5.8682    0.0000 </r>
       <r>    6.5585    0.0000 </r>
       <r>    6.5585    0.0000 </r>
       <r>    6.5585    0.0000 </r>
       <r>    6.5586    0.0000 </r>
       <r>    6.6443    0.0000 </r>
       <r>    6.6443    0.0000 </r>
       <r>    6.6452    0.0000 </r>
       <r>    6.6515    0.0000 </r>
       <r>    6.6608    0.0000 </r>
       <r>    6.6620    0.0000 </r>
       <r>    6.6936    0.0000 </r>
       <r>    6.6940    0.0000 </r>
      </set>
      <set comment="kpoint 5">
       <r>  -20.8322    1.0000 </r>
       <r>  -20.8322    1.0000 </r>
       <r>  -20.8322    1.0000 </r>
       <r>  -20.8322    1.0000 </r>
       <r>  -20.8312    1.0000 </r>
       <r>  -20.8312    1.0000 </r>
       <r>  -20.8312    1.0000 </r>
       <r>  -20.8312    1.0000 </r>
       <r>  -16.4653    1.0000 </r>
       <r>  -16.4653    1.0000 </r>
       <r>  -16.4653    1.0000 </r>
       <r>  -16.4653    1.0000 </r>
       <r>  -16.4530    1.0000 </r>
       <r>  -16.4530    1.0000 </r>
       <r>  -16.4530    1.0000 </r>
       <r>  -16.4530    1.0000 </r>
       <r>  -16.4321    1.0000 </r>
       <r>  -16.4321    1.0000 </r>
       <r>  -16.4321    1.0000 </r>
       <r>  -16.4321    1.0000 </r>
       <r>  -16.3972    1.0000 </r>
       <r>  -16.3972    1.0000 </r>
       <r>  -16.3972    1.0000 </r>
       <r>  -16.3972    1.0000 </r>
       <r>  -16.3224    1.0000 </r>
       <r>  -16.3224    1.0000 </r>
       <r>  -16.3224    1.0000 </r>
       <r>  -16.3224    1.0000 </r>
       <r>  -16.3216    1.0000 </r>
       <r>  -16.3216    1.0000 </r>
       <r>  -16.3216    1.0000 </r>
       <r>  -16.3216    1.0000 </r>
       <r>  -16.3163    1.0000 </r>
       <r>  -16.3163    1.0000 </r>
       <r>  -16.3163    1.0000 </r>
       <r>  -16.3163    1.0000 </r>
       <r>  -16.3159    1.0000 </r>
       <r>  -16.3159    1.0000 </r>
       <r>  -16.3159    1.0000 </r>
       <r>  -16.3159    1.0000 </r>
       <r>  -16.3159    1.0000 </r>
       <r>  -16.3159    1.0000 </r>
       <r>  -16.3159    1.0000 </r>
       <r>  -16.3159    1.0000 </r>
       <r>  -16.3155    1.0000 </r>
       <r>  -16.3155    1.0000 </r>
       <r>  -16.3155    1.0000 </r>
       <r>  -16.3155    1.0000 </r>
       <r>  -14.2394    1.0000 </r>
       <r>  -14.2394    1.0000 </r>
       <r>  -14.2394    1.0000 </r>
       <r>  -14.2394    1.0000 </r>
       <r>  -14.1302    1.0000 </r>
       <r>  -14.1302    1.0000 </r>
       <r>  -14.1302    1.0000 </r>
       <r>  -14.1302    1.0000 </r>
       <r>  -13.9431    1.0000 </r>
       <r>  -13.9431    1.0000 </r>
       <r>  -13.9431    1.0000 </r>
       <r>  -13.9431    1.0000 </r>
       <r>  -13.8835    1.0000 </r>
       <r>  -13.8835    1.0000 </r>
       <r>  -13.8835    1.0000 </r>
       <r>  -13.8835    1.0000 </r>
       <r>  -13.8461    1.0000 </r>
       <r>  -13.8461    1.0000 </r>
       <r>  -13.8461    1.0000 </r>
       <r>  -13.8461    1.0000 </r>
       <r>  -13.7674    1.0000 </r>
       <r>  -13.7674    1.0000 </r>
       <r>  -13.7674    1.0000 </r>
       <r>  -13.7674    1.0000 </r>
       <r>   -7.6871    1.0000 </r>
       <r>   -7.6871    1.0000 </r>
       <r>   -7.6871    1.0000 </r>
       <r>   -7.6871    1.0000 </r>
       <r>   -7.3018    1.0000 </r>
       <r>   -7.3018    1.0000 </r>
       <r>   -7.3018    1.0000 </r>
       <r>   -7.3018    1.0000 </r>
       <r>   -7.2629    1.0000 </r>
       <r>   -7.2629    1.0000 </r>
       <r>   -7.2629    1.0000 </r>
       <r>   -7.2629    1.0000 </r>
       <r>   -7.2399    1.0000 </r>
       <r>   -7.2399    1.0000 </r>
       <r>   -7.2399    1.0000 </r>
       <r>   -7.2399    1.0000 </r>
       <r>   -7.2100    1.0000 </r>
       <r>   -7.2100    1.0000 </r>
       <r>   -7.2100    1.0000 </r>
       <r>   -7.2100    1.0000 </r>
       <r>   -7.2086    1.0000 </r>
       <r>   -7.2086    1.0000 </r>
       <r>   -7.2086    1.0000 </r>
       <r>   -7.2086    1.0000 </r>
       <r>   -7.1967    1.0000 </r>
       <r>   -7.1967    1.0000 </r>
       <r>   -7.1967    1.0000 </r>
       <r>   -7.1967    1.0000 </r>
       <r>   -7.1658    1.0000 </r>
       <r>   -7.1658    1.0000 </r>
       <r>   -7.1658    1.0000 </r>
       <r>   -7.1658    1.0000 </r>
       <r>   -3.0491    1.0000 </r>
       <r>   -3.0491    1.0000 </r>
       <r>   -3.0491    1.0000 </r>
       <r>   -3.0491    1.0000 </r>
       <r>   -2.6280    1.0000 </r>
       <r>   -2.6280    1.0000 </r>
       <r>   -2.6280    1.0000 </r>
       <r>   -2.6280    1.0000 </r>
       <r>   -2.4954    1.0000 </r>
       <r>   -2.4954    1.0000 </r>
       <r>   -2.4954    1.0000 </r>
       <r>   -2.4954    1.0000 </r>
       <r>   -2.3138    1.0000 </r>
       <r>   -2.3138    1.0000 </r>
       <r>   -2.3138    1.0000 </r>
       <r>   -2.3138    1.0000 </r>
       <r>   -2.2680    1.0000 </r>
       <r>   -2.2680    1.0000 </r>
       <r>   -2.2680    1.0000 </r>
       <r>   -2.2680    1.0000 </r>
       <r>   -2.0007    1.0000 </r>
       <r>   -2.0007    1.0000 </r>
       <r>   -2.0007    1.0000 </r>
       <r>   -2.0007    1.0000 </r>
       <r>   -1.7589    1.0000 </r>
       <r>   -1.7589    1.0000 </r>
       <r>   -1.7589    1.0000 </r>
       <r>   -1.7589    1.0000 </r>
       <r>   -1.5976    1.0000 </r>
       <r>   -1.5976    1.0000 </r>
       <r>   -1.5976    1.0000 </r>
       <r>   -1.5976    1.0000 </r>
       <r>   -1.5872    1.0000 </r>
       <r>   -1.5872    1.0000 </r>
       <r>   -1.5872    1.0000 </r>
       <r>   -1.5872    1.0000 </r>
       <r>   -1.4594    1.0000 </r>
       <r>   -1.4594    1.0000 </r>
       <r>   -1.4594    1.0000 </r>
       <r>   -1.4594    1.0000 </r>
       <r>   -1.4055    1.0000 </r>
       <r>   -1.4055    1.0000 </r>
       <r>   -1.4055    1.0000 </r>
       <r>   -1.4055    1.0000 </r>
       <r>   -1.2212    1.0000 </r>
       <r>   -1.2212    1.0000 </r>
       <r>   -1.2212    1.0000 </r>
       <r>   -1.2212    1.0000 </r>
       <r>   -1.1433    1.0000 </r>
       <r>   -1.1433    1.0000 </r>
       <r>   -1.1433    1.0000 </r>
       <r>   -1.1433    1.0000 </r>
       <r>   -1.0995    1.0000 </r>
       <r>   -1.0995    1.0000 </r>
       <r>   -1.0995    1.0000 </r>
       <r>   -1.0995    1.0000 </r>
       <r>   -1.0682    1.0000 </r>
       <r>   -1.0682    1.0000 </r>
       <r>   -1.0682    1.0000 </r>
       <r>   -1.0682    1.0000 </r>
       <r>   -1.0443    1.0000 </r>
       <r>   -1.0443    1.0000 </r>
       <r>   -1.0443    1.0000 </r>
       <r>   -1.0443    1.0000 </r>
       <r>   -0.8198    1.0000 </r>
       <r>   -0.8198    1.0000 </r>
       <r>   -0.8198    1.0000 </r>
       <r>   -0.8198    1.0000 </r>
       <r>   -0.5378    1.0000 </r>
       <r>   -0.5378    1.0000 </r>
       <r>   -0.5378    1.0000 </r>
       <r>   -0.5378    1.0000 </r>
       <r>    3.1491    0.0000 </r>
       <r>    3.1491    0.0000 </r>
       <r>    3.1491    0.0000 </r>
       <r>    3.1491    0.0000 </r>
       <r>    4.2964    0.0000 </r>
       <r>    4.2964    0.0000 </r>
       <r>    4.2964    0.0000 </r>
       <r>    4.2964    0.0000 </r>
       <r>    4.5601    0.0000 </r>
       <r>    4.5601    0.0000 </r>
       <r>    4.5601    0.0000 </r>
       <r>    4.5601    0.0000 </r>
       <r>    4.7359    0.0000 </r>
       <r>    4.7359    0.0000 </r>
       <r>    4.7359    0.0000 </r>
       <r>    4.7359    0.0000 </r>
       <r>    5.0129    0.0000 </r>
       <r>    5.0129    0.0000 </r>
       <r>    5.0129    0.0000 </r>
       <r>    5.0129    0.0000 </r>
       <r>    5.6861    0.0000 </r>
       <r>    5.6861    0.0000 </r>
       <r>    5.6861    0.0000 </r>
       <r>    5.6861    0.0000 </r>
       <r>    5.8706    0.0000 </r>
       <r>    5.8706    0.0000 </r>
       <r>    5.8706    0.0000 </r>
       <r>    5.8706    0.0000 </r>
       <r>    6.1180    0.0000 </r>
       <r>    6.1180    0.0000 </r>
       <r>    6.1180    0.0000 </r>
       <r>    6.1180    0.0000 </r>
       <r>    6.5861    0.0000 </r>
       <r>    6.5862    0.0000 </r>
       <r>    6.5862    0.0000 </r>
       <r>    6.5863    0.0000 </r>
       <r>    6.6995    0.0000 </r>
       <r>    6.6997    0.0000 </r>
       <r>    6.7011    0.0000 </r>
       <r>    6.7075    0.0000 </r>
      </set>
      <set comment="kpoint 6">
       <r>  -20.8317    1.0000 </r>
       <r>  -20.8317    1.0000 </r>
       <r>  -20.8317    1.0000 </r>
       <r>  -20.8317    1.0000 </r>
       <r>  -20.8317    1.0000 </r>
       <r>  -20.8317    1.0000 </r>
       <r>  -20.8317    1.0000 </r>
       <r>  -20.8317    1.0000 </r>
       <r>  -16.4567    1.0000 </r>
       <r>  -16.4567    1.0000 </r>
       <r>  -16.4567    1.0000 </r>
       <r>  -16.4567    1.0000 </r>
       <r>  -16.4567    1.0000 </r>
       <r>  -16.4567    1.0000 </r>
       <r>  -16.4567    1.0000 </r>
       <r>  -16.4567    1.0000 </r>
       <r>  -16.4173    1.0000 </r>
       <r>  -16.4173    1.0000 </r>
       <r>  -16.4173    1.0000 </r>
       <r>  -16.4173    1.0000 </r>
       <r>  -16.4173    1.0000 </r>
       <r>  -16.4173    1.0000 </r>
       <r>  -16.4173    1.0000 </r>
       <r>  -16.4173    1.0000 </r>
       <r>  -16.3220    1.0000 </r>
       <r>  -16.3220    1.0000 </r>
       <r>  -16.3220    1.0000 </r>
       <r>  -16.3220    1.0000 </r>
       <r>  -16.3220    1.0000 </r>
       <r>  -16.3220    1.0000 </r>
       <r>  -16.3220    1.0000 </r>
       <r>  -16.3220    1.0000 </r>
       <r>  -16.3159    1.0000 </r>
       <r>  -16.3159    1.0000 </r>
       <r>  -16.3159    1.0000 </r>
       <r>  -16.3159    1.0000 </r>
       <r>  -16.3159    1.0000 </r>
       <r>  -16.3159    1.0000 </r>
       <r>  -16.3159    1.0000 </r>
       <r>  -16.3159    1.0000 </r>
       <r>  -16.3159    1.0000 </r>
       <r>  -16.3159    1.0000 </r>
       <r>  -16.3159    1.0000 </r>
       <r>  -16.3159    1.0000 </r>
       <r>  -16.3159    1.0000 </r>
       <r>  -16.3159    1.0000 </r>
       <r>  -16.3159    1.0000 </r>
       <r>  -16.3159    1.0000 </r>
       <r>  -14.1980    1.0000 </r>
       <r>  -14.1980    1.0000 </r>
       <r>  -14.1980    1.0000 </r>
       <r>  -14.1980    1.0000 </r>
       <r>  -14.1980    1.0000 </r>
       <r>  -14.1980    1.0000 </r>
       <r>  -14.1980    1.0000 </r>
       <r>  -14.1980    1.0000 </r>
       <r>  -13.8847    1.0000 </r>
       <r>  -13.8847    1.0000 </r>
       <r>  -13.8847    1.0000 </r>
       <r>  -13.8847    1.0000 </r>
       <r>  -13.8847    1.0000 </r>
       <r>  -13.8847    1.0000 </r>
       <r>  -13.8847    1.0000 </r>
       <r>  -13.8847    1.0000 </r>
       <r>  -13.8217    1.0000 </r>
       <r>  -13.8217    1.0000 </r>
       <r>  -13.8217    1.0000 </r>
       <r>  -13.8217    1.0000 </r>
       <r>  -13.8217    1.0000 </r>
       <r>  -13.8217    1.0000 </r>
       <r>  -13.8217    1.0000 </r>
       <r>  -13.8217    1.0000 </r>
       <r>   -7.4940    1.0000 </r>
       <r>   -7.4940    1.0000 </r>
       <r>   -7.4940    1.0000 </r>
       <r>   -7.4940    1.0000 </r>
       <r>   -7.4940    1.0000 </r>
       <r>   -7.4940    1.0000 </r>
       <r>   -7.4940    1.0000 </r>
       <r>   -7.4940    1.0000 </r>
       <r>   -7.2573    1.0000 </r>
       <r>   -7.2573    1.0000 </r>
       <r>   -7.2573    1.0000 </r>
       <r>   -7.2573    1.0000 </r>
       <r>   -7.2573    1.0000 </r>
       <r>   -7.2573    1.0000 </r>
       <r>   -7.2573    1.0000 </r>
       <r>   -7.2573    1.0000 </r>
       <r>   -7.2145    1.0000 </r>
       <r>   -7.2145    1.0000 </r>
       <r>   -7.2145    1.0000 </r>
       <r>   -7.2145    1.0000 </r>
       <r>   -7.2145    1.0000 </r>
       <r>   -7.2145    1.0000 </r>
       <r>   -7.2145    1.0000 </r>
       <r>   -7.2145    1.0000 </r>
       <r>   -7.1896    1.0000 </r>
       <r>   -7.1896    1.0000 </r>
       <r>   -7.1896    1.0000 </r>
       <r>   -7.1896    1.0000 </r>
       <r>   -7.1896    1.0000 </r>
       <r>   -7.1896    1.0000 </r>
       <r>   -7.1896    1.0000 </r>
       <r>   -7.1896    1.0000 </r>
       <r>   -2.5858    1.0000 </r>
       <r>   -2.5858    1.0000 </r>
       <r>   -2.5858    1.0000 </r>
       <r>   -2.5858    1.0000 </r>
       <r>   -2.5858    1.0000 </r>
       <r>   -2.5858    1.0000 </r>
       <r>   -2.5858    1.0000 </r>
       <r>   -2.5858    1.0000 </r>
       <r>   -2.5247    1.0000 </r>
       <r>   -2.5247    1.0000 </r>
       <r>   -2.5247    1.0000 </r>
       <r>   -2.5247    1.0000 </r>
       <r>   -2.5247    1.0000 </r>
       <r>   -2.5247    1.0000 </r>
       <r>   -2.5247    1.0000 </r>
       <r>   -2.5247    1.0000 </r>
       <r>   -2.1779    1.0000 </r>
       <r>   -2.1779    1.0000 </r>
       <r>   -2.1779    1.0000 </r>
       <r>   -2.1779    1.0000 </r>
       <r>   -2.1779    1.0000 </r>
       <r>   -2.1779    1.0000 </r>
       <r>   -2.1779    1.0000 </r>
       <r>   -2.1779    1.0000 </r>
       <r>   -1.6682    1.0000 </r>
       <r>   -1.6682    1.0000 </r>
       <r>   -1.6682    1.0000 </r>
       <r>   -1.6682    1.0000 </r>
       <r>   -1.6682    1.0000 </r>
       <r>   -1.6682    1.0000 </r>
       <r>   -1.6682    1.0000 </r>
       <r>   -1.6682    1.0000 </r>
       <r>   -1.5218    1.0000 </r>
       <r>   -1.5218    1.0000 </r>
       <r>   -1.5218    1.0000 </r>
       <r>   -1.5218    1.0000 </r>
       <r>   -1.5218    1.0000 </r>
       <r>   -1.5218    1.0000 </r>
       <r>   -1.5218    1.0000 </r>
       <r>   -1.5218    1.0000 </r>
[...]
        <r>  0.0051  0.0014  0.0073 </r>
        <r>  0.0002  0.0003  0.0043 </r>
        <r>  0.0040  0.0008  0.0062 </r>
        <r>  0.0025  0.0001  0.0044 </r>
        <r>  0.0090  0.0006  0.0113 </r>
        <r>  0.0021  0.0004  0.0037 </r>
        <r>  0.0000  0.0040  0.0001 </r>
        <r>  0.0000  0.0073  0.0001 </r>
        <r>  0.0000  0.0079  0.0001 </r>
        <r>  0.0000  0.0027  0.0001 </r>
        <r>  0.0000  0.0075  0.0001 </r>
        <r>  0.0000  0.0080  0.0001 </r>
        <r>  0.0000  0.0057  0.0001 </r>
        <r>  0.0000  0.0069  0.0001 </r>
        <r>  0.0001  0.0012  0.0005 </r>
        <r>  0.0002  0.0019  0.0004 </r>
        <r>  0.0007  0.0011  0.0005 </r>
        <r>  0.0005  0.0014  0.0009 </r>
        <r>  0.0003  0.0023  0.0004 </r>
        <r>  0.0006  0.0009  0.0006 </r>
        <r>  0.0010  0.0008  0.0009 </r>
        <r>  0.0001  0.0032  0.0005 </r>
        <r>  0.0007  0.0046  0.0019 </r>
        <r>  0.0004  0.0024  0.0009 </r>
        <r>  0.0011  0.0027  0.0033 </r>
        <r>  0.0003  0.0037  0.0007 </r>
        <r>  0.0020  0.0028  0.0041 </r>
        <r>  0.0003  0.0062  0.0007 </r>
        <r>  0.0011  0.0041  0.0023 </r>
        <r>  0.0002  0.0036  0.0007 </r>
        <r>  0.0004  0.0027  0.0004 </r>
        <r>  0.0006  0.0005  0.0005 </r>
        <r>  0.0001  0.0021  0.0004 </r>
        <r>  0.0001  0.0024  0.0003 </r>
        <r>  0.0003  0.0016  0.0009 </r>
        <r>  0.0002  0.0027  0.0003 </r>
        <r>  0.0002  0.0016  0.0004 </r>
        <r>  0.0009  0.0006  0.0009 </r>
       </set>
       <set comment="band 208">
        <r>  0.0017  0.0006  0.0038 </r>
        <r>  0.0043  0.0002  0.0062 </r>
        <r>  0.0034  0.0005  0.0065 </r>
        <r>  0.0008  0.0003  0.0048 </r>
        <r>  0.0058  0.0003  0.0085 </r>
        <r>  0.0064  0.0007  0.0073 </r>
        <r>  0.0036  0.0009  0.0062 </r>
        <r>  0.0015  0.0009  0.0053 </r>
        <r>  0.0000  0.0151  0.0001 </r>
        <r>  0.0001  0.0044  0.0002 </r>
        <r>  0.0000  0.0048  0.0001 </r>
        <r>  0.0000  0.0083  0.0001 </r>
        <r>  0.0000  0.0033  0.0001 </r>
        <r>  0.0000  0.0064  0.0001 </r>
        <r>  0.0000  0.0024  0.0001 </r>
        <r>  0.0000  0.0054  0.0001 </r>
        <r>  0.0002  0.0024  0.0003 </r>
        <r>  0.0013  0.0013  0.0010 </r>
        <r>  0.0005  0.0017  0.0004 </r>
        <r>  0.0002  0.0038  0.0004 </r>
        <r>  0.0002  0.0008  0.0009 </r>
        <r>  0.0001  0.0019  0.0002 </r>
        <r>  0.0004  0.0017  0.0004 </r>
        <r>  0.0001  0.0007  0.0004 </r>
        <r>  0.0025  0.0024  0.0045 </r>
        <r>  0.0008  0.0087  0.0017 </r>
        <r>  0.0001  0.0065  0.0002 </r>
        <r>  0.0011  0.0016  0.0022 </r>
        <r>  0.0000  0.0047  0.0002 </r>
        <r>  0.0005  0.0016  0.0016 </r>
        <r>  0.0005  0.0014  0.0027 </r>
        <r>  0.0005  0.0032  0.0013 </r>
        <r>  0.0001  0.0022  0.0002 </r>
        <r>  0.0008  0.0010  0.0008 </r>
        <r>  0.0001  0.0019  0.0006 </r>
        <r>  0.0000  0.0011  0.0002 </r>
        <r>  0.0005  0.0011  0.0007 </r>
        <r>  0.0007  0.0031  0.0009 </r>
        <r>  0.0008  0.0008  0.0009 </r>
        <r>  0.0004  0.0014  0.0006 </r>
       </set>
       <set comment="band 209">
        <r>  0.0005  0.0012  0.0210 </r>
        <r>  0.0000  0.0010  0.0088 </r>
        <r>  0.0004  0.0015  0.0148 </r>
        <r>  0.0001  0.0004  0.0111 </r>
        <r>  0.0004  0.0011  0.0178 </r>
        <r>  0.0002  0.0011  0.0142 </r>
        <r>  0.0003  0.0013  0.0128 </r>
        <r>  0.0003  0.0005  0.0172 </r>
        <r>  0.0000  0.0018  0.0004 </r>
        <r>  0.0000  0.0005  0.0007 </r>
        <r>  0.0000  0.0019  0.0003 </r>
        <r>  0.0000  0.0029  0.0002 </r>
        <r>  0.0000  0.0019  0.0005 </r>
        <r>  0.0000  0.0028  0.0002 </r>
        <r>  0.0000  0.0019  0.0001 </r>
        <r>  0.0000  0.0005  0.0002 </r>
        <r>  0.0008  0.0021  0.0014 </r>
        <r>  0.0008  0.0017  0.0016 </r>
        <r>  0.0005  0.0009  0.0014 </r>
        <r>  0.0004  0.0010  0.0010 </r>
        <r>  0.0003  0.0008  0.0007 </r>
        <r>  0.0003  0.0015  0.0009 </r>
        <r>  0.0007  0.0021  0.0014 </r>
        <r>  0.0000  0.0015  0.0001 </r>
        <r>  0.0000  0.0004  0.0045 </r>
        <r>  0.0001  0.0009  0.0002 </r>
        <r>  0.0002  0.0022  0.0002 </r>
        <r>  0.0004  0.0003  0.0011 </r>
        <r>  0.0000  0.0021  0.0006 </r>
        <r>  0.0002  0.0002  0.0018 </r>
        <r>  0.0013  0.0004  0.0007 </r>
        <r>  0.0000  0.0017  0.0002 </r>
        <r>  0.0011  0.0017  0.0021 </r>
        <r>  0.0003  0.0012  0.0011 </r>
        <r>  0.0003  0.0010  0.0007 </r>
        <r>  0.0001  0.0021  0.0004 </r>
        <r>  0.0003  0.0013  0.0010 </r>
        <r>  0.0012  0.0015  0.0023 </r>
        <r>  0.0001  0.0023  0.0003 </r>
        <r>  0.0005  0.0009  0.0009 </r>
       </set>
       <set comment="band 210">
        <r>  0.0001  0.0006  0.0081 </r>
        <r>  0.0003  0.0005  0.0123 </r>
        <r>  0.0001  0.0008  0.0074 </r>
        <r>  0.0005  0.0009  0.0183 </r>
        <r>  0.0001  0.0013  0.0145 </r>
        <r>  0.0001  0.0019  0.0109 </r>
        <r>  0.0004  0.0006  0.0232 </r>
        <r>  0.0006  0.0016  0.0229 </r>
        <r>  0.0000  0.0029  0.0004 </r>
        <r>  0.0000  0.0012  0.0004 </r>
        <r>  0.0000  0.0022  0.0006 </r>
        <r>  0.0000  0.0008  0.0003 </r>
        <r>  0.0000  0.0022  0.0001 </r>
        <r>  0.0000  0.0008  0.0003 </r>
        <r>  0.0000  0.0029  0.0002 </r>
        <r>  0.0000  0.0013  0.0003 </r>
        <r>  0.0001  0.0005  0.0011 </r>
        <r>  0.0002  0.0004  0.0009 </r>
        <r>  0.0015  0.0024  0.0023 </r>
        <r>  0.0003  0.0017  0.0008 </r>
        <r>  0.0002  0.0034  0.0007 </r>
        <r>  0.0003  0.0008  0.0006 </r>
        <r>  0.0001  0.0003  0.0004 </r>
        <r>  0.0002  0.0008  0.0008 </r>
        <r>  0.0000  0.0012  0.0004 </r>
        <r>  0.0002  0.0009  0.0024 </r>
        <r>  0.0003  0.0002  0.0018 </r>
        <r>  0.0001  0.0014  0.0017 </r>
        <r>  0.0004  0.0004  0.0013 </r>
        <r>  0.0005  0.0015  0.0006 </r>
        <r>  0.0000  0.0015  0.0003 </r>
        <r>  0.0007  0.0009  0.0010 </r>
        <r>  0.0003  0.0026  0.0005 </r>
        <r>  0.0007  0.0013  0.0013 </r>
        <r>  0.0001  0.0011  0.0006 </r>
        <r>  0.0003  0.0004  0.0010 </r>
        <r>  0.0012  0.0017  0.0025 </r>
        <r>  0.0000  0.0013  0.0004 </r>
        <r>  0.0018  0.0028  0.0030 </r>
        <r>  0.0001  0.0025  0.0003 </r>
       </set>
       <set comment="band 211">
        <r>  0.0001  0.0015  0.0029 </r>
        <r>  0.0007  0.0004  0.0310 </r>
        <r>  0.0000  0.0004  0.0154 </r>
        <r>  0.0003  0.0023  0.0115 </r>
        <r>  0.0003  0.0002  0.0230 </r>
        <r>  0.0001  0.0019  0.0054 </r>
        <r>  0.0001  0.0006  0.0085 </r>
        <r>  0.0006  0.0009  0.0205 </r>
        <r>  0.0000  0.0028  0.0003 </r>
        <r>  0.0000  0.0021  0.0003 </r>
        <r>  0.0000  0.0012  0.0003 </r>
        <r>  0.0000  0.0012  0.0002 </r>
        <r>  0.0000  0.0011  0.0005 </r>
        <r>  0.0000  0.0012  0.0004 </r>
        <r>  0.0000  0.0028  0.0003 </r>
        <r>  0.0000  0.0021  0.0004 </r>
        <r>  0.0005  0.0021  0.0012 </r>
        <r>  0.0001  0.0012  0.0002 </r>
        <r>  0.0000  0.0006  0.0005 </r>
        <r>  0.0002  0.0014  0.0009 </r>
        <r>  0.0003  0.0010  0.0013 </r>
        <r>  0.0006  0.0011  0.0013 </r>
        <r>  0.0005  0.0019  0.0011 </r>
        <r>  0.0006  0.0012  0.0014 </r>
        <r>  0.0001  0.0005  0.0012 </r>
        <r>  0.0003  0.0020  0.0005 </r>
        <r>  0.0001  0.0012  0.0006 </r>
        <r>  0.0012  0.0006  0.0010 </r>
        <r>  0.0001  0.0005  0.0005 </r>
        <r>  0.0002  0.0006  0.0038 </r>
        <r>  0.0002  0.0004  0.0008 </r>
        <r>  0.0001  0.0021  0.0009 </r>
        <r>  0.0004  0.0017  0.0010 </r>
        <r>  0.0012  0.0019  0.0020 </r>
        <r>  0.0004  0.0021  0.0009 </r>
        <r>  0.0005  0.0011  0.0010 </r>
        <r>  0.0012  0.0018  0.0021 </r>
        <r>  0.0002  0.0013  0.0007 </r>
        <r>  0.0005  0.0012  0.0010 </r>
        <r>  0.0002  0.0019  0.0007 </r>
       </set>
       <set comment="band 212">
        <r>  0.0003  0.0011  0.0174 </r>
        <r>  0.0007  0.0014  0.0270 </r>
        <r>  0.0001  0.0013  0.0146 </r>
        <r>  0.0003  0.0022  0.0178 </r>
        <r>  0.0002  0.0008  0.0094 </r>
        <r>  0.0003  0.0003  0.0169 </r>
        <r>  0.0002  0.0005  0.0116 </r>
        <r>  0.0000  0.0011  0.0038 </r>
        <r>  0.0000  0.0013  0.0003 </r>
        <r>  0.0000  0.0017  0.0002 </r>
        <r>  0.0000  0.0018  0.0003 </r>
        <r>  0.0000  0.0014  0.0003 </r>
        <r>  0.0000  0.0020  0.0002 </r>
        <r>  0.0000  0.0014  0.0002 </r>
        <r>  0.0000  0.0013  0.0003 </r>
        <r>  0.0000  0.0017  0.0002 </r>
        <r>  0.0003  0.0015  0.0005 </r>
        <r>  0.0010  0.0021  0.0018 </r>
        <r>  0.0001  0.0014  0.0008 </r>
        <r>  0.0004  0.0007  0.0012 </r>
        <r>  0.0002  0.0009  0.0004 </r>
        <r>  0.0003  0.0008  0.0011 </r>
        <r>  0.0001  0.0019  0.0005 </r>
        <r>  0.0008  0.0020  0.0014 </r>
        <r>  0.0003  0.0011  0.0007 </r>
        <r>  0.0003  0.0015  0.0014 </r>
        <r>  0.0004  0.0006  0.0008 </r>
        <r>  0.0000  0.0013  0.0026 </r>
        <r>  0.0001  0.0012  0.0014 </r>
        <r>  0.0008  0.0011  0.0006 </r>
        <r>  0.0001  0.0011  0.0012 </r>
        <r>  0.0004  0.0014  0.0012 </r>
        <r>  0.0010  0.0015  0.0018 </r>
        <r>  0.0005  0.0026  0.0008 </r>
        <r>  0.0014  0.0020  0.0025 </r>
        <r>  0.0002  0.0016  0.0006 </r>
        <r>  0.0001  0.0015  0.0005 </r>
        <r>  0.0000  0.0005  0.0004 </r>
        <r>  0.0000  0.0009  0.0005 </r>
        <r>  0.0006  0.0016  0.0012 </r>
       </set>
       <set comment="band 213">
        <r>  0.0004  0.0004  0.0153 </r>
        <r>  0.0000  0.0009  0.0049 </r>
        <r>  0.0012  0.0011  0.0408 </r>
        <r>  0.0001  0.0009  0.0085 </r>
        <r>  0.0001  0.0008  0.0064 </r>
        <r>  0.0002  0.0003  0.0115 </r>
        <r>  0.0002  0.0034  0.0103 </r>
        <r>  0.0001  0.0003  0.0209 </r>
        <r>  0.0000  0.0012  0.0004 </r>
        <r>  0.0000  0.0033  0.0002 </r>
        <r>  0.0000  0.0022  0.0002 </r>
        <r>  0.0000  0.0007  0.0008 </r>
        <r>  0.0000  0.0021  0.0002 </r>
        <r>  0.0000  0.0007  0.0002 </r>
        <r>  0.0000  0.0012  0.0006 </r>
        <r>  0.0000  0.0033  0.0002 </r>
        <r>  0.0000  0.0017  0.0004 </r>
        <r>  0.0006  0.0011  0.0013 </r>
        <r>  0.0007  0.0019  0.0014 </r>
        <r>  0.0013  0.0021  0.0024 </r>
        <r>  0.0002  0.0009  0.0006 </r>
        <r>  0.0002  0.0015  0.0006 </r>
        <r>  0.0010  0.0020  0.0017 </r>
        <r>  0.0007  0.0025  0.0013 </r>
        <r>  0.0005  0.0020  0.0005 </r>
        <r>  0.0002  0.0005  0.0006 </r>
        <r>  0.0001  0.0009  0.0036 </r>
        <r>  0.0000  0.0005  0.0006 </r>
        <r>  0.0011  0.0009  0.0009 </r>
        <r>  0.0001  0.0012  0.0003 </r>
        <r>  0.0001  0.0019  0.0017 </r>
        <r>  0.0000  0.0002  0.0011 </r>
        <r>  0.0000  0.0003  0.0005 </r>
        <r>  0.0000  0.0008  0.0003 </r>
        <r>  0.0008  0.0016  0.0015 </r>
        <r>  0.0008  0.0016  0.0014 </r>
        <r>  0.0002  0.0020  0.0007 </r>
        <r>  0.0001  0.0018  0.0005 </r>
        <r>  0.0004  0.0008  0.0014 </r>
        <r>  0.0003  0.0010  0.0013 </r>
       </set>
       <set comment="band 214">
        <r>  0.0000  0.0006  0.0066 </r>
        <r>  0.0002  0.0013  0.0144 </r>
        <r>  0.0001  0.0003  0.0091 </r>
        <r>  0.0002  0.0009  0.0102 </r>
        <r>  0.0001  0.0026  0.0088 </r>
        <r>  0.0003  0.0011  0.0223 </r>
        <r>  0.0006  0.0006  0.0319 </r>
        <r>  0.0003  0.0011  0.0172 </r>
        <r>  0.0000  0.0021  0.0002 </r>
        <r>  0.0000  0.0011  0.0003 </r>
        <r>  0.0000  0.0013  0.0003 </r>
        <r>  0.0000  0.0019  0.0002 </r>
        <r>  0.0000  0.0005  0.0004 </r>
        <r>  0.0000  0.0021  0.0001 </r>
        <r>  0.0000  0.0018  0.0001 </r>
        <r>  0.0000  0.0015  0.0003 </r>
        <r>  0.0001  0.0012  0.0004 </r>
        <r>  0.0004  0.0020  0.0014 </r>
        <r>  0.0002  0.0005  0.0009 </r>
        <r>  0.0001  0.0003  0.0003 </r>
        <r>  0.0006  0.0014  0.0010 </r>
        <r>  0.0003  0.0010  0.0010 </r>
        <r>  0.0004  0.0011  0.0010 </r>
        <r>  0.0008  0.0021  0.0011 </r>
        <r>  0.0003  0.0018  0.0008 </r>
        <r>  0.0005  0.0013  0.0012 </r>
        <r>  0.0006  0.0010  0.0009 </r>
        <r>  0.0003  0.0018  0.0013 </r>
        <r>  0.0001  0.0009  0.0022 </r>
        <r>  0.0003  0.0014  0.0010 </r>
        <r>  0.0001  0.0015  0.0009 </r>
        <r>  0.0002  0.0011  0.0019 </r>
        <r>  0.0003  0.0007  0.0010 </r>
        <r>  0.0001  0.0013  0.0006 </r>
        <r>  0.0001  0.0010  0.0006 </r>
        <r>  0.0004  0.0014  0.0007 </r>
        <r>  0.0002  0.0021  0.0007 </r>
        <r>  0.0011  0.0021  0.0022 </r>
        <r>  0.0000  0.0021  0.0004 </r>
        <r>  0.0013  0.0019  0.0024 </r>
       </set>
       <set comment="band 215">
        <r>  0.0000  0.0014  0.0091 </r>
        <r>  0.0001  0.0019  0.0136 </r>
        <r>  0.0002  0.0003  0.0076 </r>
        <r>  0.0002  0.0005  0.0147 </r>
        <r>  0.0005  0.0009  0.0255 </r>
        <r>  0.0006  0.0008  0.0291 </r>
        <r>  0.0002  0.0007  0.0078 </r>
        <r>  0.0001  0.0010  0.0148 </r>
        <r>  0.0000  0.0022  0.0004 </r>
        <r>  0.0000  0.0014  0.0003 </r>
        <r>  0.0000  0.0029  0.0005 </r>
        <r>  0.0000  0.0004  0.0003 </r>
        <r>  0.0000  0.0030  0.0001 </r>
        <r>  0.0000  0.0008  0.0004 </r>
        <r>  0.0000  0.0039  0.0004 </r>
        <r>  0.0000  0.0015  0.0002 </r>
        <r>  0.0014  0.0024  0.0031 </r>
        <r>  0.0000  0.0016  0.0004 </r>
        <r>  0.0005  0.0018  0.0013 </r>
        <r>  0.0003  0.0011  0.0009 </r>
        <r>  0.0015  0.0029  0.0026 </r>
        <r>  0.0001  0.0020  0.0005 </r>
        <r>  0.0004  0.0018  0.0007 </r>
        <r>  0.0000  0.0006  0.0004 </r>
        <r>  0.0004  0.0007  0.0008 </r>
        <r>  0.0003  0.0006  0.0028 </r>
        <r>  0.0001  0.0010  0.0011 </r>
        <r>  0.0002  0.0021  0.0004 </r>
        <r>  0.0002  0.0008  0.0006 </r>
        <r>  0.0000  0.0022  0.0007 </r>
        <r>  0.0002  0.0012  0.0013 </r>
        <r>  0.0008  0.0004  0.0019 </r>
        <r>  0.0001  0.0021  0.0007 </r>
        <r>  0.0002  0.0005  0.0007 </r>
        <r>  0.0001  0.0011  0.0010 </r>
        <r>  0.0001  0.0005  0.0007 </r>
        <r>  0.0003  0.0014  0.0010 </r>
        <r>  0.0003  0.0007  0.0015 </r>
        <r>  0.0006  0.0011  0.0013 </r>
        <r>  0.0002  0.0006  0.0010 </r>
       </set>
       <set comment="band 216">
        <r>  0.0006  0.0012  0.0243 </r>
        <r>  0.0000  0.0005  0.0104 </r>
        <r>  0.0000  0.0016  0.0023 </r>
        <r>  0.0003  0.0004  0.0374 </r>
        <r>  0.0003  0.0007  0.0161 </r>
        <r>  0.0001  0.0007  0.0088 </r>
        <r>  0.0001  0.0002  0.0161 </r>
        <r>  0.0001  0.0017  0.0093 </r>
        <r>  0.0000  0.0007  0.0004 </r>
        <r>  0.0000  0.0012  0.0001 </r>
        <r>  0.0000  0.0023  0.0003 </r>
        <r>  0.0000  0.0050  0.0002 </r>
        <r>  0.0000  0.0026  0.0004 </r>
        <r>  0.0000  0.0038  0.0003 </r>
        <r>  0.0000  0.0007  0.0002 </r>
        <r>  0.0000  0.0014  0.0008 </r>
        <r>  0.0000  0.0002  0.0006 </r>
        <r>  0.0002  0.0013  0.0007 </r>
        <r>  0.0001  0.0020  0.0009 </r>
        <r>  0.0005  0.0021  0.0009 </r>
        <r>  0.0001  0.0014  0.0008 </r>
        <r>  0.0012  0.0014  0.0020 </r>
        <r>  0.0002  0.0011  0.0012 </r>
        <r>  0.0002  0.0015  0.0017 </r>
        <r>  0.0003  0.0017  0.0004 </r>
        <r>  0.0005  0.0011  0.0007 </r>
        <r>  0.0006  0.0008  0.0011 </r>
        <r>  0.0002  0.0015  0.0012 </r>
        <r>  0.0000  0.0010  0.0019 </r>
        <r>  0.0002  0.0009  0.0013 </r>
        <r>  0.0001  0.0014  0.0015 </r>
        <r>  0.0001  0.0011  0.0016 </r>
        <r>  0.0005  0.0013  0.0011 </r>
        <r>  0.0005  0.0012  0.0011 </r>
        <r>  0.0002  0.0010  0.0008 </r>
        <r>  0.0009  0.0019  0.0024 </r>
        <r>  0.0001  0.0006  0.0011 </r>
        <r>  0.0001  0.0025  0.0009 </r>
        <r>  0.0003  0.0011  0.0011 </r>
        <r>  0.0001  0.0005  0.0008 </r>
       </set>
      </set>
     </set>
    </set>
   </array>
  </projected>
 </calculation>
 <structure name="finalpos" >
  <crystal>
   <varray name="basis" >
    <v>      11.73535200       0.00000000       0.00000000 </v>
    <v>       0.00000000      11.73535200       0.00000000 </v>
    <v>       0.00000000       0.00000000      11.73535200 </v>
   </varray>
   <i name="volume">   1616.17491673 </i>
   <varray name="rec_basis" >
    <v>       0.08521261       0.00000000       0.00000000 </v>
    <v>       0.00000000       0.08521261       0.00000000 </v>
    <v>       0.00000000       0.00000000       0.08521261 </v>
   </varray>
  </crystal>
  <varray name="positions" >
   <v>       0.25000000       0.25000000       0.25000000 </v>
   <v>       0.25000000       0.25000000       0.75000000 </v>
   <v>       0.25000000       0.75000000       0.25000000 </v>
   <v>       0.25000000       0.75000000       0.75000000 </v>
   <v>       0.75000000       0.25000000       0.25000000 </v>
   <v>       0.75000000       0.25000000       0.75000000 </v>
   <v>       0.75000000       0.75000000       0.25000000 </v>
   <v>       0.75000000       0.75000000       0.75000000 </v>
   <v>       0.00000000       0.00000000       0.00000000 </v>
   <v>       0.00000000       0.00000000       0.50000000 </v>
   <v>       0.00000000       0.50000000       0.00000000 </v>
   <v>       0.00000000       0.50000000       0.50000000 </v>
   <v>       0.50000000       0.00000000       0.00000000 </v>
   <v>       0.50000000       0.00000000       0.50000000 </v>
   <v>       0.50000000       0.50000000       0.00000000 </v>
   <v>       0.50000000       0.50000000       0.50000000 </v>
   <v>       0.93250000       0.25000000       0.00000000 </v>
   <v>       0.93250000       0.25000000       0.50000000 </v>
   <v>       0.06750000       0.75000000       0.00000000 </v>
   <v>       0.06750000       0.75000000       0.50000000 </v>
   <v>       0.56750000       0.25000000       0.00000000 </v>
   <v>       0.56750000       0.25000000       0.50000000 </v>
   <v>       0.43250000       0.75000000       0.00000000 </v>
   <v>       0.43250000       0.75000000       0.50000000 </v>
   <v>       0.00000000       0.00000000       0.25000000 </v>
   <v>       0.00000000       0.00000000       0.75000000 </v>
   <v>       0.00000000       0.50000000       0.25000000 </v>
   <v>       0.00000000       0.50000000       0.75000000 </v>
   <v>       0.50000000       0.00000000       0.25000000 </v>
   <v>       0.50000000       0.00000000       0.75000000 </v>
   <v>       0.50000000       0.50000000       0.25000000 </v>
   <v>       0.50000000       0.50000000       0.75000000 </v>
   <v>       0.25000000       0.06750000       0.00000000 </v>
   <v>       0.25000000       0.06750000       0.50000000 </v>
   <v>       0.25000000       0.43250000       0.00000000 </v>
   <v>       0.25000000       0.43250000       0.50000000 </v>
   <v>       0.75000000       0.93250000       0.00000000 </v>
   <v>       0.75000000       0.93250000       0.50000000 </v>
   <v>       0.75000000       0.56750000       0.00000000 </v>
   <v>       0.75000000       0.56750000       0.50000000 </v>
  </varray>
 </structure>
</modeling>
