  20  20   1   0
  0.4051405E+02  0.8504218E-09  0.1167823E-08  0.8158760E-09  0.5000000E-15
   1.0000000000000000E-004
  CAR 
 CsPbBr3 cubic bulk                      
      8.60064267    -22.22996083  301      0.40484058      1.00000000
    -22.230  0.0000E+00  0.0000E+00
    -22.127  0.0000E+00  0.0000E+00
    -22.024  0.0000E+00  0.0000E+00
    -21.922  0.0000E+00  0.0000E+00
    -21.819  0.0000E+00  0.0000E+00
    -21.716  0.0000E+00  0.0000E+00
    -21.613  0.0000E+00  0.0000E+00
    -21.511  0.0000E+00  0.0000E+00
    -21.408  0.0000E+00  0.0000E+00
    -21.305  0.0000E+00  0.0000E+00
    -21.202  0.0000E+00  0.0000E+00
    -21.100  0.0000E+00  0.0000E+00
    -20.997  0.0000E+00  0.0000E+00
    -20.894  0.0000E+00  0.0000E+00
    -20.791  0.7784E+02  0.8000E+01
    -20.688  0.0000E+00  0.8000E+01
    -20.586  0.0000E+00  0.8000E+01
    -20.483  0.0000E+00  0.8000E+01
    -20.380  0.0000E+00  0.8000E+01
    -20.277  0.0000E+00  0.8000E+01
    -20.175  0.0000E+00  0.8000E+01
    -20.072  0.0000E+00  0.8000E+01
    -19.969  0.0000E+00  0.8000E+01
    -19.866  0.0000E+00  0.8000E+01
    -19.764  0.0000E+00  0.8000E+01
    -19.661  0.0000E+00  0.8000E+01
    -19.558  0.0000E+00  0.8000E+01
    -19.455  0.0000E+00  0.8000E+01
    -19.352  0.0000E+00  0.8000E+01
    -19.250  0.0000E+00  0.8000E+01
    -19.147  0.0000E+00  0.8000E+01
    -19.044  0.0000E+00  0.8000E+01
    -18.941  0.0000E+00  0.8000E+01
    -18.839  0.0000E+00  0.8000E+01
    -18.736  0.0000E+00  0.8000E+01
    -18.633  0.0000E+00  0.8000E+01
    -18.530  0.0000E+00  0.8000E+01
    -18.428  0.0000E+00  0.8000E+01
    -18.325  0.0000E+00  0.8000E+01
    -18.222  0.0000E+00  0.8000E+01
    -18.119  0.0000E+00  0.8000E+01
    -18.016  0.0000E+00  0.8000E+01
    -17.914  0.0000E+00  0.8000E+01
    -17.811  0.0000E+00  0.8000E+01
    -17.708  0.0000E+00  0.8000E+01
    -17.605  0.0000E+00  0.8000E+01
    -17.503  0.0000E+00  0.8000E+01
    -17.400  0.0000E+00  0.8000E+01
    -17.297  0.0000E+00  0.8000E+01
    -17.194  0.0000E+00  0.8000E+01
    -17.092  0.0000E+00  0.8000E+01
    -16.989  0.0000E+00  0.8000E+01
    -16.886  0.0000E+00  0.8000E+01
    -16.783  0.0000E+00  0.8000E+01
    -16.680  0.0000E+00  0.8000E+01
    -16.578  0.1808E-06  0.8000E+01
    -16.475  0.1080E+03  0.1909E+02
    -16.372  0.2241E+03  0.4603E+02
    -16.269  0.0000E+00  0.4800E+02
    -16.167  0.0000E+00  0.4800E+02
    -16.064  0.0000E+00  0.4800E+02
    -15.961  0.0000E+00  0.4800E+02
    -15.858  0.0000E+00  0.4800E+02
    -15.756  0.0000E+00  0.4800E+02
    -15.653  0.0000E+00  0.4800E+02
    -15.550  0.0000E+00  0.4800E+02
    -15.447  0.0000E+00  0.4800E+02
    -15.344  0.0000E+00  0.4800E+02
    -15.242  0.0000E+00  0.4800E+02
    -15.139  0.0000E+00  0.4800E+02
    -15.036  0.0000E+00  0.4800E+02
    -14.933  0.0000E+00  0.4800E+02
    -14.831  0.0000E+00  0.4800E+02
    -14.728  0.0000E+00  0.4800E+02
    -14.625  0.0000E+00  0.4800E+02
    -14.522  0.0000E+00  0.4800E+02
    -14.420  0.2161E-14  0.4800E+02
    -14.317  0.3244E+01  0.4833E+02
    -14.214  0.2088E+02  0.5092E+02
    -14.111  0.3139E+02  0.5423E+02
    -14.008  0.5198E+02  0.6001E+02
    -13.906  0.4862E+02  0.6511E+02
    -13.803  0.4268E+02  0.7094E+02
    -13.700  0.3243E+01  0.7200E+02
    -13.597  0.0000E+00  0.7200E+02
    -13.495  0.0000E+00  0.7200E+02
    -13.392  0.0000E+00  0.7200E+02
    -13.289  0.0000E+00  0.7200E+02
    -13.186  0.0000E+00  0.7200E+02
    -13.084  0.0000E+00  0.7200E+02
    -12.981  0.0000E+00  0.7200E+02
    -12.878  0.0000E+00  0.7200E+02
    -12.775  0.0000E+00  0.7200E+02
    -12.672  0.0000E+00  0.7200E+02
    -12.570  0.0000E+00  0.7200E+02
    -12.467  0.0000E+00  0.7200E+02
    -12.364  0.0000E+00  0.7200E+02
    -12.261  0.0000E+00  0.7200E+02
    -12.159  0.0000E+00  0.7200E+02
    -12.056  0.0000E+00  0.7200E+02
    -11.953  0.0000E+00  0.7200E+02
    -11.850  0.0000E+00  0.7200E+02
    -11.748  0.0000E+00  0.7200E+02
    -11.645  0.0000E+00  0.7200E+02
    -11.542  0.0000E+00  0.7200E+02
    -11.439  0.0000E+00  0.7200E+02
    -11.336  0.0000E+00  0.7200E+02
    -11.234  0.0000E+00  0.7200E+02
    -11.131  0.0000E+00  0.7200E+02
    -11.028  0.0000E+00  0.7200E+02
    -10.925  0.0000E+00  0.7200E+02
    -10.823  0.0000E+00  0.7200E+02
    -10.720  0.0000E+00  0.7200E+02
    -10.617  0.0000E+00  0.7200E+02
    -10.514  0.0000E+00  0.7200E+02
    -10.412  0.0000E+00  0.7200E+02
    -10.309  0.0000E+00  0.7200E+02
    -10.206  0.0000E+00  0.7200E+02
    -10.103  0.0000E+00  0.7200E+02
    -10.000  0.0000E+00  0.7200E+02
     -9.898  0.0000E+00  0.7200E+02
     -9.795  0.0000E+00  0.7200E+02
     -9.692  0.0000E+00  0.7200E+02
     -9.589  0.0000E+00  0.7200E+02
     -9.487  0.0000E+00  0.7200E+02
     -9.384  0.0000E+00  0.7200E+02
     -9.281  0.0000E+00  0.7200E+02
     -9.178  0.0000E+00  0.7200E+02
     -9.076  0.0000E+00  0.7200E+02
     -8.973  0.0000E+00  0.7200E+02
     -8.870  0.0000E+00  0.7200E+02
     -8.767  0.0000E+00  0.7200E+02
     -8.664  0.0000E+00  0.7200E+02
     -8.562  0.0000E+00  0.7200E+02
     -8.459  0.0000E+00  0.7200E+02
     -8.356  0.0000E+00  0.7200E+02
     -8.253  0.6338E-13  0.7200E+02
     -8.151  0.1081E+01  0.7211E+02
     -8.048  0.1888E-10  0.7211E+02
     -7.945  0.6480E+01  0.7278E+02
     -7.842  0.4325E+01  0.7322E+02
     -7.740  0.8633E+01  0.7411E+02
     -7.637  0.8359E+01  0.7497E+02
     -7.534  0.3129E+01  0.7588E+02
     -7.431  0.4325E+01  0.7644E+02
     -7.329  0.1310E+02  0.7779E+02
     -7.226  0.8973E+02  0.8744E+02
     -7.123  0.5730E+02  0.1028E+03
     -7.020  0.4324E+01  0.1032E+03
     -6.917  0.6415E+01  0.1039E+03
     -6.815  0.0000E+00  0.1039E+03
     -6.712  0.0000E+00  0.1039E+03
     -6.609  0.4988E+00  0.1039E+03
     -6.506  0.0000E+00  0.1040E+03
     -6.404  0.0000E+00  0.1040E+03
     -6.301  0.0000E+00  0.1040E+03
     -6.198  0.0000E+00  0.1040E+03
     -6.095  0.0000E+00  0.1040E+03
     -5.993  0.0000E+00  0.1040E+03
     -5.890  0.0000E+00  0.1040E+03
     -5.787  0.0000E+00  0.1040E+03
     -5.684  0.0000E+00  0.1040E+03
     -5.581  0.0000E+00  0.1040E+03
     -5.479  0.0000E+00  0.1040E+03
     -5.376  0.0000E+00  0.1040E+03
     -5.273  0.0000E+00  0.1040E+03
     -5.170  0.0000E+00  0.1040E+03
     -5.068  0.0000E+00  0.1040E+03
     -4.965  0.0000E+00  0.1040E+03
     -4.862  0.0000E+00  0.1040E+03
     -4.759  0.0000E+00  0.1040E+03
     -4.657  0.0000E+00  0.1040E+03
     -4.554  0.0000E+00  0.1040E+03
     -4.451  0.0000E+00  0.1040E+03
     -4.348  0.0000E+00  0.1040E+03
     -4.245  0.0000E+00  0.1040E+03
     -4.143  0.0000E+00  0.1040E+03
     -4.040  0.0000E+00  0.1040E+03
     -3.937  0.0000E+00  0.1040E+03
     -3.834  0.0000E+00  0.1040E+03
     -3.732  0.0000E+00  0.1040E+03
     -3.629  0.0000E+00  0.1040E+03
     -3.526  0.0000E+00  0.1040E+03
     -3.423  0.0000E+00  0.1040E+03
     -3.321  0.1206E+01  0.1041E+03
     -3.218  0.1412E+02  0.1060E+03
     -3.115  0.1140E+02  0.1082E+03
     -3.012  0.4325E+01  0.1087E+03
     -2.909  0.1070E+02  0.1098E+03
     -2.807  0.1726E+02  0.1118E+03
     -2.704  0.6471E+01  0.1133E+03
     -2.601  0.6487E+01  0.1140E+03
     -2.498  0.1615E+02  0.1157E+03
     -2.396  0.1661E+02  0.1177E+03
     -2.293  0.2162E+01  0.1182E+03
     -2.190  0.1084E+02  0.1193E+03
     -2.087  0.2412E+02  0.1223E+03
     -1.985  0.3185E+02  0.1263E+03
     -1.882  0.5490E+01  0.1271E+03
     -1.779  0.1093E+02  0.1283E+03
     -1.676  0.3739E+02  0.1325E+03
     -1.573  0.5478E+01  0.1347E+03
     -1.471  0.4050E+02  0.1401E+03
     -1.368  0.6472E+02  0.1480E+03
     -1.265  0.5605E+02  0.1550E+03
     -1.162  0.5046E+02  0.1610E+03
     -1.060  0.4340E+02  0.1675E+03
     -0.957  0.1284E+01  0.1680E+03
     -0.854  0.1573E+02  0.1703E+03
     -0.751  0.2552E+01  0.1713E+03
     -0.649  0.9731E+01  0.1724E+03
     -0.546  0.1730E+02  0.1742E+03
     -0.443  0.3024E+01  0.1745E+03
     -0.340  0.0000E+00  0.1747E+03
     -0.237  0.1081E+01  0.1748E+03
     -0.135  0.8437E+01  0.1756E+03
     -0.032  0.0000E+00  0.1759E+03
      0.071  0.0000E+00  0.1759E+03
      0.174  0.0000E+00  0.1759E+03
      0.276  0.0000E+00  0.1759E+03
      0.379  0.1075E+01  0.1760E+03
      0.482  0.0000E+00  0.1760E+03
      0.585  0.0000E+00  0.1760E+03
      0.687  0.0000E+00  0.1760E+03
      0.790  0.0000E+00  0.1760E+03
      0.893  0.0000E+00  0.1760E+03
      0.996  0.0000E+00  0.1760E+03
      1.099  0.0000E+00  0.1760E+03
      1.201  0.0000E+00  0.1760E+03
      1.304  0.0000E+00  0.1760E+03
      1.407  0.0000E+00  0.1760E+03
      1.510  0.0000E+00  0.1760E+03
      1.612  0.0000E+00  0.1760E+03
      1.715  0.0000E+00  0.1760E+03
      1.818  0.0000E+00  0.1760E+03
      1.921  0.0000E+00  0.1760E+03
      2.023  0.0000E+00  0.1760E+03
      2.126  0.0000E+00  0.1760E+03
      2.229  0.0000E+00  0.1760E+03
      2.332  0.0000E+00  0.1760E+03
      2.435  0.0000E+00  0.1760E+03
      2.537  0.0000E+00  0.1760E+03
      2.640  0.1081E+01  0.1761E+03
      2.743  0.4179E-08  0.1761E+03
      2.846  0.4325E+01  0.1766E+03
      2.948  0.1123E+01  0.1767E+03
      3.051  0.7540E+01  0.1782E+03
      3.154  0.6618E+01  0.1789E+03
      3.257  0.6190E+01  0.1797E+03
      3.359  0.3650E+01  0.1805E+03
      3.462  0.2162E+01  0.1808E+03
      3.565  0.5410E+01  0.1813E+03
      3.668  0.2396E+01  0.1820E+03
      3.771  0.6564E+01  0.1831E+03
      3.873  0.4326E+01  0.1840E+03
      3.976  0.1297E+02  0.1853E+03
      4.079  0.2162E+01  0.1856E+03
      4.182  0.4325E+01  0.1860E+03
      4.284  0.2564E-01  0.1860E+03
      4.387  0.3973E-09  0.1862E+03
      4.490  0.8650E+01  0.1871E+03
      4.593  0.8649E+01  0.1880E+03
      4.695  0.8770E+01  0.1889E+03
      4.798  0.4325E+01  0.1902E+03
      4.901  0.3244E+01  0.1906E+03
      5.004  0.1514E+02  0.1921E+03
      5.107  0.1180E+02  0.1933E+03
      5.209  0.2162E+01  0.1950E+03
      5.312  0.3551E+01  0.1954E+03
      5.415  0.1416E-13  0.1954E+03
      5.518  0.4325E+01  0.1959E+03
      5.620  0.3212E+01  0.1962E+03
      5.723  0.1095E+02  0.1973E+03
      5.826  0.2318E+01  0.1979E+03
      5.929  0.7563E+01  0.1994E+03
      6.031  0.7392E+01  0.2008E+03
      6.134  0.6410E+01  0.2019E+03
      6.237  0.9464E+01  0.2032E+03
      6.340  0.1533E+02  0.2057E+03
      6.443  0.2261E+02  0.2085E+03
      6.545  0.1652E+02  0.2107E+03
      6.648  0.1016E+02  0.2129E+03
      6.751  0.2329E+02  0.2158E+03
      6.854  0.2309E+02  0.2187E+03
      6.956  0.3161E+02  0.2224E+03
      7.059  0.7567E+01  0.2236E+03
      7.162  0.2719E-06  0.2236E+03
      7.265  0.4325E+01  0.2240E+03
      7.367  0.0000E+00  0.2240E+03
      7.470  0.0000E+00  0.2240E+03
      7.573  0.0000E+00  0.2240E+03
      7.676  0.0000E+00  0.2240E+03
      7.778  0.0000E+00  0.2240E+03
      7.881  0.0000E+00  0.2240E+03
      7.984  0.0000E+00  0.2240E+03
      8.087  0.0000E+00  0.2240E+03
      8.190  0.0000E+00  0.2240E+03
      8.292  0.0000E+00  0.2240E+03
      8.395  0.0000E+00  0.2240E+03
      8.498  0.0000E+00  0.2240E+03
      8.601  0.0000E+00  0.2240E+03
      8.60064267    -22.22996083  301      0.40484058      1.00000000
    -22.230  0.0000E+00  0.0000E+00  0.0000E+00
    -22.127  0.0000E+00  0.0000E+00  0.0000E+00
    -22.024  0.0000E+00  0.0000E+00  0.0000E+00
    -21.922  0.0000E+00  0.0000E+00  0.0000E+00
    -21.819  0.0000E+00  0.0000E+00  0.0000E+00
    -21.716  0.0000E+00  0.0000E+00  0.0000E+00
    -21.613  0.0000E+00  0.0000E+00  0.0000E+00
    -21.511  0.0000E+00  0.0000E+00  0.0000E+00
    -21.408  0.0000E+00  0.0000E+00  0.0000E+00
    -21.305  0.0000E+00  0.0000E+00  0.0000E+00
    -21.202  0.0000E+00  0.0000E+00  0.0000E+00
    -21.100  0.0000E+00  0.0000E+00  0.0000E+00
    -20.997  0.0000E+00  0.0000E+00  0.0000E+00
    -20.894  0.0000E+00  0.0000E+00  0.0000E+00
    -20.791  0.1727E+02  0.6608E-05  0.1710E-05
    -20.688  0.0000E+00  0.0000E+00  0.0000E+00
    -20.586  0.0000E+00  0.0000E+00  0.0000E+00
    -20.483  0.0000E+00  0.0000E+00  0.0000E+00
    -20.380  0.0000E+00  0.0000E+00  0.0000E+00
    -20.277  0.0000E+00  0.0000E+00  0.0000E+00
    -20.175  0.0000E+00  0.0000E+00  0.0000E+00
    -20.072  0.0000E+00  0.0000E+00  0.0000E+00
    -19.969  0.0000E+00  0.0000E+00  0.0000E+00
    -19.866  0.0000E+00  0.0000E+00  0.0000E+00
    -19.764  0.0000E+00  0.0000E+00  0.0000E+00
    -19.661  0.0000E+00  0.0000E+00  0.0000E+00
    -19.558  0.0000E+00  0.0000E+00  0.0000E+00
    -19.455  0.0000E+00  0.0000E+00  0.0000E+00
    -19.352  0.0000E+00  0.0000E+00  0.0000E+00
    -19.250  0.0000E+00  0.0000E+00  0.0000E+00
    -19.147  0.0000E+00  0.0000E+00  0.0000E+00
    -19.044  0.0000E+00  0.0000E+00  0.0000E+00
    -18.941  0.0000E+00  0.0000E+00  0.0000E+00
    -18.839  0.0000E+00  0.0000E+00  0.0000E+00
    -18.736  0.0000E+00  0.0000E+00  0.0000E+00
    -18.633  0.0000E+00  0.0000E+00  0.0000E+00
    -18.530  0.0000E+00  0.0000E+00  0.0000E+00
    -18.428  0.0000E+00  0.0000E+00  0.0000E+00
    -18.325  0.0000E+00  0.0000E+00  0.0000E+00
    -18.222  0.0000E+00  0.0000E+00  0.0000E+00
    -18.119  0.0000E+00  0.0000E+00  0.0000E+00
    -18.016  0.0000E+00  0.0000E+00  0.0000E+00
    -17.914  0.0000E+00  0.0000E+00  0.0000E+00
    -17.811  0.0000E+00  0.0000E+00  0.0000E+00
    -17.708  0.0000E+00  0.0000E+00  0.0000E+00
    -17.605  0.0000E+00  0.0000E+00  0.0000E+00
    -17.503  0.0000E+00  0.0000E+00  0.0000E+00
    -17.400  0.0000E+00  0.0000E+00  0.0000E+00
    -17.297  0.0000E+00  0.0000E+00  0.0000E+00
    -17.194  0.0000E+00  0.0000E+00  0.0000E+00
    -17.092  0.0000E+00  0.0000E+00  0.0000E+00
    -16.989  0.0000E+00  0.0000E+00  0.0000E+00
    -16.886  0.0000E+00  0.0000E+00  0.0000E+00
    -16.783  0.0000E+00  0.0000E+00  0.0000E+00
    -16.680  0.0000E+00  0.0000E+00  0.0000E+00
    -16.578  0.3148E-12  0.3381E-12  0.4079E-13
    -16.475  0.1132E-03  0.9513E-04  0.1867E-04
    -16.372  0.6251E-04  0.3472E-04  0.4283E-05
    -16.269  0.0000E+00  0.0000E+00  0.0000E+00
    -16.167  0.0000E+00  0.0000E+00  0.0000E+00
    -16.064  0.0000E+00  0.0000E+00  0.0000E+00
    -15.961  0.0000E+00  0.0000E+00  0.0000E+00
    -15.858  0.0000E+00  0.0000E+00  0.0000E+00
    -15.756  0.0000E+00  0.0000E+00  0.0000E+00
    -15.653  0.0000E+00  0.0000E+00  0.0000E+00
    -15.550  0.0000E+00  0.0000E+00  0.0000E+00
    -15.447  0.0000E+00  0.0000E+00  0.0000E+00
    -15.344  0.0000E+00  0.0000E+00  0.0000E+00
    -15.242  0.0000E+00  0.0000E+00  0.0000E+00
    -15.139  0.0000E+00  0.0000E+00  0.0000E+00
    -15.036  0.0000E+00  0.0000E+00  0.0000E+00
    -14.933  0.0000E+00  0.0000E+00  0.0000E+00
    -14.831  0.0000E+00  0.0000E+00  0.0000E+00
    -14.728  0.0000E+00  0.0000E+00  0.0000E+00
    -14.625  0.0000E+00  0.0000E+00  0.0000E+00
    -14.522  0.0000E+00  0.0000E+00  0.0000E+00
    -14.420  0.9066E-18  0.1052E-19  0.8016E-21
    -14.317  0.1081E-02  0.1816E-03  0.3587E-05
    -14.214  0.3206E-02  0.3379E-02  0.7662E-04
    -14.111  0.9629E-03  0.5505E-02  0.2286E-03
    -14.008  0.3115E-02  0.6822E-02  0.5634E-03
    -13.906  0.8910E-03  0.4417E-02  0.4184E-03
    -13.803  0.1017E-02  0.2457E-02  0.4424E-03
    -13.700  0.3964E-04  0.2078E-03  0.2819E-04
    -13.597  0.0000E+00  0.0000E+00  0.0000E+00
    -13.495  0.0000E+00  0.0000E+00  0.0000E+00
    -13.392  0.0000E+00  0.0000E+00  0.0000E+00
    -13.289  0.0000E+00  0.0000E+00  0.0000E+00
    -13.186  0.0000E+00  0.0000E+00  0.0000E+00
    -13.084  0.0000E+00  0.0000E+00  0.0000E+00
    -12.981  0.0000E+00  0.0000E+00  0.0000E+00
    -12.878  0.0000E+00  0.0000E+00  0.0000E+00
    -12.775  0.0000E+00  0.0000E+00  0.0000E+00
    -12.672  0.0000E+00  0.0000E+00  0.0000E+00
    -12.570  0.0000E+00  0.0000E+00  0.0000E+00
    -12.467  0.0000E+00  0.0000E+00  0.0000E+00
    -12.364  0.0000E+00  0.0000E+00  0.0000E+00
    -12.261  0.0000E+00  0.0000E+00  0.0000E+00
    -12.159  0.0000E+00  0.0000E+00  0.0000E+00
    -12.056  0.0000E+00  0.0000E+00  0.0000E+00
    -11.953  0.0000E+00  0.0000E+00  0.0000E+00
    -11.850  0.0000E+00  0.0000E+00  0.0000E+00
    -11.748  0.0000E+00  0.0000E+00  0.0000E+00
    -11.645  0.0000E+00  0.0000E+00  0.0000E+00
    -11.542  0.0000E+00  0.0000E+00  0.0000E+00
    -11.439  0.0000E+00  0.0000E+00  0.0000E+00
    -11.336  0.0000E+00  0.0000E+00  0.0000E+00
    -11.234  0.0000E+00  0.0000E+00  0.0000E+00
    -11.131  0.0000E+00  0.0000E+00  0.0000E+00
    -11.028  0.0000E+00  0.0000E+00  0.0000E+00
    -10.925  0.0000E+00  0.0000E+00  0.0000E+00
    -10.823  0.0000E+00  0.0000E+00  0.0000E+00
    -10.720  0.0000E+00  0.0000E+00  0.0000E+00
    -10.617  0.0000E+00  0.0000E+00  0.0000E+00
    -10.514  0.0000E+00  0.0000E+00  0.0000E+00
    -10.412  0.0000E+00  0.0000E+00  0.0000E+00
    -10.309  0.0000E+00  0.0000E+00  0.0000E+00
    -10.206  0.0000E+00  0.0000E+00  0.0000E+00
    -10.103  0.0000E+00  0.0000E+00  0.0000E+00
    -10.000  0.0000E+00  0.0000E+00  0.0000E+00
     -9.898  0.0000E+00  0.0000E+00  0.0000E+00
     -9.795  0.0000E+00  0.0000E+00  0.0000E+00
     -9.692  0.0000E+00  0.0000E+00  0.0000E+00
     -9.589  0.0000E+00  0.0000E+00  0.0000E+00
     -9.487  0.0000E+00  0.0000E+00  0.0000E+00
     -9.384  0.0000E+00  0.0000E+00  0.0000E+00
     -9.281  0.0000E+00  0.0000E+00  0.0000E+00
     -9.178  0.0000E+00  0.0000E+00  0.0000E+00
     -9.076  0.0000E+00  0.0000E+00  0.0000E+00
     -8.973  0.0000E+00  0.0000E+00  0.0000E+00
     -8.870  0.0000E+00  0.0000E+00  0.0000E+00
     -8.767  0.0000E+00  0.0000E+00  0.0000E+00
     -8.664  0.0000E+00  0.0000E+00  0.0000E+00
     -8.562  0.0000E+00  0.0000E+00  0.0000E+00
     -8.459  0.0000E+00  0.0000E+00  0.0000E+00
     -8.356  0.0000E+00  0.0000E+00  0.0000E+00
     -8.253  0.1814E-30  0.1276E-18  0.3432E-18
     -8.151  0.3095E-17  0.2176E-05  0.5855E-05
     -8.048  0.2315E-27  0.1468E-13  0.5562E-16
     -7.945  0.4496E-07  0.4935E-02  0.3006E-04
     -7.842  0.1381E-16  0.2539E-02  0.2256E-04
     -7.740  0.9372E-05  0.2197E-01  0.3976E-04
     -7.637  0.4657E-05  0.4139E-01  0.2670E-04
     -7.534  0.3716E-16  0.1582E-01  0.1549E-04
     -7.431  0.9048E-05  0.8343E-01  0.1634E-04
     -7.329  0.4314E-04  0.3813E+00  0.4283E-04
     -7.226  0.3567E-04  0.1597E+02  0.7094E-04
     -7.123  0.2021E-04  0.1031E+02  0.2267E-04
     -7.020  0.1906E-04  0.1057E+00  0.3011E-04
     -6.917  0.5540E-04  0.4228E-01  0.2439E-04
     -6.815  0.0000E+00  0.0000E+00  0.0000E+00
     -6.712  0.0000E+00  0.0000E+00  0.0000E+00
     -6.609  0.5865E-05  0.1092E-02  0.2559E-06
     -6.506  0.0000E+00  0.0000E+00  0.0000E+00
     -6.404  0.0000E+00  0.0000E+00  0.0000E+00
     -6.301  0.0000E+00  0.0000E+00  0.0000E+00
     -6.198  0.0000E+00  0.0000E+00  0.0000E+00
     -6.095  0.0000E+00  0.0000E+00  0.0000E+00
     -5.993  0.0000E+00  0.0000E+00  0.0000E+00
     -5.890  0.0000E+00  0.0000E+00  0.0000E+00
     -5.787  0.0000E+00  0.0000E+00  0.0000E+00
     -5.684  0.0000E+00  0.0000E+00  0.0000E+00
     -5.581  0.0000E+00  0.0000E+00  0.0000E+00
     -5.479  0.0000E+00  0.0000E+00  0.0000E+00
     -5.376  0.0000E+00  0.0000E+00  0.0000E+00
     -5.273  0.0000E+00  0.0000E+00  0.0000E+00
     -5.170  0.0000E+00  0.0000E+00  0.0000E+00
     -5.068  0.0000E+00  0.0000E+00  0.0000E+00
     -4.965  0.0000E+00  0.0000E+00  0.0000E+00
     -4.862  0.0000E+00  0.0000E+00  0.0000E+00
     -4.759  0.0000E+00  0.0000E+00  0.0000E+00
     -4.657  0.0000E+00  0.0000E+00  0.0000E+00
     -4.554  0.0000E+00  0.0000E+00  0.0000E+00
     -4.451  0.0000E+00  0.0000E+00  0.0000E+00
     -4.348  0.0000E+00  0.0000E+00  0.0000E+00
     -4.245  0.0000E+00  0.0000E+00  0.0000E+00
     -4.143  0.0000E+00  0.0000E+00  0.0000E+00
     -4.040  0.0000E+00  0.0000E+00  0.0000E+00
     -3.937  0.0000E+00  0.0000E+00  0.0000E+00
     -3.834  0.0000E+00  0.0000E+00  0.0000E+00
     -3.732  0.0000E+00  0.0000E+00  0.0000E+00
     -3.629  0.0000E+00  0.0000E+00  0.0000E+00
     -3.526  0.0000E+00  0.0000E+00  0.0000E+00
     -3.423  0.0000E+00  0.0000E+00  0.0000E+00
     -3.321  0.4428E-17  0.2491E-02  0.1826E-04
     -3.218  0.8166E-04  0.1107E-01  0.1333E-02
     -3.115  0.1523E-03  0.8582E-02  0.1400E-02
     -3.012  0.1706E-09  0.1312E-02  0.3921E-03
     -2.909  0.4274E-03  0.1886E-01  0.7915E-03
     -2.807  0.3030E-03  0.2060E-01  0.1414E-02
     -2.704  0.4099E-03  0.8808E-02  0.7721E-03
     -2.601  0.6284E-12  0.2365E-02  0.3979E-03
     -2.498  0.1145E-02  0.2503E-01  0.1521E-02
     -2.396  0.1652E-02  0.1035E-01  0.2304E-02
     -2.293  0.6781E-03  0.2567E-02  0.2933E-03
     -2.190  0.4025E-02  0.1133E-01  0.9159E-03
     -2.087  0.1858E-01  0.2569E-01  0.3914E-02
     -1.985  0.2316E-01  0.5481E-01  0.6390E-02
     -1.882  0.9547E-03  0.2968E-01  0.7352E-03
     -1.779  0.1375E-02  0.5849E-01  0.2875E-02
     -1.676  0.2693E-02  0.1493E+00  0.1403E-01
     -1.573  0.1212E-03  0.2048E-01  0.1511E-02
     -1.471  0.4965E-02  0.6269E-01  0.1539E-01
     -1.368  0.5419E-02  0.8631E-01  0.2486E-01
     -1.265  0.6373E-02  0.7856E-01  0.1353E-01
     -1.162  0.2138E-02  0.1036E+00  0.1443E-01
     -1.060  0.1525E-02  0.3799E-01  0.1208E-01
     -0.957  0.9443E-04  0.4201E-03  0.6630E-03
     -0.854  0.8173E-03  0.2361E-01  0.4376E-02
     -0.751  0.1790E-03  0.2552E-02  0.2833E-03
     -0.649  0.2716E-03  0.3672E-02  0.1169E-02
     -0.546  0.4900E-03  0.5067E-02  0.1591E-02
     -0.443  0.1062E-15  0.2052E-02  0.2038E-04
     -0.340  0.0000E+00  0.0000E+00  0.0000E+00
     -0.237  0.1735E-05  0.3828E-03  0.1714E-03
     -0.135  0.4355E-09  0.8307E-03  0.1082E-02
     -0.032  0.0000E+00  0.0000E+00  0.0000E+00
      0.071  0.0000E+00  0.0000E+00  0.0000E+00
      0.174  0.0000E+00  0.0000E+00  0.0000E+00
      0.276  0.0000E+00  0.0000E+00  0.0000E+00
      0.379  0.6268E-16  0.1676E-04  0.7562E-04
      0.482  0.0000E+00  0.0000E+00  0.0000E+00
      0.585  0.0000E+00  0.0000E+00  0.0000E+00
      0.687  0.0000E+00  0.0000E+00  0.0000E+00
      0.790  0.0000E+00  0.0000E+00  0.0000E+00
      0.893  0.0000E+00  0.0000E+00  0.0000E+00
      0.996  0.0000E+00  0.0000E+00  0.0000E+00
      1.099  0.0000E+00  0.0000E+00  0.0000E+00
      1.201  0.0000E+00  0.0000E+00  0.0000E+00
      1.304  0.0000E+00  0.0000E+00  0.0000E+00
      1.407  0.0000E+00  0.0000E+00  0.0000E+00
      1.510  0.0000E+00  0.0000E+00  0.0000E+00
      1.612  0.0000E+00  0.0000E+00  0.0000E+00
      1.715  0.0000E+00  0.0000E+00  0.0000E+00
      1.818  0.0000E+00  0.0000E+00  0.0000E+00
      1.921  0.0000E+00  0.0000E+00  0.0000E+00
      2.023  0.0000E+00  0.0000E+00  0.0000E+00
      2.126  0.0000E+00  0.0000E+00  0.0000E+00
      2.229  0.0000E+00  0.0000E+00  0.0000E+00
      2.332  0.0000E+00  0.0000E+00  0.0000E+00
      2.435  0.0000E+00  0.0000E+00  0.0000E+00
      2.537  0.0000E+00  0.0000E+00  0.0000E+00
      2.640  0.9598E-17  0.2438E-04  0.7961E-03
      2.743  0.1222E-17  0.8218E-13  0.3704E-11
      2.846  0.3897E-03  0.3683E-03  0.2669E-02
      2.948  0.6488E-04  0.4254E-03  0.3948E-03
      3.051  0.3440E-03  0.1317E-02  0.3989E-02
      3.154  0.4084E-03  0.3557E-02  0.1967E-02
      3.257  0.6621E-03  0.1343E-02  0.9164E-03
      3.359  0.4581E-03  0.1541E-02  0.1577E-02
      3.462  0.3609E-15  0.3643E-03  0.1373E-02
      3.565  0.4704E-05  0.8711E-03  0.4329E-02
      3.668  0.3843E-04  0.5050E-03  0.2457E-02
      3.771  0.6124E-04  0.1003E-02  0.3970E-02
      3.873  0.1998E-03  0.1420E-02  0.2862E-02
      3.976  0.6127E-03  0.3096E-02  0.4427E-02
      4.079  0.1570E-03  0.8865E-03  0.5102E-03
      4.182  0.4230E-04  0.1364E-02  0.9977E-03
      4.284  0.4047E-06  0.3442E-05  0.3964E-04
      4.387  0.3582E-13  0.1528E-12  0.4595E-12
      4.490  0.7627E-03  0.2699E-02  0.1055E-01
      4.593  0.4669E-04  0.3113E-02  0.7584E-02
      4.695  0.1219E-02  0.2346E-02  0.4230E-02
      4.798  0.1069E-14  0.3099E-03  0.5786E-02
      4.901  0.1346E-01  0.1139E-02  0.8615E-03
      5.004  0.1502E-02  0.4404E-02  0.1437E-01
      5.107  0.8508E-02  0.5362E-02  0.1277E-01
      5.209  0.7970E-02  0.2934E-02  0.1129E-02
      5.312  0.1375E-02  0.4285E-03  0.5037E-02
      5.415  0.2805E-28  0.2158E-18  0.3260E-16
      5.518  0.5094E-07  0.6591E-04  0.9955E-02
      5.620  0.1814E-01  0.4043E-02  0.2903E-02
      5.723  0.1317E-01  0.2814E-02  0.2047E-01
      5.826  0.1990E-04  0.9561E-04  0.4897E-02
      5.929  0.1953E-01  0.7087E-02  0.1457E-01
      6.031  0.4519E-01  0.9050E-02  0.7103E-01
      6.134  0.2992E-02  0.6692E-03  0.4847E-01
      6.237  0.1845E-01  0.1122E-01  0.1680E+00
      6.340  0.2182E-01  0.1449E-01  0.3667E+00
      6.443  0.3936E-01  0.2262E-01  0.5386E+00
      6.545  0.3870E-01  0.3373E-01  0.4326E+00
      6.648  0.3060E-01  0.1519E-01  0.2294E+00
      6.751  0.4989E-01  0.4121E-01  0.7288E+00
      6.854  0.2749E-01  0.4406E-01  0.6172E+00
      6.956  0.3346E-01  0.5615E-01  0.1097E+01
      7.059  0.2310E-02  0.1564E-01  0.2226E+00
      7.162  0.9270E-10  0.5137E-09  0.8696E-08
      7.265  0.1475E-02  0.8173E-02  0.1383E+00
      7.367  0.0000E+00  0.0000E+00  0.0000E+00
      7.470  0.0000E+00  0.0000E+00  0.0000E+00
      7.573  0.0000E+00  0.0000E+00  0.0000E+00
      7.676  0.0000E+00  0.0000E+00  0.0000E+00
      7.778  0.0000E+00  0.0000E+00  0.0000E+00
      7.881  0.0000E+00  0.0000E+00  0.0000E+00
      7.984  0.0000E+00  0.0000E+00  0.0000E+00
      8.087  0.0000E+00  0.0000E+00  0.0000E+00
      8.190  0.0000E+00  0.0000E+00  0.0000E+00
      8.292  0.0000E+00  0.0000E+00  0.0000E+00
      8.395  0.0000E+00  0.0000E+00  0.0000E+00
      8.498  0.0000E+00  0.0000E+00  0.0000E+00
      8.601  0.0000E+00  0.0000E+00  0.0000E+00
      8.60064267    -22.22996083  301      0.40484058      1.00000000
    -22.230  0.0000E+00  0.0000E+00  0.0000E+00
    -22.127  0.0000E+00  0.0000E+00  0.0000E+00
    -22.024  0.0000E+00  0.0000E+00  0.0000E+00
    -21.922  0.0000E+00  0.0000E+00  0.0000E+00
    -21.819  0.0000E+00  0.0000E+00  0.0000E+00
    -21.716  0.0000E+00  0.0000E+00  0.0000E+00
    -21.613  0.0000E+00  0.0000E+00  0.0000E+00
    -21.511  0.0000E+00  0.0000E+00  0.0000E+00
    -21.408  0.0000E+00  0.0000E+00  0.0000E+00
    -21.305  0.0000E+00  0.0000E+00  0.0000E+00
    -21.202  0.0000E+00  0.0000E+00  0.0000E+00
    -21.100  0.0000E+00  0.0000E+00  0.0000E+00
    -20.997  0.0000E+00  0.0000E+00  0.0000E+00
    -20.894  0.0000E+00  0.0000E+00  0.0000E+00
    -20.791  0.1727E+02  0.6605E-05  0.1717E-05
    -20.688  0.0000E+00  0.0000E+00  0.0000E+00
    -20.586  0.0000E+00  0.0000E+00  0.0000E+00
    -20.483  0.0000E+00  0.0000E+00  0.0000E+00
    -20.380  0.0000E+00  0.0000E+00  0.0000E+00
    -20.277  0.0000E+00  0.0000E+00  0.0000E+00
    -20.175  0.0000E+00  0.0000E+00  0.0000E+00
    -20.072  0.0000E+00  0.0000E+00  0.0000E+00
    -19.969  0.0000E+00  0.0000E+00  0.0000E+00
    -19.866  0.0000E+00  0.0000E+00  0.0000E+00
    -19.764  0.0000E+00  0.0000E+00  0.0000E+00
    -19.661  0.0000E+00  0.0000E+00  0.0000E+00
    -19.558  0.0000E+00  0.0000E+00  0.0000E+00
    -19.455  0.0000E+00  0.0000E+00  0.0000E+00
    -19.352  0.0000E+00  0.0000E+00  0.0000E+00
    -19.250  0.0000E+00  0.0000E+00  0.0000E+00
    -19.147  0.0000E+00  0.0000E+00  0.0000E+00
    -19.044  0.0000E+00  0.0000E+00  0.0000E+00
    -18.941  0.0000E+00  0.0000E+00  0.0000E+00
    -18.839  0.0000E+00  0.0000E+00  0.0000E+00
    -18.736  0.0000E+00  0.0000E+00  0.0000E+00
    -18.633  0.0000E+00  0.0000E+00  0.0000E+00
    -18.530  0.0000E+00  0.0000E+00  0.0000E+00
    -18.428  0.0000E+00  0.0000E+00  0.0000E+00
    -18.325  0.0000E+00  0.0000E+00  0.0000E+00
    -18.222  0.0000E+00  0.0000E+00  0.0000E+00
    -18.119  0.0000E+00  0.0000E+00  0.0000E+00
    -18.016  0.0000E+00  0.0000E+00  0.0000E+00
    -17.914  0.0000E+00  0.0000E+00  0.0000E+00
    -17.811  0.0000E+00  0.0000E+00  0.0000E+00
    -17.708  0.0000E+00  0.0000E+00  0.0000E+00
    -17.605  0.0000E+00  0.0000E+00  0.0000E+00
    -17.503  0.0000E+00  0.0000E+00  0.0000E+00
    -17.400  0.0000E+00  0.0000E+00  0.0000E+00
    -17.297  0.0000E+00  0.0000E+00  0.0000E+00
    -17.194  0.0000E+00  0.0000E+00  0.0000E+00
    -17.092  0.0000E+00  0.0000E+00  0.0000E+00
    -16.989  0.0000E+00  0.0000E+00  0.0000E+00
    -16.886  0.0000E+00  0.0000E+00  0.0000E+00
    -16.783  0.0000E+00  0.0000E+00  0.0000E+00
    -16.680  0.0000E+00  0.0000E+00  0.0000E+00
    -16.578  0.6774E-13  0.3430E-12  0.4622E-13
    -16.475  0.1141E-03  0.8864E-04  0.1853E-04
    -16.372  0.6200E-04  0.3476E-04  0.4274E-05
    -16.269  0.0000E+00  0.0000E+00  0.0000E+00
    -16.167  0.0000E+00  0.0000E+00  0.0000E+00
    -16.064  0.0000E+00  0.0000E+00  0.0000E+00
    -15.961  0.0000E+00  0.0000E+00  0.0000E+00
    -15.858  0.0000E+00  0.0000E+00  0.0000E+00
    -15.756  0.0000E+00  0.0000E+00  0.0000E+00
    -15.653  0.0000E+00  0.0000E+00  0.0000E+00
    -15.550  0.0000E+00  0.0000E+00  0.0000E+00
    -15.447  0.0000E+00  0.0000E+00  0.0000E+00
    -15.344  0.0000E+00  0.0000E+00  0.0000E+00
    -15.242  0.0000E+00  0.0000E+00  0.0000E+00
    -15.139  0.0000E+00  0.0000E+00  0.0000E+00
    -15.036  0.0000E+00  0.0000E+00  0.0000E+00
    -14.933  0.0000E+00  0.0000E+00  0.0000E+00
    -14.831  0.0000E+00  0.0000E+00  0.0000E+00
    -14.728  0.0000E+00  0.0000E+00  0.0000E+00
    -14.625  0.0000E+00  0.0000E+00  0.0000E+00
    -14.522  0.0000E+00  0.0000E+00  0.0000E+00
    -14.420  0.9066E-18  0.1052E-19  0.8016E-21
    -14.317  0.1081E-02  0.1816E-03  0.3587E-05
    -14.214  0.3554E-02  0.2670E-02  0.8184E-04
    -14.111  0.9588E-03  0.6834E-02  0.2348E-03
    -14.008  0.1782E-02  0.5012E-02  0.4591E-03
    -13.906  0.1609E-02  0.5114E-02  0.5997E-03
    -13.803  0.1559E-02  0.2320E-02  0.4186E-03
    -13.700  0.3964E-04  0.2078E-03  0.2819E-04
    -13.597  0.0000E+00  0.0000E+00  0.0000E+00
    -13.495  0.0000E+00  0.0000E+00  0.0000E+00
    -13.392  0.0000E+00  0.0000E+00  0.0000E+00
    -13.289  0.0000E+00  0.0000E+00  0.0000E+00
    -13.186  0.0000E+00  0.0000E+00  0.0000E+00
    -13.084  0.0000E+00  0.0000E+00  0.0000E+00