 vasp.5.4.4.18Apr17-6-g9f103f2a35 (build Jun 29 2021 12:14:42) complex           
 executed on tx2_gcc-7.3_libsci-1 date 2021.09.21  08:32:47
 running on   64 total cores
 distrk:  each k-point on   64 cores,    1 groups
 distr:  one band on NCORES_PER_BAND=   8 cores,    8 groups


--------------------------------------------------------------------------------------------------------


 INCAR:
 POTCAR:    PAW_PBE Cs_sv 08Apr2002               
 POTCAR:    PAW_PBE Pb_d 06Sep2000                
 POTCAR:    PAW_PBE Br 06Sep2000                  
 POTCAR:    PAW_PBE Cs_sv 08Apr2002               
   SHA256 =  c1463496f0f6037ed62c6012a8013a89ee9ad6ffb38599dcd6c079e7ed31779b Cs
   COPYR  = (c) Copyright 08Apr2002 Georg Kresse                                
   COPYR  = This file is part of the software VASP. Any use, copying, and all ot
   COPYR  = If you do not have a valid VASP license, you may not use, copy or di
   VRHFIN =Cs: 5s5p6s                                                           
   LEXCH  = PE                                                                  
   EATOM  =   555.6835 eV,   40.8416 Ry                                         
                                                                                
   TITEL  = PAW_PBE Cs_sv 08Apr2002                                             
   LULTRA =        F    use ultrasoft PP ?                                      
   IUNSCR =        1    unscreen: 0-lin 1-nonlin 2-no                           
   RPACOR =    2.200    partial core radius                                     
   POMASS =  132.900; ZVAL   =    9.000    mass and valenz                      
   RCORE  =    2.500    outmost cutoff radius                                   
   RWIGS  =    2.500; RWIGS  =    1.323    wigner-seitz radius (au A)           
   ENMAX  =  220.318; ENMIN  =  165.238 eV                                      
   RCLOC  =    2.207    cutoff for local pot                                    
   LCOR   =        T    correct aug charges                                     
   LPAW   =        T    paw PP                                                  
   EAUG   =  407.933                                                            
   DEXC   =    0.000                                                            
   RMAX   =    2.554    core radius for proj-oper                               
   RAUG   =    1.300    factor for augmentation sphere                          
   RDEP   =    2.590    radius for radial grids                                 
   RDEPT  =    2.117    core radius for aug-charge                              
                                                                                
   Atomic configuration                                                         
   13 entries                                                                   
     n  l   j            E        occ.                                          
     1  0  0.50    -35790.1377   2.0000                                         
     2  0  0.50     -5613.6201   2.0000                                         
     2  1  1.50     -5035.0101   6.0000                                         
     3  0  0.50     -1167.0767   2.0000                                         
     3  1  1.50      -980.9754   6.0000                                         
     3  2  2.50      -708.0703  10.0000                                         
     4  0  0.50      -220.2386   2.0000                                         
     4  1  1.50      -160.7596   6.0000                                         
     4  2  2.50       -74.2354  10.0000                                         
     5  0  0.50       -26.7287   2.0000                                         
     6  0  0.50        -2.0862   1.0000                                         
     5  1  1.50       -13.5159   6.0000                                         
     5  2  2.50        -0.4136   0.0000                                         
   Description                                                                  
     l       E           TYP  RCUT    TYP  RCUT                                 
     0    -26.7287425     23  1.900                                             
     0     -2.0862306     23  1.900                                             
     1    -13.5158719     23  2.500                                             
     1     -2.7211652     23  2.500                                             
     2     -0.4136171     23  2.500                                             
  local pseudopotential read in
  partial core-charges read in
  partial kinetic energy density read in
  atomic valenz-charges read in
  non local Contribution for L=           0  read in
    real space projection operators read in
  non local Contribution for L=           0  read in
    real space projection operators read in
  non local Contribution for L=           1  read in
    real space projection operators read in
  non local Contribution for L=           1  read in
    real space projection operators read in
  non local Contribution for L=           2  read in
    real space projection operators read in
    PAW grid and wavefunctions read in

   number of l-projection  operators is LMAX  =           5
   number of lm-projection operators is LMMAX =          13

 POTCAR:    PAW_PBE Pb_d 06Sep2000                
   SHA256 =  fb885b08f0fba73a15f6a6b0e39bd200c13ec96ef97cf3ecd8e63bade5137abd Pb
   COPYR  = (c) Copyright 06Sep2000 Georg Kresse                                
   COPYR  = This file is part of the software VASP. Any use, copying, and all ot
   COPYR  = If you do not have a valid VASP license, you may not use, copy or di
   VRHFIN =Pb:                                                                  
   LEXCH  = PE                                                                  
   EATOM  =  1661.6185 eV,  122.1255 Ry                                         
                                                                                
   TITEL  = PAW_PBE Pb_d 06Sep2000                                              
   LULTRA =        F    use ultrasoft PP ?                                      
   IUNSCR =        1    unscreen: 0-lin 1-nonlin 2-no                           
   RPACOR =    2.200    partial core radius                                     
   POMASS =  207.200; ZVAL   =   14.000    mass and valenz                      
   RCORE  =    2.500    outmost cutoff radius                                   
   RWIGS  =    3.260; RWIGS  =    1.725    wigner-seitz radius (au A)           
   ENMAX  =  237.835; ENMIN  =  178.376 eV                                      
   ICORE  =        3    local potential                                         
   LCOR   =        T    correct aug charges                                     
   LPAW   =        T    paw PP                                                  
   EAUG   =  391.914                                                            
   DEXC   =    0.000                                                            
   RMAX   =    2.565    core radius for proj-oper                               
   RAUG   =    1.300    factor for augmentation sphere                          
   RDEP   =    2.643    radius for radial grids                                 
   RDEPT  =    2.092    core radius for aug-charge                              
                                                                                
   Atomic configuration                                                         
   16 entries                                                                   
     n  l   j            E        occ.                                          
     1  0  0.50    -88091.8466   2.0000                                         
     2  0  0.50    -15753.4197   2.0000                                         
     2  1  1.50    -13508.1797   6.0000                                         
     3  0  0.50     -3781.7194   2.0000                                         
     3  1  1.50     -3138.2529   6.0000                                         
     3  2  2.50     -2483.2977  10.0000                                         
     4  0  0.50      -856.2895   2.0000                                         
     4  1  1.50      -645.4942   6.0000                                         
     4  2  2.50      -401.8768  10.0000                                         
     4  3  3.50      -132.9059  14.0000                                         
     5  0  0.50      -144.0950   2.0000                                         
     5  1  1.50       -85.7879   6.0000                                         
     5  2  2.50       -21.1769  10.0000                                         
     6  0  0.50       -12.0372   2.0000                                         
     6  1  1.50        -3.4971   2.0000                                         
     5  3  2.50        -2.7212   0.0000                                         
   Description                                                                  
     l       E           TYP  RCUT    TYP  RCUT                                 
     2    -21.1768523     23  2.500                                             
     2      1.3605826     23  2.500                                             
     0    -12.0371562     23  2.500                                             
     0     13.6058260     23  2.500                                             
     1     -3.4971339     23  2.500                                             
     1     13.6058260     23  2.500                                             
     3     -1.3605826      7  2.500                                             
  local pseudopotential read in
  partial core-charges read in
  partial kinetic energy density read in
  atomic valenz-charges read in
  non local Contribution for L=           2  read in
    real space projection operators read in
  non local Contribution for L=           2  read in
    real space projection operators read in
  non local Contribution for L=           0  read in
    real space projection operators read in
  non local Contribution for L=           0  read in
    real space projection operators read in
  non local Contribution for L=           1  read in
    real space projection operators read in
  non local Contribution for L=           1  read in
    real space projection operators read in
    PAW grid and wavefunctions read in

   number of l-projection  operators is LMAX  =           6
   number of lm-projection operators is LMMAX =          18

 POTCAR:    PAW_PBE Br 06Sep2000                  
   SHA256 =  96a73d2954943bbee26f4990d676cc6c3bf44b8dd2c75cd4b3b825d8403f0103 Br
   COPYR  = (c) Copyright 06Sep2000 Georg Kresse                                
   COPYR  = This file is part of the software VASP. Any use, copying, and all ot
   COPYR  = If you do not have a valid VASP license, you may not use, copy or di
   VRHFIN =Br: s2p5                                                             
   LEXCH  = PE                                                                  
   EATOM  =   368.4488 eV,   27.0802 Ry                                         
                                                                                
   TITEL  = PAW_PBE Br 06Sep2000                                                
   LULTRA =        F    use ultrasoft PP ?                                      
   IUNSCR =        1    unscreen: 0-lin 1-nonlin 2-no                           
   RPACOR =    1.900    partial core radius                                     
   POMASS =   79.904; ZVAL   =    7.000    mass and valenz                      
   RCORE  =    2.100    outmost cutoff radius                                   
   RWIGS  =    2.200; RWIGS  =    1.164    wigner-seitz radius (au A)           
   ENMAX  =  216.285; ENMIN  =  162.214 eV                                      
   ICORE  =        3    local potential                                         
   LCOR   =        T    correct aug charges                                     
   LPAW   =        T    paw PP                                                  
   EAUG   =  503.852                                                            
   DEXC   =    0.000                                                            
   RMAX   =    2.139    core radius for proj-oper                               
   RAUG   =    1.300    factor for augmentation sphere                          
   RDEP   =    2.186    radius for radial grids                                 
   RDEPT  =    1.890    core radius for aug-charge                              
                                                                                
   Atomic configuration                                                         
   10 entries                                                                   
     n  l   j            E        occ.                                          
     1  0  0.50    -13316.2796   2.0000                                         
     2  0  0.50     -1732.8239   2.0000                                         
     2  1  1.50     -1528.2193   6.0000                                         
     3  0  0.50      -238.0460   2.0000                                         
     3  1  1.50      -173.4609   6.0000                                         
     3  2  2.50       -66.7132  10.0000                                         
     4  0  0.50       -20.1334   2.0000                                         
     4  1  0.50        -7.8591   5.0000                                         
     4  2  2.50        -8.1635   0.0000                                         
     4  3  2.50        -8.1635   0.0000                                         
   Description                                                                  
     l       E           TYP  RCUT    TYP  RCUT                                 
     0    -20.1333652     23  2.100                                             
     0    -21.4939478     23  2.100                                             
     1     -7.8591052     23  2.100                                             
     1     -3.1608434     23  2.100                                             
     2     -8.1634956     23  2.100                                             
     3     -1.3605826      7  2.100                                             
  local pseudopotential read in
  partial core-charges read in
  partial kinetic energy density read in
  atomic valenz-charges read in
  non local Contribution for L=           0  read in
    real space projection operators read in
  non local Contribution for L=           0  read in
    real space projection operators read in
  non local Contribution for L=           1  read in
    real space projection operators read in
  non local Contribution for L=           1  read in
    real space projection operators read in
  non local Contribution for L=           2  read in
    real space projection operators read in
    PAW grid and wavefunctions read in

   number of l-projection  operators is LMAX  =           5
   number of lm-projection operators is LMMAX =          13

 Optimization of the real space projectors (new method)

 maximal supplied QI-value         = 15.12
 optimisation between [QCUT,QGAM] = [  8.77, 17.69] = [ 21.53, 87.61] Ry 
 Optimized for a Real-space Cutoff    1.85 Angstroem

   l    n(q)    QCUT    max X(q) W(low)/X(q) W(high)/X(q)  e(spline) 
   0     10     8.768    25.322    0.81E-04    0.51E-04    0.48E-06
   0     10     8.768    99.187    0.78E-04    0.50E-04    0.47E-06
   1      9     8.768    11.761    0.21E-03    0.20E-03    0.37E-06
   1      9     8.768     8.275    0.24E-03    0.22E-03    0.41E-06
   2      9     8.768     3.829    0.23E-04    0.15E-03    0.18E-06
 Optimization of the real space projectors (new method)

 maximal supplied QI-value         = 15.12
 optimisation between [QCUT,QGAM] = [  8.77, 17.69] = [ 21.53, 87.61] Ry 
 Optimized for a Real-space Cutoff    1.59 Angstroem

   l    n(q)    QCUT    max X(q) W(low)/X(q) W(high)/X(q)  e(spline) 
   2      7     8.768     3.846    0.48E-04    0.11E-03    0.11E-06
   2      7     8.768     8.593    0.20E-03    0.22E-04    0.24E-06
   0      8     8.768    20.082    0.68E-04    0.88E-04    0.41E-07
   0      8     8.768     8.597    0.89E-04    0.13E-03    0.59E-07
   1      8     8.768    33.223    0.15E-03    0.53E-04    0.87E-07
   1      8     8.768    15.899    0.14E-03    0.44E-04    0.78E-07
 Optimization of the real space projectors (new method)

 maximal supplied QI-value         = 17.95
 optimisation between [QCUT,QGAM] = [  8.80, 17.59] = [ 21.67, 86.68] Ry 
 Optimized for a Real-space Cutoff    1.59 Angstroem

   l    n(q)    QCUT    max X(q) W(low)/X(q) W(high)/X(q)  e(spline) 
   0      8     8.797   175.082    0.82E-04    0.14E-03    0.89E-07
   0      8     8.797   174.004    0.79E-04    0.14E-03    0.86E-07
   1      8     8.797    54.315    0.16E-03    0.14E-04    0.30E-06
   1      8     8.797    42.441    0.16E-03    0.14E-04    0.30E-06
   2      7     8.797     3.596    0.92E-04    0.15E-03    0.85E-07
  PAW_PBE Cs_sv 08Apr2002               :
 energy of atom  1       EATOM= -555.6835
 kinetic energy error for atom=    0.0069 (will be added to EATOM!!)
  PAW_PBE Pb_d 06Sep2000                :
 energy of atom  2       EATOM=-1661.6185
 kinetic energy error for atom=    0.0498 (will be added to EATOM!!)
  PAW_PBE Br 06Sep2000                  :
 energy of atom  3       EATOM= -368.4488
 kinetic energy error for atom=    0.0072 (will be added to EATOM!!)


 POSCAR: Cs4 Pb4 Br12                            
  positions in direct lattice
  velocities in cartesian coordinates

 METAGGA = SCAN     LMAXTAU =  6    LMIXTAU =  F

 exchange correlation table for  LEXCH =        8
   RHO(1)=    0.500       N(1)  =     2000
   RHO(2)=  100.500       N(2)  =     4000

 VTST: version 3.2, (02/03/18)

 CHAIN: initializing optimizer
 
 OPT: Using VASP Conjugate-Gradient optimizer
 CHAIN: Read ICHAIN            0

 POSCAR: Cs4 Pb4 Br12                            
  positions in direct lattice
  velocities in cartesian coordinates



--------------------------------------------------------------------------------------------------------


 ion  position               nearest neighbor table
   1  0.061  0.250  0.481-
   2  0.439  0.750  0.981-
   3  0.561  0.250  0.019-
   4  0.939  0.750  0.519-
   5  0.000  0.000  0.000-  10 2.98  11 2.98  18 3.02  15 3.02  17 3.02  16 3.02
   6  0.500  0.000  0.500-   9 2.98  12 2.98  16 3.02  17 3.02  15 3.02  18 3.02
   7  0.500  0.500  0.500-   9 2.98  12 2.98  19 3.02  13 3.02  20 3.02  14 3.02
   8  0.000  0.500  0.000-  10 2.98  11 2.98  14 3.02  20 3.02  13 3.02  19 3.02
   9  0.512  0.750  0.426-   6 2.98   7 2.98
  10  0.988  0.250  0.926-   5 2.98   8 2.98
  11  0.012  0.750  0.074-   5 2.98   8 2.98
  12  0.488  0.250  0.574-   6 2.98   7 2.98
  13  0.293  0.463  0.204-   7 3.02   8 3.02
  14  0.207  0.537  0.704-   8 3.02   7 3.02
  15  0.793  0.037  0.296-   5 3.02   6 3.02
  16  0.707  0.963  0.796-   6 3.02   5 3.02
  17  0.293  0.037  0.204-   6 3.02   5 3.02
  18  0.207  0.963  0.704-   5 3.02   6 3.02
  19  0.707  0.537  0.796-   7 3.02   8 3.02
  20  0.793  0.463  0.296-   8 3.02   7 3.02

  LATTYP: Found a simple orthorhombic cell.
 ALAT       =     8.1587603592
 B/A-ratio  =     1.0423418999
 C/A-ratio  =     1.4313733294
  
  Lattice vectors:
  
 A1 = (   0.0000000000,   0.0000000000,   8.1587603592)
 A2 = (  -8.5042177739,   0.0000000000,   0.0000000000)
 A3 = (   0.0000000000, -11.6782319789,   0.0000000000)


Analysis of symmetry for initial positions (statically):
=====================================================================
 Subroutine PRICEL returns:
 Original cell was already a primitive cell.
 

 Routine SETGRP: Setting up the symmetry group for a 
 simple orthorhombic supercell.


 Subroutine GETGRP returns: Found  8 space group operations
 (whereof  2 operations were pure point group operations)
 out of a pool of  8 trial point group operations.


The static configuration has the point symmetry S_2 .
 The point group associated with its full space group is D_2h.


Analysis of symmetry for dynamics (positions and initial velocities):
=====================================================================
 Subroutine PRICEL returns:
 Original cell was already a primitive cell.
 

 Routine SETGRP: Setting up the symmetry group for a 
 simple orthorhombic supercell.


 Subroutine GETGRP returns: Found  8 space group operations
 (whereof  2 operations were pure point group operations)
 out of a pool of  8 trial point group operations.


The dynamic configuration has the point symmetry S_2 .
 The point group associated with its full space group is D_2h.


 Subroutine INISYM returns: Found  8 space group operations
 (whereof  2 operations are pure point group operations),
 and found     1 'primitive' translations



 KPOINTS: 1x1x1                                   

Automatic generation of k-mesh.
Space group operators:
 irot       det(A)        alpha          n_x          n_y          n_z        tau_x        tau_y        tau_z
    1     1.000000     0.000000     1.000000     0.000000     0.000000     0.000000     0.000000     0.000000
    2    -1.000000     0.000000     1.000000     0.000000     0.000000     0.000000     0.000000     0.000000
    3     1.000000   180.000000     0.000000     1.000000     0.000000     0.000000    -0.500000     0.000000
    4    -1.000000   180.000000     0.000000     1.000000     0.000000     0.000000    -0.500000     0.000000
    5     1.000000   180.000000     1.000000     0.000000     0.000000    -0.500000    -0.500000     0.500000
    6    -1.000000   180.000000     1.000000     0.000000     0.000000    -0.500000    -0.500000     0.500000
    7     1.000000   180.000000     0.000000     0.000000     1.000000    -0.500000     0.000000     0.500000
    8    -1.000000   180.000000     0.000000     0.000000     1.000000    -0.500000     0.000000     0.500000
 
 Subroutine IBZKPT returns following result:
 ===========================================
 
 Found      8 irreducible k-points:
 
 Following reciprocal coordinates:
            Coordinates               Weight
  0.000000  0.000000  0.000000      1.000000
  0.333333  0.000000  0.000000      2.000000
  0.000000  0.500000  0.000000      1.000000
  0.333333  0.500000  0.000000      2.000000
  0.000000  0.000000  0.333333      2.000000
  0.333333  0.000000  0.333333      4.000000
  0.000000  0.500000  0.333333      2.000000
  0.333333  0.500000  0.333333      4.000000
 
 Following cartesian coordinates:
            Coordinates               Weight
  0.000000  0.000000  0.000000      1.000000
  0.039196  0.000000  0.000000      2.000000
  0.000000  0.042815  0.000000      1.000000
  0.039196  0.042815  0.000000      2.000000
  0.000000  0.000000  0.040856      2.000000
  0.039196  0.000000  0.040856      4.000000
  0.000000  0.042815  0.040856      2.000000
  0.039196  0.042815  0.040856      4.000000
 


--------------------------------------------------------------------------------------------------------




 Dimension of arrays:
   k-points           NKPTS =      8   k-points in BZ     NKDIM =      8   number of bands    NBANDS=    112
   number of dos      NEDOS =    301   number of ions     NIONS =     20
   non local maximal  LDIM  =      6   non local SUM 2l+1 LMDIM =     18
   total plane-waves  NPLWV = 161280
   max r-space proj   IRMAX =   5311   max aug-charges    IRDMAX=  84730
   dimension x,y,z NGX =    48 NGY =   70 NGZ =   48
   dimension x,y,z NGXF=    96 NGYF=  140 NGZF=   96
   support grid    NGXF=   192 NGYF=  280 NGZF=  192
   ions per type =               4   4  12
   NGX,Y,Z   is equivalent  to a cutoff of   9.38,  9.96,  9.78 a.u.
   NGXF,Y,Z  is equivalent  to a cutoff of  18.77, 19.93, 19.56 a.u.

 SYSTEM =  CsPbBr3 cubic bulk                      
 POSCAR =  Cs4 Pb4 Br12                            

 Startparameter for this run:
   NWRITE =      2    write-flag & timer
   PREC   = accura    normal or accurate (medium, high low for compatibility)
   ISTART =      0    job   : 0-new  1-cont  2-samecut
   ICHARG =      2    charge: 1-file 2-atom 10-const
   ISPIN  =      1    spin polarized calculation?
   LNONCOLLINEAR =      F non collinear calculations
   LSORBIT =      F    spin-orbit coupling
   INIWAV =      1    electr: 0-lowe 1-rand  2-diag
   LASPH  =      T    aspherical Exc in radial PAW
   METAGGA=      F    non-selfconsistent MetaGGA calc.

 Electronic Relaxation 1
   ENCUT  =  300.0 eV  22.05 Ry    4.70 a.u.  12.01 16.49 11.52*2*pi/ulx,y,z
   ENINI  =  300.0     initial cutoff
   ENAUG  =  503.9 eV  augmentation charge cutoff
   NELM   =    200;   NELMIN=  2; NELMDL= -5     # of ELM steps 
   EDIFF  = 0.1E-05   stopping-criterion for ELM
   LREAL  =      T    real-space projection
   NLSPLINE    = F    spline interpolate recip. space projectors
   LCOMPAT=      F    compatible to vasp.4.4
   GGA_COMPAT  = T    GGA compatible to vasp.4.4-vasp.4.6
   LMAXPAW     = -100 max onsite density
   LMAXMIX     =    2 max onsite mixed and CHGCAR
   VOSKOWN=      0    Vosko Wilk Nusair interpolation
   ROPT   =   -0.00025  -0.00025  -0.00025
 Ionic relaxation
   EDIFFG = -.1E-01   stopping-criterion for IOM
   NSW    =      0    number of steps for IOM
   NBLOCK =      1;   KBLOCK =      1    inner block; outer block 
   IBRION =     -1    ionic relax: 0-MD 1-quasi-New 2-CG
   NFREE  =      1    steps in history (QN), initial steepest desc. (CG)
   ISIF   =      3    stress and relaxation
   IWAVPR =     10    prediction:  0-non 1-charg 2-wave 3-comb
   ISYM   =      2    0-nonsym 1-usesym 2-fastsym
   LCORR  =      T    Harris-Foulkes like correction to forces

   POTIM  = 0.5000    time-step for ionic-motion
   TEIN   =    0.0    initial temperature
   TEBEG  =    0.0;   TEEND  =   0.0 temperature during run
   SMASS  =  -3.00    Nose mass-parameter (am)
   estimated Nose-frequenzy (Omega)   =  0.10E-29 period in steps =****** mass=  -0.165E-26a.u.
   SCALEE = 1.0000    scale energy and forces
   NPACO  =    256;   APACO  = 16.0  distance and # of slots for P.C.
   PSTRESS=    0.0 pullay stress

  Mass of Ions in am
   POMASS = 132.90207.20 79.90
  Ionic Valenz
   ZVAL   =   9.00 14.00  7.00
  Atomic Wigner-Seitz radii
   RWIGS  =  -1.00 -1.00 -1.00
  virtual crystal weights 
   VCA    =   1.00  1.00  1.00
   NELECT =     176.0000    total number of electrons
   NUPDOWN=      -1.0000    fix difference up-down

 DOS related values:
   EMIN   =  10.00;   EMAX   =-10.00  energy-range for DOS
   EFERMI =   0.00
   ISMEAR =     0;   SIGMA  =   0.01  broadening in eV -4-tet -1-fermi 0-gaus

 Electronic relaxation 2 (details)
   IALGO  =     38    algorithm
   LDIAG  =      T    sub-space diagonalisation (order eigenvalues)
   LSUBROT=      F    optimize rotation matrix (better conditioning)
   TURBO    =      0    0=normal 1=particle mesh
   IRESTART =      0    0=no restart 2=restart with 2 vectors
   NREBOOT  =      0    no. of reboots
   NMIN     =      0    reboot dimension
   EREF     =   0.00    reference energy to select bands
   IMIX   =      4    mixing-type and parameters
     AMIX     =   0.40;   BMIX     =  1.00
     AMIX_MAG =   1.60;   BMIX_MAG =  1.00
     AMIN     =   0.10
     WC   =   100.;   INIMIX=   1;  MIXPRE=   1;  MAXMIX= -45

 Intra band minimization:
   WEIMIN = 0.0000     energy-eigenvalue tresh-hold
   EBREAK =  0.22E-08  absolut break condition
   DEPER  =   0.30     relativ break condition  

   TIME   =   0.40     timestep for ELM

  volume/ion in A,a.u.               =      40.51       273.40
  Fermi-wavevector in a.u.,A,eV,Ry     =   0.984088  1.859656 13.176273  0.968429
  Thomas-Fermi vector in A             =   2.115294

 Write flags
   LWAVE        =      F    write WAVECAR
   LDOWNSAMPLE  =      F    k-point downsampling of WAVECAR
   LCHARG       =      F    write CHGCAR
   LVTOT        =      F    write LOCPOT, total local potential
   LVHAR        =      T    write LOCPOT, Hartree potential only
   LELF         =      F    write electronic localiz. function (ELF)
   LORBIT       =     10    0 simple, 1 ext, 2 COOP (PROOUT), +10 PAW based schemes


 Dipole corrections
   LMONO  =      F    monopole corrections only (constant potential shift)
   LDIPOL =      F    correct potential (dipole corrections)
   IDIPOL =      0    1-x, 2-y, 3-z, 4-all directions 
   EPSILON=  1.0000000 bulk dielectric constant

 Exchange correlation treatment:
   GGA     =    --    GGA type
   LEXCH   =     8    internal setting for exchange type
   VOSKOWN=      0    Vosko Wilk Nusair interpolation
   LHFCALC =     F    Hartree Fock is set to
   LHFONE  =     F    Hartree Fock one center treatment
   AEXX    =    0.0000 exact exchange contribution

 Linear response parameters
   LEPSILON=     F    determine dielectric tensor
   LRPA    =     F    only Hartree local field effects (RPA)
   LNABLA  =     F    use nabla operator in PAW spheres
   LVEL    =     F    velocity operator in full k-point grid
   LINTERFAST=   F  fast interpolation
   KINTER  =     0    interpolate to denser k-point grid
   CSHIFT  =0.1000    complex shift for real part using Kramers Kronig
   OMEGAMAX=  -1.0    maximum frequency
   DEG_THRESHOLD= 0.2000000E-02 threshold for treating states as degnerate
   RTIME   =   -0.100 relaxation time in fs
  (WPLASMAI=    0.000 imaginary part of plasma frequency in eV, 0.658/RTIME)
   DFIELD  = 0.0000000 0.0000000 0.0000000 field for delta impulse in time

 Orbital magnetization related:
   ORBITALMAG=     F  switch on orbital magnetization
   LCHIMAG   =     F  perturbation theory with respect to B field
   DQ        =  0.001000  dq finite difference perturbation B field
   LLRAUG    =     F  two centre corrections for induced B field



--------------------------------------------------------------------------------------------------------


 Static calculation
 charge density and potential will be updated during run
 non-spin polarized calculation
 Variant of blocked Davidson
 Davidson routine will perform the subspace rotation
 perform sub-space diagonalisation
    after iterative eigenvector-optimisation
 modified Broyden-mixing scheme, WC =      100.0
 initial mixing is a Kerker type mixing with AMIX =  0.4000 and BMIX =      1.0000
 Hartree-type preconditioning will be used
 using additional bands           24
 real space projection scheme for non local part
 use partial core corrections
 calculate Harris-corrections to forces   (improved forces if not selfconsistent)
 use gradient corrections 
 use of overlap-Matrix (Vanderbilt PP)
 Gauss-broadening in eV      SIGMA  =   0.01


--------------------------------------------------------------------------------------------------------


  energy-cutoff  :      300.00
  volume of cell :      810.28
      direct lattice vectors                 reciprocal lattice vectors
     8.504217774  0.000000000  0.000000000     0.117588710  0.000000000  0.000000000
     0.000000000 11.678231979  0.000000000     0.000000000  0.085629400  0.000000000
     0.000000000  0.000000000  8.158760359     0.000000000  0.000000000  0.122567640

  length of vectors
     8.504217774 11.678231979  8.158760359     0.117588710  0.085629400  0.122567640



 k-points in units of 2pi/SCALE and weight: 1x1x1                                   
   0.00000000  0.00000000  0.00000000       0.056
   0.03919624  0.00000000  0.00000000       0.111
   0.00000000  0.04281470  0.00000000       0.056
   0.03919624  0.04281470  0.00000000       0.111
   0.00000000  0.00000000  0.04085588       0.111
   0.03919624  0.00000000  0.04085588       0.222
   0.00000000  0.04281470  0.04085588       0.111
   0.03919624  0.04281470  0.04085588       0.222

 k-points in reciprocal lattice and weights: 1x1x1                                   
   0.00000000  0.00000000  0.00000000       0.056
   0.33333333  0.00000000  0.00000000       0.111
   0.00000000  0.50000000  0.00000000       0.056
   0.33333333  0.50000000  0.00000000       0.111
   0.00000000  0.00000000  0.33333333       0.111
   0.33333333  0.00000000  0.33333333       0.222
   0.00000000  0.50000000  0.33333333       0.111
   0.33333333  0.50000000  0.33333333       0.222

 position of ions in fractional coordinates (direct lattice) 
   0.06095328  0.25000000  0.48053312
   0.43904672  0.75000000  0.98053312
   0.56095328  0.25000000  0.01946688
   0.93904672  0.75000000  0.51946688
   0.00000000  0.00000000  0.00000000
   0.50000000  0.00000000  0.50000000
   0.50000000  0.50000000  0.50000000
   0.00000000  0.50000000  0.00000000
   0.51211879  0.75000000  0.42610047
   0.98788121  0.25000000  0.92610047
   0.01211879  0.75000000  0.07389953
   0.48788121  0.25000000  0.57389953
   0.29250272  0.46300327  0.20420216
   0.20749728  0.53699673  0.70420216
   0.79250272  0.03699673  0.29579784
   0.70749728  0.96300327  0.79579784
   0.29250272  0.03699673  0.20420216
   0.20749728  0.96300327  0.70420216
   0.70749728  0.53699673  0.79579784
   0.79250272  0.46300327  0.29579784

 position of ions in cartesian coordinates  (Angst):
   0.51835995  2.91955799  3.92055460
   3.73374894  8.75867398  7.99993478
   4.77046884  2.91955799  0.15882558
   7.98585782  8.75867398  4.23820576
   0.00000000  0.00000000  0.00000000
   4.25210889  0.00000000  4.07938018
   4.25210889  5.83911599  4.07938018
   0.00000000  5.83911599  0.00000000
   4.35516972  8.75867398  3.47645166
   8.40115694  2.91955799  7.55583184
   0.10306084  8.75867398  0.60292852
   4.14904805  2.91955799  4.68230870
   2.48750682  5.40705960  1.66603647
   1.76460206  6.27117238  5.74541665
   6.73961571  0.43205639  2.41334371
   6.01671095 11.24617559  6.49272389
   2.48750682  0.43205639  1.66603647
   1.76460206 11.24617559  5.74541665
   6.01671095  6.27117238  6.49272389
   6.73961571  5.40705960  2.41334371



--------------------------------------------------------------------------------------------------------


 k-point  1 :   0.0000 0.0000 0.0000  plane waves:    9575
 k-point  2 :   0.3333 0.0000 0.0000  plane waves:    9558
 k-point  3 :   0.0000 0.5000 0.0000  plane waves:    9528
 k-point  4 :   0.3333 0.5000 0.0000  plane waves:    9560
 k-point  5 :   0.0000 0.0000 0.3333  plane waves:    9567
 k-point  6 :   0.3333 0.0000 0.3333  plane waves:    9576
 k-point  7 :   0.0000 0.5000 0.3333  plane waves:    9548
 k-point  8 :   0.3333 0.5000 0.3333  plane waves:    9542

 maximum and minimum number of plane-waves per node :      1219     1172

 maximum number of plane-waves:      9576
 maximum index in each direction: 
   IXMAX=   12   IYMAX=   16   IZMAX=   11
   IXMIN=  -12   IYMIN=  -16   IZMIN=  -11


 real space projection operators:
  total allocation   :       7882.06 KBytes
  max/ min on nodes  :       1031.06        953.22


 parallel 3D FFT for wavefunctions:
    minimum data exchange during FFTs selected (reduces bandwidth)
 parallel 3D FFT for charge:
    minimum data exchange during FFTs selected (reduces bandwidth)


 total amount of memory used by VASP MPI-rank0    42344. kBytes
=======================================================================

   base      :      30000. kBytes
   nonlr-proj:       2971. kBytes
   fftplans  :       3667. kBytes
   grid      :       3424. kBytes
   one-center:         46. kBytes
   wavefun   :       2236. kBytes

     INWAV:  cpu time    0.0000: real time    0.0000
 Broyden mixing: mesh for mixing (old mesh)
   NGX = 25   NGY = 33   NGZ = 23
  (NGX  = 96   NGY  =140   NGZ  = 96)
  gives a total of  18975 points

 initial charge density was supplied:
 charge density of overlapping atoms calculated
 number of electron     176.0000000 magnetization 
 keeping initial charge density in first step


--------------------------------------------------------------------------------------------------------


 Maximum index for non-local projection operator          624
 Maximum index for augmentation-charges         2353 (set IRDMAX)


--------------------------------------------------------------------------------------------------------


 First call to EWALD:  gamma=   0.190
 Maximum number of real-space cells 3x 2x 3
 Maximum number of reciprocal cells 3x 3x 2

    FEWALD:  cpu time    0.0024: real time    0.0024


--------------------------------------- Iteration      1(   1)  ---------------------------------------


    POTLOK:  cpu time    0.1303: real time    0.1402
    SETDIJ:  cpu time    1.0884: real time    1.0884
     EDDAV:  cpu time    3.9492: real time    3.9537
       DOS:  cpu time    0.0006: real time    0.0006
    --------------------------------------------
      LOOP:  cpu time    5.1685: real time    5.1829

 eigenvalue-minimisations  :  1856
 total energy-change (2. order) : 0.6603420E+03  (-0.5611242E+04)
 number of electron     176.0000000 magnetization 
 augmentation part      176.0000000 magnetization 

 Free energy of the ion-electron system (eV)
  ---------------------------------------------------
  alpha Z        PSCENC =       445.28865900
  Ewald energy   TEWEN  =     -9193.14301639
  -Hartree energ DENC   =     -3676.19543071
  -exchange      EXHF   =         0.00000000
  -V(xc)+E(xc)   XCENC  =       461.85002534
  PAW double counting   =     10816.98087266   -11353.96092700
  entropy T*S    EENTRO =        -0.00106584
  eigenvalues    EBANDS =      -130.75720584
  atomic energy  EATOM  =     13290.28009929
  Solvation  Ediel_sol  =         0.00000000
  ---------------------------------------------------
  free energy    TOTEN  =       660.34201050 eV

  energy without entropy =      660.34307634  energy(sigma->0) =      660.34254342


--------------------------------------------------------------------------------------------------------




--------------------------------------- Iteration      1(   2)  ---------------------------------------


     EDDAV:  cpu time    4.3988: real time    4.4363
       DOS:  cpu time    0.0003: real time    0.0003
    --------------------------------------------
      LOOP:  cpu time    4.3991: real time    4.4366

 eigenvalue-minimisations  :  2184
 total energy-change (2. order) :-0.1235233E+04  (-0.1184028E+04)
 number of electron     176.0000000 magnetization 
 augmentation part      176.0000000 magnetization 

 Free energy of the ion-electron system (eV)
  ---------------------------------------------------
  alpha Z        PSCENC =       445.28865900
  Ewald energy   TEWEN  =     -9193.14301639
  -Hartree energ DENC   =     -3676.19543071
  -exchange      EXHF   =         0.00000000
  -V(xc)+E(xc)   XCENC  =       461.85002534
  PAW double counting   =     10816.98087266   -11353.96092700
  entropy T*S    EENTRO =        -0.00000000
  eigenvalues    EBANDS =     -1365.99079818
  atomic energy  EATOM  =     13290.28009929
  Solvation  Ediel_sol  =         0.00000000
  ---------------------------------------------------
  free energy    TOTEN  =      -574.89051600 eV

  energy without entropy =     -574.89051600  energy(sigma->0) =     -574.89051600


--------------------------------------------------------------------------------------------------------




--------------------------------------- Iteration      1(   3)  ---------------------------------------


     EDDAV:  cpu time    4.7549: real time    4.7666
       DOS:  cpu time    0.0003: real time    0.0003
    --------------------------------------------
      LOOP:  cpu time    4.7552: real time    4.7669

 eigenvalue-minimisations  :  2440
 total energy-change (2. order) :-0.1741773E+03  (-0.1731039E+03)
 number of electron     176.0000000 magnetization 
 augmentation part      176.0000000 magnetization 

 Free energy of the ion-electron system (eV)
  ---------------------------------------------------
  alpha Z        PSCENC =       445.28865900
  Ewald energy   TEWEN  =     -9193.14301639
  -Hartree energ DENC   =     -3676.19543071
  -exchange      EXHF   =         0.00000000
  -V(xc)+E(xc)   XCENC  =       461.85002534
  PAW double counting   =     10816.98087266   -11353.96092700
  entropy T*S    EENTRO =        -0.00000000
  eigenvalues    EBANDS =     -1540.16811023
  atomic energy  EATOM  =     13290.28009929
  Solvation  Ediel_sol  =         0.00000000
  ---------------------------------------------------
  free energy    TOTEN  =      -749.06782805 eV

  energy without entropy =     -749.06782805  energy(sigma->0) =     -749.06782805


--------------------------------------------------------------------------------------------------------




--------------------------------------- Iteration      1(   4)  ---------------------------------------


     EDDAV:  cpu time    4.3777: real time    4.3916
       DOS:  cpu time    0.0003: real time    0.0003
    --------------------------------------------
      LOOP:  cpu time    4.3780: real time    4.3919

 eigenvalue-minimisations  :  2168
 total energy-change (2. order) :-0.5489307E+01  (-0.5473767E+01)
 number of electron     176.0000000 magnetization 
 augmentation part      176.0000000 magnetization 

 Free energy of the ion-electron system (eV)
  ---------------------------------------------------
  alpha Z        PSCENC =       445.28865900
  Ewald energy   TEWEN  =     -9193.14301639
  -Hartree energ DENC   =     -3676.19543071
  -exchange      EXHF   =         0.00000000
  -V(xc)+E(xc)   XCENC  =       461.85002534
  PAW double counting   =     10816.98087266   -11353.96092700
  entropy T*S    EENTRO =        -0.00000000
  eigenvalues    EBANDS =     -1545.65741767
  atomic energy  EATOM  =     13290.28009929
  Solvation  Ediel_sol  =         0.00000000
  ---------------------------------------------------
  free energy    TOTEN  =      -754.55713549 eV

  energy without entropy =     -754.55713549  energy(sigma->0) =     -754.55713549


--------------------------------------------------------------------------------------------------------




--------------------------------------- Iteration      1(   5)  ---------------------------------------


     EDDAV:  cpu time    4.6206: real time    4.6621
       DOS:  cpu time    0.0003: real time    0.0003
    CHARGE:  cpu time    0.8557: real time    0.8558
    MIXING:  cpu time    0.0008: real time    0.0008
    --------------------------------------------
      LOOP:  cpu time    5.4775: real time    5.5191

 eigenvalue-minimisations  :  2360
 total energy-change (2. order) :-0.2424583E+00  (-0.2423250E+00)
 number of electron     175.9999999 magnetization 
 augmentation part       -3.2435819 magnetization 

 Broyden mixing:
  rms(total) = 0.69940E+00    rms(broyden)= 0.69916E+00
  rms(prec ) = 0.97949E+00
  weight for this iteration     100.00

 Free energy of the ion-electron system (eV)
  ---------------------------------------------------
  alpha Z        PSCENC =       445.28865900
  Ewald energy   TEWEN  =     -9193.14301639
  -Hartree energ DENC   =     -3676.19543071
  -exchange      EXHF   =         0.00000000
  -V(xc)+E(xc)   XCENC  =       461.85002534
  PAW double counting   =     10816.98087266   -11353.96092700
  entropy T*S    EENTRO =        -0.00000000
  eigenvalues    EBANDS =     -1545.89987601
  atomic energy  EATOM  =     13290.28009929
  Solvation  Ediel_sol  =         0.00000000
  ---------------------------------------------------
  free energy    TOTEN  =      -754.79959383 eV

  energy without entropy =     -754.79959383  energy(sigma->0) =     -754.79959383


--------------------------------------------------------------------------------------------------------




--------------------------------------- Iteration      1(   6)  ---------------------------------------


    POTLOK:  cpu time    0.1256: real time    0.1588
    SETDIJ:  cpu time    1.0861: real time    1.0861
     EDDAV:  cpu time    4.6090: real time    4.6092
       DOS:  cpu time    0.0004: real time    0.0004
    CHARGE:  cpu time    0.8248: real time    0.8248
    MIXING:  cpu time    0.0009: real time    0.0009
    --------------------------------------------
      LOOP:  cpu time    6.6468: real time    6.6802

 eigenvalue-minimisations  :  2368
 total energy-change (2. order) : 0.3979782E+02  (-0.1184607E+01)
 number of electron     175.9999999 magnetization 
 augmentation part       -2.5200464 magnetization 

 Broyden mixing:
  rms(total) = 0.49721E+00    rms(broyden)= 0.49715E+00
  rms(prec ) = 0.62219E+00
  weight for this iteration     100.00

 eigenvalues of (default mixing * dielectric matrix)
  average eigenvalue GAMMA=   1.1535
  1.1535

 Free energy of the ion-electron system (eV)
  ---------------------------------------------------
  alpha Z        PSCENC =       445.28865900
  Ewald energy   TEWEN  =     -9193.14301639
  -Hartree energ DENC   =     -3666.37695126
  -exchange      EXHF   =         0.00000000
  -V(xc)+E(xc)   XCENC  =       477.30356767
  PAW double counting   =     10958.50310043   -11494.54312018
  entropy T*S    EENTRO =        -0.00000000
  eigenvalues    EBANDS =     -1532.31410853
  atomic energy  EATOM  =     13290.28009929
  Solvation  Ediel_sol  =         0.00000000
  ---------------------------------------------------
  free energy    TOTEN  =      -715.00176995 eV

  energy without entropy =     -715.00176995  energy(sigma->0) =     -715.00176995


--------------------------------------------------------------------------------------------------------




--------------------------------------- Iteration      1(   7)  ---------------------------------------


    POTLOK:  cpu time    0.1398: real time    0.1769
    SETDIJ:  cpu time    1.0867: real time    1.0867
     EDDAV:  cpu time    4.4512: real time    4.4516
       DOS:  cpu time    0.0003: real time    0.0003
    CHARGE:  cpu time    0.8223: real time    0.8223
    MIXING:  cpu time    0.0010: real time    0.0010
    --------------------------------------------
      LOOP:  cpu time    6.5013: real time    6.5389

 eigenvalue-minimisations  :  2248
 total energy-change (2. order) : 0.2330468E+00  (-0.3878924E+00)
 number of electron     175.9999999 magnetization 
 augmentation part       -2.2543838 magnetization 

 Broyden mixing:
  rms(total) = 0.25831E+00    rms(broyden)= 0.25830E+00
  rms(prec ) = 0.28388E+00
  weight for this iteration     100.00

 eigenvalues of (default mixing * dielectric matrix)
  average eigenvalue GAMMA=   1.3113
  1.3113  1.3113

 Free energy of the ion-electron system (eV)
  ---------------------------------------------------
  alpha Z        PSCENC =       445.28865900
  Ewald energy   TEWEN  =     -9193.14301639
  -Hartree energ DENC   =     -3686.09472453
  -exchange      EXHF   =         0.00000000
  -V(xc)+E(xc)   XCENC  =       479.88501424
  PAW double counting   =     11260.65069270   -11795.74269331
  entropy T*S    EENTRO =        -0.00000000
  eigenvalues    EBANDS =     -1515.89275411
  atomic energy  EATOM  =     13290.28009929
  Solvation  Ediel_sol  =         0.00000000
  ---------------------------------------------------
  free energy    TOTEN  =      -714.76872311 eV

  energy without entropy =     -714.76872311  energy(sigma->0) =     -714.76872311


--------------------------------------------------------------------------------------------------------




--------------------------------------- Iteration      1(   8)  ---------------------------------------


    POTLOK:  cpu time    0.1379: real time    0.1746
    SETDIJ:  cpu time    1.0859: real time    1.0860
     EDDAV:  cpu time    4.3644: real time    4.3646
       DOS:  cpu time    0.0004: real time    0.0004
    CHARGE:  cpu time    0.8242: real time    0.8243
    MIXING:  cpu time    0.0009: real time    0.0009
    --------------------------------------------
      LOOP:  cpu time    6.4136: real time    6.4506

 eigenvalue-minimisations  :  2184
 total energy-change (2. order) :-0.9593856E-01  (-0.1817535E-01)
 number of electron     175.9999999 magnetization 
 augmentation part       -2.2961548 magnetization 

 Broyden mixing:
  rms(total) = 0.14866E+00    rms(broyden)= 0.14866E+00
  rms(prec ) = 0.16497E+00
  weight for this iteration     100.00

 eigenvalues of (default mixing * dielectric matrix)
  average eigenvalue GAMMA=   1.7152
  1.1111  1.2968  2.7378

 Free energy of the ion-electron system (eV)
  ---------------------------------------------------
  alpha Z        PSCENC =       445.28865900
  Ewald energy   TEWEN  =     -9193.14301639
  -Hartree energ DENC   =     -3688.19156062
  -exchange      EXHF   =         0.00000000
  -V(xc)+E(xc)   XCENC  =       480.24700102
  PAW double counting   =     11379.44248246   -11914.67481227
  entropy T*S    EENTRO =        -0.00000000
  eigenvalues    EBANDS =     -1514.11351417
  atomic energy  EATOM  =     13290.28009929
  Solvation  Ediel_sol  =         0.00000000
  ---------------------------------------------------
  free energy    TOTEN  =      -714.86466167 eV

  energy without entropy =     -714.86466167  energy(sigma->0) =     -714.86466167


--------------------------------------------------------------------------------------------------------




--------------------------------------- Iteration      1(   9)  ---------------------------------------


    POTLOK:  cpu time    0.1263: real time    0.1431
    SETDIJ:  cpu time    1.0870: real time    1.0871
     EDDAV:  cpu time    4.1464: real time    4.1466
       DOS:  cpu time    0.0006: real time    0.0006
    CHARGE:  cpu time    0.8206: real time    0.8207
    MIXING:  cpu time    0.0009: real time    0.0009
    --------------------------------------------
      LOOP:  cpu time    6.1818: real time    6.1989

 eigenvalue-minimisations  :  2016
 total energy-change (2. order) :-0.4154428E-01  (-0.8441312E-02)
 number of electron     175.9999999 magnetization 
 augmentation part       -2.3181086 magnetization 

 Broyden mixing:
  rms(total) = 0.32647E-01    rms(broyden)= 0.32645E-01
  rms(prec ) = 0.35038E-01
  weight for this iteration     100.00

 eigenvalues of (default mixing * dielectric matrix)
  average eigenvalue GAMMA=   1.4647
  2.5492  1.2409  1.2409  0.8277

 Free energy of the ion-electron system (eV)
  ---------------------------------------------------
  alpha Z        PSCENC =       445.28865900
  Ewald energy   TEWEN  =     -9193.14301639
  -Hartree energ DENC   =     -3690.64728582
  -exchange      EXHF   =         0.00000000
  -V(xc)+E(xc)   XCENC  =       481.26517948
  PAW double counting   =     11549.94609626   -12085.52866016
  entropy T*S    EENTRO =        -0.00000000
  eigenvalues    EBANDS =     -1512.36727762
  atomic energy  EATOM  =     13290.28009929
  Solvation  Ediel_sol  =         0.00000000
  ---------------------------------------------------
  free energy    TOTEN  =      -714.90620596 eV

  energy without entropy =     -714.90620596  energy(sigma->0) =     -714.90620596


--------------------------------------------------------------------------------------------------------




--------------------------------------- Iteration      1(  10)  ---------------------------------------


    POTLOK:  cpu time    0.1307: real time    0.1704
    SETDIJ:  cpu time    1.0871: real time    1.0871
     EDDAV:  cpu time    4.8511: real time    4.8515
       DOS:  cpu time    0.0004: real time    0.0004
    CHARGE:  cpu time    0.8218: real time    0.8218
    MIXING:  cpu time    0.0009: real time    0.0009
    --------------------------------------------
      LOOP:  cpu time    6.8920: real time    6.9321

 eigenvalue-minimisations  :  2544
 total energy-change (2. order) :-0.8176325E-03  (-0.4775367E-03)
 number of electron     175.9999999 magnetization 
 augmentation part       -2.3113782 magnetization 

 Broyden mixing:
  rms(total) = 0.18343E-01    rms(broyden)= 0.18343E-01
  rms(prec ) = 0.20487E-01
  weight for this iteration     100.00

 eigenvalues of (default mixing * dielectric matrix)
  average eigenvalue GAMMA=   1.6037
  2.4533  2.4533  1.1327  1.1327  0.8465

 Free energy of the ion-electron system (eV)
  ---------------------------------------------------
  alpha Z        PSCENC =       445.28865900
  Ewald energy   TEWEN  =     -9193.14301639
  -Hartree energ DENC   =     -3689.73606890
  -exchange      EXHF   =         0.00000000
  -V(xc)+E(xc)   XCENC  =       481.15475197
  PAW double counting   =     11532.08904302   -12067.71473055
  entropy T*S    EENTRO =        -0.00000000
  eigenvalues    EBANDS =     -1513.12576104
  atomic energy  EATOM  =     13290.28009929
  Solvation  Ediel_sol  =         0.00000000
  ---------------------------------------------------
  free energy    TOTEN  =      -714.90702359 eV

  energy without entropy =     -714.90702359  energy(sigma->0) =     -714.90702359


--------------------------------------------------------------------------------------------------------




--------------------------------------- Iteration      1(  11)  ---------------------------------------


    POTLOK:  cpu time    0.1595: real time    0.1606
    SETDIJ:  cpu time    1.0837: real time    1.0838
     EDDAV:  cpu time    4.1568: real time    4.1570
       DOS:  cpu time    0.0004: real time    0.0004
    CHARGE:  cpu time    0.8240: real time    0.8241
    MIXING:  cpu time    0.0012: real time    0.0012
    --------------------------------------------
      LOOP:  cpu time    6.2256: real time    6.2270

 eigenvalue-minimisations  :  2032
 total energy-change (2. order) :-0.1562774E-02  (-0.1713991E-03)
 number of electron     175.9999999 magnetization 
 augmentation part       -2.3109834 magnetization 

 Broyden mixing:
  rms(total) = 0.67433E-02    rms(broyden)= 0.67430E-02
  rms(prec ) = 0.82671E-02
  weight for this iteration     100.00

 eigenvalues of (default mixing * dielectric matrix)
  average eigenvalue GAMMA=   1.5774
  2.5803  2.5803  1.2278  1.2278  0.9241  0.9241

 Free energy of the ion-electron system (eV)
  ---------------------------------------------------
  alpha Z        PSCENC =       445.28865900
  Ewald energy   TEWEN  =     -9193.14301639
  -Hartree energ DENC   =     -3688.38019378
  -exchange      EXHF   =         0.00000000
  -V(xc)+E(xc)   XCENC  =       481.10824823
  PAW double counting   =     11517.75141474   -12053.54260103
  entropy T*S    EENTRO =        -0.00000000
  eigenvalues    EBANDS =     -1514.27119643
  atomic energy  EATOM  =     13290.28009929
  Solvation  Ediel_sol  =         0.00000000
  ---------------------------------------------------
  free energy    TOTEN  =      -714.90858637 eV

  energy without entropy =     -714.90858637  energy(sigma->0) =     -714.90858637


--------------------------------------------------------------------------------------------------------




--------------------------------------- Iteration      1(  12)  ---------------------------------------


    POTLOK:  cpu time    0.1594: real time    0.1724
    SETDIJ:  cpu time    1.0861: real time    1.0862
     EDDAV:  cpu time    4.3066: real time    4.3068
       DOS:  cpu time    0.0004: real time    0.0004
    CHARGE:  cpu time    0.8239: real time    0.8239
    MIXING:  cpu time    0.0010: real time    0.0010
    --------------------------------------------
      LOOP:  cpu time    6.3774: real time    6.3906

 eigenvalue-minimisations  :  2144
 total energy-change (2. order) :-0.4146213E-04  (-0.4631626E-04)
 number of electron     175.9999999 magnetization 
 augmentation part       -2.3127169 magnetization 

 Broyden mixing:
  rms(total) = 0.22998E-02    rms(broyden)= 0.22992E-02
  rms(prec ) = 0.25683E-02
  weight for this iteration     100.00

 eigenvalues of (default mixing * dielectric matrix)
  average eigenvalue GAMMA=   1.6320
  3.0561  2.2975  1.9164  1.1674  0.9589  0.9589  1.0687

 Free energy of the ion-electron system (eV)
  ---------------------------------------------------
  alpha Z        PSCENC =       445.28865900
  Ewald energy   TEWEN  =     -9193.14301639
  -Hartree energ DENC   =     -3688.54407465
  -exchange      EXHF   =         0.00000000
  -V(xc)+E(xc)   XCENC  =       481.17230600
  PAW double counting   =     11523.16837731   -12059.00400069
  entropy T*S    EENTRO =        -0.00000000
  eigenvalues    EBANDS =     -1514.12697770
  atomic energy  EATOM  =     13290.28009929
  Solvation  Ediel_sol  =         0.00000000
  ---------------------------------------------------
  free energy    TOTEN  =      -714.90862783 eV

  energy without entropy =     -714.90862783  energy(sigma->0) =     -714.90862783


--------------------------------------------------------------------------------------------------------




--------------------------------------- Iteration      1(  13)  ---------------------------------------


    POTLOK:  cpu time    0.1266: real time    0.1672
    SETDIJ:  cpu time    1.0855: real time    1.0855
     EDDAV:  cpu time    4.3869: real time    4.3871
       DOS:  cpu time    0.0004: real time    0.0004
    CHARGE:  cpu time    0.8224: real time    0.8225
    MIXING:  cpu time    0.0012: real time    0.0012
    --------------------------------------------
      LOOP:  cpu time    6.4230: real time    6.4638

 eigenvalue-minimisations  :  2200
 total energy-change (2. order) :-0.1623477E-04  (-0.4045142E-05)
 number of electron     175.9999999 magnetization 
 augmentation part       -2.3126348 magnetization 

 Broyden mixing:
  rms(total) = 0.66496E-03    rms(broyden)= 0.66388E-03
  rms(prec ) = 0.72319E-03
  weight for this iteration     100.00

 eigenvalues of (default mixing * dielectric matrix)
  average eigenvalue GAMMA=   1.6398
  2.9823  2.4229  2.1982  1.2911  1.2911  0.9426  0.9953  0.9953

 Free energy of the ion-electron system (eV)
  ---------------------------------------------------
  alpha Z        PSCENC =       445.28865900
  Ewald energy   TEWEN  =     -9193.14301639
  -Hartree energ DENC   =     -3688.67766066
  -exchange      EXHF   =         0.00000000
  -V(xc)+E(xc)   XCENC  =       481.18416765
  PAW double counting   =     11521.80130826   -12057.64276039
  entropy T*S    EENTRO =        -0.00000000
  eigenvalues    EBANDS =     -1513.99944082
  atomic energy  EATOM  =     13290.28009929
  Solvation  Ediel_sol  =         0.00000000
  ---------------------------------------------------
  free energy    TOTEN  =      -714.90864406 eV

  energy without entropy =     -714.90864406  energy(sigma->0) =     -714.90864406


--------------------------------------------------------------------------------------------------------




--------------------------------------- Iteration      1(  14)  ---------------------------------------


    POTLOK:  cpu time    0.1523: real time    0.1591
    SETDIJ:  cpu time    1.0859: real time    1.0860
     EDDAV:  cpu time    3.6679: real time    3.6680
       DOS:  cpu time    0.0003: real time    0.0003
    CHARGE:  cpu time    0.8257: real time    0.8257
    MIXING:  cpu time    0.0010: real time    0.0010
    --------------------------------------------
      LOOP:  cpu time    5.7333: real time    5.7402

 eigenvalue-minimisations  :  1608
 total energy-change (2. order) :-0.1388881E-04  (-0.2448578E-06)
 number of electron     175.9999999 magnetization 
 augmentation part       -2.3124687 magnetization 

 Broyden mixing:
  rms(total) = 0.20751E-03    rms(broyden)= 0.20422E-03
  rms(prec ) = 0.24426E-03
  weight for this iteration     100.00

 eigenvalues of (default mixing * dielectric matrix)
  average eigenvalue GAMMA=   1.6865
  2.8226  2.8226  2.1581  2.1581  1.1608  1.1608  0.9289  0.9832  0.9832

 Free energy of the ion-electron system (eV)
  ---------------------------------------------------
  alpha Z        PSCENC =       445.28865900
  Ewald energy   TEWEN  =     -9193.14301639
  -Hartree energ DENC   =     -3688.69084472
  -exchange      EXHF   =         0.00000000
  -V(xc)+E(xc)   XCENC  =       481.18409720
  PAW double counting   =     11521.39447615   -12057.23421600
  entropy T*S    EENTRO =        -0.00000000
  eigenvalues    EBANDS =     -1513.98791248
  atomic energy  EATOM  =     13290.28009929
  Solvation  Ediel_sol  =         0.00000000
  ---------------------------------------------------
  free energy    TOTEN  =      -714.90865795 eV

  energy without entropy =     -714.90865795  energy(sigma->0) =     -714.90865795


--------------------------------------------------------------------------------------------------------




--------------------------------------- Iteration      1(  15)  ---------------------------------------


    POTLOK:  cpu time    0.1234: real time    0.1637
    SETDIJ:  cpu time    1.0866: real time    1.0866
     EDDAV:  cpu time    3.2391: real time    3.2392
       DOS:  cpu time    0.0004: real time    0.0004
    CHARGE:  cpu time    0.8210: real time    0.8211
    MIXING:  cpu time    0.0011: real time    0.0011
    --------------------------------------------
      LOOP:  cpu time    5.2716: real time    5.3121

 eigenvalue-minimisations  :  1272
 total energy-change (2. order) :-0.4481779E-05  (-0.5500549E-07)
 number of electron     175.9999999 magnetization 
 augmentation part       -2.3124720 magnetization 

 Broyden mixing:
  rms(total) = 0.84782E-04    rms(broyden)= 0.76416E-04
  rms(prec ) = 0.90801E-04
  weight for this iteration     100.00

 eigenvalues of (default mixing * dielectric matrix)
  average eigenvalue GAMMA=   1.6471
  3.0632  2.5772  2.5772  1.9500  1.2001  1.2001  1.0250  1.0250  0.9264  0.9264

 Free energy of the ion-electron system (eV)
  ---------------------------------------------------
  alpha Z        PSCENC =       445.28865900
  Ewald energy   TEWEN  =     -9193.14301639
  -Hartree energ DENC   =     -3688.67377924
  -exchange      EXHF   =         0.00000000
  -V(xc)+E(xc)   XCENC  =       481.18304049
  PAW double counting   =     11521.42788833   -12057.26783601
  entropy T*S    EENTRO =        -0.00000000
  eigenvalues    EBANDS =     -1514.00371790
  atomic energy  EATOM  =     13290.28009929
  Solvation  Ediel_sol  =         0.00000000
  ---------------------------------------------------
  free energy    TOTEN  =      -714.90866243 eV

  energy without entropy =     -714.90866243  energy(sigma->0) =     -714.90866243


--------------------------------------------------------------------------------------------------------




--------------------------------------- Iteration      1(  16)  ---------------------------------------


    POTLOK:  cpu time    0.1532: real time    0.1727
    SETDIJ:  cpu time    1.0882: real time    1.0882
     EDDAV:  cpu time    3.0924: real time    3.0926
       DOS:  cpu time    0.0004: real time    0.0004
    CHARGE:  cpu time    0.8210: real time    0.8211
    MIXING:  cpu time    0.0012: real time    0.0012
    --------------------------------------------
      LOOP:  cpu time    5.1564: real time    5.1761

 eigenvalue-minimisations  :  1168
 total energy-change (2. order) : 0.3381499E-05  (-0.1555931E-07)
 number of electron     175.9999999 magnetization 
 augmentation part       -2.3125162 magnetization 

 Broyden mixing:
  rms(total) = 0.51766E-04    rms(broyden)= 0.36487E-04
  rms(prec ) = 0.40753E-04
  weight for this iteration     100.00
  WARNING: grid for Broyden might be to small

 eigenvalues of (default mixing * dielectric matrix)
  average eigenvalue GAMMA=   1.6423
  3.0259  2.7061  2.7061  1.7224  1.7224  1.1712  1.1712  0.9522  0.9522  0.9676
  0.9676

 Free energy of the ion-electron system (eV)
  ---------------------------------------------------
  alpha Z        PSCENC =       445.28865900
  Ewald energy   TEWEN  =     -9193.14301639
  -Hartree energ DENC   =     -3688.68024134
  -exchange      EXHF   =         0.00000000
  -V(xc)+E(xc)   XCENC  =       481.18361873
  PAW double counting   =     11521.43845896   -12057.27839997
  entropy T*S    EENTRO =        -0.00000000
  eigenvalues    EBANDS =     -1513.99783733
  atomic energy  EATOM  =     13290.28009929
  Solvation  Ediel_sol  =         0.00000000
  ---------------------------------------------------
  free energy    TOTEN  =      -714.90865905 eV

  energy without entropy =     -714.90865905  energy(sigma->0) =     -714.90865905


--------------------------------------------------------------------------------------------------------




--------------------------------------- Iteration      1(  17)  ---------------------------------------


    POTLOK:  cpu time    0.1372: real time    0.1571
    SETDIJ:  cpu time    1.0885: real time    1.0886
     EDDAV:  cpu time    3.0332: real time    3.0333
       DOS:  cpu time    0.0004: real time    0.0004
    CHARGE:  cpu time    0.8265: real time    0.8265
    MIXING:  cpu time    0.0012: real time    0.0012
    --------------------------------------------
      LOOP:  cpu time    5.0871: real time    5.1071

 eigenvalue-minimisations  :  1112
 total energy-change (2. order) : 0.1510231E-05  (-0.4597777E-08)
 number of electron     175.9999999 magnetization 
 augmentation part       -2.3124906 magnetization 

 Broyden mixing:
  rms(total) = 0.40630E-04    rms(broyden)= 0.17396E-04
  rms(prec ) = 0.19865E-04
  weight for this iteration     100.00
  WARNING: grid for Broyden might be to small

 eigenvalues of (default mixing * dielectric matrix)
  average eigenvalue GAMMA=   1.7181
  3.4238  3.1028  2.4903  2.3251  2.0774  1.1543  1.1543  1.1744  0.9646  0.9646
  0.9429  0.8423

 Free energy of the ion-electron system (eV)
  ---------------------------------------------------
  alpha Z        PSCENC =       445.28865900
  Ewald energy   TEWEN  =     -9193.14301639
  -Hartree energ DENC   =     -3688.68314885
  -exchange      EXHF   =         0.00000000
  -V(xc)+E(xc)   XCENC  =       481.18380703
  PAW double counting   =     11521.42582066   -12057.26542403
  entropy T*S    EENTRO =        -0.00000000
  eigenvalues    EBANDS =     -1513.99545425
  atomic energy  EATOM  =     13290.28009929
  Solvation  Ediel_sol  =         0.00000000
  ---------------------------------------------------
  free energy    TOTEN  =      -714.90865754 eV

  energy without entropy =     -714.90865754  energy(sigma->0) =     -714.90865754


--------------------------------------------------------------------------------------------------------




--------------------------------------- Iteration      1(  18)  ---------------------------------------


    POTLOK:  cpu time    0.1633: real time    0.1710
    SETDIJ:  cpu time    1.0878: real time    1.0879
     EDDAV:  cpu time    2.9937: real time    2.9938
       DOS:  cpu time    0.0003: real time    0.0003
    --------------------------------------------
      LOOP:  cpu time    4.2452: real time    4.2531

 eigenvalue-minimisations  :  1088
 total energy-change (2. order) : 0.3609064E-06  (-0.2293589E-08)
 number of electron     175.9999999 magnetization 
 augmentation part       -2.3124906 magnetization 

 Free energy of the ion-electron system (eV)
  ---------------------------------------------------
  alpha Z        PSCENC =       445.28865900
  Ewald energy   TEWEN  =     -9193.14301639
  -Hartree energ DENC   =     -3688.68369946
  -exchange      EXHF   =         0.00000000
  -V(xc)+E(xc)   XCENC  =       481.18382116
  PAW double counting   =     11521.41333015   -12057.25287722
  entropy T*S    EENTRO =        -0.00000000
  eigenvalues    EBANDS =     -1513.99497372
  atomic energy  EATOM  =     13290.28009929
  Solvation  Ediel_sol  =         0.00000000
  ---------------------------------------------------
  free energy    TOTEN  =      -714.90865718 eV

  energy without entropy =     -714.90865718  energy(sigma->0) =     -714.90865718


--------------------------------------------------------------------------------------------------------




 average (electrostatic) potential at core
  the test charge radii are     1.1312  1.1541  1.0178
  (the norm of the test charge is              1.0000)
       1 -55.2985       2 -55.2985       3 -55.2985       4 -55.2985       5-101.7272
       6-101.7272       7-101.7272       8-101.7272       9 -69.0434      10 -69.0434
      11 -69.0434      12 -69.0434      13 -69.0160      14 -69.0160      15 -69.0160
      16 -69.0160      17 -69.0160      18 -69.0160      19 -69.0160      20 -69.0160



 E-fermi :   0.4048     XC(G=0):  -8.0343     alpha+bet : -6.9859


 k-point     1 :       0.0000    0.0000    0.0000
  band No.  band energies     occupation 
      1     -20.8286      2.00000
      2     -20.8269      2.00000
      3     -20.8249      2.00000
      4     -20.8239      2.00000
      5     -16.5412      2.00000
      6     -16.5248      2.00000
      7     -16.5245      2.00000
      8     -16.5185      2.00000
      9     -16.4800      2.00000
     10     -16.4518      2.00000
     11     -16.4468      2.00000
     12     -16.4466      2.00000
     13     -16.3861      2.00000
     14     -16.3857      2.00000
     15     -16.3857      2.00000
     16     -16.3850      2.00000
     17     -16.3845      2.00000
     18     -16.3843      2.00000
     19     -16.3836      2.00000
     20     -16.3835      2.00000
     21     -16.3798      2.00000
     22     -16.3791      2.00000
     23     -16.3787      2.00000
     24     -16.3781      2.00000
     25     -14.3640      2.00000
     26     -14.1693      2.00000
     27     -14.0861      2.00000
     28     -14.0801      2.00000
     29     -14.0353      2.00000
     30     -14.0241      2.00000
     31     -14.0190      2.00000
     32     -14.0163      2.00000
     33     -14.0114      2.00000
     34     -13.7911      2.00000
     35     -13.7817      2.00000
     36     -13.7749      2.00000
     37      -8.2010      2.00000
     38      -7.6880      2.00000
     39      -7.2663      2.00000
     40      -7.2596      2.00000
     41      -7.2561      2.00000
     42      -7.2536      2.00000
     43      -7.2511      2.00000
     44      -7.2337      2.00000
     45      -7.2247      2.00000
     46      -7.2189      2.00000
     47      -7.2125      2.00000
     48      -7.2109      2.00000
     49      -7.1966      2.00000
     50      -7.1913      2.00000
     51      -7.1787      2.00000
     52      -6.6084      2.00000
     53      -3.3419      2.00000
     54      -3.2674      2.00000
     55      -3.2552      2.00000
     56      -3.1895      2.00000
     57      -3.1563      2.00000
     58      -3.1161      2.00000
     59      -2.1434      2.00000
     60      -1.9297      2.00000
     61      -1.9044      2.00000
     62      -1.8977      2.00000
     63      -1.8733      2.00000
     64      -1.8259      2.00000
     65      -1.6793      2.00000
     66      -1.5488      2.00000
     67      -1.5157      2.00000
     68      -1.4953      2.00000
     69      -1.4884      2.00000
     70      -1.4732      2.00000
     71      -1.4449      2.00000
     72      -1.4379      2.00000
     73      -1.3945      2.00000
     74      -1.3842      2.00000
     75      -1.3806      2.00000
     76      -1.3715      2.00000
     77      -1.3651      2.00000
     78      -1.2522      2.00000
     79      -1.1732      2.00000
     80      -1.1662      2.00000
     81      -1.1455      2.00000
     82      -1.0741      2.00000
     83      -1.0534      2.00000
     84      -1.0240      2.00000
     85      -0.8571      2.00000
     86      -0.6933      2.00000
     87      -0.2685      2.00000
     88       0.3611      2.00000
     89       2.6142      0.00000
     90       2.7837      0.00000
     91       2.7960      0.00000
     92       2.9786      0.00000
     93       3.2145      0.00000
     94       3.5116      0.00000
     95       4.8525      0.00000
     96       5.6070      0.00000
     97       5.7447      0.00000
     98       5.8327      0.00000
     99       5.9581      0.00000
    100       6.0678      0.00000
    101       6.1206      0.00000
    102       6.1565      0.00000
    103       6.2594      0.00000
    104       6.2602      0.00000
    105       6.4533      0.00000
    106       6.5134      0.00000
    107       6.5234      0.00000
    108       6.7296      0.00000
    109       6.7524      0.00000
    110       6.7798      0.00000
    111       6.8931      0.00000
    112       6.9904      0.00000

 k-point     2 :       0.3333    0.0000    0.0000
  band No.  band energies     occupation 
      1     -20.8276      2.00000
      2     -20.8261      2.00000
      3     -20.8257      2.00000
      4     -20.8246      2.00000
      5     -16.5354      2.00000
      6     -16.5240      2.00000
      7     -16.5063      2.00000
      8     -16.5060      2.00000
      9     -16.4729      2.00000
     10     -16.4671      2.00000
     11     -16.4670      2.00000
     12     -16.4588      2.00000
     13     -16.3859      2.00000
     14     -16.3858      2.00000
     15     -16.3854      2.00000
     16     -16.3851      2.00000
     17     -16.3844      2.00000
     18     -16.3844      2.00000
     19     -16.3837      2.00000
     20     -16.3836      2.00000
     21     -16.3795      2.00000
     22     -16.3790      2.00000
     23     -16.3787      2.00000
     24     -16.3783      2.00000
     25     -14.3167      2.00000
     26     -14.1891      2.00000
     27     -14.1351      2.00000
     28     -14.0846      2.00000
     29     -14.0815      2.00000
     30     -14.0626      2.00000
     31     -13.9602      2.00000
     32     -13.9523      2.00000
     33     -13.8898      2.00000
     34     -13.8414      2.00000
     35     -13.8342      2.00000
     36     -13.8136      2.00000
     37      -8.0002      2.00000
     38      -7.5446      2.00000
     39      -7.4859      2.00000
     40      -7.2713      2.00000
     41      -7.2460      2.00000
     42      -7.2435      2.00000
     43      -7.2428      2.00000
     44      -7.2231      2.00000
     45      -7.2219      2.00000
     46      -7.2159      2.00000
     47      -7.2084      2.00000
     48      -7.2015      2.00000
     49      -7.1970      2.00000
     50      -7.1892      2.00000
     51      -7.1874      2.00000
     52      -6.9310      2.00000
     53      -3.3074      2.00000
     54      -3.2211      2.00000
     55      -2.9760      2.00000
     56      -2.8352      2.00000
     57      -2.7522      2.00000
     58      -2.7211      2.00000
     59      -2.2558      2.00000
     60      -2.1406      2.00000
     61      -2.0721      2.00000
     62      -2.0034      2.00000
     63      -1.9901      2.00000
     64      -1.9643      2.00000
     65      -1.8472      2.00000
     66      -1.7322      2.00000
     67      -1.6826      2.00000
     68      -1.6474      2.00000
     69      -1.4975      2.00000
     70      -1.4688      2.00000
     71      -1.4591      2.00000
     72      -1.4329      2.00000
     73      -1.4085      2.00000
     74      -1.3937      2.00000
     75      -1.3308      2.00000
     76      -1.3100      2.00000
     77      -1.2882      2.00000
     78      -1.2404      2.00000
     79      -1.2218      2.00000
     80      -1.2167      2.00000
     81      -1.1560      2.00000
     82      -1.1302      2.00000
     83      -1.0946      2.00000
     84      -1.0469      2.00000
     85      -0.8571      2.00000
     86      -0.7448      2.00000
     87      -0.5885      2.00000
     88      -0.1629      2.00000
     89       2.9580      0.00000
     90       3.2755      0.00000
     91       3.4229      0.00000
     92       3.6471      0.00000
     93       3.7812      0.00000
     94       4.0078      0.00000
     95       4.9273      0.00000
     96       5.0276      0.00000
     97       5.1074      0.00000
     98       5.2458      0.00000
     99       5.7340      0.00000
    100       5.8281      0.00000
    101       6.1381      0.00000
    102       6.2218      0.00000
    103       6.2784      0.00000
    104       6.3594      0.00000
    105       6.4919      0.00000
    106       6.5169      0.00000
    107       6.5767      0.00000
    108       6.6626      0.00000
    109       6.7992      0.00000
    110       6.9119      0.00000
    111       6.9672      0.00000
    112       7.0361      0.00000

 k-point     3 :       0.0000    0.5000    0.0000
  band No.  band energies     occupation 
      1     -20.8277      2.00000
      2     -20.8277      2.00000
      3     -20.8244      2.00000
      4     -20.8244      2.00000
      5     -16.5246      2.00000
      6     -16.5246      2.00000
      7     -16.5108      2.00000
      8     -16.5108      2.00000
      9     -16.4857      2.00000
     10     -16.4857      2.00000
     11     -16.4467      2.00000
     12     -16.4467      2.00000
     13     -16.3859      2.00000
     14     -16.3859      2.00000
     15     -16.3853      2.00000
     16     -16.3853      2.00000
     17     -16.3839      2.00000
     18     -16.3839      2.00000
     19     -16.3839      2.00000
     20     -16.3839      2.00000
     21     -16.3794      2.00000
     22     -16.3794      2.00000
     23     -16.3783      2.00000
     24     -16.3783      2.00000
     25     -14.3072      2.00000
     26     -14.3072      2.00000
     27     -14.0478      2.00000
     28     -14.0478      2.00000
     29     -14.0294      2.00000
     30     -14.0294      2.00000
     31     -14.0155      2.00000
     32     -14.0155      2.00000
     33     -13.8970      2.00000
     34     -13.8970      2.00000
     35     -13.7782      2.00000
     36     -13.7782      2.00000
     37      -7.9644      2.00000
     38      -7.9644      2.00000
     39      -7.2609      2.00000
     40      -7.2609      2.00000
     41      -7.2463      2.00000
     42      -7.2463      2.00000
     43      -7.2285      2.00000
     44      -7.2285      2.00000
     45      -7.2161      2.00000
     46      -7.2161      2.00000
     47      -7.2065      2.00000
     48      -7.2065      2.00000
     49      -7.1999      2.00000
     50      -7.1999      2.00000
     51      -6.9745      2.00000
     52      -6.9745      2.00000
     53      -3.2108      2.00000
     54      -3.2108      2.00000
     55      -3.2088      2.00000
     56      -3.2088      2.00000
     57      -2.5109      2.00000
     58      -2.5109      2.00000
     59      -2.3902      2.00000
     60      -2.3902      2.00000
     61      -2.0148      2.00000
     62      -2.0148      2.00000
     63      -1.8440      2.00000
     64      -1.8440      2.00000
     65      -1.7973      2.00000
     66      -1.7973      2.00000
     67      -1.5184      2.00000
     68      -1.5184      2.00000
     69      -1.5112      2.00000
     70      -1.5112      2.00000
     71      -1.4171      2.00000
     72      -1.4171      2.00000
     73      -1.3882      2.00000
     74      -1.3882      2.00000
     75      -1.3367      2.00000
     76      -1.3367      2.00000
     77      -1.2545      2.00000
     78      -1.2545      2.00000
     79      -1.2111      2.00000
     80      -1.2111      2.00000
     81      -1.1355      2.00000
     82      -1.1355      2.00000
     83      -1.1201      2.00000
     84      -1.1201      2.00000
     85      -0.8787      2.00000
     86      -0.8787      2.00000
     87      -0.1153      2.00000
     88      -0.1153      2.00000
     89       2.8165      0.00000
     90       2.8165      0.00000
     91       2.9934      0.00000
     92       2.9934      0.00000
     93       4.3004      0.00000
     94       4.3004      0.00000
     95       4.8607      0.00000
     96       4.8607      0.00000
     97       5.5497      0.00000
     98       5.5497      0.00000
     99       5.9182      0.00000
    100       5.9182      0.00000
    101       5.9276      0.00000
    102       5.9276      0.00000
    103       6.2421      0.00000
    104       6.2421      0.00000
    105       6.3312      0.00000
[...]
     60      -2.4120      2.00000
     61      -2.2173      2.00000
     62      -2.2173      2.00000
     63      -2.0492      2.00000
     64      -2.0492      2.00000
     65      -1.7149      2.00000
     66      -1.7149      2.00000
     67      -1.6806      2.00000
     68      -1.6806      2.00000
     69      -1.5645      2.00000
     70      -1.5645      2.00000
     71      -1.4846      2.00000
     72      -1.4846      2.00000
     73      -1.3634      2.00000
     74      -1.3634      2.00000
     75      -1.3389      2.00000
     76      -1.3389      2.00000
     77      -1.2382      2.00000
     78      -1.2382      2.00000
     79      -1.1893      2.00000
     80      -1.1893      2.00000
     81      -1.1362      2.00000
     82      -1.1362      2.00000
     83      -1.1165      2.00000
     84      -1.1165      2.00000
     85      -0.9405      2.00000
     86      -0.9405      2.00000
     87      -0.6980      2.00000
     88      -0.6980      2.00000
     89       3.6791      0.00000
     90       3.6791      0.00000
     91       3.6993      0.00000
     92       3.6993      0.00000
     93       4.4323      0.00000
     94       4.4323      0.00000
     95       4.7094      0.00000
     96       4.7094      0.00000
     97       5.0645      0.00000
     98       5.0645      0.00000
     99       5.1277      0.00000
    100       5.1277      0.00000
    101       6.0151      0.00000
    102       6.0151      0.00000
    103       6.2941      0.00000
    104       6.2941      0.00000
    105       6.3689      0.00000
    106       6.3689      0.00000
    107       6.6728      0.00000
    108       6.6728      0.00000
    109       6.8084      0.00000
    110       6.8084      0.00000
    111       6.9241      0.00000
    112       6.9241      0.00000

 k-point     8 :       0.3333    0.5000    0.3333
  band No.  band energies     occupation 
      1     -20.8264      2.00000
      2     -20.8264      2.00000
      3     -20.8255      2.00000
      4     -20.8255      2.00000
      5     -16.5154      2.00000
      6     -16.5154      2.00000
      7     -16.5047      2.00000
      8     -16.5047      2.00000
      9     -16.4824      2.00000
     10     -16.4824      2.00000
     11     -16.4674      2.00000
     12     -16.4674      2.00000
     13     -16.3856      2.00000
     14     -16.3856      2.00000
     15     -16.3855      2.00000
     16     -16.3855      2.00000
     17     -16.3840      2.00000
     18     -16.3840      2.00000
     19     -16.3840      2.00000
     20     -16.3840      2.00000
     21     -16.3790      2.00000
     22     -16.3790      2.00000
     23     -16.3788      2.00000
     24     -16.3788      2.00000
     25     -14.2237      2.00000
     26     -14.2237      2.00000
     27     -14.1497      2.00000
     28     -14.1497      2.00000
     29     -14.0280      2.00000
     30     -14.0280      2.00000
     31     -13.9598      2.00000
     32     -13.9598      2.00000
     33     -13.8797      2.00000
     34     -13.8797      2.00000
     35     -13.8462      2.00000
     36     -13.8462      2.00000
     37      -7.6347      2.00000
     38      -7.6347      2.00000
     39      -7.4011      2.00000
     40      -7.4011      2.00000
     41      -7.2440      2.00000
     42      -7.2440      2.00000
     43      -7.2282      2.00000
     44      -7.2282      2.00000
     45      -7.2138      2.00000
     46      -7.2138      2.00000
     47      -7.2098      2.00000
     48      -7.2098      2.00000
     49      -7.2032      2.00000
     50      -7.2032      2.00000
     51      -7.1840      2.00000
     52      -7.1840      2.00000
     53      -3.1347      2.00000
     54      -3.1347      2.00000
     55      -2.7931      2.00000
     56      -2.7931      2.00000
     57      -2.5598      2.00000
     58      -2.5598      2.00000
     59      -2.4284      2.00000
     60      -2.4284      2.00000
     61      -2.1564      2.00000
     62      -2.1564      2.00000
     63      -2.0212      2.00000
     64      -2.0212      2.00000
     65      -1.7320      2.00000
     66      -1.7320      2.00000
     67      -1.6577      2.00000
     68      -1.6577      2.00000
     69      -1.5268      2.00000
     70      -1.5268      2.00000
     71      -1.4518      2.00000
     72      -1.4518      2.00000
     73      -1.3852      2.00000
     74      -1.3852      2.00000
     75      -1.3168      2.00000
     76      -1.3168      2.00000
     77      -1.2814      2.00000
     78      -1.2814      2.00000
     79      -1.2078      2.00000
     80      -1.2078      2.00000
     81      -1.1549      2.00000
     82      -1.1549      2.00000
     83      -1.1109      2.00000
     84      -1.1109      2.00000
     85      -0.8516      2.00000
     86      -0.8516      2.00000
     87      -0.6026      2.00000
     88      -0.6026      2.00000
     89       3.1488      0.00000
     90       3.1488      0.00000
     91       3.9233      0.00000
     92       3.9233      0.00000
     93       4.5177      0.00000
     94       4.5177      0.00000
     95       4.6417      0.00000
     96       4.6417      0.00000
     97       4.9388      0.00000
     98       4.9388      0.00000
     99       5.6542      0.00000
    100       5.6542      0.00000
    101       6.2409      0.00000
    102       6.2409      0.00000
    103       6.3987      0.00000
    104       6.3987      0.00000
    105       6.5523      0.00000
    106       6.5523      0.00000
    107       6.7329      0.00000
    108       6.7329      0.00000
    109       6.7990      0.00000
    110       6.7990      0.00000
    111       6.9025      0.00000
    112       6.9025      0.00000


--------------------------------------------------------------------------------------------------------


 soft charge-density along one line, spin component           1
         0         1         2         3         4         5         6         7         8         9
 total charge-density along one line

 pseudopotential strength for first ion, spin component:           1
 17.981  -4.707   0.000  -0.000  -0.001  -0.000   0.000   0.001
 -4.707   1.241  -0.000   0.000   0.000   0.000  -0.000  -0.000
  0.000  -0.000   2.269  -0.000  -0.000  -2.715   0.000   0.000
 -0.000   0.000  -0.000   2.269  -0.001   0.000  -2.715   0.001
 -0.001   0.000  -0.000  -0.001   2.269   0.000   0.001  -2.715
 -0.000   0.000  -2.715   0.000   0.000   3.216  -0.000  -0.000
  0.000  -0.000   0.000  -2.715   0.001  -0.000   3.216  -0.001
  0.001  -0.000   0.000   0.001  -2.715  -0.000  -0.001   3.217
 -0.000   0.000  -0.000   0.000   0.000   0.000  -0.000  -0.000
 -0.000   0.000   0.001   0.000   0.000  -0.001  -0.000  -0.000
 -0.000   0.000  -0.000  -0.002   0.000   0.000   0.002  -0.001
 -0.001   0.000   0.000  -0.000   0.000  -0.000   0.001  -0.001
  0.000  -0.000  -0.000  -0.000  -0.001   0.000   0.000   0.001
 total augmentation occupancy for first ion, spin component:           1
  1.911  -0.140   0.000  -0.000  -0.000   0.000  -0.000  -0.001   0.000   0.000   0.000  -0.001  -0.000
 -0.140   0.117   0.000  -0.002  -0.002   0.000   0.000   0.002   0.000  -0.000  -0.000   0.004   0.001
  0.000   0.000   2.017   0.000   0.000   0.003  -0.000   0.000   0.001   0.002   0.000   0.000   0.000
 -0.000  -0.002   0.000   2.017  -0.002   0.000   0.004  -0.002   0.000   0.000  -0.005  -0.001  -0.000
 -0.000  -0.002   0.000  -0.002   2.016   0.000  -0.002   0.003   0.000   0.000   0.001   0.002  -0.003
  0.000   0.000   0.003   0.000   0.000   0.008   0.000   0.000  -0.001  -0.002   0.000   0.000  -0.000
 -0.000   0.000  -0.000   0.004  -0.002   0.000   0.008   0.001  -0.000  -0.000   0.003  -0.000   0.000
 -0.001   0.002   0.000  -0.002   0.003   0.000   0.001   0.008   0.000   0.000  -0.001  -0.001   0.002
  0.000   0.000   0.001   0.000   0.000  -0.001  -0.000   0.000   0.006   0.001   0.000   0.000   0.000
  0.000  -0.000   0.002   0.000   0.000  -0.002  -0.000   0.000   0.001   0.005  -0.000   0.000   0.000
  0.000  -0.000   0.000  -0.005   0.001   0.000   0.003  -0.001   0.000  -0.000   0.005  -0.002  -0.001
 -0.001   0.004   0.000  -0.001   0.002   0.000  -0.000  -0.001   0.000   0.000  -0.002   0.004   0.001
 -0.000   0.001   0.000  -0.000  -0.003  -0.000   0.000   0.002   0.000   0.000  -0.001   0.001   0.004


------------------------ aborting loop because EDIFF is reached ----------------------------------------





 total charge     

# of ion       s       p       d       tot
------------------------------------------
    1        1.786   4.719   0.018   6.522
    2        1.786   4.719   0.018   6.522
    3        1.786   4.719   0.018   6.522
    4        1.786   4.719   0.018   6.522
    5        1.553   0.415   9.832  11.801
    6        1.553   0.415   9.832  11.801
    7        1.553   0.415   9.832  11.801
    8        1.553   0.415   9.832  11.801
    9        1.614   3.286   0.006   4.907
   10        1.614   3.286   0.006   4.907
   11        1.614   3.286   0.006   4.907
   12        1.614   3.286   0.006   4.907
   13        1.614   3.269   0.006   4.890
   14        1.613   3.292   0.005   4.911
   15        1.613   3.292   0.005   4.911
   16        1.614   3.269   0.006   4.890
   17        1.614   3.269   0.006   4.890
   18        1.613   3.292   0.005   4.911
   19        1.614   3.269   0.006   4.890
   20        1.613   3.292   0.005   4.911
--------------------------------------------------
tot         32.720  59.928  39.472 132.121

    CHARGE:  cpu time    0.1299: real time    0.1299
    FORLOC:  cpu time    0.0035: real time    0.0035
    FORNL :  cpu time    0.5402: real time    0.5403
    STRESS:  cpu time   12.1535: real time   12.1540
    FORCOR:  cpu time    0.1020: real time    0.1020
    FORHAR:  cpu time    0.0109: real time    0.0109
    MIXING:  cpu time    0.0012: real time    0.0012
    OFIELD:  cpu time    0.0000: real time    0.0000

  FORCE on cell =-STRESS in cart. coord.  units (eV):
  Direction    XX          YY          ZZ          XY          YZ          ZX
  --------------------------------------------------------------------------------------
  Alpha Z   445.28866   445.28866   445.28866
  Ewald   -3084.98067 -2966.68944 -3141.49867     0.00000     0.00000     0.00000
  Hartree  1218.79461  1291.08372  1178.80401    -0.00000    -0.00000    -0.00000
  E(xc)    -738.77905  -738.62496  -738.76763    -0.00000     0.00000    -0.03577
  Local   -1397.27457 -1587.67996 -1300.82194     0.00000    -0.00000     0.00000
  n-local   898.53117   900.08936   898.29499     0.00000    -0.00000     0.12324
  augment   406.59485   406.37827   406.12129     0.00000    -0.00004    -0.00003
  Kinetic  2249.18048  2249.67487  2250.24606    -0.00000     0.00001    -1.63414
  Fock        0.00000     0.00000     0.00000     0.00000     0.00000     0.00000
  -------------------------------------------------------------------------------------
  Total      -2.64453    -0.47947    -2.33323     0.00000     0.00000     0.00000
  in kB      -5.22906    -0.94806    -4.61351     0.00000     0.00000     0.00000
  external pressure =       -3.60 kB  Pullay stress =        0.00 kB


 VOLUME and BASIS-vectors are now :
 -----------------------------------------------------------------------------
  energy-cutoff  :      300.00
  volume of cell :      810.28
      direct lattice vectors                 reciprocal lattice vectors
     8.504217774  0.000000000  0.000000000     0.117588710  0.000000000  0.000000000
     0.000000000 11.678231979  0.000000000     0.000000000  0.085629400  0.000000000
     0.000000000  0.000000000  8.158760359     0.000000000  0.000000000  0.122567640

  length of vectors
     8.504217774 11.678231979  8.158760359     0.117588710  0.085629400  0.122567640


 FORCES acting on ions
    electron-ion (+dipol)            ewald-force                    non-local-force                 convergence-correction
 -----------------------------------------------------------------------------------------------
   0.291E+02 -.675E-13 -.122E+02   -.290E+02 -.107E-13 0.122E+02   -.116E+00 0.132E-22 -.358E-01   0.193E-04 0.514E-13 -.402E-04
   -.291E+02 0.126E-12 -.122E+02   0.290E+02 0.213E-13 0.122E+02   0.116E+00 0.132E-22 -.358E-01   -.193E-04 -.106E-13 -.402E-04
   0.291E+02 -.193E-12 0.122E+02   -.290E+02 0.284E-13 -.122E+02   -.116E+00 -.132E-22 0.358E-01   0.193E-04 0.615E-13 0.402E-04
   -.291E+02 0.227E-11 0.122E+02   0.290E+02 0.355E-13 -.122E+02   0.116E+00 -.132E-22 0.358E-01   -.193E-04 -.392E-14 0.402E-04
   -.903E-11 -.466E-11 -.229E-10   -.355E-13 -.711E-14 0.284E-13   0.000E+00 0.000E+00 0.102E-23   -.560E-13 -.164E-12 -.258E-13
   0.380E-11 0.687E-11 -.329E-10   0.107E-13 0.117E-12 -.568E-13   0.000E+00 0.000E+00 0.369E-23   -.731E-13 -.188E-12 0.624E-13
   0.465E-11 -.943E-11 -.306E-10   0.000E+00 -.426E-13 -.568E-13   0.000E+00 0.000E+00 -.334E-23   -.699E-13 0.114E-12 0.441E-13
   -.907E-11 0.572E-11 -.230E-10   -.426E-13 0.497E-13 0.711E-13   0.000E+00 0.000E+00 -.144E-23   -.512E-13 0.113E-12 -.324E-13
   0.778E+01 0.180E-11 0.395E+02   -.782E+01 0.142E-13 -.399E+02   0.332E-01 0.000E+00 0.305E+00   0.170E-04 -.294E-13 0.188E-04
   -.778E+01 0.528E-12 0.395E+02   0.782E+01 0.000E+00 -.399E+02   -.332E-01 0.000E+00 0.305E+00   -.170E-04 -.301E-13 0.188E-04
   0.778E+01 0.204E-12 -.395E+02   -.782E+01 0.142E-13 0.399E+02   0.332E-01 0.000E+00 -.305E+00   0.170E-04 -.165E-13 -.188E-04
   -.778E+01 -.179E-11 -.395E+02   0.782E+01 -.284E-13 0.399E+02   -.332E-01 0.000E+00 -.305E+00   -.170E-04 -.122E-13 -.188E-04
   -.179E+02 0.175E+02 0.235E+02   0.180E+02 -.176E+02 -.237E+02   -.148E+00 0.152E+00 0.180E+00   0.122E-04 -.284E-04 -.404E-05
   0.179E+02 -.175E+02 0.235E+02   -.180E+02 0.176E+02 -.237E+02   0.148E+00 -.152E+00 0.180E+00   -.122E-04 0.284E-04 -.404E-05
   -.179E+02 -.175E+02 -.235E+02   0.180E+02 0.176E+02 0.237E+02   -.148E+00 -.152E+00 -.180E+00   0.122E-04 0.284E-04 0.404E-05
   0.179E+02 0.175E+02 -.235E+02   -.180E+02 -.176E+02 0.237E+02   0.148E+00 0.152E+00 -.180E+00   -.122E-04 -.284E-04 0.404E-05
   -.179E+02 -.175E+02 0.235E+02   0.180E+02 0.176E+02 -.237E+02   -.148E+00 -.152E+00 0.180E+00   0.122E-04 0.284E-04 -.404E-05
   0.179E+02 0.175E+02 0.235E+02   -.180E+02 -.176E+02 -.237E+02   0.148E+00 0.152E+00 0.180E+00   -.122E-04 -.284E-04 -.404E-05
   0.179E+02 -.175E+02 -.235E+02   -.180E+02 0.176E+02 0.237E+02   0.148E+00 -.152E+00 -.180E+00   -.122E-04 0.284E-04 0.404E-05
   -.179E+02 0.175E+02 -.235E+02   0.180E+02 -.176E+02 0.237E+02   -.148E+00 0.152E+00 -.180E+00   0.122E-04 -.284E-04 0.404E-05
 -----------------------------------------------------------------------------------------------
   0.602E-10 0.276E-11 -.287E-09   0.000E+00 0.924E-13 0.355E-13   0.000E+00 -.111E-15 0.000E+00   -.240E-12 -.143E-12 0.996E-13


 POSITION                                       TOTAL-FORCE (eV/Angst)
 -----------------------------------------------------------------------------------
      0.51836      2.91956      3.92055        -0.005045     -0.000000      0.001307
      3.73375      8.75867      7.99993         0.005045     -0.000000      0.001307
      4.77047      2.91956      0.15883        -0.005045     -0.000000     -0.001307
      7.98586      8.75867      4.23821         0.005045     -0.000000     -0.001307
      0.00000      0.00000      0.00000         0.000000     -0.000000      0.000000
      4.25211      0.00000      4.07938         0.000000     -0.000000      0.000000
      4.25211      5.83912      4.07938         0.000000     -0.000000      0.000000
      0.00000      5.83912      0.00000         0.000000     -0.000000     -0.000000
      4.35517      8.75867      3.47645         0.007398     -0.000000     -0.006578
      8.40116      2.91956      7.55583        -0.007398     -0.000000     -0.006578
      0.10306      8.75867      0.60293         0.007398     -0.000000      0.006578
      4.14905      2.91956      4.68231        -0.007398     -0.000000      0.006578
      2.48751      5.40706      1.66604        -0.001158      0.001122      0.002953
      1.76460      6.27117      5.74542         0.001158     -0.001122      0.002953
      6.73962      0.43206      2.41334        -0.001158     -0.001122     -0.002953
      6.01671     11.24618      6.49272         0.001158      0.001122     -0.002953
      2.48751      0.43206      1.66604        -0.001158     -0.001122      0.002953
      1.76460     11.24618      5.74542         0.001158      0.001122      0.002953
      6.01671      6.27117      6.49272         0.001158     -0.001122     -0.002953
      6.73962      5.40706      2.41334        -0.001158      0.001122     -0.002953
 -----------------------------------------------------------------------------------
    total drift:                                0.000000      0.000000     -0.000000


--------------------------------------------------------------------------------------------------------



  FREE ENERGIE OF THE ION-ELECTRON SYSTEM (eV)
  ---------------------------------------------------
  free  energy   TOTEN  =      -714.90865718 eV

  energy  without entropy=     -714.90865718  energy(sigma->0) =     -714.90865718



--------------------------------------------------------------------------------------------------------


    POTLOK:  cpu time    1.1899: real time    1.1900


--------------------------------------------------------------------------------------------------------


 stress matrix after NEB project (eV)
     -2.64453      0.00000      0.00000
      0.00000     -0.47947      0.00000
      0.00000      0.00000     -2.33323
  FORCES: max atom, RMS     0.009900    0.005437
  FORCE total and by dimension    0.024315    0.007398
  Stress total and by dimension    3.559127    2.644533
     LOOP+:  cpu time  116.6128: real time  117.0727
    4ORBIT:  cpu time    0.0000: real time    0.0000



 total charge     

# of ion       s       p       d       tot
------------------------------------------
    1        1.786   4.719   0.018   6.522
    2        1.786   4.719   0.018   6.522
    3        1.786   4.719   0.018   6.522
    4        1.786   4.719   0.018   6.522
    5        1.553   0.415   9.832  11.801
    6        1.553   0.415   9.832  11.801
    7        1.553   0.415   9.832  11.801
    8        1.553   0.415   9.832  11.801
    9        1.614   3.286   0.006   4.907
   10        1.614   3.286   0.006   4.907
   11        1.614   3.286   0.006   4.907
   12        1.614   3.286   0.006   4.907
   13        1.614   3.269   0.006   4.890
   14        1.613   3.292   0.005   4.911
   15        1.613   3.292   0.005   4.911
   16        1.614   3.269   0.006   4.890
   17        1.614   3.269   0.006   4.890
   18        1.613   3.292   0.005   4.911
   19        1.614   3.269   0.006   4.890
   20        1.613   3.292   0.005   4.911
--------------------------------------------------
tot         32.720  59.928  39.472 132.121


 total amount of memory used by VASP MPI-rank0    42344. kBytes
=======================================================================

   base      :      30000. kBytes
   nonlr-proj:       2971. kBytes
   fftplans  :       3667. kBytes
   grid      :       3424. kBytes
   one-center:         46. kBytes
   wavefun   :       2236. kBytes

  
  
 General timing and accounting informations for this job:
 ========================================================
  
                  Total CPU time used (sec):      123.014
                            User time (sec):      122.234
                          System time (sec):        0.780
                         Elapsed time (sec):      123.505
  
                   Maximum memory used (kb):       78352.
                   Average memory used (kb):           0.
  
                          Minor page faults:        19087
                          Major page faults:            1
                 Voluntary context switches:         1572
