 running on   64 total cores
 distrk:  each k-point on   64 cores,    1 groups
 distr:  one band on    8 cores,    8 groups
 using from now: INCAR     
 vasp.5.4.4.18Apr17-6-g9f103f2a35 (build Jun 29 2021 12:14:42) complex           
 POSCAR found type information on POSCAR  Cs Pb Br
 POSCAR found :  3 types and      20 ions
 scaLAPACK will be used
 LDA part: xc-table for Pade appr. of Perdew
 POSCAR found type information on POSCAR  Cs Pb Br
 POSCAR found :  3 types and      20 ions
 POSCAR, INCAR and KPOINTS ok, starting setup
 FFT: planning ...
 WAVECAR not read
 entering main loop
       N       E                     dE             d eps       ncg     rms          rms(c)
DAV:   1     0.660342010500E+03    0.66034E+03   -0.56112E+04  1856   0.921E+02
DAV:   2    -0.574890516000E+03   -0.12352E+04   -0.11840E+04  2184   0.286E+02
DAV:   3    -0.749067828045E+03   -0.17418E+03   -0.17310E+03  2440   0.128E+02
DAV:   4    -0.754557135488E+03   -0.54893E+01   -0.54738E+01  2168   0.297E+01
DAV:   5    -0.754799593830E+03   -0.24246E+00   -0.24233E+00  2360   0.503E+00    0.699E+00
DAV:   6    -0.715001769954E+03    0.39798E+02   -0.11846E+01  2368   0.284E+01    0.497E+00
DAV:   7    -0.714768723109E+03    0.23305E+00   -0.38789E+00  2248   0.484E+00    0.258E+00
DAV:   8    -0.714864661674E+03   -0.95939E-01   -0.18175E-01  2184   0.170E+00    0.149E+00
DAV:   9    -0.714906205958E+03   -0.41544E-01   -0.84413E-02  2016   0.120E+00    0.326E-01
DAV:  10    -0.714907023591E+03   -0.81763E-03   -0.47754E-03  2544   0.321E-01    0.183E-01
DAV:  11    -0.714908586365E+03   -0.15628E-02   -0.17140E-03  2032   0.167E-01    0.674E-02
DAV:  12    -0.714908627827E+03   -0.41462E-04   -0.46316E-04  2144   0.936E-02    0.230E-02
DAV:  13    -0.714908644062E+03   -0.16235E-04   -0.40451E-05  2200   0.238E-02    0.665E-03
DAV:  14    -0.714908657951E+03   -0.13889E-04   -0.24486E-06  1608   0.526E-03    0.208E-03
DAV:  15    -0.714908662433E+03   -0.44818E-05   -0.55005E-07  1272   0.384E-03    0.848E-04
DAV:  16    -0.714908659051E+03    0.33815E-05   -0.15559E-07  1168   0.201E-03    0.518E-04
DAV:  17    -0.714908657541E+03    0.15102E-05   -0.45978E-08  1112   0.105E-03    0.406E-04
DAV:  18    -0.714908657180E+03    0.36091E-06   -0.22936E-08  1088   0.748E-04
   1 F= -.71490866E+03 E0= -.71490866E+03  d E =-.154266E-11
Application 1866223 resources: utime ~7824s, stime ~68s, Rss ~78352, inblocks ~1328, outblocks ~50744
