CsPbBr3 cubic bulk                      
           1
     8.504218    0.000000    0.000000
     0.000000   11.678232    0.000000
     0.000000    0.000000    8.158760
   Cs   Pb   Br
   4   4  12
Direct configuration=     1
   0.06095328  0.25000000  0.48053312
   0.43904672  0.75000000  0.98053312
   0.56095328  0.25000000  0.01946688
   0.93904672  0.75000000  0.51946688
   0.00000000  0.00000000  0.00000000
   0.50000000  0.00000000  0.50000000
   0.50000000  0.50000000  0.50000000
   0.00000000  0.50000000  0.00000000
   0.51211879  0.75000000  0.42610047
   0.98788121  0.25000000  0.92610047
   0.01211879  0.75000000  0.07389953
   0.48788121  0.25000000  0.57389953
   0.29250272  0.46300327  0.20420216
   0.20749728  0.53699673  0.70420216
   0.79250272  0.03699673  0.29579784
   0.70749728  0.96300327  0.79579784
   0.29250272  0.03699673  0.20420216
   0.20749728  0.96300327  0.70420216
   0.70749728  0.53699673  0.79579784
   0.79250272  0.46300327  0.29579784
