       N       E                     dE             d eps       ncg     rms          rms(c)
DAV:   1     0.133740229876E+04    0.13374E+04   -0.11061E+05  3480   0.973E+02
DAV:   2    -0.110994990134E+04   -0.24474E+04   -0.23617E+04  4096   0.300E+02
DAV:   3    -0.147312515842E+04   -0.36318E+03   -0.36118E+03  4424   0.138E+02
DAV:   4    -0.148532689926E+04   -0.12202E+02   -0.12167E+02  3928   0.333E+01
DAV:   5    -0.148587800225E+04   -0.55110E+00   -0.55084E+00  4464   0.549E+00    0.115E+01
DAV:   6    -0.140815664986E+04    0.77721E+02   -0.23440E+01  4288   0.311E+01    0.802E+00
DAV:   7    -0.140764206298E+04    0.51459E+00   -0.89861E+00  4264   0.578E+00    0.383E+00
DAV:   8    -0.140780685307E+04   -0.16479E+00   -0.47645E-01  4072   0.214E+00    0.219E+00
DAV:   9    -0.140786383272E+04   -0.56980E-01   -0.14678E-01  3904   0.125E+00    0.433E-01
DAV:  10    -0.140786702970E+04   -0.31970E-02   -0.19327E-02  4728   0.435E-01    0.315E-01
DAV:  11    -0.140786997369E+04   -0.29440E-02   -0.36264E-03  4080   0.180E-01    0.123E-01
DAV:  12    -0.140787256451E+04   -0.25908E-02   -0.45644E-03  3696   0.181E-01    0.110E-01
DAV:  13    -0.140787215331E+04    0.41121E-03   -0.18096E-03  4568   0.121E-01    0.487E-02
DAV:  14    -0.140787216865E+04   -0.15342E-04   -0.40721E-04  3880   0.393E-02    0.299E-02
DAV:  15    -0.140787218178E+04   -0.13135E-04   -0.46769E-05  3688   0.163E-02    0.154E-02
DAV:  16    -0.140787224264E+04   -0.60853E-04   -0.37130E-05  4088   0.183E-02    0.725E-03
DAV:  17    -0.140787223911E+04    0.35233E-05   -0.71184E-06  3824   0.723E-03    0.414E-03
DAV:  18    -0.140787223628E+04    0.28273E-05   -0.19233E-06  2752   0.299E-03    0.213E-03
DAV:  19    -0.140787223295E+04    0.33365E-05   -0.53852E-07  2256   0.208E-03    0.137E-03
DAV:  20    -0.140787223169E+04    0.12593E-05   -0.34136E-07  2152   0.143E-03    0.104E-03
DAV:  21    -0.140787223167E+04    0.20839E-07   -0.95559E-08  2008   0.977E-04
   1 F= -.14078722E+04 E0= -.14078722E+04  d E =-.511089E-17
