<?xml version="1.0" encoding="ISO-8859-1"?>
<modeling>
 <generator>
  <i name="program" type="string">vasp </i>
  <i name="version" type="string">5.4.4.18Apr17-6-g9f103f2a35  </i>
  <i name="subversion" type="string">(build Jun 22 2020 09:27:21) complex            parallel </i>
  <i name="platform" type="string">tx2_gcc-7.3_libsci-18.07_cray-fftw-3.3.8 </i>
  <i name="date" type="string">2021 10 11 </i>
  <i name="time" type="string">20:45:04 </i>
 </generator>
 <incar>
  <i type="string" name="SYSTEM"> CsPbBr3 cubic bulk</i>
  <i type="string" name="PREC">accurate</i>
  <i type="string" name="ALGO"> NORMAL   ! Electronic minimisation algo</i>
  <i type="logical" name="ADDGRID"> T  </i>
  <i type="int" name="ISPIN">     1</i>
  <i type="int" name="NELM">   200</i>
  <i type="int" name="IBRION">     2</i>
  <i name="EDIFF">      0.00000100</i>
  <i name="EDIFFG">     -0.01000000</i>
  <i type="int" name="NSW">     0</i>
  <i type="int" name="ISIF">     2</i>
  <i type="int" name="ISYM">     0</i>
  <i name="ENCUT">    300.00000000</i>
  <i name="POTIM">      0.50000000</i>
  <i name="NUPDOWN">      0.00000000</i>
  <i name="NELECT">    344.00000000</i>
  <i type="string" name="LREAL"> AUTO</i>
  <i type="int" name="ISMEAR">     0</i>
  <i name="SIGMA">      0.01000000</i>
  <i type="logical" name="LWAVE"> F  </i>
  <i type="logical" name="LCHARG"> F  </i>
  <i type="logical" name="LVHAR"> T  </i>
  <i type="int" name="LORBIT">    10</i>
  <i type="logical" name="LASPH"> T  </i>
  <v type="int" name="KPOINT_BSE">    -1     0     0     0</v>
  <i type="int" name="NELM">   200</i>
  <i type="string" name="METAGGA"> SCAN       ! PBE exchange-correlation</i>
  <i type="logical" name="LASPH"> T  </i>
 </incar>
 <structure name="primitive_cell" >
  <crystal>
   <varray name="basis" >
    <v>       8.45648900       0.00000000       8.04030100 </v>
    <v>       0.00000000      11.72984700       0.00000000 </v>
    <v>      -8.45648900       0.00000000       8.04030100 </v>
   </varray>
   <i name="volume">   1595.08833419 </i>
   <varray name="rec_basis" >
    <v>       0.05912619      -0.00000000       0.06218673 </v>
    <v>       0.00000000       0.08525260      -0.00000000 </v>
    <v>      -0.05912619       0.00000000       0.06218673 </v>
   </varray>
  </crystal>
  <varray name="positions" >
   <v>       0.25906500       0.24132100       0.19974800 </v>
   <v>       0.04611600       0.02767200       0.25285800 </v>
   <v>       0.05402200       0.46888500       0.25266800 </v>
   <v>      -0.47427700       0.25192600       0.04620400 </v>
   <v>       0.45156000       0.25202900       0.46383400 </v>
   <v>       0.24770700       0.02933200      -0.05082000 </v>
   <v>       0.24846500       0.46799700      -0.04731800 </v>
   <v>       0.45204000      -0.04206100       0.25026200 </v>
   <v>      -0.02957100       0.24987400      -0.02805600 </v>
   <v>      -0.00030100       0.00018700      -0.00078700 </v>
   <v>       0.49972900       0.00053600       0.00025000 </v>
   <v>       0.03260800       0.25041800      -0.46837900 </v>
   <v>      -0.00036500       0.49949300       0.00006700 </v>
   <v>      -0.49855700       0.49839200      -0.00792500 </v>
   <v>       0.49931300       0.00690200       0.49897300 </v>
   <v>       0.25507700      -0.03971300      -0.45054900 </v>
   <v>       0.49957800       0.49328600      -0.49585800 </v>
   <v>       0.25611400      -0.45955300      -0.44927700 </v>
   <v>      -0.20306600       0.24949500       0.22861500 </v>
   <v>       0.28413700       0.24693700      -0.26839600 </v>
   <v>       0.00107700       0.00022300      -0.49904800 </v>
   <v>       0.00046700      -0.49986100      -0.49980400 </v>
   <v>       0.21856500      -0.24636600       0.28686100 </v>
   <v>       0.49753200      -0.35232300       0.38541000 </v>
   <v>       0.02420900      -0.25048700       0.03076100 </v>
   <v>      -0.25299700       0.03437100       0.45058600 </v>
   <v>      -0.25439200       0.46866600       0.44766100 </v>
   <v>      -0.44996500       0.03701700      -0.24835500 </v>
   <v>      -0.24822200      -0.02770900       0.04759400 </v>
   <v>       0.47158300      -0.25159400      -0.03825500 </v>
   <v>      -0.44550700       0.46293200      -0.25043900 </v>
   <v>      -0.25036000      -0.46950400       0.05256800 </v>
   <v>      -0.05027300      -0.03259800      -0.25217000 </v>
   <v>      -0.05184900      -0.46830400      -0.25248300 </v>
   <v>      -0.02942000      -0.24993600       0.46999600 </v>
   <v>       0.20036900      -0.24914100      -0.22450300 </v>
   <v>      -0.21890000       0.24634600      -0.28864200 </v>
   <v>      -0.27257700      -0.24223700       0.26510800 </v>
   <v>      -0.26424400      -0.24659600      -0.19863000 </v>
  </varray>
 </structure>
 <varray name="primitive_index" >
  <v type="int" >        1 </v>
  <v type="int" >       28 </v>
  <v type="int" >       38 </v>
  <v type="int" >       22 </v>
  <v type="int" >       20 </v>
  <v type="int" >       31 </v>
  <v type="int" >       24 </v>
  <v type="int" >       33 </v>
  <v type="int" >       19 </v>
  <v type="int" >        9 </v>
  <v type="int" >       11 </v>
  <v type="int" >       23 </v>
  <v type="int" >       15 </v>
  <v type="int" >       13 </v>
  <v type="int" >       10 </v>
  <v type="int" >       30 </v>
  <v type="int" >       16 </v>
  <v type="int" >       36 </v>
  <v type="int" >        6 </v>
  <v type="int" >        5 </v>
  <v type="int" >       12 </v>
  <v type="int" >       14 </v>
  <v type="int" >        8 </v>
  <v type="int" >       39 </v>
  <v type="int" >       21 </v>
  <v type="int" >       32 </v>
  <v type="int" >       25 </v>
  <v type="int" >       27 </v>
  <v type="int" >       29 </v>
  <v type="int" >       17 </v>
  <v type="int" >       37 </v>
  <v type="int" >       35 </v>
  <v type="int" >       34 </v>
  <v type="int" >       26 </v>
  <v type="int" >       18 </v>
  <v type="int" >        4 </v>
  <v type="int" >        2 </v>
  <v type="int" >        3 </v>
  <v type="int" >        7 </v>
 </varray>
 <kpoints>
  <generation param="Gamma">
   <v type="int" name="divisions">       2        2        2 </v>
   <v name="usershift">      0.00000000       0.00000000       0.00000000 </v>
   <v name="genvec1">      0.50000000       0.00000000       0.00000000 </v>
   <v name="genvec2">      0.00000000       0.50000000       0.00000000 </v>
   <v name="genvec3">      0.00000000       0.00000000       0.50000000 </v>
   <v name="shift">      0.00000000       0.00000000       0.00000000 </v>
  </generation>
  <varray name="kpointlist" >
   <v>       0.00000000       0.00000000       0.00000000 </v>
   <v>       0.50000000       0.00000000       0.00000000 </v>
   <v>       0.00000000       0.50000000       0.00000000 </v>
   <v>       0.50000000       0.50000000       0.00000000 </v>
   <v>       0.00000000       0.00000000       0.50000000 </v>
   <v>       0.50000000       0.00000000       0.50000000 </v>
   <v>       0.00000000       0.50000000       0.50000000 </v>
   <v>       0.50000000       0.50000000       0.50000000 </v>
  </varray>
  <varray name="weights" >
   <v>       0.12500000 </v>
   <v>       0.12500000 </v>
   <v>       0.12500000 </v>
   <v>       0.12500000 </v>
   <v>       0.12500000 </v>
   <v>       0.12500000 </v>
   <v>       0.12500000 </v>
   <v>       0.12500000 </v>
  </varray>
 </kpoints>
 <parameters>
  <separator name="general" >
   <i type="string" name="SYSTEM">CsPbBr3 cubic bulk</i>
   <i type="logical" name="LCOMPAT"> F  </i>
  </separator>
  <separator name="electronic" >
   <i type="string" name="PREC">accura</i>
   <i name="ENMAX">    300.00000000</i>
   <i name="ENAUG">    503.85200000</i>
   <i name="EDIFF">      0.00000100</i>
   <i type="int" name="IALGO">    38</i>
   <i type="int" name="IWAVPR">    10</i>
   <i type="int" name="NBANDS">   208</i>
   <i name="NELECT">    344.00000000</i>
   <i type="int" name="TURBO">     0</i>
   <i type="int" name="IRESTART">     0</i>
   <i type="int" name="NREBOOT">     0</i>
   <i type="int" name="NMIN">     0</i>
   <i name="EREF">      0.00000000</i>
   <separator name="electronic smearing" >
    <i type="int" name="ISMEAR">     0</i>
    <i name="SIGMA">      0.01000000</i>
    <i name="KSPACING">      0.50000000</i>
    <i type="logical" name="KGAMMA"> T  </i>
   </separator>
   <separator name="electronic projectors" >
    <i type="logical" name="LREAL"> T  </i>
    <v name="ROPT">     -0.00025000     -0.00025000     -0.00025000</v>
    <i type="int" name="LMAXPAW">  -100</i>
    <i type="int" name="LMAXMIX">     2</i>
    <i type="logical" name="NLSPLINE"> F  </i>
   </separator>
   <separator name="electronic startup" >
    <i type="int" name="ISTART">     0</i>
    <i type="int" name="ICHARG">     2</i>
    <i type="int" name="INIWAV">     1</i>
   </separator>
   <separator name="electronic spin" >
    <i type="int" name="ISPIN">     1</i>
    <i type="logical" name="LNONCOLLINEAR"> F  </i>
    <v name="MAGMOM">      0.00000000      0.00000000      0.00000000      0.00000000      0.00000000      0.00000000      0.00000000      0.00000000      0.00000000      0.00000000      0.00000000      0.00000000      0.00000000      0.00000000      0.00000000      0.00000000      0.00000000      0.00000000      0.00000000      0.00000000
      0.00000000      0.00000000      0.00000000      0.00000000      0.00000000      0.00000000      0.00000000      0.00000000      0.00000000      0.00000000      0.00000000      0.00000000      0.00000000      0.00000000      0.00000000      0.00000000      0.00000000      0.00000000      0.00000000</v>
    <i name="NUPDOWN">      0.00000000</i>
    <i type="logical" name="LSORBIT"> F  </i>
    <v name="SAXIS">      0.00000000      0.00000000      1.00000000</v>
    <i type="logical" name="LSPIRAL"> F  </i>
    <v name="QSPIRAL">      0.00000000      0.00000000      0.00000000</v>
    <i type="logical" name="LZEROZ"> F  </i>
   </separator>
   <separator name="electronic exchange-correlation" >
    <i type="logical" name="LASPH"> T  </i>
    <i type="logical" name="LMETAGGA"> F  </i>
   </separator>
   <separator name="electronic convergence" >
    <i type="int" name="NELM">   200</i>
    <i type="int" name="NELMDL">    -5</i>
    <i type="int" name="NELMIN">     2</i>
    <i name="ENINI">    300.00000000</i>
    <separator name="electronic convergence detail" >
     <i type="logical" name="LDIAG"> T  </i>
     <i type="logical" name="LSUBROT"> F  </i>
     <i name="WEIMIN">      0.00000000</i>
     <i name="EBREAK">      0.00000000</i>
     <i name="DEPER">      0.30000000</i>
     <i type="int" name="NRMM">     4</i>
     <i name="TIME">      0.40000000</i>
    </separator>
   </separator>
   <separator name="electronic mixer" >
    <i name="AMIX">      0.40000000</i>
    <i name="BMIX">      1.00000000</i>
    <i name="AMIN">      0.10000000</i>
    <i name="AMIX_MAG">      1.60000000</i>
    <i name="BMIX_MAG">      1.00000000</i>
    <separator name="electronic mixer details" >
     <i type="int" name="IMIX">     4</i>
     <i type="logical" name="MIXFIRST"> F  </i>
     <i type="int" name="MAXMIX">   -45</i>
     <i name="WC">    100.00000000</i>
     <i type="int" name="INIMIX">     1</i>
     <i type="int" name="MIXPRE">     1</i>
     <i type="int" name="MREMOVE">     5</i>
    </separator>
   </separator>
   <separator name="electronic dipolcorrection" >
    <i type="logical" name="LDIPOL"> F  </i>
    <i type="logical" name="LMONO"> F  </i>
    <i type="int" name="IDIPOL">     0</i>
    <i name="EPSILON">      1.00000000</i>
    <v name="DIPOL">   -100.00000000   -100.00000000   -100.00000000</v>
    <i name="EFIELD">      0.00000000</i>
   </separator>
  </separator>
  <separator name="grids" >
   <i type="int" name="NGX">    70</i>
   <i type="int" name="NGY">    70</i>
   <i type="int" name="NGZ">    70</i>
   <i type="int" name="NGXF">   140</i>
   <i type="int" name="NGYF">   140</i>
   <i type="int" name="NGZF">   140</i>
   <i type="logical" name="ADDGRID"> T  </i>
  </separator>
  <separator name="ionic" >
   <i type="int" name="NSW">     0</i>
   <i type="int" name="IBRION">    -1</i>
   <i type="int" name="MDALGO">     0</i>
   <i type="int" name="ISIF">     2</i>
   <i name="PSTRESS">      0.00000000</i>
   <i name="EDIFFG">     -0.01000000</i>
   <i type="int" name="NFREE">     1</i>
   <i name="POTIM">      0.50000000</i>
   <i name="SMASS">     -3.00000000</i>
   <i name="SCALEE">      1.00000000</i>
  </separator>
  <separator name="ionic md" >
   <i name="TEBEG">      0.00010000</i>
   <i name="TEEND">      0.00010000</i>
   <i type="int" name="NBLOCK">     1</i>
   <i type="int" name="KBLOCK">     1</i>
   <i type="int" name="NPACO">   256</i>
   <i name="APACO">     16.00000000</i>
  </separator>
  <separator name="symmetry" >
   <i type="int" name="ISYM">     0</i>
   <i name="SYMPREC">      0.00001000</i>
  </separator>
  <separator name="dos" >
   <i type="int" name="LORBIT">    10</i>
   <v name="RWIGS">     -1.00000000     -1.00000000     -1.00000000</v>
   <i type="int" name="NEDOS">   301</i>
   <i name="EMIN">     10.00000000</i>
   <i name="EMAX">    -10.00000000</i>
   <i name="EFERMI">      0.00000000</i>
  </separator>
  <separator name="writing" >
   <i type="int" name="NWRITE">     2</i>
   <i type="logical" name="LWAVE"> F  </i>
   <i type="logical" name="LDOWNSAMPLE"> F  </i>
   <i type="logical" name="LCHARG"> F  </i>
   <i type="logical" name="LPARD"> F  </i>
   <i type="logical" name="LVTOT"> F  </i>
   <i type="logical" name="LVHAR"> T  </i>
   <i type="logical" name="LELF"> F  </i>
   <i type="logical" name="LOPTICS"> F  </i>
   <v name="STM">      0.00000000      0.00000000      0.00000000      0.00000000      0.00000000      0.00000000      0.00000000</v>
  </separator>
  <separator name="performance" >
   <i type="int" name="NPAR">     8</i>
   <i type="int" name="NSIM">     4</i>
   <i type="int" name="NBLK">    -1</i>
   <i type="logical" name="LPLANE"> T  </i>
   <i type="logical" name="LSCALAPACK"> T  </i>
   <i type="logical" name="LSCAAWARE"> F  </i>
   <i type="logical" name="LSCALU"> F  </i>
   <i type="logical" name="LASYNC"> F  </i>
   <i type="logical" name="LORBITALREAL"> F  </i>
  </separator>
  <separator name="miscellaneous" >
   <i type="int" name="IDIOT">     3</i>
   <i type="int" name="ISPECIAL">     0</i>
   <i type="logical" name="LMUSIC"> F  </i>
   <v name="POMASS">    132.90000000    207.20000000     79.90400000</v>
   <v name="DARWINR">      0.00000000      0.00000000      0.00000000</v>
   <v name="DARWINV">      1.00000000      1.00000000      1.00000000</v>
   <i type="logical" name="LCORR"> T  </i>
  </separator>
  <i type="logical" name="GGA_COMPAT"> T  </i>
  <i type="logical" name="LBERRY"> F  </i>
  <i type="int" name="ICORELEVEL">     0</i>
  <i type="logical" name="LDAU"> F  </i>
  <i type="int" name="I_CONSTRAINED_M">     0</i>
  <separator name="electronic exchange-correlation" >
   <i type="string" name="GGA">--</i>
   <i type="int" name="VOSKOWN">     0</i>
   <i type="logical" name="LHFCALC"> F  </i>
   <i type="string" name="PRECFOCK"></i>
   <i type="logical" name="LSYMGRAD"> F  </i>
   <i type="logical" name="LHFONE"> F  </i>
   <i type="logical" name="LRHFCALC"> F  </i>
   <i type="logical" name="LTHOMAS"> F  </i>
   <i type="logical" name="LMODELHF"> F  </i>
   <i name="ENCUT4O">     -1.00000000</i>
   <i type="int" name="EXXOEP">     0</i>
   <i type="int" name="FOURORBIT">     0</i>
   <i name="AEXX">      0.00000000</i>
   <i name="HFALPHA">      0.00000000</i>
   <i name="MCALPHA">      0.00000000</i>
   <i name="ALDAX">      1.00000000</i>
   <i name="AGGAX">      1.00000000</i>
   <i name="ALDAC">      1.00000000</i>
   <i name="AGGAC">      1.00000000</i>
   <i type="int" name="NKREDX">     1</i>
   <i type="int" name="NKREDY">     1</i>
   <i type="int" name="NKREDZ">     1</i>
   <i type="logical" name="SHIFTRED"> F  </i>
   <i type="logical" name="ODDONLY"> F  </i>
   <i type="logical" name="EVENONLY"> F  </i>
   <i type="int" name="LMAXFOCK">     0</i>
   <i type="int" name="NMAXFOCKAE">     0</i>
   <i type="logical" name="LFOCKAEDFT"> F  </i>
   <i name="HFSCREEN">      0.00000000</i>
   <i name="HFSCREENC">      0.00000000</i>
   <i type="int" name="NBANDSGWLOW">     0</i>
  </separator>
  <separator name="vdW DFT" >
   <i type="logical" name="LUSE_VDW"> F  </i>
   <i name="Zab_VDW">     -0.84910000</i>
   <i name="PARAM1">      0.12340000</i>
   <i name="PARAM2">      1.00000000</i>
   <i name="PARAM3">      0.00000000</i>
  </separator>
  <separator name="model GW" >
   <i type="int" name="MODEL_GW">     0</i>
   <i name="MODEL_EPS0">     24.53982053</i>
   <i name="MODEL_ALPHA">      1.00000000</i>
  </separator>
  <separator name="linear response parameters" >
   <i type="logical" name="LEPSILON"> F  </i>
   <i type="logical" name="LRPA"> F  </i>
   <i type="logical" name="LNABLA"> F  </i>
   <i type="logical" name="LVEL"> F  </i>
   <i type="int" name="KINTER">     0</i>
   <i name="CSHIFT">      0.10000000</i>
   <i name="OMEGAMAX">     -1.00000000</i>
   <i name="DEG_THRESHOLD">      0.00200000</i>
   <i name="RTIME">     -0.10000000</i>
   <i name="WPLASMAI">      0.00000000</i>
   <v name="DFIELD">      0.00000000      0.00000000      0.00000000</v>
   <v name="WPLASMA">      0.00000000      0.00000000      0.00000000      0.00000000      0.00000000      0.00000000      0.00000000      0.00000000      0.00000000</v>
  </separator>
  <separator name="orbital magnetization" >
   <i type="logical" name="NUCIND"> F  </i>
   <v name="MAGPOS">      0.00000000      0.00000000      0.00000000</v>
   <i type="logical" name="LNICSALL"> T  </i>
   <i type="logical" name="ORBITALMAG"> F  </i>
   <i type="logical" name="LMAGBLOCH"> F  </i>
   <i type="logical" name="LCHIMAG"> F  </i>
   <i type="logical" name="LGAUGE"> T  </i>
   <i type="int" name="MAGATOM">     0</i>
   <v name="MAGDIPOL">      0.00000000      0.00000000      0.00000000</v>
   <v name="AVECCONST">      0.00000000      0.00000000      0.00000000</v>
  </separator>
  <separator name="response functions" >
   <i type="logical" name="LADDER"> F  </i>
   <i type="logical" name="LRPAFORCE"> F  </i>
   <i type="logical" name="LFXC"> F  </i>
   <i type="logical" name="LHARTREE"> T  </i>
   <i type="int" name="IBSE">     0</i>
   <v type="int" name="KPOINT">    -1     0     0     0</v>
   <i type="logical" name="LTCTE"> F  </i>
   <i type="logical" name="LTETE"> F  </i>
   <i type="logical" name="LTRIPLET"> F  </i>
   <i type="logical" name="LFXCEPS"> F  </i>
   <i type="logical" name="LFXHEG"> F  </i>
   <i type="int" name="NATURALO">     2</i>
   <i type="logical" name="L2ORDER"> F  </i>
   <i type="logical" name="LMP2LT"> F  </i>
   <i type="logical" name="LUSEW"> F  </i>
   <i name="ENCUTGW">     -2.00000000</i>
   <i name="ENCUTGWSOFT">     -2.00000000</i>
   <i name="ENCUTLF">     -1.00000000</i>
   <i type="int" name="LMAXMP2">    -1</i>
   <i name="SCISSOR">      0.00000000</i>
   <i type="int" name="NOMEGA">     0</i>
   <i type="int" name="NOMEGAR">     0</i>
   <i type="int" name="NBANDSGW">    -1</i>
   <i type="int" name="NBANDSO">    -1</i>
   <i type="int" name="NBANDSV">    -1</i>
   <i type="int" name="NELM">   200</i>
   <i type="int" name="NELMHF">     1</i>
   <i type="int" name="DIM">     3</i>
   <i type="int" name="ANTIRES">     0</i>
   <i name="OMEGAMAX">    -30.00000000</i>
   <i name="OMEGAMIN">    -30.00000000</i>
   <i name="OMEGATL">   -200.00000000</i>
   <i type="int" name="OMEGAGRID">   140</i>
   <i name="CSHIFT">     -0.10000000</i>
   <i type="logical" name="SELFENERGY"> F  </i>
   <i type="logical" name="LSPECTRAL"> F  </i>
   <i type="logical" name="LSPECTRALGW"> F  </i>
   <i type="logical" name="LSINGLES"> F  </i>
   <i type="logical" name="LFERMIGW"> F  </i>
   <i type="logical" name="ODDONLYGW"> F  </i>
   <i type="logical" name="EVENONLYGW"> F  </i>
   <i type="int" name="NKREDLFX">     1</i>
   <i type="int" name="NKREDLFY">     1</i>
   <i type="int" name="NKREDLFZ">     1</i>
   <i type="int" name="MAXMEM">  2800</i>
   <i type="int" name="TELESCOPE">     0</i>
   <i type="int" name="TAUPAR">     1</i>
   <i type="int" name="OMEGAPAR">    -1</i>
   <i name="LAMBDA">      1.00000000</i>
  </separator>
  <separator name="External order field" >
   <i name="OFIELD_KAPPA">      0.00000000</i>
   <v name="OFIELD_K">      0.00000000      0.00000000      0.00000000</v>
   <i name="OFIELD_Q6_NEAR">      0.00000000</i>
   <i name="OFIELD_Q6_FAR">      0.00000000</i>
   <i name="OFIELD_A">      0.00000000</i>
  </separator>
 </parameters>
 <atominfo>
  <atoms>      39 </atoms>
  <types>       3 </types>
  <array name="atoms" >
   <dimension dim="1">ion</dimension>
   <field type="string">element</field>
   <field type="int">atomtype</field>
   <set>
    <rc><c>Cs</c><c>   1</c></rc>
    <rc><c>Cs</c><c>   1</c></rc>
    <rc><c>Cs</c><c>   1</c></rc>
    <rc><c>Cs</c><c>   1</c></rc>
    <rc><c>Cs</c><c>   1</c></rc>
    <rc><c>Cs</c><c>   1</c></rc>
    <rc><c>Cs</c><c>   1</c></rc>
    <rc><c>Cs</c><c>   1</c></rc>
    <rc><c>Pb</c><c>   2</c></rc>
    <rc><c>Pb</c><c>   2</c></rc>
    <rc><c>Pb</c><c>   2</c></rc>
    <rc><c>Pb</c><c>   2</c></rc>
    <rc><c>Pb</c><c>   2</c></rc>
    <rc><c>Pb</c><c>   2</c></rc>
    <rc><c>Pb</c><c>   2</c></rc>
    <rc><c>Pb</c><c>   2</c></rc>
    <rc><c>Br</c><c>   3</c></rc>
    <rc><c>Br</c><c>   3</c></rc>
    <rc><c>Br</c><c>   3</c></rc>
    <rc><c>Br</c><c>   3</c></rc>
    <rc><c>Br</c><c>   3</c></rc>
    <rc><c>Br</c><c>   3</c></rc>
    <rc><c>Br</c><c>   3</c></rc>
    <rc><c>Br</c><c>   3</c></rc>
    <rc><c>Br</c><c>   3</c></rc>
    <rc><c>Br</c><c>   3</c></rc>
    <rc><c>Br</c><c>   3</c></rc>
    <rc><c>Br</c><c>   3</c></rc>
    <rc><c>Br</c><c>   3</c></rc>
    <rc><c>Br</c><c>   3</c></rc>
    <rc><c>Br</c><c>   3</c></rc>
    <rc><c>Br</c><c>   3</c></rc>
    <rc><c>Br</c><c>   3</c></rc>
    <rc><c>Br</c><c>   3</c></rc>
    <rc><c>Br</c><c>   3</c></rc>
    <rc><c>Br</c><c>   3</c></rc>
    <rc><c>Br</c><c>   3</c></rc>
    <rc><c>Br</c><c>   3</c></rc>
    <rc><c>Br</c><c>   3</c></rc>
   </set>
  </array>
  <array name="atomtypes" >
   <dimension dim="1">type</dimension>
   <field type="int">atomspertype</field>
   <field type="string">element</field>
   <field>mass</field>
   <field>valence</field>
   <field type="string">pseudopotential</field>
   <set>
    <rc><c>   8</c><c>Cs</c><c>    132.90000000</c><c>      9.00000000</c><c>  PAW_PBE Cs_sv 08Apr2002               </c></rc>
    <rc><c>   8</c><c>Pb</c><c>    207.20000000</c><c>     14.00000000</c><c>  PAW_PBE Pb_d 06Sep2000                </c></rc>
    <rc><c>  23</c><c>Br</c><c>     79.90400000</c><c>      7.00000000</c><c>  PAW_PBE Br 06Sep2000                  </c></rc>
   </set>
  </array>
 </atominfo>
 <structure name="initialpos" >
  <crystal>
   <varray name="basis" >
    <v>       8.45648900       0.00000000       8.04030100 </v>
    <v>       0.00000000      11.72984700       0.00000000 </v>
    <v>      -8.45648900       0.00000000       8.04030100 </v>
   </varray>
   <i name="volume">   1595.08833419 </i>
   <varray name="rec_basis" >
    <v>       0.05912619      -0.00000000       0.06218673 </v>
    <v>       0.00000000       0.08525260      -0.00000000 </v>
    <v>      -0.05912619       0.00000000       0.06218673 </v>
   </varray>
  </crystal>
  <varray name="positions" >
   <v>       0.25906500       0.24132100       0.19974800 </v>
   <v>       0.78110000       0.24634600       0.71135800 </v>
   <v>       0.72742300       0.75776300       0.26510800 </v>
   <v>       0.20036900       0.75085900       0.77549700 </v>
   <v>       0.28413700       0.24693700       0.73160400 </v>
   <v>       0.79693400       0.24949500       0.22861500 </v>
   <v>       0.73575600       0.75340400       0.80137000 </v>
   <v>       0.21856500       0.75363400       0.28686100 </v>
   <v>       0.99969900       0.00018700       0.99921300 </v>
   <v>       0.49931300       0.00690200       0.49897300 </v>
   <v>       0.49972900       0.00053600       0.00025000 </v>
   <v>       0.00107700       0.00022300       0.50095200 </v>
   <v>       0.50144300       0.49839200       0.99207500 </v>
   <v>       0.00046700       0.50013900       0.50019600 </v>
   <v>       0.99963500       0.49949300       0.00006700 </v>
   <v>       0.49957800       0.49328600       0.50414200 </v>
   <v>       0.47158300       0.74840600       0.96174500 </v>
   <v>       0.97058000       0.75006400       0.46999600 </v>
   <v>       0.97042900       0.24987400       0.97194400 </v>
   <v>       0.45156000       0.25202900       0.46383400 </v>
   <v>       0.02420900       0.74951300       0.03076100 </v>
   <v>       0.52572300       0.25192600       0.04620400 </v>
   <v>       0.03260800       0.25041800       0.53162100 </v>
   <v>       0.24846500       0.46799700       0.95268200 </v>
   <v>       0.74560800       0.46866600       0.44766100 </v>
   <v>       0.94815100       0.53169600       0.74751700 </v>
   <v>       0.55003500       0.03701700       0.75164500 </v>
   <v>       0.04611600       0.02767200       0.25285800 </v>
   <v>       0.75177800       0.97229100       0.04759400 </v>
   <v>       0.25507700       0.96028700       0.54945100 </v>
   <v>       0.24770700       0.02933200       0.94918000 </v>
   <v>       0.74700300       0.03437100       0.45058600 </v>
   <v>       0.45204000       0.95793900       0.25026200 </v>
   <v>       0.94972700       0.96740200       0.74783000 </v>
   <v>       0.74964000       0.53049600       0.05256800 </v>
   <v>       0.25611400       0.54044700       0.55072300 </v>
   <v>       0.55449300       0.46293200       0.74956100 </v>
   <v>       0.05402200       0.46888500       0.25266800 </v>
   <v>       0.49753200       0.64767700       0.38541000 </v>
  </varray>
 </structure>
 <calculation>
  <scstep>
   <time name="dav">   16.70   16.70</time>
   <time name="total">   18.16   18.20</time>
   <energy>
    <i name="alphaZ">    872.70583573 </i>
    <i name="ewald"> -17870.31240919 </i>
    <i name="hartreedc">  -7479.22668888 </i>
    <i name="XCdc">    908.75280653 </i>
    <i name="pawpsdc">  21345.28103884 </i>
    <i name="pawaedc"> -22405.85761495 </i>
    <i name="eentropy">     -0.00161308 </i>
    <i name="bandstr">   -246.05767192 </i>
    <i name="atom">  26212.11861568 </i>
    <i name="e_fr_energy">   1337.40229876 </i>
    <i name="e_wo_entrp">   1337.40391184 </i>
    <i name="e_0_energy">   1337.40310530 </i>
   </energy>
  </scstep>
  <scstep>
   <time name="dav">   18.54   18.58</time>
   <time name="total">   18.54   18.58</time>
   <energy>
    <i name="e_fr_energy">  -1109.94990134 </i>
    <i name="e_wo_entrp">  -1109.94990134 </i>
    <i name="e_0_energy">  -1109.94990134 </i>
   </energy>
  </scstep>
  <scstep>
   <time name="dav">   19.44   19.50</time>
   <time name="total">   19.44   19.50</time>
   <energy>
    <i name="e_fr_energy">  -1473.12515842 </i>
    <i name="e_wo_entrp">  -1473.12515842 </i>
    <i name="e_0_energy">  -1473.12515842 </i>
   </energy>
  </scstep>
  <scstep>
   <time name="dav">   18.02   18.06</time>
   <time name="total">   18.02   18.06</time>
   <energy>
    <i name="e_fr_energy">  -1485.32689926 </i>
    <i name="e_wo_entrp">  -1485.32689926 </i>
    <i name="e_0_energy">  -1485.32689926 </i>
   </energy>
  </scstep>
  <scstep>
   <time name="dav">   19.58   19.62</time>
   <time name="total">   22.29   22.34</time>
   <energy>
    <i name="e_fr_energy">  -1485.87800225 </i>
    <i name="e_wo_entrp">  -1485.87800225 </i>
    <i name="e_0_energy">  -1485.87800225 </i>
   </energy>
  </scstep>
  <scstep>
   <time name="dav">   19.08   19.08</time>
   <time name="total">   23.27   23.31</time>
   <energy>
    <i name="e_fr_energy">  -1408.15664986 </i>
    <i name="e_wo_entrp">  -1408.15664986 </i>
    <i name="e_0_energy">  -1408.15664986 </i>
   </energy>
  </scstep>
  <scstep>
   <time name="dav">   19.00   19.01</time>
   <time name="total">   23.16   23.19</time>
   <energy>
    <i name="e_fr_energy">  -1407.64206298 </i>
    <i name="e_wo_entrp">  -1407.64206298 </i>
    <i name="e_0_energy">  -1407.64206298 </i>
   </energy>
  </scstep>
  <scstep>
   <time name="dav">   18.44   18.44</time>
   <time name="total">   22.60   22.67</time>
   <energy>
    <i name="e_fr_energy">  -1407.80685307 </i>
    <i name="e_wo_entrp">  -1407.80685307 </i>
    <i name="e_0_energy">  -1407.80685307 </i>
   </energy>
  </scstep>
  <scstep>
   <time name="dav">   17.96   17.96</time>
   <time name="total">   22.14   22.19</time>
   <energy>
    <i name="e_fr_energy">  -1407.86383272 </i>
    <i name="e_wo_entrp">  -1407.86383272 </i>
    <i name="e_0_energy">  -1407.86383272 </i>
   </energy>
  </scstep>
  <scstep>
   <time name="dav">   20.37   20.37</time>
   <time name="total">   24.56   24.59</time>
   <energy>
    <i name="e_fr_energy">  -1407.86702970 </i>
    <i name="e_wo_entrp">  -1407.86702970 </i>
    <i name="e_0_energy">  -1407.86702970 </i>
   </energy>
  </scstep>
  <scstep>
   <time name="dav">   18.46   18.46</time>
   <time name="total">   22.65   22.70</time>
   <energy>
    <i name="e_fr_energy">  -1407.86997369 </i>
    <i name="e_wo_entrp">  -1407.86997369 </i>
    <i name="e_0_energy">  -1407.86997369 </i>
   </energy>
  </scstep>
  <scstep>
   <time name="dav">   17.34   17.34</time>
   <time name="total">   21.55   21.58</time>
   <energy>
    <i name="e_fr_energy">  -1407.87256451 </i>
    <i name="e_wo_entrp">  -1407.87256451 </i>
    <i name="e_0_energy">  -1407.87256451 </i>
   </energy>
  </scstep>
  <scstep>
   <time name="dav">   19.91   19.91</time>
   <time name="total">   24.11   24.14</time>
   <energy>
    <i name="e_fr_energy">  -1407.87215331 </i>
    <i name="e_wo_entrp">  -1407.87215331 </i>
    <i name="e_0_energy">  -1407.87215331 </i>
   </energy>
  </scstep>
  <scstep>
   <time name="dav">   17.89   17.89</time>
   <time name="total">   22.11   22.13</time>
   <energy>
    <i name="e_fr_energy">  -1407.87216865 </i>
    <i name="e_wo_entrp">  -1407.87216865 </i>
    <i name="e_0_energy">  -1407.87216865 </i>
   </energy>
  </scstep>
  <scstep>
   <time name="dav">   17.33   17.33</time>
   <time name="total">   21.57   21.57</time>
   <energy>
    <i name="e_fr_energy">  -1407.87218178 </i>
    <i name="e_wo_entrp">  -1407.87218178 </i>
    <i name="e_0_energy">  -1407.87218178 </i>
   </energy>
  </scstep>
  <scstep>
   <time name="dav">   18.51   18.51</time>
   <time name="total">   22.73   22.74</time>
   <energy>
    <i name="e_fr_energy">  -1407.87224264 </i>
    <i name="e_wo_entrp">  -1407.87224264 </i>
    <i name="e_0_energy">  -1407.87224264 </i>
   </energy>
  </scstep>
  <scstep>
   <time name="dav">   17.75   17.75</time>
   <time name="total">   21.93   21.97</time>
   <energy>
    <i name="e_fr_energy">  -1407.87223911 </i>
    <i name="e_wo_entrp">  -1407.87223911 </i>
    <i name="e_0_energy">  -1407.87223911 </i>
   </energy>
  </scstep>
  <scstep>
   <time name="dav">   14.70   14.70</time>
   <time name="total">   18.88   18.92</time>
   <energy>
    <i name="e_fr_energy">  -1407.87223628 </i>
    <i name="e_wo_entrp">  -1407.87223628 </i>
    <i name="e_0_energy">  -1407.87223628 </i>
   </energy>
  </scstep>
  <scstep>
   <time name="dav">   13.28   13.28</time>
   <time name="total">   17.47   17.50</time>
   <energy>
    <i name="e_fr_energy">  -1407.87223295 </i>
    <i name="e_wo_entrp">  -1407.87223295 </i>
    <i name="e_0_energy">  -1407.87223295 </i>
   </energy>
  </scstep>
  <scstep>
   <time name="dav">   12.98   12.98</time>
   <time name="total">   17.20   17.21</time>
   <energy>
    <i name="e_fr_energy">  -1407.87223169 </i>
    <i name="e_wo_entrp">  -1407.87223169 </i>
    <i name="e_0_energy">  -1407.87223169 </i>
   </energy>
  </scstep>
  <scstep>
   <time name="dav">   12.58   12.58</time>
   <time name="total">   14.08   14.09</time>
   <energy>
    <i name="alphaZ">    872.70583573 </i>
    <i name="ewald"> -17870.31240919 </i>
    <i name="hartreedc">  -7517.50730686 </i>
    <i name="XCdc">    944.51978201 </i>
    <i name="pawpsdc">  22953.52503997 </i>
    <i name="pawaedc"> -24013.83110559 </i>
    <i name="eentropy">     -0.00000000 </i>
    <i name="bandstr">  -2989.09068341 </i>
    <i name="atom">  26212.11861568 </i>
    <i name="e_fr_energy">  -1407.87223167 </i>
    <i name="e_wo_entrp">  -1407.87223167 </i>
    <i name="e_0_energy">  -1407.87223167 </i>
   </energy>
  </scstep>
  <structure>
   <crystal>
    <varray name="basis" >
     <v>       8.45648900       0.00000000       8.04030100 </v>
     <v>       0.00000000      11.72984700       0.00000000 </v>
     <v>      -8.45648900       0.00000000       8.04030100 </v>
    </varray>
    <i name="volume">   1595.08833419 </i>
    <varray name="rec_basis" >
     <v>       0.05912619      -0.00000000       0.06218673 </v>
     <v>       0.00000000       0.08525260      -0.00000000 </v>
     <v>      -0.05912619       0.00000000       0.06218673 </v>
    </varray>
   </crystal>
   <varray name="positions" >
    <v>       0.25906500       0.24132100       0.19974800 </v>
    <v>       0.78110000       0.24634600       0.71135800 </v>
    <v>       0.72742300       0.75776300       0.26510800 </v>
    <v>       0.20036900       0.75085900       0.77549700 </v>
    <v>       0.28413700       0.24693700       0.73160400 </v>
    <v>       0.79693400       0.24949500       0.22861500 </v>
    <v>       0.73575600       0.75340400       0.80137000 </v>
    <v>       0.21856500       0.75363400       0.28686100 </v>
    <v>       0.99969900       0.00018700       0.99921300 </v>
    <v>       0.49931300       0.00690200       0.49897300 </v>
    <v>       0.49972900       0.00053600       0.00025000 </v>
    <v>       0.00107700       0.00022300       0.50095200 </v>
    <v>       0.50144300       0.49839200       0.99207500 </v>
    <v>       0.00046700       0.50013900       0.50019600 </v>
    <v>       0.99963500       0.49949300       0.00006700 </v>
    <v>       0.49957800       0.49328600       0.50414200 </v>
    <v>       0.47158300       0.74840600       0.96174500 </v>
    <v>       0.97058000       0.75006400       0.46999600 </v>
    <v>       0.97042900       0.24987400       0.97194400 </v>
    <v>       0.45156000       0.25202900       0.46383400 </v>
    <v>       0.02420900       0.74951300       0.03076100 </v>
    <v>       0.52572300       0.25192600       0.04620400 </v>
    <v>       0.03260800       0.25041800       0.53162100 </v>
    <v>       0.24846500       0.46799700       0.95268200 </v>
    <v>       0.74560800       0.46866600       0.44766100 </v>
    <v>       0.94815100       0.53169600       0.74751700 </v>
    <v>       0.55003500       0.03701700       0.75164500 </v>
    <v>       0.04611600       0.02767200       0.25285800 </v>
    <v>       0.75177800       0.97229100       0.04759400 </v>
    <v>       0.25507700       0.96028700       0.54945100 </v>
    <v>       0.24770700       0.02933200       0.94918000 </v>
    <v>       0.74700300       0.03437100       0.45058600 </v>
    <v>       0.45204000       0.95793900       0.25026200 </v>
    <v>       0.94972700       0.96740200       0.74783000 </v>
    <v>       0.74964000       0.53049600       0.05256800 </v>
    <v>       0.25611400       0.54044700       0.55072300 </v>
    <v>       0.55449300       0.46293200       0.74956100 </v>
    <v>       0.05402200       0.46888500       0.25266800 </v>
    <v>       0.49753200       0.64767700       0.38541000 </v>
   </varray>
  </structure>
  <varray name="forces" >
   <v>      -0.03987768      -0.05968406      -0.01513229 </v>
   <v>      -0.00315240       0.03025711      -0.03310880 </v>
   <v>       0.39661319       0.15026562       0.14686734 </v>
   <v>      -0.01446692      -0.02618311      -0.02175711 </v>
   <v>       0.05033706       0.03980484      -0.01641747 </v>
   <v>      -0.00504067       0.00636147       0.02868082 </v>
   <v>       0.00921857      -0.03136363       0.04906111 </v>
   <v>      -0.06347369       0.02608009      -0.07755792 </v>
   <v>      -0.00612275       0.00344553       0.00500761 </v>
   <v>       0.00419561       0.41779220      -0.20927624 </v>
   <v>      -0.02493600       0.01707543       0.02162758 </v>
   <v>       0.01421986       0.01015848       0.00542929 </v>
   <v>       0.42065551      -0.07781664      -0.18209610 </v>
   <v>      -0.01199858      -0.01483210       0.00676172 </v>
   <v>      -0.00741305      -0.01055895      -0.02129237 </v>
   <v>      -2.79595943      -5.14330441       2.80819447 </v>
   <v>       0.00322968      -0.00945297      -0.00627775 </v>
   <v>      -0.01091850       0.03465943      -0.00559182 </v>
   <v>       0.00119856      -0.00378339       0.00666058 </v>
   <v>       0.07767888      -1.11604075      -0.10802364 </v>
   <v>       0.00027567       0.00024280      -0.01225214 </v>
   <v>      -0.01033008       0.01610342       0.00299138 </v>
   <v>      -0.00088733      -0.03612304       0.00740547 </v>
   <v>      -0.00367626       0.00256631       0.03172980 </v>
   <v>       0.22746877      -0.09790441       0.20660763 </v>
   <v>      -0.03654800       0.01167389       0.01414830 </v>
   <v>       0.01104725      -0.02443476       0.00081529 </v>
   <v>       0.00468273       0.00226666      -0.00461290 </v>
   <v>       0.00918931       0.00653062      -0.02059860 </v>
   <v>       0.01797802      -0.02184454       0.01212671 </v>
   <v>       0.00384709      -0.00803738       0.01308158 </v>
   <v>      -0.02502612      -0.00729043      -0.01264041 </v>
   <v>       0.02543131       0.03280937      -0.01659248 </v>
   <v>      -0.01025111      -0.00774178      -0.00310621 </v>
   <v>      -0.02004850       0.00736980      -0.00068327 </v>
   <v>      -0.23153803       0.00893225      -0.12976800 </v>
   <v>      -0.80092629       0.16609073       0.75853294 </v>
   <v>       0.03429532      -0.00153086      -0.00772775 </v>
   <v>       2.81102900       5.70744114      -3.22121636 </v>
  </varray>
  <varray name="stress" >
   <v>      -2.59057447       6.28617762      -2.20135137 </v>
   <v>       6.28613623       6.09055892      -4.70142792 </v>
   <v>      -2.20141578      -4.70135081      -1.48820658 </v>
  </varray>
  <energy>
   <i name="e_fr_energy">  -1407.87223167 </i>
   <i name="e_wo_entrp">  -1407.87223167 </i>
   <i name="e_0_energy">     -0.00000000 </i>
  </energy>
  <time name="totalsc">  491.55  492.36</time>
  <eigenvalues>
   <array>
    <dimension dim="1">band</dimension>
    <dimension dim="2">kpoint</dimension>
    <dimension dim="3">spin</dimension>
    <field>eigene</field>
    <field>occ</field>
    <set>
     <set comment="spin 1">
      <set comment="kpoint 1">
       <r>  -20.9619    1.0000 </r>
       <r>  -20.8028    1.0000 </r>
       <r>  -20.7685    1.0000 </r>
       <r>  -20.7602    1.0000 </r>
       <r>  -20.7431    1.0000 </r>
       <r>  -20.6925    1.0000 </r>
       <r>  -20.6892    1.0000 </r>
       <r>  -20.6776    1.0000 </r>
       <r>  -17.4164    1.0000 </r>
       <r>  -16.6775    1.0000 </r>
       <r>  -16.6718    1.0000 </r>
       <r>  -16.6701    1.0000 </r>
       <r>  -16.6590    1.0000 </r>
       <r>  -16.5874    1.0000 </r>
       <r>  -16.5857    1.0000 </r>
       <r>  -16.5816    1.0000 </r>
       <r>  -16.5785    1.0000 </r>
       <r>  -16.5430    1.0000 </r>
       <r>  -16.5407    1.0000 </r>
       <r>  -16.4688    1.0000 </r>
       <r>  -16.4546    1.0000 </r>
       <r>  -16.4406    1.0000 </r>
       <r>  -16.4168    1.0000 </r>
       <r>  -16.4052    1.0000 </r>
       <r>  -16.3990    1.0000 </r>
       <r>  -16.3778    1.0000 </r>
       <r>  -16.3623    1.0000 </r>
       <r>  -16.3556    1.0000 </r>
       <r>  -16.3531    1.0000 </r>
       <r>  -16.3486    1.0000 </r>
       <r>  -16.3464    1.0000 </r>
       <r>  -16.3392    1.0000 </r>
       <r>  -16.3194    1.0000 </r>
       <r>  -16.2984    1.0000 </r>
       <r>  -16.2926    1.0000 </r>
       <r>  -16.2883    1.0000 </r>
       <r>  -16.2826    1.0000 </r>
       <r>  -16.2764    1.0000 </r>
       <r>  -16.2745    1.0000 </r>
       <r>  -16.2674    1.0000 </r>
       <r>  -16.2631    1.0000 </r>
       <r>  -16.2612    1.0000 </r>
       <r>  -16.2502    1.0000 </r>
       <r>  -16.2474    1.0000 </r>
       <r>  -16.2199    1.0000 </r>
       <r>  -16.2184    1.0000 </r>
       <r>  -16.2094    1.0000 </r>
       <r>  -16.2082    1.0000 </r>
       <r>  -14.7433    1.0000 </r>
       <r>  -14.3775    1.0000 </r>
       <r>  -14.2552    1.0000 </r>
       <r>  -14.2390    1.0000 </r>
       <r>  -14.1519    1.0000 </r>
       <r>  -14.1093    1.0000 </r>
       <r>  -14.0906    1.0000 </r>
       <r>  -14.0790    1.0000 </r>
       <r>  -14.0676    1.0000 </r>
       <r>  -14.0384    1.0000 </r>
       <r>  -14.0372    1.0000 </r>
       <r>  -14.0320    1.0000 </r>
       <r>  -14.0276    1.0000 </r>
       <r>  -14.0108    1.0000 </r>
       <r>  -13.9976    1.0000 </r>
       <r>  -13.9564    1.0000 </r>
       <r>  -13.9245    1.0000 </r>
       <r>  -13.8947    1.0000 </r>
       <r>  -13.8595    1.0000 </r>
       <r>  -13.7825    1.0000 </r>
       <r>  -13.7580    1.0000 </r>
       <r>  -13.7098    1.0000 </r>
       <r>  -13.6459    1.0000 </r>
       <r>   -8.2092    1.0000 </r>
       <r>   -7.8742    1.0000 </r>
       <r>   -7.7670    1.0000 </r>
       <r>   -7.7020    1.0000 </r>
       <r>   -7.4220    1.0000 </r>
       <r>   -7.3919    1.0000 </r>
       <r>   -7.3390    1.0000 </r>
       <r>   -7.3221    1.0000 </r>
       <r>   -7.2481    1.0000 </r>
       <r>   -7.2406    1.0000 </r>
       <r>   -7.2220    1.0000 </r>
       <r>   -7.2043    1.0000 </r>
       <r>   -7.1971    1.0000 </r>
       <r>   -7.1884    1.0000 </r>
       <r>   -7.1769    1.0000 </r>
       <r>   -7.1600    1.0000 </r>
       <r>   -7.1525    1.0000 </r>
       <r>   -7.1493    1.0000 </r>
       <r>   -7.1373    1.0000 </r>
       <r>   -7.1303    1.0000 </r>
       <r>   -7.1196    1.0000 </r>
       <r>   -7.1129    1.0000 </r>
       <r>   -7.1023    1.0000 </r>
       <r>   -7.0948    1.0000 </r>
       <r>   -7.0926    1.0000 </r>
       <r>   -7.0880    1.0000 </r>
       <r>   -7.0787    1.0000 </r>
       <r>   -7.0730    1.0000 </r>
       <r>   -7.0688    1.0000 </r>
       <r>   -7.0583    1.0000 </r>
       <r>   -7.0232    1.0000 </r>
       <r>   -6.5926    1.0000 </r>
       <r>   -3.4614    1.0000 </r>
       <r>   -3.3749    1.0000 </r>
       <r>   -3.3489    1.0000 </r>
       <r>   -3.2890    1.0000 </r>
       <r>   -3.2689    1.0000 </r>
       <r>   -3.2411    1.0000 </r>
       <r>   -3.1934    1.0000 </r>
       <r>   -3.1865    1.0000 </r>
       <r>   -3.1511    1.0000 </r>
       <r>   -3.0905    1.0000 </r>
       <r>   -3.0601    1.0000 </r>
       <r>   -2.9901    1.0000 </r>
       <r>   -2.5079    1.0000 </r>
       <r>   -2.3085    1.0000 </r>
       <r>   -2.1565    1.0000 </r>
       <r>   -2.1084    1.0000 </r>
       <r>   -2.0740    1.0000 </r>
       <r>   -1.9971    1.0000 </r>
       <r>   -1.9447    1.0000 </r>
       <r>   -1.9189    1.0000 </r>
       <r>   -1.8698    1.0000 </r>
       <r>   -1.8390    1.0000 </r>
       <r>   -1.8029    1.0000 </r>
       <r>   -1.7807    1.0000 </r>
       <r>   -1.6961    1.0000 </r>
       <r>   -1.6736    1.0000 </r>
       <r>   -1.6406    1.0000 </r>
       <r>   -1.6288    1.0000 </r>
       <r>   -1.5904    1.0000 </r>
       <r>   -1.5501    1.0000 </r>
       <r>   -1.5202    1.0000 </r>
       <r>   -1.5153    1.0000 </r>
       <r>   -1.4854    1.0000 </r>
       <r>   -1.4823    1.0000 </r>
       <r>   -1.4742    1.0000 </r>
       <r>   -1.4618    1.0000 </r>
       <r>   -1.4307    1.0000 </r>
       <r>   -1.4178    1.0000 </r>
       <r>   -1.3986    1.0000 </r>
       <r>   -1.3915    1.0000 </r>
       <r>   -1.3825    1.0000 </r>
       <r>   -1.3655    1.0000 </r>
       <r>   -1.3589    1.0000 </r>
       <r>   -1.3362    1.0000 </r>
       <r>   -1.3265    1.0000 </r>
       <r>   -1.3256    1.0000 </r>
       <r>   -1.3225    1.0000 </r>
       <r>   -1.3088    1.0000 </r>
       <r>   -1.2878    1.0000 </r>
       <r>   -1.2681    1.0000 </r>
       <r>   -1.2506    1.0000 </r>
       <r>   -1.2330    1.0000 </r>
       <r>   -1.2013    1.0000 </r>
       <r>   -1.1671    1.0000 </r>
       <r>   -1.1601    1.0000 </r>
       <r>   -1.1274    1.0000 </r>
       <r>   -1.0926    1.0000 </r>
       <r>   -1.0827    1.0000 </r>
       <r>   -1.0197    1.0000 </r>
       <r>   -0.9834    1.0000 </r>
       <r>   -0.9737    1.0000 </r>
       <r>   -0.8444    1.0000 </r>
       <r>   -0.7949    1.0000 </r>
       <r>   -0.7476    1.0000 </r>
       <r>   -0.5368    1.0000 </r>
       <r>   -0.2368    1.0000 </r>
       <r>   -0.1927    1.0000 </r>
       <r>    0.0496    1.0000 </r>
       <r>    0.4502    1.0000 </r>
       <r>    2.6218    0.0000 </r>
       <r>    2.7594    0.0000 </r>
       <r>    2.8575    0.0000 </r>
       <r>    2.9697    0.0000 </r>
       <r>    3.0027    0.0000 </r>
       <r>    3.1142    0.0000 </r>
       <r>    3.1860    0.0000 </r>
       <r>    3.2370    0.0000 </r>
       <r>    3.3402    0.0000 </r>
       <r>    3.5010    0.0000 </r>
       <r>    3.5164    0.0000 </r>
       <r>    3.5663    0.0000 </r>
       <r>    4.2091    0.0000 </r>
       <r>    4.7982    0.0000 </r>
       <r>    5.4993    0.0000 </r>
       <r>    5.5616    0.0000 </r>
       <r>    5.7195    0.0000 </r>
       <r>    5.8190    0.0000 </r>
       <r>    5.8509    0.0000 </r>
       <r>    5.8649    0.0000 </r>
       <r>    5.9323    0.0000 </r>
       <r>    5.9496    0.0000 </r>
       <r>    5.9708    0.0000 </r>
       <r>    6.0887    0.0000 </r>
       <r>    6.1572    0.0000 </r>
       <r>    6.1714    0.0000 </r>
       <r>    6.1952    0.0000 </r>
       <r>    6.2407    0.0000 </r>
       <r>    6.2718    0.0000 </r>
       <r>    6.3393    0.0000 </r>
       <r>    6.4177    0.0000 </r>
       <r>    6.5328    0.0000 </r>
       <r>    6.5421    0.0000 </r>
       <r>    6.5584    0.0000 </r>
       <r>    6.6397    0.0000 </r>
       <r>    6.6548    0.0000 </r>
      </set>
      <set comment="kpoint 2">
       <r>  -20.9619    1.0000 </r>
       <r>  -20.8028    1.0000 </r>
       <r>  -20.7682    1.0000 </r>
       <r>  -20.7605    1.0000 </r>
       <r>  -20.7431    1.0000 </r>
       <r>  -20.6925    1.0000 </r>
       <r>  -20.6892    1.0000 </r>
       <r>  -20.6776    1.0000 </r>
       <r>  -17.4164    1.0000 </r>
       <r>  -16.6775    1.0000 </r>
       <r>  -16.6711    1.0000 </r>
       <r>  -16.6674    1.0000 </r>
       <r>  -16.6572    1.0000 </r>
       <r>  -16.5874    1.0000 </r>
       <r>  -16.5857    1.0000 </r>
       <r>  -16.5816    1.0000 </r>
       <r>  -16.5784    1.0000 </r>
       <r>  -16.5430    1.0000 </r>
       <r>  -16.5408    1.0000 </r>
       <r>  -16.4606    1.0000 </r>
       <r>  -16.4508    1.0000 </r>
       <r>  -16.4421    1.0000 </r>
       <r>  -16.4195    1.0000 </r>
       <r>  -16.4080    1.0000 </r>
       <r>  -16.4013    1.0000 </r>
       <r>  -16.3778    1.0000 </r>
       <r>  -16.3692    1.0000 </r>
       <r>  -16.3557    1.0000 </r>
       <r>  -16.3550    1.0000 </r>
       <r>  -16.3464    1.0000 </r>
       <r>  -16.3393    1.0000 </r>
       <r>  -16.3351    1.0000 </r>
       <r>  -16.3203    1.0000 </r>
       <r>  -16.3123    1.0000 </r>
       <r>  -16.2927    1.0000 </r>
       <r>  -16.2883    1.0000 </r>
       <r>  -16.2826    1.0000 </r>
       <r>  -16.2765    1.0000 </r>
       <r>  -16.2745    1.0000 </r>
       <r>  -16.2674    1.0000 </r>
       <r>  -16.2631    1.0000 </r>
       <r>  -16.2612    1.0000 </r>
       <r>  -16.2502    1.0000 </r>
       <r>  -16.2474    1.0000 </r>
       <r>  -16.2199    1.0000 </r>
       <r>  -16.2185    1.0000 </r>
       <r>  -16.2094    1.0000 </r>
       <r>  -16.2081    1.0000 </r>
       <r>  -14.7448    1.0000 </r>
       <r>  -14.3536    1.0000 </r>
       <r>  -14.2958    1.0000 </r>
       <r>  -14.2280    1.0000 </r>
       <r>  -14.1838    1.0000 </r>
       <r>  -14.1461    1.0000 </r>
       <r>  -14.1095    1.0000 </r>
       <r>  -14.0932    1.0000 </r>
       <r>  -14.0742    1.0000 </r>
       <r>  -14.0334    1.0000 </r>
       <r>  -14.0295    1.0000 </r>
       <r>  -14.0166    1.0000 </r>
       <r>  -14.0015    1.0000 </r>
       <r>  -13.9863    1.0000 </r>
       <r>  -13.9651    1.0000 </r>
       <r>  -13.9554    1.0000 </r>
       <r>  -13.8741    1.0000 </r>
       <r>  -13.8607    1.0000 </r>
       <r>  -13.8304    1.0000 </r>
       <r>  -13.8234    1.0000 </r>
       <r>  -13.7422    1.0000 </r>
       <r>  -13.7253    1.0000 </r>
       <r>  -13.7117    1.0000 </r>
       <r>   -8.0427    1.0000 </r>
       <r>   -7.9484    1.0000 </r>
       <r>   -7.7532    1.0000 </r>
       <r>   -7.6015    1.0000 </r>
       <r>   -7.4608    1.0000 </r>
       <r>   -7.4240    1.0000 </r>
       <r>   -7.3820    1.0000 </r>
       <r>   -7.3320    1.0000 </r>
       <r>   -7.3164    1.0000 </r>
       <r>   -7.2431    1.0000 </r>
       <r>   -7.2331    1.0000 </r>
       <r>   -7.2058    1.0000 </r>
       <r>   -7.1973    1.0000 </r>
       <r>   -7.1910    1.0000 </r>
       <r>   -7.1840    1.0000 </r>
       <r>   -7.1710    1.0000 </r>
       <r>   -7.1534    1.0000 </r>
       <r>   -7.1500    1.0000 </r>
       <r>   -7.1333    1.0000 </r>
       <r>   -7.1299    1.0000 </r>
       <r>   -7.1232    1.0000 </r>
       <r>   -7.1184    1.0000 </r>
       <r>   -7.1052    1.0000 </r>
       <r>   -7.0966    1.0000 </r>
       <r>   -7.0881    1.0000 </r>
       <r>   -7.0833    1.0000 </r>
       <r>   -7.0766    1.0000 </r>
       <r>   -7.0734    1.0000 </r>
       <r>   -7.0613    1.0000 </r>
       <r>   -7.0577    1.0000 </r>
       <r>   -7.0216    1.0000 </r>
       <r>   -6.8003    1.0000 </r>
       <r>   -3.4636    1.0000 </r>
       <r>   -3.3131    1.0000 </r>
       <r>   -3.2897    1.0000 </r>
       <r>   -3.2210    1.0000 </r>
       <r>   -3.1936    1.0000 </r>
       <r>   -3.1744    1.0000 </r>
       <r>   -3.0733    1.0000 </r>
       <r>   -3.0624    1.0000 </r>
       <r>   -2.9912    1.0000 </r>
       <r>   -2.5834    1.0000 </r>
       <r>   -2.5475    1.0000 </r>
       <r>   -2.5019    1.0000 </r>
       <r>   -2.4907    1.0000 </r>
       <r>   -2.4193    1.0000 </r>
       <r>   -2.3893    1.0000 </r>
       <r>   -2.3474    1.0000 </r>
       <r>   -2.3002    1.0000 </r>
       <r>   -2.0961    1.0000 </r>
       <r>   -2.0868    1.0000 </r>
       <r>   -2.0296    1.0000 </r>
       <r>   -2.0090    1.0000 </r>
       <r>   -1.9803    1.0000 </r>
       <r>   -1.9065    1.0000 </r>
       <r>   -1.8640    1.0000 </r>
       <r>   -1.8061    1.0000 </r>
       <r>   -1.7508    1.0000 </r>
       <r>   -1.7383    1.0000 </r>
       <r>   -1.6671    1.0000 </r>
       <r>   -1.6379    1.0000 </r>
       <r>   -1.6049    1.0000 </r>
       <r>   -1.5708    1.0000 </r>
       <r>   -1.5263    1.0000 </r>
       <r>   -1.5119    1.0000 </r>
       <r>   -1.4797    1.0000 </r>
       <r>   -1.4533    1.0000 </r>
       <r>   -1.4473    1.0000 </r>
       <r>   -1.4463    1.0000 </r>
       <r>   -1.4009    1.0000 </r>
       <r>   -1.3947    1.0000 </r>
       <r>   -1.3882    1.0000 </r>
       <r>   -1.3772    1.0000 </r>
       <r>   -1.3630    1.0000 </r>
       <r>   -1.3558    1.0000 </r>
       <r>   -1.3487    1.0000 </r>
       <r>   -1.3270    1.0000 </r>
       <r>   -1.3157    1.0000 </r>
       <r>   -1.2803    1.0000 </r>
       <r>   -1.2758    1.0000 </r>
       <r>   -1.2644    1.0000 </r>
       <r>   -1.2512    1.0000 </r>
       <r>   -1.2339    1.0000 </r>
       <r>   -1.2210    1.0000 </r>
       <r>   -1.2019    1.0000 </r>
       <r>   -1.1651    1.0000 </r>
       <r>   -1.1523    1.0000 </r>
       <r>   -1.1304    1.0000 </r>
       <r>   -1.1182    1.0000 </r>
       <r>   -1.1055    1.0000 </r>
       <r>   -1.0602    1.0000 </r>
       <r>   -1.0357    1.0000 </r>
       <r>   -1.0074    1.0000 </r>
       <r>   -0.9367    1.0000 </r>
       <r>   -0.8416    1.0000 </r>
       <r>   -0.7881    1.0000 </r>
       <r>   -0.5558    1.0000 </r>
       <r>   -0.4440    1.0000 </r>
       <r>   -0.3504    1.0000 </r>
       <r>   -0.0170    1.0000 </r>
       <r>    0.0903    1.0000 </r>
       <r>    2.7634    0.0000 </r>
       <r>    2.9098    0.0000 </r>
       <r>    2.9875    0.0000 </r>
       <r>    3.0005    0.0000 </r>
       <r>    3.1305    0.0000 </r>
       <r>    3.2963    0.0000 </r>
       <r>    3.3493    0.0000 </r>
       <r>    3.4300    0.0000 </r>
       <r>    4.1432    0.0000 </r>
       <r>    4.1739    0.0000 </r>
       <r>    4.2820    0.0000 </r>
       <r>    4.4757    0.0000 </r>
       <r>    4.5145    0.0000 </r>
       <r>    4.6050    0.0000 </r>
       <r>    4.7069    0.0000 </r>
       <r>    4.7892    0.0000 </r>
       <r>    4.8633    0.0000 </r>
       <r>    5.2223    0.0000 </r>
       <r>    5.5567    0.0000 </r>
       <r>    5.6781    0.0000 </r>
       <r>    5.7166    0.0000 </r>
       <r>    5.8938    0.0000 </r>
       <r>    5.9666    0.0000 </r>
       <r>    6.0019    0.0000 </r>
       <r>    6.0580    0.0000 </r>
       <r>    6.0974    0.0000 </r>
       <r>    6.1488    0.0000 </r>
       <r>    6.2466    0.0000 </r>
       <r>    6.2719    0.0000 </r>
       <r>    6.3274    0.0000 </r>
       <r>    6.3767    0.0000 </r>
       <r>    6.4187    0.0000 </r>
       <r>    6.4980    0.0000 </r>
       <r>    6.5363    0.0000 </r>
       <r>    6.5732    0.0000 </r>
       <r>    6.6311    0.0000 </r>
      </set>
      <set comment="kpoint 3">
       <r>  -20.9618    1.0000 </r>
       <r>  -20.8028    1.0000 </r>
       <r>  -20.7684    1.0000 </r>
       <r>  -20.7603    1.0000 </r>
       <r>  -20.7431    1.0000 </r>
       <r>  -20.6925    1.0000 </r>
       <r>  -20.6892    1.0000 </r>
       <r>  -20.6776    1.0000 </r>
       <r>  -17.4164    1.0000 </r>
       <r>  -16.6745    1.0000 </r>
       <r>  -16.6718    1.0000 </r>
       <r>  -16.6692    1.0000 </r>
       <r>  -16.6591    1.0000 </r>
       <r>  -16.5874    1.0000 </r>
       <r>  -16.5856    1.0000 </r>
       <r>  -16.5816    1.0000 </r>
       <r>  -16.5784    1.0000 </r>
       <r>  -16.5429    1.0000 </r>
       <r>  -16.5408    1.0000 </r>
       <r>  -16.4712    1.0000 </r>
       <r>  -16.4557    1.0000 </r>
       <r>  -16.4186    1.0000 </r>
       <r>  -16.4146    1.0000 </r>
       <r>  -16.4042    1.0000 </r>
       <r>  -16.3923    1.0000 </r>
       <r>  -16.3804    1.0000 </r>
       <r>  -16.3776    1.0000 </r>
       <r>  -16.3557    1.0000 </r>
       <r>  -16.3529    1.0000 </r>
       <r>  -16.3513    1.0000 </r>
       <r>  -16.3464    1.0000 </r>
       <r>  -16.3392    1.0000 </r>
       <r>  -16.3329    1.0000 </r>
       <r>  -16.2994    1.0000 </r>
       <r>  -16.2926    1.0000 </r>
       <r>  -16.2883    1.0000 </r>
       <r>  -16.2826    1.0000 </r>
       <r>  -16.2764    1.0000 </r>
       <r>  -16.2744    1.0000 </r>
       <r>  -16.2674    1.0000 </r>
       <r>  -16.2631    1.0000 </r>
       <r>  -16.2612    1.0000 </r>
       <r>  -16.2502    1.0000 </r>
       <r>  -16.2474    1.0000 </r>
       <r>  -16.2199    1.0000 </r>
       <r>  -16.2184    1.0000 </r>
       <r>  -16.2094    1.0000 </r>
       <r>  -16.2082    1.0000 </r>
       <r>  -14.7426    1.0000 </r>
       <r>  -14.3508    1.0000 </r>
       <r>  -14.3123    1.0000 </r>
       <r>  -14.2190    1.0000 </r>
       <r>  -14.1715    1.0000 </r>
       <r>  -14.1539    1.0000 </r>
       <r>  -14.0900    1.0000 </r>
       <r>  -14.0825    1.0000 </r>
       <r>  -14.0523    1.0000 </r>
       <r>  -14.0399    1.0000 </r>
       <r>  -14.0374    1.0000 </r>
       <r>  -14.0310    1.0000 </r>
       <r>  -14.0163    1.0000 </r>
       <r>  -14.0113    1.0000 </r>
       <r>  -13.9580    1.0000 </r>
       <r>  -13.9284    1.0000 </r>
       <r>  -13.8763    1.0000 </r>
       <r>  -13.8595    1.0000 </r>
       <r>  -13.8536    1.0000 </r>
       <r>  -13.8165    1.0000 </r>
       <r>  -13.7721    1.0000 </r>
       <r>  -13.7570    1.0000 </r>
       <r>  -13.6518    1.0000 </r>
       <r>   -8.0565    1.0000 </r>
       <r>   -7.9652    1.0000 </r>
       <r>   -7.7405    1.0000 </r>
       <r>   -7.5053    1.0000 </r>
       <r>   -7.4791    1.0000 </r>
       <r>   -7.4661    1.0000 </r>
       <r>   -7.3997    1.0000 </r>
       <r>   -7.3359    1.0000 </r>
       <r>   -7.3135    1.0000 </r>
       <r>   -7.2452    1.0000 </r>
       <r>   -7.2272    1.0000 </r>
       <r>   -7.2039    1.0000 </r>
       <r>   -7.1950    1.0000 </r>
       <r>   -7.1876    1.0000 </r>
       <r>   -7.1787    1.0000 </r>
       <r>   -7.1593    1.0000 </r>
       <r>   -7.1552    1.0000 </r>
       <r>   -7.1449    1.0000 </r>
       <r>   -7.1382    1.0000 </r>
       <r>   -7.1312    1.0000 </r>
       <r>   -7.1223    1.0000 </r>
       <r>   -7.1165    1.0000 </r>
       <r>   -7.0981    1.0000 </r>
       <r>   -7.0967    1.0000 </r>
       <r>   -7.0907    1.0000 </r>
       <r>   -7.0843    1.0000 </r>
       <r>   -7.0778    1.0000 </r>
       <r>   -7.0706    1.0000 </r>
       <r>   -7.0679    1.0000 </r>
       <r>   -7.0592    1.0000 </r>
       <r>   -6.9704    1.0000 </r>
       <r>   -6.8817    1.0000 </r>
       <r>   -3.4269    1.0000 </r>
       <r>   -3.3624    1.0000 </r>
       <r>   -3.2562    1.0000 </r>
       <r>   -3.2301    1.0000 </r>
       <r>   -3.2170    1.0000 </r>
       <r>   -3.1656    1.0000 </r>
       <r>   -3.1298    1.0000 </r>
       <r>   -3.1143    1.0000 </r>
       <r>   -3.0482    1.0000 </r>
       <r>   -2.5519    1.0000 </r>
       <r>   -2.5047    1.0000 </r>
       <r>   -2.4574    1.0000 </r>
       <r>   -2.4502    1.0000 </r>
       <r>   -2.3949    1.0000 </r>
       <r>   -2.3531    1.0000 </r>
       <r>   -2.3280    1.0000 </r>
       <r>   -2.2700    1.0000 </r>
       <r>   -2.0716    1.0000 </r>
       <r>   -2.0467    1.0000 </r>
       <r>   -2.0184    1.0000 </r>
       <r>   -2.0035    1.0000 </r>
       <r>   -1.9549    1.0000 </r>
       <r>   -1.9190    1.0000 </r>
       <r>   -1.8247    1.0000 </r>
       <r>   -1.8220    1.0000 </r>
       <r>   -1.7896    1.0000 </r>
       <r>   -1.7542    1.0000 </r>
       <r>   -1.6905    1.0000 </r>
       <r>   -1.6633    1.0000 </r>
       <r>   -1.6522    1.0000 </r>
       <r>   -1.5870    1.0000 </r>
       <r>   -1.5511    1.0000 </r>
       <r>   -1.5032    1.0000 </r>
       <r>   -1.4887    1.0000 </r>
       <r>   -1.4620    1.0000 </r>
       <r>   -1.4545    1.0000 </r>
       <r>   -1.4435    1.0000 </r>
       <r>   -1.3986    1.0000 </r>
       <r>   -1.3913    1.0000 </r>
       <r>   -1.3757    1.0000 </r>
       <r>   -1.3739    1.0000 </r>
       <r>   -1.3642    1.0000 </r>
       <r>   -1.3577    1.0000 </r>
       <r>   -1.3433    1.0000 </r>
       <r>   -1.3359    1.0000 </r>
       <r>   -1.3227    1.0000 </r>
       <r>   -1.2862    1.0000 </r>
       <r>   -1.2697    1.0000 </r>
       <r>   -1.2568    1.0000 </r>
       <r>   -1.2557    1.0000 </r>
       <r>   -1.2253    1.0000 </r>
       <r>   -1.2126    1.0000 </r>
       <r>   -1.1895    1.0000 </r>
       <r>   -1.1748    1.0000 </r>
       <r>   -1.1576    1.0000 </r>
       <r>   -1.1200    1.0000 </r>
       <r>   -1.1112    1.0000 </r>
       <r>   -1.0976    1.0000 </r>
       <r>   -1.0668    1.0000 </r>
       <r>   -1.0605    1.0000 </r>
       <r>   -0.9965    1.0000 </r>
       <r>   -0.8679    1.0000 </r>
       <r>   -0.8601    1.0000 </r>
       <r>   -0.6973    1.0000 </r>
       <r>   -0.6404    1.0000 </r>
       <r>   -0.6183    1.0000 </r>
       <r>   -0.3217    1.0000 </r>
       <r>   -0.0490    1.0000 </r>
       <r>    0.2311    1.0000 </r>
       <r>    2.5610    0.0000 </r>
       <r>    2.8748    0.0000 </r>
       <r>    2.9519    0.0000 </r>
       <r>    3.0634    0.0000 </r>
       <r>    3.2322    0.0000 </r>
       <r>    3.3109    0.0000 </r>
       <r>    3.3391    0.0000 </r>
       <r>    3.4034    0.0000 </r>
       <r>    3.4493    0.0000 </r>
       <r>    4.1419    0.0000 </r>
       <r>    4.4332    0.0000 </r>
       <r>    4.4490    0.0000 </r>
       <r>    4.6266    0.0000 </r>
       <r>    4.6575    0.0000 </r>
       <r>    4.8774    0.0000 </r>
       <r>    4.8931    0.0000 </r>
       <r>    5.3676    0.0000 </r>
       <r>    5.4543    0.0000 </r>
       <r>    5.6612    0.0000 </r>
       <r>    5.6695    0.0000 </r>
       <r>    5.7410    0.0000 </r>
       <r>    5.9010    0.0000 </r>
       <r>    5.9193    0.0000 </r>
       <r>    5.9984    0.0000 </r>
       <r>    6.0705    0.0000 </r>
       <r>    6.0926    0.0000 </r>
       <r>    6.1447    0.0000 </r>
       <r>    6.1847    0.0000 </r>
       <r>    6.2708    0.0000 </r>
       <r>    6.3363    0.0000 </r>
       <r>    6.3744    0.0000 </r>
       <r>    6.4916    0.0000 </r>
       <r>    6.5121    0.0000 </r>
       <r>    6.5947    0.0000 </r>
       <r>    6.6248    0.0000 </r>
       <r>    6.6749    0.0000 </r>
      </set>
      <set comment="kpoint 4">
       <r>  -20.9618    1.0000 </r>
       <r>  -20.8028    1.0000 </r>
       <r>  -20.7682    1.0000 </r>
       <r>  -20.7605    1.0000 </r>
       <r>  -20.7431    1.0000 </r>
       <r>  -20.6925    1.0000 </r>
       <r>  -20.6892    1.0000 </r>
       <r>  -20.6777    1.0000 </r>
       <r>  -17.4164    1.0000 </r>
       <r>  -16.6744    1.0000 </r>
       <r>  -16.6711    1.0000 </r>
       <r>  -16.6664    1.0000 </r>
       <r>  -16.6573    1.0000 </r>
       <r>  -16.5874    1.0000 </r>
       <r>  -16.5857    1.0000 </r>
       <r>  -16.5816    1.0000 </r>
       <r>  -16.5784    1.0000 </r>
       <r>  -16.5430    1.0000 </r>
       <r>  -16.5408    1.0000 </r>
       <r>  -16.4650    1.0000 </r>
       <r>  -16.4510    1.0000 </r>
       <r>  -16.4196    1.0000 </r>
       <r>  -16.4157    1.0000 </r>
       <r>  -16.4063    1.0000 </r>
       <r>  -16.3946    1.0000 </r>
       <r>  -16.3882    1.0000 </r>
       <r>  -16.3779    1.0000 </r>
       <r>  -16.3556    1.0000 </r>
       <r>  -16.3549    1.0000 </r>
       <r>  -16.3464    1.0000 </r>
       <r>  -16.3394    1.0000 </r>
       <r>  -16.3376    1.0000 </r>
       <r>  -16.3351    1.0000 </r>
       <r>  -16.3129    1.0000 </r>
       <r>  -16.2927    1.0000 </r>
       <r>  -16.2883    1.0000 </r>
       <r>  -16.2826    1.0000 </r>
       <r>  -16.2765    1.0000 </r>
       <r>  -16.2745    1.0000 </r>
       <r>  -16.2674    1.0000 </r>
       <r>  -16.2632    1.0000 </r>
       <r>  -16.2612    1.0000 </r>
       <r>  -16.2502    1.0000 </r>
       <r>  -16.2474    1.0000 </r>
       <r>  -16.2199    1.0000 </r>
       <r>  -16.2185    1.0000 </r>
       <r>  -16.2094    1.0000 </r>
       <r>  -16.2082    1.0000 </r>
       <r>  -14.7442    1.0000 </r>
       <r>  -14.3406    1.0000 </r>
       <r>  -14.2756    1.0000 </r>
       <r>  -14.2577    1.0000 </r>
       <r>  -14.2342    1.0000 </r>
       <r>  -14.1820    1.0000 </r>
       <r>  -14.1127    1.0000 </r>
       <r>  -14.0886    1.0000 </r>
       <r>  -14.0649    1.0000 </r>
       <r>  -14.0313    1.0000 </r>
       <r>  -14.0262    1.0000 </r>
       <r>  -13.9946    1.0000 </r>
       <r>  -13.9580    1.0000 </r>
       <r>  -13.9473    1.0000 </r>
       <r>  -13.9317    1.0000 </r>
       <r>  -13.9240    1.0000 </r>
       <r>  -13.9016    1.0000 </r>
       <r>  -13.8775    1.0000 </r>
       <r>  -13.8277    1.0000 </r>
       <r>  -13.7996    1.0000 </r>
       <r>  -13.7935    1.0000 </r>
       <r>  -13.7397    1.0000 </r>
       <r>  -13.7266    1.0000 </r>
       <r>   -7.9637    1.0000 </r>
       <r>   -7.7687    1.0000 </r>
       <r>   -7.7211    1.0000 </r>
       <r>   -7.6751    1.0000 </r>
       <r>   -7.5817    1.0000 </r>
       <r>   -7.4026    1.0000 </r>
       <r>   -7.3406    1.0000 </r>
       <r>   -7.3317    1.0000 </r>
       <r>   -7.3035    1.0000 </r>
       <r>   -7.2486    1.0000 </r>
       <r>   -7.2327    1.0000 </r>
       <r>   -7.2150    1.0000 </r>
       <r>   -7.2008    1.0000 </r>
       <r>   -7.1962    1.0000 </r>
       <r>   -7.1843    1.0000 </r>
       <r>   -7.1777    1.0000 </r>
       <r>   -7.1561    1.0000 </r>
       <r>   -7.1510    1.0000 </r>
       <r>   -7.1445    1.0000 </r>
       <r>   -7.1416    1.0000 </r>
       <r>   -7.1328    1.0000 </r>
       <r>   -7.1218    1.0000 </r>
       <r>   -7.1201    1.0000 </r>
       <r>   -7.0959    1.0000 </r>
       <r>   -7.0929    1.0000 </r>
       <r>   -7.0906    1.0000 </r>
       <r>   -7.0863    1.0000 </r>
       <r>   -7.0775    1.0000 </r>
       <r>   -7.0751    1.0000 </r>
       <r>   -7.0646    1.0000 </r>
       <r>   -7.0465    1.0000 </r>
       <r>   -7.0312    1.0000 </r>
       <r>   -3.4306    1.0000 </r>
       <r>   -3.1950    1.0000 </r>
       <r>   -3.1804    1.0000 </r>
       <r>   -3.1131    1.0000 </r>
       <r>   -3.1070    1.0000 </r>
       <r>   -3.0348    1.0000 </r>
       <r>   -2.6689    1.0000 </r>
       <r>   -2.6505    1.0000 </r>
       <r>   -2.6214    1.0000 </r>
       <r>   -2.6023    1.0000 </r>
       <r>   -2.5202    1.0000 </r>
       <r>   -2.4797    1.0000 </r>
       <r>   -2.4092    1.0000 </r>
       <r>   -2.4037    1.0000 </r>
       <r>   -2.3522    1.0000 </r>
       <r>   -2.3412    1.0000 </r>
       <r>   -2.3198    1.0000 </r>
       <r>   -2.3186    1.0000 </r>
       <r>   -2.2821    1.0000 </r>
       <r>   -2.2255    1.0000 </r>
       <r>   -2.0425    1.0000 </r>
       <r>   -1.9897    1.0000 </r>
       <r>   -1.9835    1.0000 </r>
       <r>   -1.9327    1.0000 </r>
       <r>   -1.8658    1.0000 </r>
       <r>   -1.8040    1.0000 </r>
       <r>   -1.7732    1.0000 </r>
       <r>   -1.7227    1.0000 </r>
       <r>   -1.6848    1.0000 </r>
       <r>   -1.6541    1.0000 </r>
       <r>   -1.6486    1.0000 </r>
       <r>   -1.6337    1.0000 </r>
       <r>   -1.6090    1.0000 </r>
       <r>   -1.5692    1.0000 </r>
       <r>   -1.5533    1.0000 </r>
       <r>   -1.5353    1.0000 </r>
       <r>   -1.4888    1.0000 </r>
       <r>   -1.4656    1.0000 </r>
       <r>   -1.4416    1.0000 </r>
       <r>   -1.4251    1.0000 </r>
       <r>   -1.3994    1.0000 </r>
       <r>   -1.3743    1.0000 </r>
       <r>   -1.3466    1.0000 </r>
       <r>   -1.3113    1.0000 </r>
       <r>   -1.2979    1.0000 </r>
       <r>   -1.2759    1.0000 </r>
       <r>   -1.2733    1.0000 </r>
       <r>   -1.2456    1.0000 </r>
       <r>   -1.2408    1.0000 </r>
       <r>   -1.2261    1.0000 </r>
       <r>   -1.1868    1.0000 </r>
       <r>   -1.1708    1.0000 </r>
       <r>   -1.1647    1.0000 </r>
       <r>   -1.1399    1.0000 </r>
       <r>   -1.1307    1.0000 </r>
       <r>   -1.1289    1.0000 </r>
       <r>   -1.1203    1.0000 </r>
       <r>   -1.1014    1.0000 </r>
       <r>   -1.0712    1.0000 </r>
       <r>   -1.0599    1.0000 </r>
       <r>   -1.0204    1.0000 </r>
       <r>   -0.9533    1.0000 </r>
       <r>   -0.9035    1.0000 </r>
       <r>   -0.8651    1.0000 </r>
       <r>   -0.8353    1.0000 </r>
       <r>   -0.5633    1.0000 </r>
       <r>   -0.4299    1.0000 </r>
       <r>   -0.4129    1.0000 </r>
       <r>   -0.0199    1.0000 </r>
       <r>    2.6125    0.0000 </r>
       <r>    3.1023    0.0000 </r>
       <r>    3.1881    0.0000 </r>
       <r>    3.2281    0.0000 </r>
       <r>    3.2962    0.0000 </r>
       <r>    4.1163    0.0000 </r>
       <r>    4.2917    0.0000 </r>
       <r>    4.3258    0.0000 </r>
       <r>    4.3562    0.0000 </r>
       <r>    4.4044    0.0000 </r>
       <r>    4.4873    0.0000 </r>
       <r>    4.5353    0.0000 </r>
       <r>    4.5683    0.0000 </r>
       <r>    4.5794    0.0000 </r>
       <r>    4.6408    0.0000 </r>
       <r>    4.6888    0.0000 </r>
       <r>    4.7125    0.0000 </r>
       <r>    4.7913    0.0000 </r>
       <r>    4.9039    0.0000 </r>
       <r>    4.9411    0.0000 </r>
       <r>    5.5331    0.0000 </r>
       <r>    5.6645    0.0000 </r>
       <r>    5.7663    0.0000 </r>
       <r>    5.8688    0.0000 </r>
       <r>    5.9272    0.0000 </r>
       <r>    5.9781    0.0000 </r>
       <r>    6.1201    0.0000 </r>
       <r>    6.1839    0.0000 </r>
       <r>    6.2523    0.0000 </r>
       <r>    6.2837    0.0000 </r>
       <r>    6.2929    0.0000 </r>
       <r>    6.4253    0.0000 </r>
       <r>    6.4521    0.0000 </r>
       <r>    6.4931    0.0000 </r>
       <r>    6.5213    0.0000 </r>
       <r>    6.6225    0.0000 </r>
      </set>
      <set comment="kpoint 5">
       <r>  -20.9619    1.0000 </r>
       <r>  -20.8028    1.0000 </r>
       <r>  -20.7685    1.0000 </r>
       <r>  -20.7602    1.0000 </r>
       <r>  -20.7431    1.0000 </r>
       <r>  -20.6925    1.0000 </r>
       <r>  -20.6891    1.0000 </r>
       <r>  -20.6777    1.0000 </r>
       <r>  -17.4164    1.0000 </r>
       <r>  -16.6773    1.0000 </r>
       <r>  -16.6715    1.0000 </r>
       <r>  -16.6700    1.0000 </r>
       <r>  -16.6565    1.0000 </r>
       <r>  -16.5874    1.0000 </r>
       <r>  -16.5857    1.0000 </r>
       <r>  -16.5816    1.0000 </r>
       <r>  -16.5784    1.0000 </r>
       <r>  -16.5430    1.0000 </r>
       <r>  -16.5407    1.0000 </r>
       <r>  -16.4688    1.0000 </r>
       <r>  -16.4578    1.0000 </r>
       <r>  -16.4363    1.0000 </r>
       <r>  -16.4119    1.0000 </r>
       <r>  -16.3954    1.0000 </r>
       <r>  -16.3904    1.0000 </r>
       <r>  -16.3777    1.0000 </r>
       <r>  -16.3710    1.0000 </r>
       <r>  -16.3605    1.0000 </r>
       <r>  -16.3555    1.0000 </r>
       <r>  -16.3505    1.0000 </r>
       <r>  -16.3464    1.0000 </r>
       <r>  -16.3392    1.0000 </r>
       <r>  -16.3289    1.0000 </r>
       <r>  -16.3004    1.0000 </r>
       <r>  -16.2928    1.0000 </r>
       <r>  -16.2883    1.0000 </r>
       <r>  -16.2826    1.0000 </r>
       <r>  -16.2765    1.0000 </r>
       <r>  -16.2745    1.0000 </r>
       <r>  -16.2674    1.0000 </r>
       <r>  -16.2632    1.0000 </r>
       <r>  -16.2612    1.0000 </r>
       <r>  -16.2502    1.0000 </r>
       <r>  -16.2474    1.0000 </r>
       <r>  -16.2199    1.0000 </r>
       <r>  -16.2184    1.0000 </r>
       <r>  -16.2094    1.0000 </r>
       <r>  -16.2082    1.0000 </r>
       <r>  -14.7431    1.0000 </r>
       <r>  -14.3609    1.0000 </r>
       <r>  -14.2873    1.0000 </r>
       <r>  -14.2250    1.0000 </r>
       <r>  -14.1538    1.0000 </r>
       <r>  -14.1395    1.0000 </r>
       <r>  -14.1088    1.0000 </r>
       <r>  -14.0897    1.0000 </r>
       <r>  -14.0743    1.0000 </r>
       <r>  -14.0677    1.0000 </r>
       <r>  -14.0363    1.0000 </r>
       <r>  -14.0308    1.0000 </r>
       <r>  -14.0186    1.0000 </r>
       <r>  -13.9998    1.0000 </r>
       <r>  -13.9649    1.0000 </r>
       <r>  -13.9254    1.0000 </r>
       <r>  -13.8632    1.0000 </r>
       <r>  -13.8493    1.0000 </r>
       <r>  -13.8358    1.0000 </r>
       <r>  -13.8182    1.0000 </r>
       <r>  -13.7736    1.0000 </r>
       <r>  -13.7689    1.0000 </r>
       <r>  -13.6502    1.0000 </r>
       <r>   -8.0818    1.0000 </r>
       <r>   -7.9872    1.0000 </r>
       <r>   -7.7121    1.0000 </r>
       <r>   -7.5155    1.0000 </r>
       <r>   -7.4826    1.0000 </r>
       <r>   -7.4581    1.0000 </r>
       <r>   -7.4029    1.0000 </r>
       <r>   -7.3379    1.0000 </r>
       <r>   -7.3162    1.0000 </r>
       <r>   -7.2408    1.0000 </r>
       <r>   -7.2324    1.0000 </r>
       <r>   -7.2055    1.0000 </r>
       <r>   -7.2028    1.0000 </r>
       <r>   -7.1929    1.0000 </r>
       <r>   -7.1726    1.0000 </r>
       <r>   -7.1594    1.0000 </r>
       <r>   -7.1579    1.0000 </r>
       <r>   -7.1435    1.0000 </r>
       <r>   -7.1403    1.0000 </r>
       <r>   -7.1265    1.0000 </r>
       <r>   -7.1244    1.0000 </r>
       <r>   -7.1075    1.0000 </r>
       <r>   -7.1039    1.0000 </r>
       <r>   -7.0953    1.0000 </r>
       <r>   -7.0893    1.0000 </r>
       <r>   -7.0868    1.0000 </r>
       <r>   -7.0789    1.0000 </r>
       <r>   -7.0716    1.0000 </r>
       <r>   -7.0662    1.0000 </r>
       <r>   -7.0545    1.0000 </r>
       <r>   -6.9247    1.0000 </r>
       <r>   -6.8392    1.0000 </r>
       <r>   -3.4672    1.0000 </r>
       <r>   -3.3535    1.0000 </r>
       <r>   -3.3436    1.0000 </r>
       <r>   -3.2796    1.0000 </r>
       <r>   -3.2458    1.0000 </r>
       <r>   -3.2096    1.0000 </r>
       <r>   -3.1639    1.0000 </r>
       <r>   -3.1349    1.0000 </r>
       <r>   -3.0747    1.0000 </r>
       <r>   -2.5104    1.0000 </r>
       <r>   -2.5018    1.0000 </r>
       <r>   -2.4923    1.0000 </r>
       <r>   -2.4400    1.0000 </r>
       <r>   -2.3945    1.0000 </r>
       <r>   -2.3522    1.0000 </r>
       <r>   -2.3233    1.0000 </r>
       <r>   -2.2732    1.0000 </r>
       <r>   -2.0761    1.0000 </r>
       <r>   -2.0476    1.0000 </r>
       <r>   -2.0401    1.0000 </r>
       <r>   -1.9889    1.0000 </r>
       <r>   -1.9360    1.0000 </r>
       <r>   -1.9033    1.0000 </r>
       <r>   -1.8204    1.0000 </r>
       <r>   -1.8092    1.0000 </r>
       <r>   -1.7974    1.0000 </r>
       <r>   -1.7014    1.0000 </r>
       <r>   -1.6382    1.0000 </r>
       <r>   -1.6112    1.0000 </r>
       <r>   -1.5758    1.0000 </r>
       <r>   -1.5559    1.0000 </r>
       <r>   -1.5417    1.0000 </r>
       <r>   -1.5132    1.0000 </r>
       <r>   -1.4902    1.0000 </r>
       <r>   -1.4689    1.0000 </r>
       <r>   -1.4590    1.0000 </r>
       <r>   -1.4412    1.0000 </r>
       <r>   -1.4387    1.0000 </r>
       <r>   -1.4148    1.0000 </r>
       <r>   -1.3934    1.0000 </r>
       <r>   -1.3851    1.0000 </r>
       <r>   -1.3708    1.0000 </r>
       <r>   -1.3449    1.0000 </r>
       <r>   -1.3398    1.0000 </r>
       <r>   -1.3115    1.0000 </r>
       <r>   -1.3083    1.0000 </r>
       <r>   -1.2903    1.0000 </r>
       <r>   -1.2886    1.0000 </r>
       <r>   -1.2757    1.0000 </r>
       <r>   -1.2515    1.0000 </r>
       <r>   -1.2353    1.0000 </r>
       <r>   -1.2190    1.0000 </r>
       <r>   -1.2068    1.0000 </r>
       <r>   -1.1842    1.0000 </r>
       <r>   -1.1564    1.0000 </r>
       <r>   -1.1380    1.0000 </r>
       <r>   -1.1211    1.0000 </r>
       <r>   -1.0857    1.0000 </r>
       <r>   -1.0451    1.0000 </r>
       <r>   -1.0315    1.0000 </r>
       <r>   -0.9672    1.0000 </r>
       <r>   -0.8866    1.0000 </r>
       <r>   -0.8788    1.0000 </r>
       <r>   -0.6673    1.0000 </r>
       <r>   -0.6009    1.0000 </r>
       <r>   -0.5382    1.0000 </r>
       <r>   -0.2728    1.0000 </r>
       <r>   -0.0046    1.0000 </r>
       <r>    0.2377    1.0000 </r>
       <r>    2.6903    0.0000 </r>
       <r>    2.8605    0.0000 </r>
       <r>    2.9277    0.0000 </r>
       <r>    3.0036    0.0000 </r>
       <r>    3.1484    0.0000 </r>
       <r>    3.2570    0.0000 </r>
       <r>    3.3303    0.0000 </r>
       <r>    3.4240    0.0000 </r>
       <r>    3.4275    0.0000 </r>
       <r>    4.1000    0.0000 </r>
       <r>    4.3133    0.0000 </r>
       <r>    4.3725    0.0000 </r>
       <r>    4.5406    0.0000 </r>
       <r>    4.5911    0.0000 </r>
       <r>    4.8038    0.0000 </r>
       <r>    4.8375    0.0000 </r>
       <r>    5.3232    0.0000 </r>
       <r>    5.4239    0.0000 </r>
       <r>    5.5976    0.0000 </r>
       <r>    5.6839    0.0000 </r>
       <r>    5.8204    0.0000 </r>
       <r>    5.8805    0.0000 </r>
       <r>    6.0012    0.0000 </r>
       <r>    6.0541    0.0000 </r>
       <r>    6.0884    0.0000 </r>
       <r>    6.1780    0.0000 </r>
       <r>    6.1907    0.0000 </r>
       <r>    6.2167    0.0000 </r>
       <r>    6.2718    0.0000 </r>
       <r>    6.3162    0.0000 </r>
       <r>    6.3401    0.0000 </r>
       <r>    6.4470    0.0000 </r>
       <r>    6.4974    0.0000 </r>
       <r>    6.5349    0.0000 </r>
       <r>    6.5662    0.0000 </r>
       <r>    6.6357    0.0000 </r>
      </set>
      <set comment="kpoint 6">
       <r>  -20.9618    1.0000 </r>
       <r>  -20.8028    1.0000 </r>
       <r>  -20.7682    1.0000 </r>
       <r>  -20.7605    1.0000 </r>
       <r>  -20.7431    1.0000 </r>
       <r>  -20.6925    1.0000 </r>
       <r>  -20.6892    1.0000 </r>
       <r>  -20.6777    1.0000 </r>
       <r>  -17.4164    1.0000 </r>
       <r>  -16.6773    1.0000 </r>
       <r>  -16.6706    1.0000 </r>
       <r>  -16.6673    1.0000 </r>
       <r>  -16.6549    1.0000 </r>
       <r>  -16.5874    1.0000 </r>
       <r>  -16.5857    1.0000 </r>
       <r>  -16.5816    1.0000 </r>
       <r>  -16.5785    1.0000 </r>
       <r>  -16.5430    1.0000 </r>
       <r>  -16.5407    1.0000 </r>
       <r>  -16.4609    1.0000 </r>
       <r>  -16.4541    1.0000 </r>
       <r>  -16.4390    1.0000 </r>
       <r>  -16.4122    1.0000 </r>
       <r>  -16.3980    1.0000 </r>
       <r>  -16.3928    1.0000 </r>
       <r>  -16.3784    1.0000 </r>
       <r>  -16.3779    1.0000 </r>
       <r>  -16.3634    1.0000 </r>
       <r>  -16.3556    1.0000 </r>
       <r>  -16.3464    1.0000 </r>
       <r>  -16.3393    1.0000 </r>
       <r>  -16.3351    1.0000 </r>
       <r>  -16.3293    1.0000 </r>
       <r>  -16.3161    1.0000 </r>
       <r>  -16.2928    1.0000 </r>
       <r>  -16.2883    1.0000 </r>
       <r>  -16.2826    1.0000 </r>
       <r>  -16.2764    1.0000 </r>
       <r>  -16.2745    1.0000 </r>
       <r>  -16.2674    1.0000 </r>
       <r>  -16.2631    1.0000 </r>
       <r>  -16.2612    1.0000 </r>
       <r>  -16.2502    1.0000 </r>
       <r>  -16.2474    1.0000 </r>
       <r>  -16.2199    1.0000 </r>
       <r>  -16.2185    1.0000 </r>
       <r>  -16.2094    1.0000 </r>
       <r>  -16.2082    1.0000 </r>
       <r>  -14.7446    1.0000 </r>
       <r>  -14.3449    1.0000 </r>
       <r>  -14.2678    1.0000 </r>
       <r>  -14.2546    1.0000 </r>
       <r>  -14.2121    1.0000 </r>
       <r>  -14.1784    1.0000 </r>
       <r>  -14.1109    1.0000 </r>
       <r>  -14.1076    1.0000 </r>
       <r>  -14.0744    1.0000 </r>
       <r>  -14.0514    1.0000 </r>
       <r>  -14.0322    1.0000 </r>
       <r>  -14.0190    1.0000 </r>
       <r>  -13.9999    1.0000 </r>
       <r>  -13.9128    1.0000 </r>
       <r>  -13.8927    1.0000 </r>
       <r>  -13.8891    1.0000 </r>
       <r>  -13.8841    1.0000 </r>
       <r>  -13.8770    1.0000 </r>
       <r>  -13.8688    1.0000 </r>
       <r>  -13.8033    1.0000 </r>
       <r>  -13.7868    1.0000 </r>
       <r>  -13.7434    1.0000 </r>
       <r>  -13.7248    1.0000 </r>
       <r>   -7.9808    1.0000 </r>
       <r>   -7.7932    1.0000 </r>
       <r>   -7.7481    1.0000 </r>
       <r>   -7.6943    1.0000 </r>
       <r>   -7.5447    1.0000 </r>
       <r>   -7.4067    1.0000 </r>
       <r>   -7.3475    1.0000 </r>
       <r>   -7.3229    1.0000 </r>
       <r>   -7.2977    1.0000 </r>
       <r>   -7.2639    1.0000 </r>
       <r>   -7.2348    1.0000 </r>
       <r>   -7.2123    1.0000 </r>
       <r>   -7.2011    1.0000 </r>
       <r>   -7.1950    1.0000 </r>
       <r>   -7.1906    1.0000 </r>
       <r>   -7.1730    1.0000 </r>
       <r>   -7.1530    1.0000 </r>
       <r>   -7.1513    1.0000 </r>
       <r>   -7.1421    1.0000 </r>
       <r>   -7.1303    1.0000 </r>
[...]
        <r>  0.0001  0.0005  0.0007 </r>
        <r>  0.0022  0.0006  0.0027 </r>
        <r>  0.0003  0.0012  0.0008 </r>
        <r>  0.0007  0.0029  0.0009 </r>
        <r>  0.0000  0.0003  0.0011 </r>
        <r>  0.0011  0.0017  0.0015 </r>
        <r>  0.0010  0.0054  0.0007 </r>
        <r>  0.0000  0.0027  0.0006 </r>
        <r>  0.0001  0.0015  0.0026 </r>
       </set>
       <set comment="band 199">
        <r>  0.0043  0.0009  0.0034 </r>
        <r>  0.0010  0.0005  0.0061 </r>
        <r>  0.0005  0.0003  0.0035 </r>
        <r>  0.0058  0.0017  0.0098 </r>
        <r>  0.0000  0.0010  0.0019 </r>
        <r>  0.0027  0.0008  0.0031 </r>
        <r>  0.0008  0.0014  0.0111 </r>
        <r>  0.0000  0.0010  0.0093 </r>
        <r>  0.0000  0.0002  0.0002 </r>
        <r>  0.0005  0.0090  0.0003 </r>
        <r>  0.0000  0.0056  0.0000 </r>
        <r>  0.0000  0.0048  0.0000 </r>
        <r>  0.0000  0.0127  0.0000 </r>
        <r>  0.0001  0.0005  0.0001 </r>
        <r>  0.0000  0.0042  0.0001 </r>
        <r>  0.0004  0.0233  0.0011 </r>
        <r>  0.0013  0.0060  0.0025 </r>
        <r>  0.0008  0.0010  0.0002 </r>
        <r>  0.0000  0.0007  0.0007 </r>
        <r>  0.0046  0.0061  0.0013 </r>
        <r>  0.0000  0.0011  0.0006 </r>
        <r>  0.0005  0.0027  0.0009 </r>
        <r>  0.0000  0.0005  0.0003 </r>
        <r>  0.0004  0.0003  0.0017 </r>
        <r>  0.0019  0.0006  0.0013 </r>
        <r>  0.0007  0.0003  0.0004 </r>
        <r>  0.0008  0.0004  0.0010 </r>
        <r>  0.0000  0.0011  0.0006 </r>
        <r>  0.0000  0.0003  0.0005 </r>
        <r>  0.0009  0.0037  0.0014 </r>
        <r>  0.0001  0.0011  0.0001 </r>
        <r>  0.0004  0.0070  0.0006 </r>
        <r>  0.0008  0.0033  0.0002 </r>
        <r>  0.0002  0.0012  0.0004 </r>
        <r>  0.0002  0.0022  0.0004 </r>
        <r>  0.0002  0.0049  0.0006 </r>
        <r>  0.0005  0.0116  0.0008 </r>
        <r>  0.0000  0.0019  0.0004 </r>
        <r>  0.0000  0.0010  0.0043 </r>
       </set>
       <set comment="band 200">
        <r>  0.0018  0.0004  0.0057 </r>
        <r>  0.0000  0.0000  0.0086 </r>
        <r>  0.0003  0.0005  0.0056 </r>
        <r>  0.0000  0.0006  0.0036 </r>
        <r>  0.0019  0.0004  0.0124 </r>
        <r>  0.0042  0.0005  0.0098 </r>
        <r>  0.0006  0.0001  0.0092 </r>
        <r>  0.0045  0.0020  0.0120 </r>
        <r>  0.0000  0.0028  0.0001 </r>
        <r>  0.0001  0.0011  0.0008 </r>
        <r>  0.0000  0.0001  0.0001 </r>
        <r>  0.0000  0.0013  0.0002 </r>
        <r>  0.0001  0.0115  0.0011 </r>
        <r>  0.0000  0.0042  0.0004 </r>
        <r>  0.0000  0.0010  0.0002 </r>
        <r>  0.0002  0.0098  0.0020 </r>
        <r>  0.0004  0.0015  0.0012 </r>
        <r>  0.0000  0.0018  0.0004 </r>
        <r>  0.0015  0.0019  0.0017 </r>
        <r>  0.0000  0.0030  0.0035 </r>
        <r>  0.0002  0.0037  0.0014 </r>
        <r>  0.0000  0.0041  0.0015 </r>
        <r>  0.0001  0.0031  0.0006 </r>
        <r>  0.0025  0.0049  0.0024 </r>
        <r>  0.0001  0.0049  0.0013 </r>
        <r>  0.0002  0.0015  0.0004 </r>
        <r>  0.0005  0.0001  0.0009 </r>
        <r>  0.0001  0.0022  0.0003 </r>
        <r>  0.0001  0.0006  0.0002 </r>
        <r>  0.0001  0.0001  0.0009 </r>
        <r>  0.0000  0.0018  0.0005 </r>
        <r>  0.0004  0.0005  0.0009 </r>
        <r>  0.0006  0.0002  0.0009 </r>
        <r>  0.0002  0.0013  0.0007 </r>
        <r>  0.0002  0.0014  0.0024 </r>
        <r>  0.0010  0.0029  0.0006 </r>
        <r>  0.0003  0.0017  0.0008 </r>
        <r>  0.0016  0.0038  0.0010 </r>
        <r>  0.0019  0.0028  0.0027 </r>
       </set>
       <set comment="band 201">
        <r>  0.0079  0.0004  0.0046 </r>
        <r>  0.0032  0.0011  0.0109 </r>
        <r>  0.0022  0.0002  0.0077 </r>
        <r>  0.0011  0.0004  0.0050 </r>
        <r>  0.0036  0.0009  0.0103 </r>
        <r>  0.0005  0.0007  0.0039 </r>
        <r>  0.0001  0.0008  0.0078 </r>
        <r>  0.0023  0.0013  0.0076 </r>
        <r>  0.0000  0.0039  0.0001 </r>
        <r>  0.0002  0.0127  0.0002 </r>
        <r>  0.0000  0.0013  0.0002 </r>
        <r>  0.0000  0.0019  0.0003 </r>
        <r>  0.0000  0.0110  0.0003 </r>
        <r>  0.0000  0.0004  0.0000 </r>
        <r>  0.0000  0.0014  0.0002 </r>
        <r>  0.0000  0.0045  0.0002 </r>
        <r>  0.0020  0.0069  0.0022 </r>
        <r>  0.0002  0.0013  0.0009 </r>
        <r>  0.0000  0.0046  0.0009 </r>
        <r>  0.0003  0.0030  0.0006 </r>
        <r>  0.0000  0.0028  0.0008 </r>
        <r>  0.0027  0.0014  0.0030 </r>
        <r>  0.0002  0.0014  0.0025 </r>
        <r>  0.0001  0.0021  0.0007 </r>
        <r>  0.0002  0.0002  0.0001 </r>
        <r>  0.0000  0.0007  0.0009 </r>
        <r>  0.0014  0.0053  0.0017 </r>
        <r>  0.0004  0.0030  0.0009 </r>
        <r>  0.0006  0.0042  0.0005 </r>
        <r>  0.0003  0.0029  0.0003 </r>
        <r>  0.0023  0.0005  0.0014 </r>
        <r>  0.0000  0.0004  0.0003 </r>
        <r>  0.0017  0.0053  0.0020 </r>
        <r>  0.0002  0.0008  0.0006 </r>
        <r>  0.0003  0.0031  0.0002 </r>
        <r>  0.0000  0.0001  0.0011 </r>
        <r>  0.0014  0.0031  0.0013 </r>
        <r>  0.0005  0.0005  0.0012 </r>
        <r>  0.0005  0.0008  0.0007 </r>
       </set>
       <set comment="band 202">
        <r>  0.0004  0.0006  0.0128 </r>
        <r>  0.0049  0.0016  0.0068 </r>
        <r>  0.0020  0.0004  0.0052 </r>
        <r>  0.0002  0.0002  0.0066 </r>
        <r>  0.0006  0.0006  0.0127 </r>
        <r>  0.0047  0.0006  0.0005 </r>
        <r>  0.0009  0.0006  0.0026 </r>
        <r>  0.0001  0.0008  0.0235 </r>
        <r>  0.0000  0.0022  0.0003 </r>
        <r>  0.0000  0.0041  0.0002 </r>
        <r>  0.0000  0.0120  0.0002 </r>
        <r>  0.0000  0.0040  0.0001 </r>
        <r>  0.0001  0.0046  0.0002 </r>
        <r>  0.0000  0.0024  0.0003 </r>
        <r>  0.0000  0.0020  0.0002 </r>
        <r>  0.0000  0.0084  0.0011 </r>
        <r>  0.0003  0.0043  0.0003 </r>
        <r>  0.0004  0.0019  0.0013 </r>
        <r>  0.0013  0.0025  0.0016 </r>
        <r>  0.0008  0.0025  0.0019 </r>
        <r>  0.0000  0.0049  0.0022 </r>
        <r>  0.0019  0.0021  0.0033 </r>
        <r>  0.0000  0.0024  0.0005 </r>
        <r>  0.0000  0.0030  0.0003 </r>
        <r>  0.0003  0.0022  0.0007 </r>
        <r>  0.0000  0.0015  0.0004 </r>
        <r>  0.0009  0.0011  0.0013 </r>
        <r>  0.0000  0.0032  0.0015 </r>
        <r>  0.0009  0.0023  0.0010 </r>
        <r>  0.0002  0.0001  0.0002 </r>
        <r>  0.0020  0.0016  0.0027 </r>
        <r>  0.0002  0.0009  0.0009 </r>
        <r>  0.0001  0.0009  0.0021 </r>
        <r>  0.0003  0.0005  0.0005 </r>
        <r>  0.0010  0.0020  0.0011 </r>
        <r>  0.0000  0.0006  0.0018 </r>
        <r>  0.0004  0.0051  0.0017 </r>
        <r>  0.0012  0.0001  0.0007 </r>
        <r>  0.0006  0.0024  0.0019 </r>
       </set>
       <set comment="band 203">
        <r>  0.0026  0.0019  0.0093 </r>
        <r>  0.0021  0.0007  0.0060 </r>
        <r>  0.0001  0.0003  0.0028 </r>
        <r>  0.0001  0.0004  0.0021 </r>
        <r>  0.0132  0.0002  0.0054 </r>
        <r>  0.0024  0.0015  0.0171 </r>
        <r>  0.0004  0.0003  0.0089 </r>
        <r>  0.0001  0.0008  0.0097 </r>
        <r>  0.0000  0.0050  0.0000 </r>
        <r>  0.0000  0.0073  0.0001 </r>
        <r>  0.0000  0.0012  0.0003 </r>
        <r>  0.0000  0.0066  0.0003 </r>
        <r>  0.0001  0.0041  0.0001 </r>
        <r>  0.0000  0.0064  0.0002 </r>
        <r>  0.0000  0.0066  0.0003 </r>
        <r>  0.0000  0.0071  0.0005 </r>
        <r>  0.0000  0.0006  0.0002 </r>
        <r>  0.0000  0.0086  0.0004 </r>
        <r>  0.0004  0.0044  0.0019 </r>
        <r>  0.0004  0.0041  0.0006 </r>
        <r>  0.0000  0.0008  0.0003 </r>
        <r>  0.0000  0.0006  0.0035 </r>
        <r>  0.0034  0.0014  0.0040 </r>
        <r>  0.0007  0.0020  0.0014 </r>
        <r>  0.0003  0.0017  0.0004 </r>
        <r>  0.0003  0.0008  0.0009 </r>
        <r>  0.0009  0.0009  0.0029 </r>
        <r>  0.0012  0.0033  0.0018 </r>
        <r>  0.0000  0.0025  0.0006 </r>
        <r>  0.0011  0.0007  0.0009 </r>
        <r>  0.0002  0.0019  0.0006 </r>
        <r>  0.0004  0.0013  0.0005 </r>
        <r>  0.0003  0.0012  0.0009 </r>
        <r>  0.0004  0.0006  0.0005 </r>
        <r>  0.0002  0.0023  0.0007 </r>
        <r>  0.0005  0.0014  0.0007 </r>
        <r>  0.0002  0.0007  0.0016 </r>
        <r>  0.0024  0.0040  0.0028 </r>
        <r>  0.0004  0.0004  0.0008 </r>
       </set>
       <set comment="band 204">
        <r>  0.0002  0.0002  0.0105 </r>
        <r>  0.0022  0.0000  0.0058 </r>
        <r>  0.0089  0.0018  0.0159 </r>
        <r>  0.0011  0.0007  0.0105 </r>
        <r>  0.0003  0.0009  0.0062 </r>
        <r>  0.0001  0.0007  0.0079 </r>
        <r>  0.0017  0.0009  0.0166 </r>
        <r>  0.0026  0.0007  0.0060 </r>
        <r>  0.0001  0.0017  0.0004 </r>
        <r>  0.0000  0.0035  0.0004 </r>
        <r>  0.0000  0.0021  0.0001 </r>
        <r>  0.0000  0.0028  0.0001 </r>
        <r>  0.0000  0.0079  0.0003 </r>
        <r>  0.0000  0.0044  0.0005 </r>
        <r>  0.0000  0.0130  0.0001 </r>
        <r>  0.0001  0.0010  0.0008 </r>
        <r>  0.0000  0.0015  0.0009 </r>
        <r>  0.0007  0.0046  0.0017 </r>
        <r>  0.0011  0.0060  0.0017 </r>
        <r>  0.0000  0.0005  0.0008 </r>
        <r>  0.0043  0.0023  0.0044 </r>
        <r>  0.0000  0.0002  0.0003 </r>
        <r>  0.0000  0.0032  0.0005 </r>
        <r>  0.0000  0.0023  0.0010 </r>
        <r>  0.0002  0.0000  0.0012 </r>
        <r>  0.0004  0.0023  0.0006 </r>
        <r>  0.0001  0.0012  0.0010 </r>
        <r>  0.0005  0.0007  0.0008 </r>
        <r>  0.0010  0.0029  0.0013 </r>
        <r>  0.0001  0.0004  0.0003 </r>
        <r>  0.0003  0.0027  0.0009 </r>
        <r>  0.0000  0.0002  0.0011 </r>
        <r>  0.0002  0.0017  0.0017 </r>
        <r>  0.0010  0.0002  0.0006 </r>
        <r>  0.0026  0.0053  0.0033 </r>
        <r>  0.0002  0.0016  0.0009 </r>
        <r>  0.0005  0.0001  0.0006 </r>
        <r>  0.0007  0.0013  0.0013 </r>
        <r>  0.0002  0.0012  0.0019 </r>
       </set>
       <set comment="band 205">
        <r>  0.0009  0.0009  0.0202 </r>
        <r>  0.0019  0.0004  0.0067 </r>
        <r>  0.0007  0.0000  0.0287 </r>
        <r>  0.0033  0.0003  0.0071 </r>
        <r>  0.0006  0.0006  0.0115 </r>
        <r>  0.0000  0.0002  0.0044 </r>
        <r>  0.0022  0.0008  0.0150 </r>
        <r>  0.0001  0.0002  0.0148 </r>
        <r>  0.0000  0.0034  0.0004 </r>
        <r>  0.0000  0.0010  0.0003 </r>
        <r>  0.0000  0.0011  0.0001 </r>
        <r>  0.0000  0.0011  0.0003 </r>
        <r>  0.0000  0.0007  0.0004 </r>
        <r>  0.0000  0.0074  0.0002 </r>
        <r>  0.0000  0.0036  0.0002 </r>
        <r>  0.0000  0.0067  0.0001 </r>
        <r>  0.0001  0.0025  0.0004 </r>
        <r>  0.0004  0.0001  0.0010 </r>
        <r>  0.0010  0.0014  0.0007 </r>
        <r>  0.0000  0.0006  0.0006 </r>
        <r>  0.0020  0.0022  0.0024 </r>
        <r>  0.0004  0.0030  0.0011 </r>
        <r>  0.0000  0.0014  0.0006 </r>
        <r>  0.0009  0.0021  0.0025 </r>
        <r>  0.0003  0.0013  0.0014 </r>
        <r>  0.0009  0.0016  0.0018 </r>
        <r>  0.0006  0.0003  0.0012 </r>
        <r>  0.0013  0.0016  0.0014 </r>
        <r>  0.0000  0.0016  0.0023 </r>
        <r>  0.0004  0.0010  0.0018 </r>
        <r>  0.0000  0.0025  0.0019 </r>
        <r>  0.0000  0.0017  0.0008 </r>
        <r>  0.0002  0.0010  0.0003 </r>
        <r>  0.0001  0.0026  0.0011 </r>
        <r>  0.0003  0.0042  0.0013 </r>
        <r>  0.0000  0.0030  0.0004 </r>
        <r>  0.0001  0.0004  0.0003 </r>
        <r>  0.0001  0.0032  0.0005 </r>
        <r>  0.0010  0.0003  0.0033 </r>
       </set>
       <set comment="band 206">
        <r>  0.0001  0.0001  0.0083 </r>
        <r>  0.0000  0.0001  0.0220 </r>
        <r>  0.0025  0.0001  0.0158 </r>
        <r>  0.0012  0.0000  0.0097 </r>
        <r>  0.0003  0.0002  0.0091 </r>
        <r>  0.0012  0.0003  0.0100 </r>
        <r>  0.0016  0.0002  0.0221 </r>
        <r>  0.0022  0.0001  0.0085 </r>
        <r>  0.0000  0.0071  0.0006 </r>
        <r>  0.0000  0.0020  0.0004 </r>
        <r>  0.0000  0.0094  0.0002 </r>
        <r>  0.0001  0.0098  0.0005 </r>
        <r>  0.0000  0.0005  0.0003 </r>
        <r>  0.0000  0.0032  0.0005 </r>
        <r>  0.0000  0.0068  0.0001 </r>
        <r>  0.0000  0.0163  0.0009 </r>
        <r>  0.0000  0.0002  0.0002 </r>
        <r>  0.0000  0.0004  0.0003 </r>
        <r>  0.0000  0.0002  0.0002 </r>
        <r>  0.0000  0.0015  0.0005 </r>
        <r>  0.0001  0.0002  0.0009 </r>
        <r>  0.0001  0.0005  0.0006 </r>
        <r>  0.0000  0.0004  0.0004 </r>
        <r>  0.0004  0.0014  0.0011 </r>
        <r>  0.0004  0.0010  0.0023 </r>
        <r>  0.0005  0.0010  0.0029 </r>
        <r>  0.0002  0.0035  0.0007 </r>
        <r>  0.0003  0.0027  0.0007 </r>
        <r>  0.0025  0.0001  0.0047 </r>
        <r>  0.0011  0.0003  0.0025 </r>
        <r>  0.0002  0.0048  0.0009 </r>
        <r>  0.0009  0.0034  0.0025 </r>
        <r>  0.0002  0.0005  0.0019 </r>
        <r>  0.0001  0.0007  0.0021 </r>
        <r>  0.0007  0.0001  0.0010 </r>
        <r>  0.0001  0.0001  0.0008 </r>
        <r>  0.0011  0.0059  0.0038 </r>
        <r>  0.0005  0.0009  0.0017 </r>
        <r>  0.0001  0.0011  0.0042 </r>
       </set>
       <set comment="band 207">
        <r>  0.0025  0.0001  0.0111 </r>
        <r>  0.0002  0.0005  0.0112 </r>
        <r>  0.0013  0.0022  0.0122 </r>
        <r>  0.0001  0.0004  0.0183 </r>
        <r>  0.0000  0.0002  0.0154 </r>
        <r>  0.0038  0.0002  0.0075 </r>
        <r>  0.0006  0.0002  0.0146 </r>
        <r>  0.0027  0.0004  0.0064 </r>
        <r>  0.0000  0.0128  0.0004 </r>
        <r>  0.0000  0.0068  0.0001 </r>
        <r>  0.0001  0.0037  0.0005 </r>
        <r>  0.0001  0.0017  0.0005 </r>
        <r>  0.0000  0.0035  0.0002 </r>
        <r>  0.0001  0.0073  0.0002 </r>
        <r>  0.0000  0.0038  0.0007 </r>
        <r>  0.0000  0.0015  0.0004 </r>
        <r>  0.0002  0.0002  0.0009 </r>
        <r>  0.0004  0.0039  0.0016 </r>
        <r>  0.0002  0.0012  0.0007 </r>
        <r>  0.0005  0.0004  0.0014 </r>
        <r>  0.0008  0.0017  0.0017 </r>
        <r>  0.0006  0.0007  0.0011 </r>
        <r>  0.0001  0.0026  0.0008 </r>
        <r>  0.0007  0.0006  0.0025 </r>
        <r>  0.0000  0.0003  0.0010 </r>
        <r>  0.0001  0.0010  0.0006 </r>
        <r>  0.0002  0.0016  0.0018 </r>
        <r>  0.0033  0.0007  0.0034 </r>
        <r>  0.0009  0.0017  0.0014 </r>
        <r>  0.0000  0.0044  0.0005 </r>
        <r>  0.0001  0.0004  0.0013 </r>
        <r>  0.0004  0.0020  0.0016 </r>
        <r>  0.0001  0.0023  0.0004 </r>
        <r>  0.0013  0.0059  0.0027 </r>
        <r>  0.0003  0.0006  0.0022 </r>
        <r>  0.0010  0.0019  0.0013 </r>
        <r>  0.0000  0.0011  0.0015 </r>
        <r>  0.0002  0.0022  0.0007 </r>
        <r>  0.0000  0.0011  0.0011 </r>
       </set>
       <set comment="band 208">
        <r>  0.0001  0.0004  0.0099 </r>
        <r>  0.0001  0.0002  0.0052 </r>
        <r>  0.0001  0.0005  0.0256 </r>
        <r>  0.0034  0.0006  0.0169 </r>
        <r>  0.0000  0.0005  0.0186 </r>
        <r>  0.0009  0.0003  0.0136 </r>
        <r>  0.0010  0.0006  0.0255 </r>
        <r>  0.0000  0.0001  0.0083 </r>
        <r>  0.0000  0.0072  0.0002 </r>
        <r>  0.0000  0.0028  0.0001 </r>
        <r>  0.0000  0.0011  0.0010 </r>
        <r>  0.0000  0.0003  0.0008 </r>
        <r>  0.0000  0.0037  0.0001 </r>
        <r>  0.0000  0.0090  0.0001 </r>
        <r>  0.0001  0.0014  0.0008 </r>
        <r>  0.0001  0.0037  0.0001 </r>
        <r>  0.0007  0.0018  0.0045 </r>
        <r>  0.0011  0.0009  0.0015 </r>
        <r>  0.0001  0.0019  0.0007 </r>
        <r>  0.0001  0.0007  0.0005 </r>
        <r>  0.0007  0.0009  0.0017 </r>
        <r>  0.0005  0.0009  0.0023 </r>
        <r>  0.0004  0.0012  0.0010 </r>
        <r>  0.0000  0.0012  0.0013 </r>
        <r>  0.0001  0.0008  0.0003 </r>
        <r>  0.0014  0.0022  0.0027 </r>
        <r>  0.0001  0.0016  0.0009 </r>
        <r>  0.0002  0.0007  0.0013 </r>
        <r>  0.0000  0.0019  0.0020 </r>
        <r>  0.0001  0.0001  0.0012 </r>
        <r>  0.0001  0.0017  0.0022 </r>
        <r>  0.0003  0.0006  0.0016 </r>
        <r>  0.0004  0.0006  0.0012 </r>
        <r>  0.0002  0.0031  0.0030 </r>
        <r>  0.0001  0.0021  0.0019 </r>
        <r>  0.0001  0.0006  0.0006 </r>
        <r>  0.0000  0.0004  0.0003 </r>
        <r>  0.0002  0.0031  0.0010 </r>
        <r>  0.0002  0.0004  0.0008 </r>
       </set>
      </set>
     </set>
    </set>
   </array>
  </projected>
 </calculation>
 <structure name="finalpos" >
  <crystal>
   <varray name="basis" >
    <v>       8.45648900       0.00000000       8.04030100 </v>
    <v>       0.00000000      11.72984700       0.00000000 </v>
    <v>      -8.45648900       0.00000000       8.04030100 </v>
   </varray>
   <i name="volume">   1595.08833419 </i>
   <varray name="rec_basis" >
    <v>       0.05912619      -0.00000000       0.06218673 </v>
    <v>       0.00000000       0.08525260      -0.00000000 </v>
    <v>      -0.05912619       0.00000000       0.06218673 </v>
   </varray>
  </crystal>
  <varray name="positions" >
   <v>       0.25906500       0.24132100       0.19974800 </v>
   <v>       0.78110000       0.24634600       0.71135800 </v>
   <v>       0.72742300       0.75776300       0.26510800 </v>
   <v>       0.20036900       0.75085900       0.77549700 </v>
   <v>       0.28413700       0.24693700       0.73160400 </v>
   <v>       0.79693400       0.24949500       0.22861500 </v>
   <v>       0.73575600       0.75340400       0.80137000 </v>
   <v>       0.21856500       0.75363400       0.28686100 </v>
   <v>       0.99969900       0.00018700       0.99921300 </v>
   <v>       0.49931300       0.00690200       0.49897300 </v>
   <v>       0.49972900       0.00053600       0.00025000 </v>
   <v>       0.00107700       0.00022300       0.50095200 </v>
   <v>       0.50144300       0.49839200       0.99207500 </v>
   <v>       0.00046700       0.50013900       0.50019600 </v>
   <v>       0.99963500       0.49949300       0.00006700 </v>
   <v>       0.49957800       0.49328600       0.50414200 </v>
   <v>       0.47158300       0.74840600       0.96174500 </v>
   <v>       0.97058000       0.75006400       0.46999600 </v>
   <v>       0.97042900       0.24987400       0.97194400 </v>
   <v>       0.45156000       0.25202900       0.46383400 </v>
   <v>       0.02420900       0.74951300       0.03076100 </v>
   <v>       0.52572300       0.25192600       0.04620400 </v>
   <v>       0.03260800       0.25041800       0.53162100 </v>
   <v>       0.24846500       0.46799700       0.95268200 </v>
   <v>       0.74560800       0.46866600       0.44766100 </v>
   <v>       0.94815100       0.53169600       0.74751700 </v>
   <v>       0.55003500       0.03701700       0.75164500 </v>
   <v>       0.04611600       0.02767200       0.25285800 </v>
   <v>       0.75177800       0.97229100       0.04759400 </v>
   <v>       0.25507700       0.96028700       0.54945100 </v>
   <v>       0.24770700       0.02933200       0.94918000 </v>
   <v>       0.74700300       0.03437100       0.45058600 </v>
   <v>       0.45204000       0.95793900       0.25026200 </v>
   <v>       0.94972700       0.96740200       0.74783000 </v>
   <v>       0.74964000       0.53049600       0.05256800 </v>
   <v>       0.25611400       0.54044700       0.55072300 </v>
   <v>       0.55449300       0.46293200       0.74956100 </v>
   <v>       0.05402200       0.46888500       0.25266800 </v>
   <v>       0.49753200       0.64767700       0.38541000 </v>
  </varray>
 </structure>
</modeling>
