CsPbBr3 cubic bulk                      
           1
     8.456489    0.000000    8.040301
     0.000000   11.729847    0.000000
    -8.456489    0.000000    8.040301
   Cs   Pb   Br
   8   8  23
Direct configuration=     1
   0.25906500  0.24132100  0.19974800
   0.78110000  0.24634600  0.71135800
   0.72742300  0.75776300  0.26510800
   0.20036900  0.75085900  0.77549700
   0.28413700  0.24693700  0.73160400
   0.79693400  0.24949500  0.22861500
   0.73575600  0.75340400  0.80137000
   0.21856500  0.75363400  0.28686100
   0.99969900  0.00018700  0.99921300
   0.49931300  0.00690200  0.49897300
   0.49972900  0.00053600  0.00025000
   0.00107700  0.00022300  0.50095200
   0.50144300  0.49839200  0.99207500
   0.00046700  0.50013900  0.50019600
   0.99963500  0.49949300  0.00006700
   0.49957800  0.49328600  0.50414200
   0.47158300  0.74840600  0.96174500
   0.97058000  0.75006400  0.46999600
   0.97042900  0.24987400  0.97194400
   0.45156000  0.25202900  0.46383400
   0.02420900  0.74951300  0.03076100
   0.52572300  0.25192600  0.04620400
   0.03260800  0.25041800  0.53162100
   0.24846500  0.46799700  0.95268200
   0.74560800  0.46866600  0.44766100
   0.94815100  0.53169600  0.74751700
   0.55003500  0.03701700  0.75164500
   0.04611600  0.02767200  0.25285800
   0.75177800  0.97229100  0.04759400
   0.25507700  0.96028700  0.54945100
   0.24770700  0.02933200  0.94918000
   0.74700300  0.03437100  0.45058600
   0.45204000  0.95793900  0.25026200
   0.94972700  0.96740200  0.74783000
   0.74964000  0.53049600  0.05256800
   0.25611400  0.54044700  0.55072300
   0.55449300  0.46293200  0.74956100
   0.05402200  0.46888500  0.25266800
   0.49753200  0.64767700  0.38541000
