  39  39   1   0
  0.4089970E+02  0.1166870E-08  0.1172985E-08  0.1166870E-08  0.5000000E-15
   1.0000000000000000E-004
  CAR 
 CsPbBr3 cubic bulk                      
      8.07648108    -22.33782390  301      0.39686907      1.00000000
    -22.338  0.0000E+00  0.0000E+00
    -22.236  0.0000E+00  0.0000E+00
    -22.135  0.0000E+00  0.0000E+00
    -22.034  0.0000E+00  0.0000E+00
    -21.932  0.0000E+00  0.0000E+00
    -21.831  0.0000E+00  0.0000E+00
    -21.730  0.0000E+00  0.0000E+00
    -21.628  0.0000E+00  0.0000E+00
    -21.527  0.0000E+00  0.0000E+00
    -21.425  0.0000E+00  0.0000E+00
    -21.324  0.0000E+00  0.0000E+00
    -21.223  0.0000E+00  0.0000E+00
    -21.121  0.0000E+00  0.0000E+00
    -21.020  0.0000E+00  0.0000E+00
    -20.918  0.1973E+02  0.2000E+01
    -20.817  0.3816E+02  0.5868E+01
    -20.716  0.3946E+02  0.1000E+02
    -20.614  0.1973E+02  0.1200E+02
    -20.513  0.0000E+00  0.1200E+02
    -20.412  0.9147E+01  0.1293E+02
    -20.310  0.1512E+02  0.1553E+02
    -20.209  0.0000E+00  0.1600E+02
    -20.107  0.0000E+00  0.1600E+02
    -20.006  0.0000E+00  0.1600E+02
    -19.905  0.0000E+00  0.1600E+02
    -19.803  0.0000E+00  0.1600E+02
    -19.702  0.0000E+00  0.1600E+02
    -19.601  0.0000E+00  0.1600E+02
    -19.499  0.0000E+00  0.1600E+02
    -19.398  0.0000E+00  0.1600E+02
    -19.296  0.0000E+00  0.1600E+02
    -19.195  0.0000E+00  0.1600E+02
    -19.094  0.0000E+00  0.1600E+02
    -18.992  0.0000E+00  0.1600E+02
    -18.891  0.0000E+00  0.1600E+02
    -18.789  0.0000E+00  0.1600E+02
    -18.688  0.0000E+00  0.1600E+02
    -18.587  0.0000E+00  0.1600E+02
    -18.485  0.0000E+00  0.1600E+02
    -18.384  0.0000E+00  0.1600E+02
    -18.283  0.0000E+00  0.1600E+02
    -18.181  0.0000E+00  0.1600E+02
    -18.080  0.0000E+00  0.1600E+02
    -17.978  0.0000E+00  0.1600E+02
    -17.877  0.0000E+00  0.1600E+02
    -17.776  0.0000E+00  0.1600E+02
    -17.674  0.0000E+00  0.1600E+02
    -17.573  0.0000E+00  0.1600E+02
    -17.472  0.0000E+00  0.1600E+02
    -17.370  0.0000E+00  0.1600E+02
    -17.269  0.0000E+00  0.1600E+02
    -17.167  0.0000E+00  0.1600E+02
    -17.066  0.0000E+00  0.1600E+02
    -16.965  0.0000E+00  0.1600E+02
    -16.863  0.1805E+02  0.1783E+02
    -16.762  0.8524E+02  0.2664E+02
    -16.660  0.1691E+03  0.4864E+02
    -16.559  0.3946E+02  0.5600E+02
    -16.458  0.2951E+02  0.5899E+02
    -16.356  0.9624E+02  0.7201E+02
    -16.255  0.2170E+03  0.9600E+02
    -16.154  0.0000E+00  0.9600E+02
    -16.052  0.0000E+00  0.9600E+02
    -15.951  0.0000E+00  0.9600E+02
    -15.849  0.0000E+00  0.9600E+02
    -15.748  0.0000E+00  0.9600E+02
    -15.647  0.0000E+00  0.9600E+02
    -15.545  0.0000E+00  0.9600E+02
    -15.444  0.0000E+00  0.9600E+02
    -15.343  0.0000E+00  0.9600E+02
    -15.241  0.0000E+00  0.9600E+02
    -15.140  0.0000E+00  0.9600E+02
    -15.038  0.0000E+00  0.9600E+02
    -14.937  0.0000E+00  0.9600E+02
    -14.836  0.0000E+00  0.9600E+02
    -14.734  0.1258E+00  0.9601E+02
    -14.633  0.0000E+00  0.9800E+02
    -14.531  0.1303E+02  0.9932E+02
    -14.430  0.0000E+00  0.1000E+03
    -14.329  0.5390E+01  0.1005E+03
    -14.227  0.4468E+02  0.1058E+03
    -14.126  0.4557E+02  0.1106E+03
    -14.025  0.1052E+03  0.1219E+03
    -13.923  0.6060E+02  0.1291E+03
    -13.822  0.4784E+02  0.1359E+03
    -13.720  0.2713E+02  0.1400E+03
    -13.619  0.0000E+00  0.1400E+03
    -13.518  0.0000E+00  0.1400E+03
    -13.416  0.0000E+00  0.1400E+03
    -13.315  0.0000E+00  0.1400E+03
    -13.214  0.0000E+00  0.1400E+03
    -13.112  0.0000E+00  0.1400E+03
    -13.011  0.0000E+00  0.1400E+03
    -12.909  0.5825E+01  0.1406E+03
    -12.808  0.0000E+00  0.1420E+03
    -12.707  0.0000E+00  0.1420E+03
    -12.605  0.0000E+00  0.1420E+03
    -12.504  0.0000E+00  0.1420E+03
    -12.402  0.0000E+00  0.1420E+03
    -12.301  0.0000E+00  0.1420E+03
    -12.200  0.0000E+00  0.1420E+03
    -12.098  0.0000E+00  0.1420E+03
    -11.997  0.0000E+00  0.1420E+03
    -11.896  0.0000E+00  0.1420E+03
    -11.794  0.0000E+00  0.1420E+03
    -11.693  0.0000E+00  0.1420E+03
    -11.591  0.0000E+00  0.1420E+03
    -11.490  0.0000E+00  0.1420E+03
    -11.389  0.0000E+00  0.1420E+03
    -11.287  0.0000E+00  0.1420E+03
    -11.186  0.0000E+00  0.1420E+03
    -11.085  0.0000E+00  0.1420E+03
    -10.983  0.0000E+00  0.1420E+03
    -10.882  0.0000E+00  0.1420E+03
    -10.780  0.0000E+00  0.1420E+03
    -10.679  0.0000E+00  0.1420E+03
    -10.578  0.0000E+00  0.1420E+03
    -10.476  0.0000E+00  0.1420E+03
    -10.375  0.0000E+00  0.1420E+03
    -10.273  0.0000E+00  0.1420E+03
    -10.172  0.0000E+00  0.1420E+03
    -10.071  0.0000E+00  0.1420E+03
     -9.969  0.0000E+00  0.1420E+03
     -9.868  0.0000E+00  0.1420E+03
     -9.767  0.0000E+00  0.1420E+03
     -9.665  0.0000E+00  0.1420E+03
     -9.564  0.0000E+00  0.1420E+03
     -9.462  0.0000E+00  0.1420E+03
     -9.361  0.0000E+00  0.1420E+03
     -9.260  0.0000E+00  0.1420E+03
     -9.158  0.0000E+00  0.1420E+03
     -9.057  0.0000E+00  0.1420E+03
     -8.956  0.0000E+00  0.1420E+03
     -8.854  0.0000E+00  0.1420E+03
     -8.753  0.0000E+00  0.1420E+03
     -8.651  0.0000E+00  0.1420E+03
     -8.550  0.0000E+00  0.1420E+03
     -8.449  0.0000E+00  0.1420E+03
     -8.347  0.0000E+00  0.1420E+03
     -8.246  0.2466E+01  0.1422E+03
     -8.144  0.2466E+01  0.1425E+03
     -8.043  0.7905E+01  0.1433E+03
     -7.942  0.1029E+02  0.1445E+03
     -7.840  0.2466E+01  0.1453E+03
     -7.739  0.2777E+02  0.1481E+03
     -7.638  0.3148E+01  0.1488E+03
     -7.536  0.1567E+02  0.1508E+03
     -7.435  0.1725E+02  0.1532E+03
     -7.333  0.4857E+02  0.1582E+03
     -7.232  0.8653E+02  0.1688E+03
     -7.131  0.1240E+03  0.1858E+03
     -7.029  0.5903E+02  0.1925E+03
     -6.928  0.4991E+01  0.1933E+03
     -6.827  0.4857E+02  0.1992E+03
     -6.725  0.3945E+02  0.2037E+03
     -6.624  0.2215E+02  0.2060E+03
     -6.522  0.0000E+00  0.2060E+03
     -6.421  0.0000E+00  0.2060E+03
     -6.320  0.0000E+00  0.2060E+03
     -6.218  0.0000E+00  0.2060E+03
     -6.117  0.0000E+00  0.2060E+03
     -6.015  0.0000E+00  0.2060E+03
     -5.914  0.0000E+00  0.2060E+03
     -5.813  0.0000E+00  0.2060E+03
     -5.711  0.0000E+00  0.2060E+03
     -5.610  0.0000E+00  0.2060E+03
     -5.509  0.0000E+00  0.2060E+03
     -5.407  0.0000E+00  0.2060E+03
     -5.306  0.0000E+00  0.2060E+03
     -5.204  0.0000E+00  0.2060E+03
     -5.103  0.0000E+00  0.2060E+03
     -5.002  0.0000E+00  0.2060E+03
     -4.900  0.0000E+00  0.2060E+03
     -4.799  0.0000E+00  0.2060E+03
     -4.698  0.0000E+00  0.2060E+03
     -4.596  0.0000E+00  0.2060E+03
     -4.495  0.0000E+00  0.2060E+03
     -4.393  0.0000E+00  0.2060E+03
     -4.292  0.0000E+00  0.2060E+03
     -4.191  0.0000E+00  0.2060E+03
     -4.089  0.0000E+00  0.2060E+03
     -3.988  0.0000E+00  0.2060E+03
     -3.886  0.0000E+00  0.2060E+03
     -3.785  0.0000E+00  0.2060E+03
     -3.684  0.0000E+00  0.2060E+03
     -3.582  0.0000E+00  0.2060E+03
     -3.481  0.0000E+00  0.2060E+03
     -3.380  0.2422E+01  0.2062E+03
     -3.278  0.3332E+02  0.2099E+03
     -3.177  0.3738E+02  0.2148E+03
     -3.075  0.1703E+02  0.2170E+03
     -2.974  0.3052E+01  0.2176E+03
     -2.873  0.1233E+02  0.2195E+03
     -2.771  0.1013E+02  0.2205E+03
     -2.670  0.2054E+02  0.2231E+03
     -2.569  0.3220E+02  0.2273E+03
     -2.467  0.2500E+02  0.2305E+03
     -2.366  0.3587E+02  0.2349E+03
     -2.264  0.3435E+02  0.2400E+03
     -2.163  0.1213E+02  0.2415E+03
     -2.062  0.2862E+02  0.2454E+03
     -1.960  0.2606E+02  0.2491E+03
     -1.859  0.2792E+02  0.2538E+03
     -1.757  0.4036E+02  0.2588E+03
     -1.656  0.5261E+02  0.2648E+03
     -1.555  0.6779E+02  0.2734E+03
     -1.453  0.6360E+02  0.2817E+03
     -1.352  0.8985E+02  0.2939E+03
     -1.251  0.8870E+02  0.3055E+03
     -1.149  0.8219E+02  0.3156E+03
     -1.048  0.4021E+02  0.3221E+03
     -0.946  0.3696E+02  0.3262E+03
     -0.845  0.2958E+02  0.3300E+03
     -0.744  0.1233E+02  0.3315E+03
     -0.642  0.1470E+02  0.3332E+03
     -0.541  0.1575E+02  0.3353E+03
     -0.440  0.1685E+02  0.3375E+03
     -0.338  0.4797E+01  0.3380E+03
     -0.237  0.1973E+02  0.3403E+03
     -0.135  0.7395E+01  0.3410E+03
     -0.034  0.2468E+01  0.3413E+03
      0.067  0.9610E+01  0.3422E+03
      0.169  0.9864E+01  0.3437E+03
      0.270  0.1582E-11  0.3438E+03
      0.372  0.2466E+01  0.3440E+03
      0.473  0.0000E+00  0.3440E+03
      0.574  0.0000E+00  0.3440E+03
      0.676  0.0000E+00  0.3440E+03
      0.777  0.0000E+00  0.3440E+03
      0.878  0.0000E+00  0.3440E+03
      0.980  0.0000E+00  0.3440E+03
      1.081  0.0000E+00  0.3440E+03
      1.183  0.0000E+00  0.3440E+03
      1.284  0.0000E+00  0.3440E+03
      1.385  0.0000E+00  0.3440E+03
      1.487  0.0000E+00  0.3440E+03
      1.588  0.0000E+00  0.3440E+03
      1.689  0.0000E+00  0.3440E+03
      1.791  0.0000E+00  0.3440E+03
      1.892  0.0000E+00  0.3440E+03
      1.994  0.0000E+00  0.3440E+03
      2.095  0.0000E+00  0.3440E+03
      2.196  0.0000E+00  0.3440E+03
      2.298  0.0000E+00  0.3440E+03
      2.399  0.1246E+01  0.3441E+03
      2.501  0.4932E+01  0.3447E+03
      2.602  0.9586E+01  0.3457E+03
      2.703  0.8165E+01  0.3466E+03
      2.805  0.1477E+02  0.3485E+03
      2.906  0.9786E+01  0.3497E+03
      3.007  0.1608E+02  0.3516E+03
      3.109  0.7293E+01  0.3527E+03
      3.210  0.1909E+02  0.3552E+03
      3.312  0.2681E+01  0.3563E+03
      3.413  0.6527E+01  0.3574E+03
      3.514  0.4932E+01  0.3582E+03
      3.616  0.2466E+01  0.3585E+03
      3.717  0.4803E-03  0.3585E+03
      3.818  0.7397E+01  0.3592E+03
      3.920  0.1017E+02  0.3603E+03
      4.021  0.7239E+01  0.3612E+03
      4.123  0.1127E+01  0.3616E+03
      4.224  0.1266E+02  0.3630E+03
      4.325  0.2309E+02  0.3661E+03
      4.427  0.1989E+02  0.3690E+03
      4.528  0.2463E+02  0.3720E+03
      4.630  0.2402E+02  0.3757E+03
      4.731  0.1228E+02  0.3777E+03
      4.832  0.2430E+02  0.3802E+03
      4.934  0.9850E+01  0.3822E+03
      5.035  0.0000E+00  0.3822E+03
      5.136  0.0000E+00  0.3822E+03
      5.238  0.0000E+00  0.3822E+03
      5.339  0.2940E-04  0.3823E+03
      5.441  0.6278E+01  0.3829E+03
      5.542  0.4937E+01  0.3843E+03
      5.643  0.1016E+02  0.3855E+03
      5.745  0.1768E+02  0.3880E+03
      5.846  0.1044E+02  0.3893E+03
      5.947  0.2106E+02  0.3916E+03
      6.049  0.1426E+02  0.3934E+03
      6.150  0.3047E+02  0.3976E+03
      6.252  0.2961E+02  0.4013E+03
      6.353  0.2134E+02  0.4039E+03
      6.454  0.3890E+02  0.4082E+03
      6.556  0.3649E+02  0.4124E+03
      6.657  0.2469E+02  0.4155E+03
      6.759  0.2466E+01  0.4160E+03
      6.860  0.0000E+00  0.4160E+03
      6.961  0.0000E+00  0.4160E+03
      7.063  0.0000E+00  0.4160E+03
      7.164  0.0000E+00  0.4160E+03
      7.265  0.0000E+00  0.4160E+03
      7.367  0.0000E+00  0.4160E+03
      7.468  0.0000E+00  0.4160E+03
      7.570  0.0000E+00  0.4160E+03
      7.671  0.0000E+00  0.4160E+03
      7.772  0.0000E+00  0.4160E+03
      7.874  0.0000E+00  0.4160E+03
      7.975  0.0000E+00  0.4160E+03
      8.076  0.0000E+00  0.4160E+03
      8.07648108    -22.33782390  301      0.39686907      1.00000000
    -22.338  0.0000E+00  0.0000E+00  0.0000E+00
    -22.236  0.0000E+00  0.0000E+00  0.0000E+00
    -22.135  0.0000E+00  0.0000E+00  0.0000E+00
    -22.034  0.0000E+00  0.0000E+00  0.0000E+00
    -21.932  0.0000E+00  0.0000E+00  0.0000E+00
    -21.831  0.0000E+00  0.0000E+00  0.0000E+00
    -21.730  0.0000E+00  0.0000E+00  0.0000E+00
    -21.628  0.0000E+00  0.0000E+00  0.0000E+00
    -21.527  0.0000E+00  0.0000E+00  0.0000E+00
    -21.425  0.0000E+00  0.0000E+00  0.0000E+00
    -21.324  0.0000E+00  0.0000E+00  0.0000E+00
    -21.223  0.0000E+00  0.0000E+00  0.0000E+00
    -21.121  0.0000E+00  0.0000E+00  0.0000E+00
    -21.020  0.0000E+00  0.0000E+00  0.0000E+00
    -20.918  0.4775E-06  0.2289E-08  0.5568E-09
    -20.817  0.1003E-03  0.4414E-07  0.4105E-08
    -20.716  0.2022E-02  0.3588E-06  0.5215E-07
    -20.614  0.1751E+02  0.2739E-05  0.1303E-05
    -20.513  0.0000E+00  0.0000E+00  0.0000E+00
    -20.412  0.1357E-05  0.2565E-08  0.2755E-09
    -20.310  0.1074E-03  0.1744E-06  0.2218E-07
    -20.209  0.0000E+00  0.0000E+00  0.0000E+00
    -20.107  0.0000E+00  0.0000E+00  0.0000E+00
    -20.006  0.0000E+00  0.0000E+00  0.0000E+00
    -19.905  0.0000E+00  0.0000E+00  0.0000E+00
    -19.803  0.0000E+00  0.0000E+00  0.0000E+00
    -19.702  0.0000E+00  0.0000E+00  0.0000E+00
    -19.601  0.0000E+00  0.0000E+00  0.0000E+00
    -19.499  0.0000E+00  0.0000E+00  0.0000E+00
    -19.398  0.0000E+00  0.0000E+00  0.0000E+00
    -19.296  0.0000E+00  0.0000E+00  0.0000E+00
    -19.195  0.0000E+00  0.0000E+00  0.0000E+00
    -19.094  0.0000E+00  0.0000E+00  0.0000E+00
    -18.992  0.0000E+00  0.0000E+00  0.0000E+00
    -18.891  0.0000E+00  0.0000E+00  0.0000E+00
    -18.789  0.0000E+00  0.0000E+00  0.0000E+00
    -18.688  0.0000E+00  0.0000E+00  0.0000E+00
    -18.587  0.0000E+00  0.0000E+00  0.0000E+00
    -18.485  0.0000E+00  0.0000E+00  0.0000E+00
    -18.384  0.0000E+00  0.0000E+00  0.0000E+00
    -18.283  0.0000E+00  0.0000E+00  0.0000E+00
    -18.181  0.0000E+00  0.0000E+00  0.0000E+00
    -18.080  0.0000E+00  0.0000E+00  0.0000E+00
    -17.978  0.0000E+00  0.0000E+00  0.0000E+00
    -17.877  0.0000E+00  0.0000E+00  0.0000E+00
    -17.776  0.0000E+00  0.0000E+00  0.0000E+00
    -17.674  0.0000E+00  0.0000E+00  0.0000E+00
    -17.573  0.0000E+00  0.0000E+00  0.0000E+00
    -17.472  0.0000E+00  0.0000E+00  0.0000E+00
    -17.370  0.0000E+00  0.0000E+00  0.0000E+00
    -17.269  0.0000E+00  0.0000E+00  0.0000E+00
    -17.167  0.0000E+00  0.0000E+00  0.0000E+00
    -17.066  0.0000E+00  0.0000E+00  0.0000E+00
    -16.965  0.0000E+00  0.0000E+00  0.0000E+00
    -16.863  0.2558E-04  0.4445E-05  0.2034E-06
    -16.762  0.9780E-04  0.4801E-04  0.8410E-05
    -16.660  0.1396E-04  0.1141E-04  0.1889E-05
    -16.559  0.3185E-05  0.1168E-05  0.1227E-06
    -16.458  0.1042E-04  0.1110E-04  0.5694E-05
    -16.356  0.1259E-04  0.5039E-04  0.9053E-05
    -16.255  0.1116E-03  0.5567E-04  0.6788E-05
    -16.154  0.0000E+00  0.0000E+00  0.0000E+00
    -16.052  0.0000E+00  0.0000E+00  0.0000E+00
    -15.951  0.0000E+00  0.0000E+00  0.0000E+00
    -15.849  0.0000E+00  0.0000E+00  0.0000E+00
    -15.748  0.0000E+00  0.0000E+00  0.0000E+00
    -15.647  0.0000E+00  0.0000E+00  0.0000E+00
    -15.545  0.0000E+00  0.0000E+00  0.0000E+00
    -15.444  0.0000E+00  0.0000E+00  0.0000E+00
    -15.343  0.0000E+00  0.0000E+00  0.0000E+00
    -15.241  0.0000E+00  0.0000E+00  0.0000E+00
    -15.140  0.0000E+00  0.0000E+00  0.0000E+00
    -15.038  0.0000E+00  0.0000E+00  0.0000E+00
    -14.937  0.0000E+00  0.0000E+00  0.0000E+00
    -14.836  0.0000E+00  0.0000E+00  0.0000E+00
    -14.734  0.3960E-05  0.1760E-05  0.6327E-07
    -14.633  0.0000E+00  0.0000E+00  0.0000E+00
    -14.531  0.3791E-03  0.1784E-03  0.5002E-05
    -14.430  0.0000E+00  0.0000E+00  0.0000E+00
    -14.329  0.1237E-02  0.2739E-03  0.4291E-05
    -14.227  0.5387E-02  0.6736E-02  0.3033E-03
    -14.126  0.7724E-03  0.5130E-02  0.2434E-03
    -14.025  0.4195E-02  0.7580E-02  0.6231E-03
    -13.923  0.2268E-03  0.2703E-02  0.3895E-03
    -13.822  0.6903E-03  0.1640E-02  0.3922E-03
    -13.720  0.2951E-03  0.4259E-03  0.1056E-03
    -13.619  0.0000E+00  0.0000E+00  0.0000E+00
    -13.518  0.0000E+00  0.0000E+00  0.0000E+00
    -13.416  0.0000E+00  0.0000E+00  0.0000E+00
    -13.315  0.0000E+00  0.0000E+00  0.0000E+00
    -13.214  0.0000E+00  0.0000E+00  0.0000E+00
    -13.112  0.0000E+00  0.0000E+00  0.0000E+00
    -13.011  0.0000E+00  0.0000E+00  0.0000E+00
    -12.909  0.6814E-05  0.2643E-04  0.1675E-05
    -12.808  0.0000E+00  0.0000E+00  0.0000E+00
    -12.707  0.0000E+00  0.0000E+00  0.0000E+00
    -12.605  0.0000E+00  0.0000E+00  0.0000E+00
    -12.504  0.0000E+00  0.0000E+00  0.0000E+00
    -12.402  0.0000E+00  0.0000E+00  0.0000E+00
    -12.301  0.0000E+00  0.0000E+00  0.0000E+00
    -12.200  0.0000E+00  0.0000E+00  0.0000E+00
    -12.098  0.0000E+00  0.0000E+00  0.0000E+00
    -11.997  0.0000E+00  0.0000E+00  0.0000E+00
    -11.896  0.0000E+00  0.0000E+00  0.0000E+00
    -11.794  0.0000E+00  0.0000E+00  0.0000E+00
    -11.693  0.0000E+00  0.0000E+00  0.0000E+00
    -11.591  0.0000E+00  0.0000E+00  0.0000E+00
    -11.490  0.0000E+00  0.0000E+00  0.0000E+00
    -11.389  0.0000E+00  0.0000E+00  0.0000E+00
    -11.287  0.0000E+00  0.0000E+00  0.0000E+00
    -11.186  0.0000E+00  0.0000E+00  0.0000E+00
    -11.085  0.0000E+00  0.0000E+00  0.0000E+00
    -10.983  0.0000E+00  0.0000E+00  0.0000E+00
    -10.882  0.0000E+00  0.0000E+00  0.0000E+00
    -10.780  0.0000E+00  0.0000E+00  0.0000E+00
    -10.679  0.0000E+00  0.0000E+00  0.0000E+00
    -10.578  0.0000E+00  0.0000E+00  0.0000E+00
    -10.476  0.0000E+00  0.0000E+00  0.0000E+00
    -10.375  0.0000E+00  0.0000E+00  0.0000E+00
    -10.273  0.0000E+00  0.0000E+00  0.0000E+00
    -10.172  0.0000E+00  0.0000E+00  0.0000E+00
    -10.071  0.0000E+00  0.0000E+00  0.0000E+00
     -9.969  0.0000E+00  0.0000E+00  0.0000E+00
     -9.868  0.0000E+00  0.0000E+00  0.0000E+00
     -9.767  0.0000E+00  0.0000E+00  0.0000E+00
     -9.665  0.0000E+00  0.0000E+00  0.0000E+00
     -9.564  0.0000E+00  0.0000E+00  0.0000E+00
     -9.462  0.0000E+00  0.0000E+00  0.0000E+00
     -9.361  0.0000E+00  0.0000E+00  0.0000E+00
     -9.260  0.0000E+00  0.0000E+00  0.0000E+00
     -9.158  0.0000E+00  0.0000E+00  0.0000E+00
     -9.057  0.0000E+00  0.0000E+00  0.0000E+00
     -8.956  0.0000E+00  0.0000E+00  0.0000E+00
     -8.854  0.0000E+00  0.0000E+00  0.0000E+00
     -8.753  0.0000E+00  0.0000E+00  0.0000E+00
     -8.651  0.0000E+00  0.0000E+00  0.0000E+00
     -8.550  0.0000E+00  0.0000E+00  0.0000E+00
     -8.449  0.0000E+00  0.0000E+00  0.0000E+00
     -8.347  0.0000E+00  0.0000E+00  0.0000E+00
     -8.246  0.7877E-07  0.1820E-03  0.1413E-04
     -8.144  0.1251E-06  0.4513E-03  0.1460E-04
     -8.043  0.3913E-06  0.4043E-02  0.3479E-04
     -7.942  0.5355E-06  0.7747E-02  0.3187E-04
     -7.840  0.5176E-06  0.2700E-02  0.6247E-05
     -7.739  0.9402E-05  0.3377E-01  0.9302E-04
     -7.638  0.7763E-05  0.4415E-02  0.1110E-04
     -7.536  0.8603E-05  0.5312E-01  0.5360E-04
     -7.435  0.1082E-03  0.2434E-01  0.4415E-04
     -7.333  0.4541E-04  0.5332E-01  0.3440E-04
     -7.232  0.4979E-04  0.2749E+00  0.5947E-04
     -7.131  0.1056E-03  0.1281E+01  0.7656E-04
     -7.029  0.3393E-04  0.4158E+02  0.2373E-04
     -6.928  0.1475E-04  0.2769E+00  0.1863E-04
     -6.827  0.2008E-04  0.1911E+00  0.8180E-05
     -6.725  0.5586E-05  0.5599E-01  0.2237E-04
     -6.624  0.1506E-04  0.2412E-01  0.6995E-05
     -6.522  0.0000E+00  0.0000E+00  0.0000E+00
     -6.421  0.0000E+00  0.0000E+00  0.0000E+00
     -6.320  0.0000E+00  0.0000E+00  0.0000E+00
     -6.218  0.0000E+00  0.0000E+00  0.0000E+00
     -6.117  0.0000E+00  0.0000E+00  0.0000E+00
     -6.015  0.0000E+00  0.0000E+00  0.0000E+00
     -5.914  0.0000E+00  0.0000E+00  0.0000E+00
     -5.813  0.0000E+00  0.0000E+00  0.0000E+00
     -5.711  0.0000E+00  0.0000E+00  0.0000E+00
     -5.610  0.0000E+00  0.0000E+00  0.0000E+00
     -5.509  0.0000E+00  0.0000E+00  0.0000E+00
     -5.407  0.0000E+00  0.0000E+00  0.0000E+00
     -5.306  0.0000E+00  0.0000E+00  0.0000E+00
     -5.204  0.0000E+00  0.0000E+00  0.0000E+00
     -5.103  0.0000E+00  0.0000E+00  0.0000E+00
     -5.002  0.0000E+00  0.0000E+00  0.0000E+00
     -4.900  0.0000E+00  0.0000E+00  0.0000E+00
     -4.799  0.0000E+00  0.0000E+00  0.0000E+00
     -4.698  0.0000E+00  0.0000E+00  0.0000E+00
     -4.596  0.0000E+00  0.0000E+00  0.0000E+00
     -4.495  0.0000E+00  0.0000E+00  0.0000E+00
     -4.393  0.0000E+00  0.0000E+00  0.0000E+00
     -4.292  0.0000E+00  0.0000E+00  0.0000E+00
     -4.191  0.0000E+00  0.0000E+00  0.0000E+00
     -4.089  0.0000E+00  0.0000E+00  0.0000E+00
     -3.988  0.0000E+00  0.0000E+00  0.0000E+00
     -3.886  0.0000E+00  0.0000E+00  0.0000E+00
     -3.785  0.0000E+00  0.0000E+00  0.0000E+00
     -3.684  0.0000E+00  0.0000E+00  0.0000E+00
     -3.582  0.0000E+00  0.0000E+00  0.0000E+00
     -3.481  0.0000E+00  0.0000E+00  0.0000E+00
     -3.380  0.1135E-07  0.2376E-02  0.1358E-04
     -3.278  0.1781E-03  0.3412E-01  0.2129E-02
     -3.177  0.4400E-03  0.2332E-01  0.2560E-02
     -3.075  0.1065E-04  0.5139E-02  0.5071E-03
     -2.974  0.8436E-05  0.1077E-02  0.1404E-03
     -2.873  0.5920E-04  0.1605E-02  0.2916E-03
     -2.771  0.2617E-04  0.8998E-02  0.3990E-03
     -2.670  0.7492E-03  0.2924E-01  0.1369E-02
     -2.569  0.1080E-02  0.2122E-01  0.1472E-02
     -2.467  0.3178E-02  0.2101E-01  0.1016E-02
     -2.366  0.3409E-02  0.1871E-01  0.2961E-02
     -2.264  0.9072E-02  0.2459E-01  0.3574E-02
     -2.163  0.3104E-02  0.3554E-02  0.1877E-02
     -2.062  0.9593E-02  0.3202E-01  0.3145E-02
     -1.960  0.9140E-02  0.5798E-01  0.3613E-02
     -1.859  0.6358E-02  0.5561E-01  0.2838E-02
     -1.757  0.5128E-02  0.7396E-01  0.6059E-02
     -1.656  0.3777E-02  0.1254E+00  0.8298E-02
     -1.555  0.4272E-02  0.1117E+00  0.1712E-01
     -1.453  0.2084E-02  0.5319E-01  0.1446E-01
     -1.352  0.3323E-02  0.8674E-01  0.2083E-01
     -1.251  0.2707E-02  0.7137E-01  0.1227E-01
     -1.149  0.1485E-02  0.6666E-01  0.1301E-01
     -1.048  0.6680E-03  0.3097E-01  0.8861E-02
     -0.946  0.5751E-03  0.3886E-01  0.8056E-02
     -0.845  0.1691E-02  0.3375E-01  0.4092E-02
     -0.744  0.1009E-03  0.1572E-02  0.3013E-03
     -0.642  0.1757E-03  0.1163E-02  0.4408E-03
     -0.541  0.5067E-03  0.3329E-02  0.6056E-03
     -0.440  0.1687E-03  0.2230E-02  0.9521E-03
     -0.338  0.2261E-05  0.1109E-02  0.1376E-03
     -0.237  0.2606E-03  0.3301E-02  0.8524E-03
     -0.135  0.9183E-06  0.1225E-02  0.6864E-03
     -0.034  0.3431E-07  0.6029E-03  0.2109E-03
      0.067  0.1212E-03  0.1559E-02  0.6265E-03
      0.169  0.2086E-03  0.2531E-02  0.6856E-03
      0.270  0.5878E-18  0.1035E-16  0.1778E-15
      0.372  0.9165E-06  0.1614E-04  0.2773E-03
      0.473  0.0000E+00  0.0000E+00  0.0000E+00
      0.574  0.0000E+00  0.0000E+00  0.0000E+00
      0.676  0.0000E+00  0.0000E+00  0.0000E+00
      0.777  0.0000E+00  0.0000E+00  0.0000E+00
      0.878  0.0000E+00  0.0000E+00  0.0000E+00
      0.980  0.0000E+00  0.0000E+00  0.0000E+00
      1.081  0.0000E+00  0.0000E+00  0.0000E+00
      1.183  0.0000E+00  0.0000E+00  0.0000E+00
      1.284  0.0000E+00  0.0000E+00  0.0000E+00
      1.385  0.0000E+00  0.0000E+00  0.0000E+00
      1.487  0.0000E+00  0.0000E+00  0.0000E+00
      1.588  0.0000E+00  0.0000E+00  0.0000E+00
      1.689  0.0000E+00  0.0000E+00  0.0000E+00
      1.791  0.0000E+00  0.0000E+00  0.0000E+00
      1.892  0.0000E+00  0.0000E+00  0.0000E+00
      1.994  0.0000E+00  0.0000E+00  0.0000E+00
      2.095  0.0000E+00  0.0000E+00  0.0000E+00
      2.196  0.0000E+00  0.0000E+00  0.0000E+00
      2.298  0.0000E+00  0.0000E+00  0.0000E+00
      2.399  0.5552E-04  0.1736E-04  0.3310E-04
      2.501  0.1281E-03  0.2548E-03  0.4154E-03
      2.602  0.1431E-03  0.6672E-03  0.8481E-03
      2.703  0.1359E-03  0.5410E-03  0.7707E-03
      2.805  0.3892E-03  0.1560E-02  0.1997E-02
      2.906  0.7200E-03  0.1142E-02  0.1922E-02
      3.007  0.4328E-03  0.1120E-02  0.4762E-02
      3.109  0.1759E-03  0.2266E-02  0.1578E-02
      3.210  0.5206E-03  0.3414E-02  0.4032E-02
      3.312  0.5655E-04  0.3129E-03  0.1161E-02
      3.413  0.1423E-03  0.9667E-03  0.7768E-03
      3.514  0.1116E-03  0.2094E-03  0.1724E-03
      3.616  0.1788E-03  0.2855E-03  0.3171E-03
      3.717  0.3438E-08  0.1490E-07  0.2986E-07
      3.818  0.2290E-04  0.1215E-03  0.1237E-02
      3.920  0.2036E-03  0.3567E-03  0.2294E-02
      4.021  0.2017E-03  0.5942E-03  0.1383E-02
      4.123  0.5342E-07  0.3174E-05  0.1335E-02
      4.224  0.1156E-02  0.3059E-02  0.1071E-01
      4.325  0.6229E-03  0.4548E-02  0.1615E-01
      4.427  0.1741E-02  0.5169E-02  0.7095E-02
      4.528  0.9160E-03  0.5167E-02  0.5509E-02
      4.630  0.3231E-02  0.3258E-02  0.1110E-01
      4.731  0.2740E-03  0.1436E-02  0.3079E-02
      4.832  0.1974E-02  0.6434E-02  0.8763E-02
      4.934  0.1100E-01  0.1090E-02  0.2228E-02
      5.035  0.0000E+00  0.0000E+00  0.0000E+00
      5.136  0.0000E+00  0.0000E+00  0.0000E+00
      5.238  0.0000E+00  0.0000E+00  0.0000E+00
      5.339  0.3154E-10  0.4314E-08  0.4870E-07
      5.441  0.4408E-02  0.2182E-02  0.6082E-02
      5.542  0.4468E-03  0.2660E-03  0.3279E-02
      5.643  0.2401E-01  0.2281E-02  0.2811E-02
      5.745  0.1079E-02  0.3475E-02  0.2048E-01
      5.846  0.1123E-02  0.6801E-03  0.2296E-01
      5.947  0.4781E-02  0.1081E-01  0.3939E-01
      6.049  0.3749E-02  0.3098E-02  0.5481E-01
      6.150  0.6272E-01  0.6953E-02  0.1174E+00
      6.252  0.2249E-01  0.1349E-01  0.2283E+00
      6.353  0.3189E-01  0.5652E-02  0.1836E+00
      6.454  0.2986E-01  0.9497E-02  0.4598E+00
      6.556  0.1495E-01  0.2027E-01  0.4447E+00
      6.657  0.2336E-01  0.2204E-01  0.3219E+00
      6.759  0.5796E-02  0.1182E-02  0.5198E-01
      6.860  0.0000E+00  0.0000E+00  0.0000E+00
      6.961  0.0000E+00  0.0000E+00  0.0000E+00
      7.063  0.0000E+00  0.0000E+00  0.0000E+00
      7.164  0.0000E+00  0.0000E+00  0.0000E+00
      7.265  0.0000E+00  0.0000E+00  0.0000E+00
      7.367  0.0000E+00  0.0000E+00  0.0000E+00
      7.468  0.0000E+00  0.0000E+00  0.0000E+00
      7.570  0.0000E+00  0.0000E+00  0.0000E+00
      7.671  0.0000E+00  0.0000E+00  0.0000E+00
      7.772  0.0000E+00  0.0000E+00  0.0000E+00
      7.874  0.0000E+00  0.0000E+00  0.0000E+00
      7.975  0.0000E+00  0.0000E+00  0.0000E+00
      8.076  0.0000E+00  0.0000E+00  0.0000E+00
      8.07648108    -22.33782390  301      0.39686907      1.00000000
    -22.338  0.0000E+00  0.0000E+00  0.0000E+00
    -22.236  0.0000E+00  0.0000E+00  0.0000E+00
    -22.135  0.0000E+00  0.0000E+00  0.0000E+00
    -22.034  0.0000E+00  0.0000E+00  0.0000E+00
    -21.932  0.0000E+00  0.0000E+00  0.0000E+00
    -21.831  0.0000E+00  0.0000E+00  0.0000E+00
    -21.730  0.0000E+00  0.0000E+00  0.0000E+00
    -21.628  0.0000E+00  0.0000E+00  0.0000E+00
    -21.527  0.0000E+00  0.0000E+00  0.0000E+00
    -21.425  0.0000E+00  0.0000E+00  0.0000E+00
    -21.324  0.0000E+00  0.0000E+00  0.0000E+00
    -21.223  0.0000E+00  0.0000E+00  0.0000E+00
    -21.121  0.0000E+00  0.0000E+00  0.0000E+00
    -21.020  0.0000E+00  0.0000E+00  0.0000E+00
    -20.918  0.1435E-07  0.2395E-08  0.1436E-09
    -20.817  0.2855E-06  0.3998E-08  0.5339E-09
    -20.716  0.8810E-04  0.8977E-07  0.1407E-07
    -20.614  0.1795E-05  0.5040E-08  0.5555E-09
    -20.513  0.0000E+00  0.0000E+00  0.0000E+00
    -20.412  0.8116E+01  0.7898E-04  0.5837E-05
    -20.310  0.4276E-02  0.8187E-06  0.1502E-06
    -20.209  0.0000E+00  0.0000E+00  0.0000E+00
    -20.107  0.0000E+00  0.0000E+00  0.0000E+00
    -20.006  0.0000E+00  0.0000E+00  0.0000E+00
    -19.905  0.0000E+00  0.0000E+00  0.0000E+00
    -19.803  0.0000E+00  0.0000E+00  0.0000E+00
    -19.702  0.0000E+00  0.0000E+00  0.0000E+00
    -19.601  0.0000E+00  0.0000E+00  0.0000E+00
    -19.499  0.0000E+00  0.0000E+00  0.0000E+00
    -19.398  0.0000E+00  0.0000E+00  0.0000E+00
    -19.296  0.0000E+00  0.0000E+00  0.0000E+00
    -19.195  0.0000E+00  0.0000E+00  0.0000E+00
    -19.094  0.0000E+00  0.0000E+00  0.0000E+00
    -18.992  0.0000E+00  0.0000E+00  0.0000E+00
    -18.891  0.0000E+00  0.0000E+00  0.0000E+00
    -18.789  0.0000E+00  0.0000E+00  0.0000E+00
    -18.688  0.0000E+00  0.0000E+00  0.0000E+00
    -18.587  0.0000E+00  0.0000E+00  0.0000E+00
    -18.485  0.0000E+00  0.0000E+00  0.0000E+00
    -18.384  0.0000E+00  0.0000E+00  0.0000E+00
    -18.283  0.0000E+00  0.0000E+00  0.0000E+00
    -18.181  0.0000E+00  0.0000E+00  0.0000E+00
    -18.080  0.0000E+00  0.0000E+00  0.0000E+00
    -17.978  0.0000E+00  0.0000E+00  0.0000E+00
    -17.877  0.0000E+00  0.0000E+00  0.0000E+00
    -17.776  0.0000E+00  0.0000E+00  0.0000E+00
    -17.674  0.0000E+00  0.0000E+00  0.0000E+00
    -17.573  0.0000E+00  0.0000E+00  0.0000E+00
    -17.472  0.0000E+00  0.0000E+00  0.0000E+00
    -17.370  0.0000E+00  0.0000E+00  0.0000E+00
    -17.269  0.0000E+00  0.0000E+00  0.0000E+00
    -17.167  0.0000E+00  0.0000E+00  0.0000E+00
    -17.066  0.0000E+00  0.0000E+00  0.0000E+00
    -16.965  0.0000E+00  0.0000E+00  0.0000E+00
    -16.863  0.6586E-05  0.1824E-05  0.2120E-06
    -16.762  0.5691E-04  0.1928E-04  0.3084E-05
    -16.660  0.2851E-04  0.1810E-04  0.3255E-05
    -16.559  0.5766E-05  0.2173E-05  0.2835E-06
    -16.458  0.5941E-04  0.2321E-04  0.4001E-05
    -16.356  0.5307E-04  0.4265E-04  0.6984E-05
    -16.255  0.1709E-04  0.7971E-05  0.1090E-05
    -16.154  0.0000E+00  0.0000E+00  0.0000E+00
    -16.052  0.0000E+00  0.0000E+00  0.0000E+00
    -15.951  0.0000E+00  0.0000E+00  0.0000E+00
    -15.849  0.0000E+00  0.0000E+00  0.0000E+00
    -15.748  0.0000E+00  0.0000E+00  0.0000E+00
    -15.647  0.0000E+00  0.0000E+00  0.0000E+00
    -15.545  0.0000E+00  0.0000E+00  0.0000E+00
    -15.444  0.0000E+00  0.0000E+00  0.0000E+00
    -15.343  0.0000E+00  0.0000E+00  0.0000E+00
    -15.241  0.0000E+00  0.0000E+00  0.0000E+00
    -15.140  0.0000E+00  0.0000E+00  0.0000E+00
    -15.038  0.0000E+00  0.0000E+00  0.0000E+00
    -14.937  0.0000E+00  0.0000E+00  0.0000E+00
    -14.836  0.0000E+00  0.0000E+00  0.0000E+00
    -14.734  0.1002E-05  0.5486E-06  0.2615E-07
    -14.633  0.0000E+00  0.0000E+00  0.0000E+00
    -14.531  0.1411E-03  0.1038E-03  0.4819E-05
    -14.430  0.0000E+00  0.0000E+00  0.0000E+00
    -14.329  0.7170E-03  0.7852E-04  0.5769E-05
    -14.227  0.3039E-02  0.2100E-02  0.7497E-04
    -14.126  0.2221E-03  0.2055E-02  0.9085E-04
    -14.025  0.4440E-02  0.7879E-02  0.6515E-03
    -13.923  0.1262E-02  0.3996E-02  0.3702E-03
    -13.822  0.2200E-02  0.3857E-02  0.4087E-03
    -13.720  0.8274E-03  0.1248E-02  0.1330E-03
    -13.619  0.0000E+00  0.0000E+00  0.0000E+00
    -13.518  0.0000E+00  0.0000E+00  0.0000E+00
    -13.416  0.0000E+00  0.0000E+00  0.0000E+00
    -13.315  0.0000E+00  0.0000E+00  0.0000E+00