 vasp.5.4.4.18Apr17-6-g9f103f2a35 (build Jun 22 2020 09:27:21) complex           
 executed on tx2_gcc-7.3_libsci-1 date 2021.10.12  05:43:25
 running on   64 total cores
 distrk:  each k-point on   64 cores,    1 groups
 distr:  one band on NCORES_PER_BAND=   8 cores,    8 groups


--------------------------------------------------------------------------------------------------------


 INCAR:
 POTCAR:    PAW_PBE Cs_sv 08Apr2002               
 POTCAR:    PAW_PBE Pb_d 06Sep2000                
 POTCAR:    PAW_PBE Br 06Sep2000                  
 POTCAR:    PAW_PBE Cs_sv 08Apr2002               
   SHA256 =  c1463496f0f6037ed62c6012a8013a89ee9ad6ffb38599dcd6c079e7ed31779b Cs
   COPYR  = (c) Copyright 08Apr2002 Georg Kresse                                
   COPYR  = This file is part of the software VASP. Any use, copying, and all ot
   COPYR  = If you do not have a valid VASP license, you may not use, copy or di
   VRHFIN =Cs: 5s5p6s                                                           
   LEXCH  = PE                                                                  
   EATOM  =   555.6835 eV,   40.8416 Ry                                         
                                                                                
   TITEL  = PAW_PBE Cs_sv 08Apr2002                                             
   LULTRA =        F    use ultrasoft PP ?                                      
   IUNSCR =        1    unscreen: 0-lin 1-nonlin 2-no                           
   RPACOR =    2.200    partial core radius                                     
   POMASS =  132.900; ZVAL   =    9.000    mass and valenz                      
   RCORE  =    2.500    outmost cutoff radius                                   
   RWIGS  =    2.500; RWIGS  =    1.323    wigner-seitz radius (au A)           
   ENMAX  =  220.318; ENMIN  =  165.238 eV                                      
   RCLOC  =    2.207    cutoff for local pot                                    
   LCOR   =        T    correct aug charges                                     
   LPAW   =        T    paw PP                                                  
   EAUG   =  407.933                                                            
   DEXC   =    0.000                                                            
   RMAX   =    2.554    core radius for proj-oper                               
   RAUG   =    1.300    factor for augmentation sphere                          
   RDEP   =    2.590    radius for radial grids                                 
   RDEPT  =    2.117    core radius for aug-charge                              
                                                                                
   Atomic configuration                                                         
   13 entries                                                                   
     n  l   j            E        occ.                                          
     1  0  0.50    -35790.1377   2.0000                                         
     2  0  0.50     -5613.6201   2.0000                                         
     2  1  1.50     -5035.0101   6.0000                                         
     3  0  0.50     -1167.0767   2.0000                                         
     3  1  1.50      -980.9754   6.0000                                         
     3  2  2.50      -708.0703  10.0000                                         
     4  0  0.50      -220.2386   2.0000                                         
     4  1  1.50      -160.7596   6.0000                                         
     4  2  2.50       -74.2354  10.0000                                         
     5  0  0.50       -26.7287   2.0000                                         
     6  0  0.50        -2.0862   1.0000                                         
     5  1  1.50       -13.5159   6.0000                                         
     5  2  2.50        -0.4136   0.0000                                         
   Description                                                                  
     l       E           TYP  RCUT    TYP  RCUT                                 
     0    -26.7287425     23  1.900                                             
     0     -2.0862306     23  1.900                                             
     1    -13.5158719     23  2.500                                             
     1     -2.7211652     23  2.500                                             
     2     -0.4136171     23  2.500                                             
  local pseudopotential read in
  partial core-charges read in
  partial kinetic energy density read in
  atomic valenz-charges read in
  non local Contribution for L=           0  read in
    real space projection operators read in
  non local Contribution for L=           0  read in
    real space projection operators read in
  non local Contribution for L=           1  read in
    real space projection operators read in
  non local Contribution for L=           1  read in
    real space projection operators read in
  non local Contribution for L=           2  read in
    real space projection operators read in
    PAW grid and wavefunctions read in

   number of l-projection  operators is LMAX  =           5
   number of lm-projection operators is LMMAX =          13

 POTCAR:    PAW_PBE Pb_d 06Sep2000                
   SHA256 =  fb885b08f0fba73a15f6a6b0e39bd200c13ec96ef97cf3ecd8e63bade5137abd Pb
   COPYR  = (c) Copyright 06Sep2000 Georg Kresse                                
   COPYR  = This file is part of the software VASP. Any use, copying, and all ot
   COPYR  = If you do not have a valid VASP license, you may not use, copy or di
   VRHFIN =Pb:                                                                  
   LEXCH  = PE                                                                  
   EATOM  =  1661.6185 eV,  122.1255 Ry                                         
                                                                                
   TITEL  = PAW_PBE Pb_d 06Sep2000                                              
   LULTRA =        F    use ultrasoft PP ?                                      
   IUNSCR =        1    unscreen: 0-lin 1-nonlin 2-no                           
   RPACOR =    2.200    partial core radius                                     
   POMASS =  207.200; ZVAL   =   14.000    mass and valenz                      
   RCORE  =    2.500    outmost cutoff radius                                   
   RWIGS  =    3.260; RWIGS  =    1.725    wigner-seitz radius (au A)           
   ENMAX  =  237.835; ENMIN  =  178.376 eV                                      
   ICORE  =        3    local potential                                         
   LCOR   =        T    correct aug charges                                     
   LPAW   =        T    paw PP                                                  
   EAUG   =  391.914                                                            
   DEXC   =    0.000                                                            
   RMAX   =    2.565    core radius for proj-oper                               
   RAUG   =    1.300    factor for augmentation sphere                          
   RDEP   =    2.643    radius for radial grids                                 
   RDEPT  =    2.092    core radius for aug-charge                              
                                                                                
   Atomic configuration                                                         
   16 entries                                                                   
     n  l   j            E        occ.                                          
     1  0  0.50    -88091.8466   2.0000                                         
     2  0  0.50    -15753.4197   2.0000                                         
     2  1  1.50    -13508.1797   6.0000                                         
     3  0  0.50     -3781.7194   2.0000                                         
     3  1  1.50     -3138.2529   6.0000                                         
     3  2  2.50     -2483.2977  10.0000                                         
     4  0  0.50      -856.2895   2.0000                                         
     4  1  1.50      -645.4942   6.0000                                         
     4  2  2.50      -401.8768  10.0000                                         
     4  3  3.50      -132.9059  14.0000                                         
     5  0  0.50      -144.0950   2.0000                                         
     5  1  1.50       -85.7879   6.0000                                         
     5  2  2.50       -21.1769  10.0000                                         
     6  0  0.50       -12.0372   2.0000                                         
     6  1  1.50        -3.4971   2.0000                                         
     5  3  2.50        -2.7212   0.0000                                         
   Description                                                                  
     l       E           TYP  RCUT    TYP  RCUT                                 
     2    -21.1768523     23  2.500                                             
     2      1.3605826     23  2.500                                             
     0    -12.0371562     23  2.500                                             
     0     13.6058260     23  2.500                                             
     1     -3.4971339     23  2.500                                             
     1     13.6058260     23  2.500                                             
     3     -1.3605826      7  2.500                                             
  local pseudopotential read in
  partial core-charges read in
  partial kinetic energy density read in
  atomic valenz-charges read in
  non local Contribution for L=           2  read in
    real space projection operators read in
  non local Contribution for L=           2  read in
    real space projection operators read in
  non local Contribution for L=           0  read in
    real space projection operators read in
  non local Contribution for L=           0  read in
    real space projection operators read in
  non local Contribution for L=           1  read in
    real space projection operators read in
  non local Contribution for L=           1  read in
    real space projection operators read in
    PAW grid and wavefunctions read in

   number of l-projection  operators is LMAX  =           6
   number of lm-projection operators is LMMAX =          18

 POTCAR:    PAW_PBE Br 06Sep2000                  
   SHA256 =  96a73d2954943bbee26f4990d676cc6c3bf44b8dd2c75cd4b3b825d8403f0103 Br
   COPYR  = (c) Copyright 06Sep2000 Georg Kresse                                
   COPYR  = This file is part of the software VASP. Any use, copying, and all ot
   COPYR  = If you do not have a valid VASP license, you may not use, copy or di
   VRHFIN =Br: s2p5                                                             
   LEXCH  = PE                                                                  
   EATOM  =   368.4488 eV,   27.0802 Ry                                         
                                                                                
   TITEL  = PAW_PBE Br 06Sep2000                                                
   LULTRA =        F    use ultrasoft PP ?                                      
   IUNSCR =        1    unscreen: 0-lin 1-nonlin 2-no                           
   RPACOR =    1.900    partial core radius                                     
   POMASS =   79.904; ZVAL   =    7.000    mass and valenz                      
   RCORE  =    2.100    outmost cutoff radius                                   
   RWIGS  =    2.200; RWIGS  =    1.164    wigner-seitz radius (au A)           
   ENMAX  =  216.285; ENMIN  =  162.214 eV                                      
   ICORE  =        3    local potential                                         
   LCOR   =        T    correct aug charges                                     
   LPAW   =        T    paw PP                                                  
   EAUG   =  503.852                                                            
   DEXC   =    0.000                                                            
   RMAX   =    2.139    core radius for proj-oper                               
   RAUG   =    1.300    factor for augmentation sphere                          
   RDEP   =    2.186    radius for radial grids                                 
   RDEPT  =    1.890    core radius for aug-charge                              
                                                                                
   Atomic configuration                                                         
   10 entries                                                                   
     n  l   j            E        occ.                                          
     1  0  0.50    -13316.2796   2.0000                                         
     2  0  0.50     -1732.8239   2.0000                                         
     2  1  1.50     -1528.2193   6.0000                                         
     3  0  0.50      -238.0460   2.0000                                         
     3  1  1.50      -173.4609   6.0000                                         
     3  2  2.50       -66.7132  10.0000                                         
     4  0  0.50       -20.1334   2.0000                                         
     4  1  0.50        -7.8591   5.0000                                         
     4  2  2.50        -8.1635   0.0000                                         
     4  3  2.50        -8.1635   0.0000                                         
   Description                                                                  
     l       E           TYP  RCUT    TYP  RCUT                                 
     0    -20.1333652     23  2.100                                             
     0    -21.4939478     23  2.100                                             
     1     -7.8591052     23  2.100                                             
     1     -3.1608434     23  2.100                                             
     2     -8.1634956     23  2.100                                             
     3     -1.3605826      7  2.100                                             
  local pseudopotential read in
  partial core-charges read in
  partial kinetic energy density read in
  atomic valenz-charges read in
  non local Contribution for L=           0  read in
    real space projection operators read in
  non local Contribution for L=           0  read in
    real space projection operators read in
  non local Contribution for L=           1  read in
    real space projection operators read in
  non local Contribution for L=           1  read in
    real space projection operators read in
  non local Contribution for L=           2  read in
    real space projection operators read in
    PAW grid and wavefunctions read in

   number of l-projection  operators is LMAX  =           5
   number of lm-projection operators is LMMAX =          13

 Optimization of the real space projectors (new method)

 maximal supplied QI-value         = 15.12
 optimisation between [QCUT,QGAM] = [  8.77, 17.69] = [ 21.53, 87.61] Ry 
 Optimized for a Real-space Cutoff    1.85 Angstroem

   l    n(q)    QCUT    max X(q) W(low)/X(q) W(high)/X(q)  e(spline) 
   0     10     8.768    25.322    0.81E-04    0.51E-04    0.48E-06
   0     10     8.768    99.187    0.78E-04    0.50E-04    0.47E-06
   1      9     8.768    11.761    0.21E-03    0.20E-03    0.37E-06
   1      9     8.768     8.275    0.24E-03    0.22E-03    0.41E-06
   2      9     8.768     3.829    0.23E-04    0.15E-03    0.18E-06
 Optimization of the real space projectors (new method)

 maximal supplied QI-value         = 15.12
 optimisation between [QCUT,QGAM] = [  8.77, 17.69] = [ 21.53, 87.61] Ry 
 Optimized for a Real-space Cutoff    1.59 Angstroem

   l    n(q)    QCUT    max X(q) W(low)/X(q) W(high)/X(q)  e(spline) 
   2      7     8.768     3.846    0.48E-04    0.11E-03    0.11E-06
   2      7     8.768     8.593    0.20E-03    0.22E-04    0.24E-06
   0      8     8.768    20.082    0.68E-04    0.88E-04    0.41E-07
   0      8     8.768     8.597    0.89E-04    0.13E-03    0.59E-07
   1      8     8.768    33.223    0.15E-03    0.53E-04    0.87E-07
   1      8     8.768    15.899    0.14E-03    0.44E-04    0.78E-07
 Optimization of the real space projectors (new method)

 maximal supplied QI-value         = 17.95
 optimisation between [QCUT,QGAM] = [  8.80, 17.59] = [ 21.67, 86.68] Ry 
 Optimized for a Real-space Cutoff    1.59 Angstroem

   l    n(q)    QCUT    max X(q) W(low)/X(q) W(high)/X(q)  e(spline) 
   0      8     8.797   175.082    0.82E-04    0.14E-03    0.89E-07
   0      8     8.797   174.004    0.79E-04    0.14E-03    0.86E-07
   1      8     8.797    54.315    0.16E-03    0.14E-04    0.30E-06
   1      8     8.797    42.441    0.16E-03    0.14E-04    0.30E-06
   2      7     8.797     3.596    0.92E-04    0.15E-03    0.85E-07
  PAW_PBE Cs_sv 08Apr2002               :
 energy of atom  1       EATOM= -555.6835
 kinetic energy error for atom=    0.0069 (will be added to EATOM!!)
  PAW_PBE Pb_d 06Sep2000                :
 energy of atom  2       EATOM=-1661.6185
 kinetic energy error for atom=    0.0498 (will be added to EATOM!!)
  PAW_PBE Br 06Sep2000                  :
 energy of atom  3       EATOM= -368.4488
 kinetic energy error for atom=    0.0072 (will be added to EATOM!!)


 POSCAR: Cs8 Pb8 Br23                            
  positions in direct lattice
  No initial velocities read in

 METAGGA = SCAN     LMAXTAU =  6    LMIXTAU =  F

 exchange correlation table for  LEXCH =        8
   RHO(1)=    0.500       N(1)  =     2000
   RHO(2)=  100.500       N(2)  =     4000

 VTST: version 3.2, (02/03/18)

 CHAIN: initializing optimizer
 
 OPT: Using VASP Conjugate-Gradient optimizer
 CHAIN: Read ICHAIN            0

 POSCAR: Cs8 Pb8 Br23                            
  positions in direct lattice
  No initial velocities read in



--------------------------------------------------------------------------------------------------------


 ion  position               nearest neighbor table
   1  0.272  0.250  0.192-
   2  0.771  0.253  0.747-
   3  0.706  0.749  0.252-
   4  0.210  0.748  0.784-
   5  0.279  0.254  0.740-
   6  0.800  0.250  0.219-
   7  0.726  0.750  0.788-
   8  0.237  0.745  0.285-
   9  0.003  0.997  1.000-  21 2.95  19 2.98  30 2.98  34 3.00  32 3.00  29 3.06
  10  0.492  0.019  0.497-  20 2.81  31 2.91  28 2.96  33 2.97  22 3.35
  11  0.502  0.001  0.997-  23 2.96  17 2.97  32 2.98  30 3.00  28 3.02  33 3.02
  12  0.018  0.996  0.502-  31 2.91  29 2.95  18 2.98  24 3.01  34 3.04
  13  0.502  0.499  0.997-  23 2.97  17 2.97  25 2.97  26 2.99  37 3.00  35 3.00
  14  0.003  0.499  0.500-  36 2.88  24 2.98  38 2.99  27 3.01  18 3.05
  15  0.003  0.502  0.000-  21 2.96  35 2.98  19 2.98  25 2.99  27 3.02  38 3.02
  16  0.492  0.493  0.498-  37 2.97  26 2.98  22 2.99  20 3.01  36 3.05
  17  0.478  0.751  0.972-  11 2.97  13 2.97
  18  0.965  0.752  0.454-  12 2.98  14 3.05
  19  0.988  0.250  0.974-  15 2.98   9 2.98
  20  0.421  0.247  0.471-  10 2.81  16 3.01
  21  0.031  0.750  0.039-   9 2.95  15 2.96
  22  0.551  0.740  0.516-  16 2.99  10 3.35
  23  0.536  0.250  0.027-  11 2.96  13 2.97
  24  0.015  0.249  0.546-  14 2.98  12 3.01
  25  0.251  0.475  0.951-  13 2.97  15 2.99
  26  0.457  0.525  0.246-  16 2.98  13 2.99
  27  0.949  0.535  0.747-  14 3.01  15 3.02
  28  0.549  0.033  0.747-  10 2.96  11 3.02
  29  0.053  0.036  0.256-  12 2.95   9 3.06
  30  0.756  0.976  0.048-   9 2.98  11 3.00
  31  0.261  0.949  0.550-  10 2.91  12 2.91
  32  0.251  0.027  0.947-  11 2.98   9 3.00
  33  0.457  0.972  0.248-  10 2.97  11 3.02
  34  0.952  0.962  0.748-   9 3.00  12 3.04
  35  0.756  0.523  0.048-  15 2.98  13 3.00
  36  0.243  0.540  0.553-  14 2.88  16 3.05
  37  0.545  0.468  0.748-  16 2.97  13 3.00
  38  0.053  0.462  0.254-  14 2.99  15 3.02
  39  0.718  0.273  0.459-


IMPORTANT INFORMATION: All symmetrisations will be switched off!
NOSYMM: (Re-)initialisation of all symmetry stuff for point group C_1.



 KPOINTS: 1x1x1                                   

Automatic generation of k-mesh.
Space group operators:
 irot       det(A)        alpha          n_x          n_y          n_z        tau_x        tau_y        tau_z
    1     1.000000     0.000001     1.000000     0.000000     0.000000     0.000000     0.000000     0.000000
 
 Subroutine IBZKPT returns following result:
 ===========================================
 
 Found      8 irreducible k-points:
 
 Following reciprocal coordinates:
            Coordinates               Weight
  0.000000  0.000000  0.000000      1.000000
  0.500000  0.000000  0.000000      1.000000
  0.000000  0.500000  0.000000      1.000000
  0.500000  0.500000  0.000000      1.000000
  0.000000  0.000000  0.500000      1.000000
  0.500000  0.000000  0.500000      1.000000
  0.000000  0.500000  0.500000      1.000000
  0.500000  0.500000  0.500000      1.000000
 
 Following cartesian coordinates:
            Coordinates               Weight
 -0.000000  0.000000  0.000000      1.000000
  0.029563  0.000000  0.031093      1.000000
 -0.000000  0.042626  0.000000      1.000000
  0.029563  0.042626  0.031093      1.000000
 -0.029563  0.000000  0.031093      1.000000
  0.000000  0.000000  0.062187      1.000000
 -0.029563  0.042626  0.031093      1.000000
  0.000000  0.042626  0.062187      1.000000
 


--------------------------------------------------------------------------------------------------------




 Dimension of arrays:
   k-points           NKPTS =      8   k-points in BZ     NKDIM =      8   number of bands    NBANDS=    208
   number of dos      NEDOS =    301   number of ions     NIONS =     39
   non local maximal  LDIM  =      6   non local SUM 2l+1 LMDIM =     18
   total plane-waves  NPLWV = 343000
   max r-space proj   IRMAX =   5734   max aug-charges    IRDMAX=  91523
   dimension x,y,z NGX =    70 NGY =   70 NGZ =   70
   dimension x,y,z NGXF=   140 NGYF=  140 NGZF=  140
   support grid    NGXF=   280 NGYF=  280 NGZF=  280
   ions per type =               8   8  23
   NGX,Y,Z   is equivalent  to a cutoff of   9.97,  9.92,  9.97 a.u.
   NGXF,Y,Z  is equivalent  to a cutoff of  19.95, 19.84, 19.95 a.u.

 SYSTEM =  CsPbBr3 cubic bulk                      
 POSCAR =  Cs8 Pb8 Br23                            

 Startparameter for this run:
   NWRITE =      2    write-flag & timer
   PREC   = accura    normal or accurate (medium, high low for compatibility)
   ISTART =      0    job   : 0-new  1-cont  2-samecut
   ICHARG =      2    charge: 1-file 2-atom 10-const
   ISPIN  =      1    spin polarized calculation?
   LNONCOLLINEAR =      F non collinear calculations
   LSORBIT =      F    spin-orbit coupling
   INIWAV =      1    electr: 0-lowe 1-rand  2-diag
   LASPH  =      T    aspherical Exc in radial PAW
   METAGGA=      F    non-selfconsistent MetaGGA calc.

 Electronic Relaxation 1
   ENCUT  =  300.0 eV  22.05 Ry    4.70 a.u.  16.48 16.57 16.48*2*pi/ulx,y,z
   ENINI  =  300.0     initial cutoff
   ENAUG  =  503.9 eV  augmentation charge cutoff
   NELM   =    200;   NELMIN=  2; NELMDL= -5     # of ELM steps 
   EDIFF  = 0.1E-05   stopping-criterion for ELM
   LREAL  =      T    real-space projection
   NLSPLINE    = F    spline interpolate recip. space projectors
   LCOMPAT=      F    compatible to vasp.4.4
   GGA_COMPAT  = T    GGA compatible to vasp.4.4-vasp.4.6
   LMAXPAW     = -100 max onsite density
   LMAXMIX     =    2 max onsite mixed and CHGCAR
   VOSKOWN=      0    Vosko Wilk Nusair interpolation
   ROPT   =   -0.00025  -0.00025  -0.00025
 Ionic relaxation
   EDIFFG = -.1E-01   stopping-criterion for IOM
   NSW    =      0    number of steps for IOM
   NBLOCK =      1;   KBLOCK =      1    inner block; outer block 
   IBRION =     -1    ionic relax: 0-MD 1-quasi-New 2-CG
   NFREE  =      1    steps in history (QN), initial steepest desc. (CG)
   ISIF   =      2    stress and relaxation
   IWAVPR =     10    prediction:  0-non 1-charg 2-wave 3-comb
   ISYM   =      0    0-nonsym 1-usesym 2-fastsym
   LCORR  =      T    Harris-Foulkes like correction to forces

   POTIM  = 0.5000    time-step for ionic-motion
   TEIN   =    0.0    initial temperature
   TEBEG  =    0.0;   TEEND  =   0.0 temperature during run
   SMASS  =  -3.00    Nose mass-parameter (am)
   estimated Nose-frequenzy (Omega)   =  0.10E-29 period in steps =****** mass=  -0.311E-26a.u.
   SCALEE = 1.0000    scale energy and forces
   NPACO  =    256;   APACO  = 16.0  distance and # of slots for P.C.
   PSTRESS=    0.0 pullay stress

  Mass of Ions in am
   POMASS = 132.90207.20 79.90
  Ionic Valenz
   ZVAL   =   9.00 14.00  7.00
  Atomic Wigner-Seitz radii
   RWIGS  =  -1.00 -1.00 -1.00
  virtual crystal weights 
   VCA    =   1.00  1.00  1.00
   NELECT =     344.0000    total number of electrons
   NUPDOWN=       0.0000    fix difference up-down

 DOS related values:
   EMIN   =  10.00;   EMAX   =-10.00  energy-range for DOS
   EFERMI =   0.00
   ISMEAR =     0;   SIGMA  =   0.01  broadening in eV -4-tet -1-fermi 0-gaus

 Electronic relaxation 2 (details)
   IALGO  =     38    algorithm
   LDIAG  =      T    sub-space diagonalisation (order eigenvalues)
   LSUBROT=      F    optimize rotation matrix (better conditioning)
   TURBO    =      0    0=normal 1=particle mesh
   IRESTART =      0    0=no restart 2=restart with 2 vectors
   NREBOOT  =      0    no. of reboots
   NMIN     =      0    reboot dimension
   EREF     =   0.00    reference energy to select bands
   IMIX   =      4    mixing-type and parameters
     AMIX     =   0.40;   BMIX     =  1.00
     AMIX_MAG =   1.60;   BMIX_MAG =  1.00
     AMIN     =   0.10
     WC   =   100.;   INIMIX=   1;  MIXPRE=   1;  MAXMIX= -45

 Intra band minimization:
   WEIMIN = 0.0000     energy-eigenvalue tresh-hold
   EBREAK =  0.12E-08  absolut break condition
   DEPER  =   0.30     relativ break condition  

   TIME   =   0.40     timestep for ELM

  volume/ion in A,a.u.               =      40.90       276.00
  Fermi-wavevector in a.u.,A,eV,Ry     =   0.981747  1.855232 13.113654  0.963826
  Thomas-Fermi vector in A             =   2.112777

 Write flags
   LWAVE        =      F    write WAVECAR
   LDOWNSAMPLE  =      F    k-point downsampling of WAVECAR
   LCHARG       =      F    write CHGCAR
   LVTOT        =      F    write LOCPOT, total local potential
   LVHAR        =      T    write LOCPOT, Hartree potential only
   LELF         =      F    write electronic localiz. function (ELF)
   LORBIT       =     10    0 simple, 1 ext, 2 COOP (PROOUT), +10 PAW based schemes


 Dipole corrections
   LMONO  =      F    monopole corrections only (constant potential shift)
   LDIPOL =      F    correct potential (dipole corrections)
   IDIPOL =      0    1-x, 2-y, 3-z, 4-all directions 
   EPSILON=  1.0000000 bulk dielectric constant

 Exchange correlation treatment:
   GGA     =    --    GGA type
   LEXCH   =     8    internal setting for exchange type
   VOSKOWN=      0    Vosko Wilk Nusair interpolation
   LHFCALC =     F    Hartree Fock is set to
   LHFONE  =     F    Hartree Fock one center treatment
   AEXX    =    0.0000 exact exchange contribution

 Linear response parameters
   LEPSILON=     F    determine dielectric tensor
   LRPA    =     F    only Hartree local field effects (RPA)
   LNABLA  =     F    use nabla operator in PAW spheres
   LVEL    =     F    velocity operator in full k-point grid
   LINTERFAST=   F  fast interpolation
   KINTER  =     0    interpolate to denser k-point grid
   CSHIFT  =0.1000    complex shift for real part using Kramers Kronig
   OMEGAMAX=  -1.0    maximum frequency
   DEG_THRESHOLD= 0.2000000E-02 threshold for treating states as degnerate
   RTIME   =   -0.100 relaxation time in fs
  (WPLASMAI=    0.000 imaginary part of plasma frequency in eV, 0.658/RTIME)
   DFIELD  = 0.0000000 0.0000000 0.0000000 field for delta impulse in time

 Orbital magnetization related:
   ORBITALMAG=     F  switch on orbital magnetization
   LCHIMAG   =     F  perturbation theory with respect to B field
   DQ        =  0.001000  dq finite difference perturbation B field
   LLRAUG    =     F  two centre corrections for induced B field



--------------------------------------------------------------------------------------------------------


 Static calculation
 charge density and potential will be updated during run
 non-spin polarized calculation
 Variant of blocked Davidson
 Davidson routine will perform the subspace rotation
 perform sub-space diagonalisation
    after iterative eigenvector-optimisation
 modified Broyden-mixing scheme, WC =      100.0
 initial mixing is a Kerker type mixing with AMIX =  0.4000 and BMIX =      1.0000
 Hartree-type preconditioning will be used
 using additional bands           36
 real space projection scheme for non local part
 use partial core corrections
 calculate Harris-corrections to forces   (improved forces if not selfconsistent)
 use gradient corrections 
 use of overlap-Matrix (Vanderbilt PP)
 Gauss-broadening in eV      SIGMA  =   0.01


--------------------------------------------------------------------------------------------------------


  energy-cutoff  :      300.00
  volume of cell :     1595.09
      direct lattice vectors                 reciprocal lattice vectors
     8.456489000  0.000000000  8.040301000     0.059126193 -0.000000000  0.062186727
     0.000000000 11.729847000  0.000000000     0.000000000  0.085252604 -0.000000000
    -8.456489000  0.000000000  8.040301000    -0.059126193  0.000000000  0.062186727

  length of vectors
    11.668703715 11.729847000 11.668703715     0.085808482  0.085252604  0.085808482



 k-points in units of 2pi/SCALE and weight: 1x1x1                                   
  -0.00000000  0.00000000  0.00000000       0.125
   0.02956310  0.00000000  0.03109336       0.125
  -0.00000000  0.04262630  0.00000000       0.125
   0.02956310  0.04262630  0.03109336       0.125
  -0.02956310  0.00000000  0.03109336       0.125
   0.00000000  0.00000000  0.06218673       0.125
  -0.02956310  0.04262630  0.03109336       0.125
   0.00000000  0.04262630  0.06218673       0.125

 k-points in reciprocal lattice and weights: 1x1x1                                   
   0.00000000  0.00000000  0.00000000       0.125
   0.50000000  0.00000000  0.00000000       0.125
   0.00000000  0.50000000  0.00000000       0.125
   0.50000000  0.50000000  0.00000000       0.125
   0.00000000  0.00000000  0.50000000       0.125
   0.50000000  0.00000000  0.50000000       0.125
   0.00000000  0.50000000  0.50000000       0.125
   0.50000000  0.50000000  0.50000000       0.125

 position of ions in fractional coordinates (direct lattice) 
   0.27235400  0.24976100  0.19161700
   0.77111200  0.25271200  0.74701100
   0.70628100  0.74949000  0.25227400
   0.21034500  0.74780500  0.78407000
   0.27896500  0.25373400  0.73997500
   0.79967100  0.24995200  0.21875000
   0.72557300  0.74976800  0.78775500
   0.23689500  0.74548000  0.28539900
   0.00345300  0.99723700  0.99965500
   0.49157200  0.01899400  0.49734100
   0.50214200  0.00140500  0.99680000
   0.01812100  0.99621000  0.50189200
   0.50238500  0.49945900  0.99727500
   0.00315100  0.49859800  0.50041200
   0.00296700  0.50209000  0.00042800
   0.49177200  0.49264900  0.49839100
   0.47819200  0.75059500  0.97171600
   0.96530200  0.75200100  0.45449900
   0.98810000  0.24976000  0.97428900
   0.42055700  0.24724200  0.47143400
   0.03147500  0.74983100  0.03883200
   0.55094300  0.73988600  0.51578500
   0.53587100  0.25016100  0.02740100
   0.01460200  0.24876400  0.54611500
   0.25050200  0.47479900  0.95146200
   0.45692000  0.52519000  0.24616100
   0.94865500  0.53548900  0.74668100
   0.54931300  0.03288900  0.74692100
   0.05340000  0.03638700  0.25638800
   0.75572900  0.97645200  0.04765800
   0.26083100  0.94905600  0.54996100
   0.25079300  0.02674100  0.94705800
   0.45708100  0.97243500  0.24797600
   0.95196300  0.96205300  0.74781900
   0.75555600  0.52347300  0.04787900
   0.24328500  0.53962800  0.55292500
   0.54548200  0.46800000  0.74831700
   0.05267400  0.46223800  0.25411100
   0.71824400  0.27319700  0.45927300

 position of ions in cartesian coordinates  (Angst):
   0.68275155  2.92965832  3.73046650
   0.20380984  2.96427310 12.20616588
   3.83930520  8.79140303  7.70707073
  -4.85169915  8.77163824  7.99539592
  -3.89852599  2.97626100  8.19258430
   4.91255205  2.93189872  8.18841138
  -0.52584140  8.79466393 12.16761263
  -0.41017354  8.74436634  4.19940097
  -8.42437125 11.69743743  8.06529026
  -0.04878549  0.22279671  7.95115818
  -4.18306994  0.01648044 12.05194486
  -4.09100414 11.68539088  4.18106104
  -4.18503184  5.85857765 12.05771780
  -4.20508218  5.84847825  4.04879809
   0.02147103  5.88943888  0.02729682
  -0.05597350  5.77869739  7.96120856
  -4.17348028  8.80436451 11.65769674
   4.31959995  8.82085667 11.41562740
   0.11679257  2.92964659 15.77819824
  -0.43024079  2.90011083  7.17187613
  -0.06221439  8.79540291  0.56528944
   0.29731324  8.67874958  8.57681421
   4.29987096  2.93435026  4.52887642
  -4.49473384  2.91796366  4.50833346
  -5.92766053  5.56931963  9.66415235
   1.78228117  6.16039835  5.65298287
   1.70799091  6.28120404 13.63101174
  -1.67106988  0.38578294 10.42211153
  -1.71656579  0.42681394  2.49078877
   5.98779462 11.45363256  6.45947330
  -2.44502466 11.13228167  6.51901173
  -5.88795731  0.31366784  9.63108259
   1.76829413 11.40651377  5.66887050
   1.72634149 11.28473450 13.66675891
   5.98446277  6.14025820  6.45985923
  -2.61846725  6.32975388  6.40176806
  -1.71527195  5.48956840 10.40253339
  -1.70344977  5.42198102  2.46664374
   2.18998541  3.20455901  9.46759111



--------------------------------------------------------------------------------------------------------


 k-point  1 :   0.0000 0.0000 0.0000  plane waves:   18809
 k-point  2 :   0.5000 0.0000 0.0000  plane waves:   18808
 k-point  3 :   0.0000 0.5000 0.0000  plane waves:   18794
 k-point  4 :   0.5000 0.5000 0.0000  plane waves:   18804
 k-point  5 :   0.0000 0.0000 0.5000  plane waves:   18808
 k-point  6 :   0.5000 0.0000 0.5000  plane waves:   18790
 k-point  7 :   0.0000 0.5000 0.5000  plane waves:   18804
 k-point  8 :   0.5000 0.5000 0.5000  plane waves:   18800

 maximum and minimum number of plane-waves per node :      2389     2304

 maximum number of plane-waves:     18809
 maximum index in each direction: 
   IXMAX=   16   IYMAX=   16   IZMAX=   16
   IXMIN=  -16   IYMIN=  -17   IZMIN=  -16


 real space projection operators:
  total allocation   :      16747.23 KBytes
  max/ min on nodes  :       2194.76       1815.91


 parallel 3D FFT for wavefunctions:
    minimum data exchange during FFTs selected (reduces bandwidth)
 parallel 3D FFT for charge:
    minimum data exchange during FFTs selected (reduces bandwidth)


 total amount of memory used by VASP MPI-rank0    60646. kBytes
=======================================================================

   base      :      30000. kBytes
   nonlr-proj:       6481. kBytes
   fftplans  :       8423. kBytes
   grid      :       7465. kBytes
   one-center:         77. kBytes
   wavefun   :       8200. kBytes

     INWAV:  cpu time    0.0000: real time    0.0000
 Broyden mixing: mesh for mixing (old mesh)
   NGX = 33   NGY = 33   NGZ = 33
  (NGX  =140   NGY  =140   NGZ  =140)
  gives a total of  35937 points

 initial charge density was supplied:
 charge density of overlapping atoms calculated
 number of electron     345.0000000 magnetization 
 keeping initial charge density in first step


--------------------------------------------------------------------------------------------------------


 Maximum index for non-local projection operator          730
 Maximum index for augmentation-charges         2868 (set IRDMAX)


--------------------------------------------------------------------------------------------------------


 First call to EWALD:  gamma=   0.152
 Maximum number of real-space cells 3x 3x 3
 Maximum number of reciprocal cells 3x 3x 3

    FEWALD:  cpu time    0.0038: real time    0.0038


--------------------------------------- Iteration      1(   1)  ---------------------------------------


    POTLOK:  cpu time    0.2614: real time    0.2715
    SETDIJ:  cpu time    1.1981: real time    1.1982
     EDDAV:  cpu time   16.6972: real time   16.7035
       DOS:  cpu time    0.0008: real time    0.0008
    --------------------------------------------
      LOOP:  cpu time   18.1575: real time   18.1740

 eigenvalue-minimisations  :  3480
 total energy-change (2. order) : 0.1334192E+04  (-0.1105256E+05)
 number of electron     345.0000000 magnetization 
 augmentation part      345.0000000 magnetization 

 Free energy of the ion-electron system (eV)
  ---------------------------------------------------
  alpha Z        PSCENC =       872.70583573
  Ewald energy   TEWEN  =    -17942.38267664
  -Hartree energ DENC   =     -7414.05885108
  -exchange      EXHF   =         0.00000000
  -V(xc)+E(xc)   XCENC  =       907.94809336
  PAW double counting   =     21345.28103884   -22405.85761495
  entropy T*S    EENTRO =        -0.00224169
  eigenvalues    EBANDS =      -241.55973134
  atomic energy  EATOM  =     26212.11861568
  Solvation  Ediel_sol  =         0.00000000
  ---------------------------------------------------
  free energy    TOTEN  =      1334.19246791 eV

  energy without entropy =     1334.19470960  energy(sigma->0) =     1334.19358876


--------------------------------------------------------------------------------------------------------




--------------------------------------- Iteration      1(   2)  ---------------------------------------


     EDDAV:  cpu time   18.4853: real time   18.5306
       DOS:  cpu time    0.0004: real time    0.0004
    --------------------------------------------
      LOOP:  cpu time   18.4856: real time   18.5310

 eigenvalue-minimisations  :  4072
 total energy-change (2. order) :-0.2447476E+04  (-0.2365285E+04)
 number of electron     345.0000000 magnetization 
 augmentation part      345.0000000 magnetization 

 Free energy of the ion-electron system (eV)
  ---------------------------------------------------
  alpha Z        PSCENC =       872.70583573
  Ewald energy   TEWEN  =    -17942.38267664
  -Hartree energ DENC   =     -7414.05885108
  -exchange      EXHF   =         0.00000000
  -V(xc)+E(xc)   XCENC  =       907.94809336
  PAW double counting   =     21345.28103884   -22405.85761495
  entropy T*S    EENTRO =        -0.00000000
  eigenvalues    EBANDS =     -2689.03780892
  atomic energy  EATOM  =     26212.11861568
  Solvation  Ediel_sol  =         0.00000000
  ---------------------------------------------------
  free energy    TOTEN  =     -1113.28336798 eV

  energy without entropy =    -1113.28336798  energy(sigma->0) =    -1113.28336798


--------------------------------------------------------------------------------------------------------




--------------------------------------- Iteration      1(   3)  ---------------------------------------


     EDDAV:  cpu time   19.4707: real time   19.5085
       DOS:  cpu time    0.0004: real time    0.0004
    --------------------------------------------
      LOOP:  cpu time   19.4711: real time   19.5088

 eigenvalue-minimisations  :  4424
 total energy-change (2. order) :-0.3612473E+03  (-0.3592225E+03)
 number of electron     345.0000000 magnetization 
 augmentation part      345.0000000 magnetization 

 Free energy of the ion-electron system (eV)
  ---------------------------------------------------
  alpha Z        PSCENC =       872.70583573
  Ewald energy   TEWEN  =    -17942.38267664
  -Hartree energ DENC   =     -7414.05885108
  -exchange      EXHF   =         0.00000000
  -V(xc)+E(xc)   XCENC  =       907.94809336
  PAW double counting   =     21345.28103884   -22405.85761495
  entropy T*S    EENTRO =        -0.00000000
  eigenvalues    EBANDS =     -3050.28511141
  atomic energy  EATOM  =     26212.11861568
  Solvation  Ediel_sol  =         0.00000000
  ---------------------------------------------------
  free energy    TOTEN  =     -1474.53067047 eV

  energy without entropy =    -1474.53067047  energy(sigma->0) =    -1474.53067047


--------------------------------------------------------------------------------------------------------




--------------------------------------- Iteration      1(   4)  ---------------------------------------


     EDDAV:  cpu time   17.9232: real time   17.9788
       DOS:  cpu time    0.0004: real time    0.0004
    --------------------------------------------
      LOOP:  cpu time   17.9236: real time   17.9792

 eigenvalue-minimisations  :  3896
 total energy-change (2. order) :-0.1211535E+02  (-0.1207868E+02)
 number of electron     345.0000000 magnetization 
 augmentation part      345.0000000 magnetization 

 Free energy of the ion-electron system (eV)
  ---------------------------------------------------
  alpha Z        PSCENC =       872.70583573
  Ewald energy   TEWEN  =    -17942.38267664
  -Hartree energ DENC   =     -7414.05885108
  -exchange      EXHF   =         0.00000000
  -V(xc)+E(xc)   XCENC  =       907.94809336
  PAW double counting   =     21345.28103884   -22405.85761495
  entropy T*S    EENTRO =        -0.00000000
  eigenvalues    EBANDS =     -3062.40046182
  atomic energy  EATOM  =     26212.11861568
  Solvation  Ediel_sol  =         0.00000000
  ---------------------------------------------------
  free energy    TOTEN  =     -1486.64602087 eV

  energy without entropy =    -1486.64602087  energy(sigma->0) =    -1486.64602087


--------------------------------------------------------------------------------------------------------




--------------------------------------- Iteration      1(   5)  ---------------------------------------


     EDDAV:  cpu time   19.4227: real time   19.4836
       DOS:  cpu time    0.0005: real time    0.0005
    CHARGE:  cpu time    2.7000: real time    2.7001
    MIXING:  cpu time    0.0015: real time    0.0015
    --------------------------------------------
      LOOP:  cpu time   22.1247: real time   22.1856

 eigenvalue-minimisations  :  4416
 total energy-change (2. order) :-0.5629018E+00  (-0.5626374E+00)
 number of electron     343.9999998 magnetization 
 augmentation part       -5.0422511 magnetization 

 Broyden mixing:
  rms(total) = 0.10170E+01    rms(broyden)= 0.10163E+01
  rms(prec ) = 0.14315E+01
  weight for this iteration     100.00

 Free energy of the ion-electron system (eV)
  ---------------------------------------------------
  alpha Z        PSCENC =       872.70583573
  Ewald energy   TEWEN  =    -17942.38267664
  -Hartree energ DENC   =     -7414.05885108
  -exchange      EXHF   =         0.00000000
  -V(xc)+E(xc)   XCENC  =       907.94809336
  PAW double counting   =     21345.28103884   -22405.85761495
  entropy T*S    EENTRO =        -0.00000000
  eigenvalues    EBANDS =     -3062.96336365
  atomic energy  EATOM  =     26212.11861568
  Solvation  Ediel_sol  =         0.00000000
  ---------------------------------------------------
  free energy    TOTEN  =     -1487.20892271 eV

  energy without entropy =    -1487.20892271  energy(sigma->0) =    -1487.20892271


--------------------------------------------------------------------------------------------------------




--------------------------------------- Iteration      1(   6)  ---------------------------------------


    POTLOK:  cpu time    0.2653: real time    0.3199
    SETDIJ:  cpu time    1.1930: real time    1.1930
     EDDAV:  cpu time   19.1374: real time   19.1381
       DOS:  cpu time    0.0006: real time    0.0006
    CHARGE:  cpu time    2.6840: real time    2.6841
    MIXING:  cpu time    0.0016: real time    0.0016
    --------------------------------------------
      LOOP:  cpu time   23.2818: real time   23.3374

 eigenvalue-minimisations  :  4304
 total energy-change (2. order) : 0.7828610E+02  (-0.2396913E+01)
 number of electron     343.9999999 magnetization 
 augmentation part       -3.6300431 magnetization 

 Broyden mixing:
  rms(total) = 0.72487E+00    rms(broyden)= 0.72478E+00
  rms(prec ) = 0.92215E+00
  weight for this iteration     100.00

 eigenvalues of (default mixing * dielectric matrix)
  average eigenvalue GAMMA=   1.1837
  1.1837

 Free energy of the ion-electron system (eV)
  ---------------------------------------------------
  alpha Z        PSCENC =       872.70583573
  Ewald energy   TEWEN  =    -17942.38267664
  -Hartree energ DENC   =     -7393.72674189
  -exchange      EXHF   =         0.00000000
  -V(xc)+E(xc)   XCENC  =       935.94668576
  PAW double counting   =     21614.82311958   -22673.18626054
  entropy T*S    EENTRO =        -0.00000000
  eigenvalues    EBANDS =     -3035.22140005
  atomic energy  EATOM  =     26212.11861568
  Solvation  Ediel_sol  =         0.00000000
  ---------------------------------------------------
  free energy    TOTEN  =     -1408.92282236 eV

  energy without entropy =    -1408.92282236  energy(sigma->0) =    -1408.92282236


--------------------------------------------------------------------------------------------------------




--------------------------------------- Iteration      1(   7)  ---------------------------------------


    POTLOK:  cpu time    0.3003: real time    0.3059
    SETDIJ:  cpu time    1.1932: real time    1.1932
     EDDAV:  cpu time   18.4948: real time   18.4956
       DOS:  cpu time    0.0007: real time    0.0007
    CHARGE:  cpu time    2.6842: real time    2.6843
    MIXING:  cpu time    0.0016: real time    0.0016
    --------------------------------------------
      LOOP:  cpu time   22.6748: real time   22.6813

 eigenvalue-minimisations  :  4080
 total energy-change (2. order) : 0.6267115E+00  (-0.9450802E+00)
 number of electron     343.9999999 magnetization 
 augmentation part       -3.0472439 magnetization 

 Broyden mixing:
  rms(total) = 0.37631E+00    rms(broyden)= 0.37629E+00
  rms(prec ) = 0.42291E+00
  weight for this iteration     100.00

 eigenvalues of (default mixing * dielectric matrix)
  average eigenvalue GAMMA=   1.2921
  1.2921  1.2921

 Free energy of the ion-electron system (eV)
  ---------------------------------------------------
  alpha Z        PSCENC =       872.70583573
  Ewald energy   TEWEN  =    -17942.38267664
  -Hartree energ DENC   =     -7434.70794429
  -exchange      EXHF   =         0.00000000
  -V(xc)+E(xc)   XCENC  =       941.07668701
  PAW double counting   =     22222.92731755   -23278.92450725
  entropy T*S    EENTRO =        -0.00000000
  eigenvalues    EBANDS =     -3001.10943866
  atomic energy  EATOM  =     26212.11861568
  Solvation  Ediel_sol  =         0.00000000
  ---------------------------------------------------
  free energy    TOTEN  =     -1408.29611087 eV

  energy without entropy =    -1408.29611087  energy(sigma->0) =    -1408.29611087


--------------------------------------------------------------------------------------------------------




--------------------------------------- Iteration      1(   8)  ---------------------------------------


    POTLOK:  cpu time    0.2622: real time    0.3086
    SETDIJ:  cpu time    1.1937: real time    1.1937
     EDDAV:  cpu time   18.0172: real time   18.0180
       DOS:  cpu time    0.0006: real time    0.0006
    CHARGE:  cpu time    2.6798: real time    2.6799
    MIXING:  cpu time    0.0019: real time    0.0019
    --------------------------------------------
      LOOP:  cpu time   22.1552: real time   22.2026

 eigenvalue-minimisations  :  3920
 total energy-change (2. order) :-0.1833929E+00  (-0.5705226E-01)
 number of electron     343.9999999 magnetization 
 augmentation part       -3.1570096 magnetization 

 Broyden mixing:
  rms(total) = 0.22269E+00    rms(broyden)= 0.22268E+00
  rms(prec ) = 0.25601E+00
  weight for this iteration     100.00

 eigenvalues of (default mixing * dielectric matrix)
  average eigenvalue GAMMA=   1.6679
  1.1371  1.3111  2.5555

 Free energy of the ion-electron system (eV)
  ---------------------------------------------------
  alpha Z        PSCENC =       872.70583573
  Ewald energy   TEWEN  =    -17942.38267664
  -Hartree energ DENC   =     -7439.01746506
  -exchange      EXHF   =         0.00000000
  -V(xc)+E(xc)   XCENC  =       941.65137957
  PAW double counting   =     22444.45327274   -23500.70945089
  entropy T*S    EENTRO =        -0.00000000
  eigenvalues    EBANDS =     -2997.29901493
  atomic energy  EATOM  =     26212.11861568
  Solvation  Ediel_sol  =         0.00000000
  ---------------------------------------------------
  free energy    TOTEN  =     -1408.47950379 eV

  energy without entropy =    -1408.47950379  energy(sigma->0) =    -1408.47950379


--------------------------------------------------------------------------------------------------------




--------------------------------------- Iteration      1(   9)  ---------------------------------------


    POTLOK:  cpu time    0.3185: real time    0.3221
    SETDIJ:  cpu time    1.1993: real time    1.1993
     EDDAV:  cpu time   17.4435: real time   17.4441
       DOS:  cpu time    0.0005: real time    0.0005
    CHARGE:  cpu time    2.6822: real time    2.6822
    MIXING:  cpu time    0.0016: real time    0.0016
    --------------------------------------------
      LOOP:  cpu time   21.6456: real time   21.6499

 eigenvalue-minimisations  :  3720
 total energy-change (2. order) :-0.5815047E-01  (-0.2023397E-01)
 number of electron     343.9999999 magnetization 
 augmentation part       -3.1949274 magnetization 

 Broyden mixing:
  rms(total) = 0.46681E-01    rms(broyden)= 0.46677E-01
  rms(prec ) = 0.57083E-01
  weight for this iteration     100.00

 eigenvalues of (default mixing * dielectric matrix)
  average eigenvalue GAMMA=   1.4609
  2.4977  1.2482  1.2482  0.8494

 Free energy of the ion-electron system (eV)
  ---------------------------------------------------
  alpha Z        PSCENC =       872.70583573
  Ewald energy   TEWEN  =    -17942.38267664
  -Hartree energ DENC   =     -7445.02451711
  -exchange      EXHF   =         0.00000000
  -V(xc)+E(xc)   XCENC  =       943.51673679
  PAW double counting   =     22768.14623190   -23825.17800115
  entropy T*S    EENTRO =        -0.00000000
  eigenvalues    EBANDS =     -2992.43987947
  atomic energy  EATOM  =     26212.11861568
  Solvation  Ediel_sol  =         0.00000000
  ---------------------------------------------------
  free energy    TOTEN  =     -1408.53765426 eV

  energy without entropy =    -1408.53765426  energy(sigma->0) =    -1408.53765426


--------------------------------------------------------------------------------------------------------




--------------------------------------- Iteration      1(  10)  ---------------------------------------


    POTLOK:  cpu time    0.2963: real time    0.3121
    SETDIJ:  cpu time    1.1929: real time    1.1929
     EDDAV:  cpu time   18.9890: real time   18.9898
       DOS:  cpu time    0.0004: real time    0.0004
    CHARGE:  cpu time    2.6772: real time    2.6773
    MIXING:  cpu time    0.0020: real time    0.0020
    --------------------------------------------
      LOOP:  cpu time   23.1578: real time   23.1745

 eigenvalue-minimisations  :  4248
 total energy-change (2. order) :-0.4869823E-02  (-0.2931610E-02)
 number of electron     343.9999999 magnetization 
 augmentation part       -3.1843374 magnetization 

 Broyden mixing:
  rms(total) = 0.33726E-01    rms(broyden)= 0.33724E-01
  rms(prec ) = 0.42957E-01
  weight for this iteration     100.00

 eigenvalues of (default mixing * dielectric matrix)
  average eigenvalue GAMMA=   1.3410
  2.3432  1.3601  1.3601  0.8208  0.8208

 Free energy of the ion-electron system (eV)
  ---------------------------------------------------
  alpha Z        PSCENC =       872.70583573
  Ewald energy   TEWEN  =    -17942.38267664
  -Hartree energ DENC   =     -7443.43463702
  -exchange      EXHF   =         0.00000000
  -V(xc)+E(xc)   XCENC  =       943.40360357
  PAW double counting   =     22744.33963647   -23801.47887886
  entropy T*S    EENTRO =        -0.00000000
  eigenvalues    EBANDS =     -2993.81402301
  atomic energy  EATOM  =     26212.11861568
  Solvation  Ediel_sol  =         0.00000000
  ---------------------------------------------------
  free energy    TOTEN  =     -1408.54252408 eV

  energy without entropy =    -1408.54252408  energy(sigma->0) =    -1408.54252408


--------------------------------------------------------------------------------------------------------




--------------------------------------- Iteration      1(  11)  ---------------------------------------


    POTLOK:  cpu time    0.2813: real time    0.3165
    SETDIJ:  cpu time    1.1932: real time    1.1933
     EDDAV:  cpu time   17.2752: real time   17.2759
       DOS:  cpu time    0.0004: real time    0.0004
    CHARGE:  cpu time    2.6899: real time    2.6900
    MIXING:  cpu time    0.0016: real time    0.0016
    --------------------------------------------
      LOOP:  cpu time   21.4417: real time   21.4778

 eigenvalue-minimisations  :  3656
 total energy-change (2. order) :-0.2015924E-02  (-0.4036373E-03)
 number of electron     343.9999999 magnetization 
 augmentation part       -3.1840149 magnetization 

 Broyden mixing:
  rms(total) = 0.14155E-01    rms(broyden)= 0.14155E-01
  rms(prec ) = 0.22630E-01
  weight for this iteration     100.00

 eigenvalues of (default mixing * dielectric matrix)
  average eigenvalue GAMMA=   1.6068
  2.7714  2.7714  1.2020  1.2020  0.8471  0.8471

 Free energy of the ion-electron system (eV)
  ---------------------------------------------------
  alpha Z        PSCENC =       872.70583573
  Ewald energy   TEWEN  =    -17942.38267664
  -Hartree energ DENC   =     -7441.83022536
  -exchange      EXHF   =         0.00000000
  -V(xc)+E(xc)   XCENC  =       943.32039437
  PAW double counting   =     22726.85818603   -23784.25648758
  entropy T*S    EENTRO =        -0.00000000
  eigenvalues    EBANDS =     -2995.07818224
  atomic energy  EATOM  =     26212.11861568
  Solvation  Ediel_sol  =         0.00000000
  ---------------------------------------------------
  free energy    TOTEN  =     -1408.54454000 eV

  energy without entropy =    -1408.54454000  energy(sigma->0) =    -1408.54454000


--------------------------------------------------------------------------------------------------------




--------------------------------------- Iteration      1(  12)  ---------------------------------------


    POTLOK:  cpu time    0.3165: real time    0.3186
    SETDIJ:  cpu time    1.1940: real time    1.1941
     EDDAV:  cpu time   17.0966: real time   17.0972
       DOS:  cpu time    0.0004: real time    0.0004
    CHARGE:  cpu time    2.6911: real time    2.6911
    MIXING:  cpu time    0.0016: real time    0.0016
    --------------------------------------------
      LOOP:  cpu time   21.3002: real time   21.3031

 eigenvalue-minimisations  :  3600
 total energy-change (2. order) :-0.2366534E-02  (-0.5736687E-03)
 number of electron     343.9999999 magnetization 
 augmentation part       -3.1877201 magnetization 

 Broyden mixing:
  rms(total) = 0.10651E-01    rms(broyden)= 0.10650E-01
  rms(prec ) = 0.13564E-01
  weight for this iteration     100.00

 eigenvalues of (default mixing * dielectric matrix)
  average eigenvalue GAMMA=   1.6111
  2.8250  2.8250  1.3591  1.3591  0.9185  0.9955  0.9955

 Free energy of the ion-electron system (eV)
  ---------------------------------------------------
  alpha Z        PSCENC =       872.70583573
  Ewald energy   TEWEN  =    -17942.38267664
  -Hartree energ DENC   =     -7440.95977533
  -exchange      EXHF   =         0.00000000
  -V(xc)+E(xc)   XCENC  =       943.33889563
  PAW double counting   =     22721.57975812   -23779.28773604
  entropy T*S    EENTRO =        -0.00000000
  eigenvalues    EBANDS =     -2995.65982369
  atomic energy  EATOM  =     26212.11861568
  Solvation  Ediel_sol  =         0.00000000
  ---------------------------------------------------
  free energy    TOTEN  =     -1408.54690654 eV

  energy without entropy =    -1408.54690654  energy(sigma->0) =    -1408.54690654


--------------------------------------------------------------------------------------------------------




--------------------------------------- Iteration      1(  13)  ---------------------------------------


    POTLOK:  cpu time    0.2757: real time    0.3168
    SETDIJ:  cpu time    1.1938: real time    1.1938
     EDDAV:  cpu time   19.4868: real time   19.4875
       DOS:  cpu time    0.0004: real time    0.0004
    CHARGE:  cpu time    2.6782: real time    2.6783
    MIXING:  cpu time    0.0020: real time    0.0020
    --------------------------------------------
      LOOP:  cpu time   23.6368: real time   23.6788

 eigenvalue-minimisations  :  4416
 total energy-change (2. order) : 0.4453174E-03  (-0.1707236E-03)
 number of electron     343.9999999 magnetization 
 augmentation part       -3.1882411 magnetization 

 Broyden mixing:
  rms(total) = 0.39386E-02    rms(broyden)= 0.39378E-02
  rms(prec ) = 0.48286E-02
  weight for this iteration     100.00

 eigenvalues of (default mixing * dielectric matrix)
  average eigenvalue GAMMA=   1.5719
  3.2061  2.4385  1.2717  1.2717  1.2723  1.2723  0.8860  0.9568

 Free energy of the ion-electron system (eV)
  ---------------------------------------------------
  alpha Z        PSCENC =       872.70583573
  Ewald energy   TEWEN  =    -17942.38267664
  -Hartree energ DENC   =     -7442.06128155
  -exchange      EXHF   =         0.00000000
  -V(xc)+E(xc)   XCENC  =       943.41212852
  PAW double counting   =     22722.37084548   -23780.01032999
  entropy T*S    EENTRO =        -0.00000000
  eigenvalues    EBANDS =     -2994.69959845
  atomic energy  EATOM  =     26212.11861568
  Solvation  Ediel_sol  =         0.00000000
  ---------------------------------------------------
  free energy    TOTEN  =     -1408.54646122 eV

  energy without entropy =    -1408.54646122  energy(sigma->0) =    -1408.54646122


--------------------------------------------------------------------------------------------------------




--------------------------------------- Iteration      1(  14)  ---------------------------------------


    POTLOK:  cpu time    0.3102: real time    0.3168
    SETDIJ:  cpu time    1.1922: real time    1.1923
     EDDAV:  cpu time   18.1285: real time   18.1294
       DOS:  cpu time    0.0004: real time    0.0004
    CHARGE:  cpu time    2.6844: real time    2.6844
    MIXING:  cpu time    0.0017: real time    0.0017
    --------------------------------------------
      LOOP:  cpu time   22.3175: real time   22.3250

 eigenvalue-minimisations  :  3952
 total energy-change (2. order) :-0.3422754E-04  (-0.3715273E-04)
 number of electron     343.9999999 magnetization 
 augmentation part       -3.1874307 magnetization 

 Broyden mixing:
  rms(total) = 0.21684E-02    rms(broyden)= 0.21671E-02
  rms(prec ) = 0.30553E-02
  weight for this iteration     100.00

 eigenvalues of (default mixing * dielectric matrix)
  average eigenvalue GAMMA=   1.5934
  3.2537  2.3453  2.3453  1.1624  1.1624  1.1545  1.1545  0.8813  0.8813

 Free energy of the ion-electron system (eV)
  ---------------------------------------------------
  alpha Z        PSCENC =       872.70583573
  Ewald energy   TEWEN  =    -17942.38267664
  -Hartree energ DENC   =     -7442.17672582
  -exchange      EXHF   =         0.00000000
  -V(xc)+E(xc)   XCENC  =       943.41876961
  PAW double counting   =     22723.60277688   -23781.22697448
  entropy T*S    EENTRO =        -0.00000000
  eigenvalues    EBANDS =     -2994.60611642
  atomic energy  EATOM  =     26212.11861568
  Solvation  Ediel_sol  =         0.00000000
  ---------------------------------------------------
  free energy    TOTEN  =     -1408.54649545 eV

  energy without entropy =    -1408.54649545  energy(sigma->0) =    -1408.54649545


--------------------------------------------------------------------------------------------------------




--------------------------------------- Iteration      1(  15)  ---------------------------------------


    POTLOK:  cpu time    0.2509: real time    0.3130
    SETDIJ:  cpu time    1.1923: real time    1.1923
     EDDAV:  cpu time   17.6120: real time   17.6126
       DOS:  cpu time    0.0007: real time    0.0007
    CHARGE:  cpu time    2.6857: real time    2.6858
    MIXING:  cpu time    0.0021: real time    0.0021
    --------------------------------------------
      LOOP:  cpu time   21.7436: real time   21.8066

 eigenvalue-minimisations  :  3776
 total energy-change (2. order) : 0.4113471E-05  (-0.5038572E-05)
 number of electron     343.9999999 magnetization 
 augmentation part       -3.1873613 magnetization 

 Broyden mixing:
  rms(total) = 0.13719E-02    rms(broyden)= 0.13704E-02
  rms(prec ) = 0.19343E-02
  weight for this iteration     100.00

 eigenvalues of (default mixing * dielectric matrix)
  average eigenvalue GAMMA=   1.6469
  3.7348  2.4810  2.4810  1.3328  1.3328  1.1922  1.1922  0.8460  0.9383  0.9383

 Free energy of the ion-electron system (eV)
  ---------------------------------------------------
  alpha Z        PSCENC =       872.70583573
  Ewald energy   TEWEN  =    -17942.38267664
  -Hartree energ DENC   =     -7442.38910718
  -exchange      EXHF   =         0.00000000
  -V(xc)+E(xc)   XCENC  =       943.42687446
  PAW double counting   =     22723.92403282   -23781.53637942
  entropy T*S    EENTRO =        -0.00000000
  eigenvalues    EBANDS =     -2994.41368679
  atomic energy  EATOM  =     26212.11861568
  Solvation  Ediel_sol  =         0.00000000
  ---------------------------------------------------
  free energy    TOTEN  =     -1408.54649133 eV

  energy without entropy =    -1408.54649133  energy(sigma->0) =    -1408.54649133


--------------------------------------------------------------------------------------------------------




--------------------------------------- Iteration      1(  16)  ---------------------------------------


    POTLOK:  cpu time    0.3011: real time    0.3195
    SETDIJ:  cpu time    1.1919: real time    1.1920
     EDDAV:  cpu time   17.2809: real time   17.2816
       DOS:  cpu time    0.0004: real time    0.0004
    CHARGE:  cpu time    2.6868: real time    2.6869
    MIXING:  cpu time    0.0019: real time    0.0019
    --------------------------------------------
      LOOP:  cpu time   21.4631: real time   21.4824

 eigenvalue-minimisations  :  3664
 total energy-change (2. order) :-0.7143703E-04  (-0.3424649E-05)
 number of electron     343.9999999 magnetization 
 augmentation part       -3.1870678 magnetization 

 Broyden mixing:
  rms(total) = 0.55831E-03    rms(broyden)= 0.55487E-03
  rms(prec ) = 0.67888E-03
  weight for this iteration     100.00

 eigenvalues of (default mixing * dielectric matrix)
  average eigenvalue GAMMA=   1.7111
  4.1694  2.9247  2.3553  1.9582  1.1805  1.1805  0.8257  1.1236  1.1236  0.9907
  0.9907

 Free energy of the ion-electron system (eV)
  ---------------------------------------------------
  alpha Z        PSCENC =       872.70583573
  Ewald energy   TEWEN  =    -17942.38267664
  -Hartree energ DENC   =     -7442.35452487
  -exchange      EXHF   =         0.00000000
  -V(xc)+E(xc)   XCENC  =       943.41560018
  PAW double counting   =     22722.87670762   -23780.49305775
  entropy T*S    EENTRO =        -0.00000000
  eigenvalues    EBANDS =     -2994.43306272
  atomic energy  EATOM  =     26212.11861568
  Solvation  Ediel_sol  =         0.00000000
  ---------------------------------------------------
  free energy    TOTEN  =     -1408.54656277 eV

  energy without entropy =    -1408.54656277  energy(sigma->0) =    -1408.54656277


--------------------------------------------------------------------------------------------------------




--------------------------------------- Iteration      1(  17)  ---------------------------------------


    POTLOK:  cpu time    0.3072: real time    0.3147
    SETDIJ:  cpu time    1.1926: real time    1.1926
     EDDAV:  cpu time   17.9201: real time   17.9209
       DOS:  cpu time    0.0010: real time    0.0010
    CHARGE:  cpu time    2.6928: real time    2.6929
    MIXING:  cpu time    0.0019: real time    0.0019
    --------------------------------------------
      LOOP:  cpu time   22.1156: real time   22.1240

 eigenvalue-minimisations  :  3872
 total energy-change (2. order) : 0.7740628E-05  (-0.7346605E-06)
 number of electron     343.9999999 magnetization 
 augmentation part       -3.1870757 magnetization 

 Broyden mixing:
  rms(total) = 0.26033E-03    rms(broyden)= 0.25290E-03
  rms(prec ) = 0.30130E-03
  weight for this iteration     100.00

 eigenvalues of (default mixing * dielectric matrix)
  average eigenvalue GAMMA=   1.6654
  4.2585  2.9438  2.2725  2.0264  1.2322  1.2322  1.1661  1.1661  0.9984  0.9984
  0.8451  0.8451

 Free energy of the ion-electron system (eV)
  ---------------------------------------------------
  alpha Z        PSCENC =       872.70583573
  Ewald energy   TEWEN  =    -17942.38267664
  -Hartree energ DENC   =     -7442.34926436
  -exchange      EXHF   =         0.00000000
  -V(xc)+E(xc)   XCENC  =       943.41342044
  PAW double counting   =     22723.14966726   -23780.76288532
  entropy T*S    EENTRO =        -0.00000000
  eigenvalues    EBANDS =     -2994.43926783
  atomic energy  EATOM  =     26212.11861568
  Solvation  Ediel_sol  =         0.00000000
  ---------------------------------------------------
  free energy    TOTEN  =     -1408.54655503 eV

  energy without entropy =    -1408.54655503  energy(sigma->0) =    -1408.54655503


--------------------------------------------------------------------------------------------------------




--------------------------------------- Iteration      1(  18)  ---------------------------------------


    POTLOK:  cpu time    0.3127: real time    0.3161
    SETDIJ:  cpu time    1.1932: real time    1.1932
     EDDAV:  cpu time   13.3935: real time   13.3943
       DOS:  cpu time    0.0005: real time    0.0005
    CHARGE:  cpu time    2.6864: real time    2.6865
    MIXING:  cpu time    0.0020: real time    0.0020
    --------------------------------------------
      LOOP:  cpu time   17.5884: real time   17.5926

 eigenvalue-minimisations  :  2288
 total energy-change (2. order) : 0.1494877E-05  (-0.5457122E-07)
 number of electron     343.9999999 magnetization 
 augmentation part       -3.1870924 magnetization 

 Broyden mixing:
  rms(total) = 0.16090E-03    rms(broyden)= 0.14864E-03
  rms(prec ) = 0.18058E-03
  weight for this iteration     100.00

 eigenvalues of (default mixing * dielectric matrix)
  average eigenvalue GAMMA=   1.7103
  4.5308  2.9877  2.3206  2.3206  1.3153  1.3153  1.2922  1.2922  1.0549  1.0549
  0.9643  0.9643  0.8213

 Free energy of the ion-electron system (eV)
  ---------------------------------------------------
  alpha Z        PSCENC =       872.70583573
  Ewald energy   TEWEN  =    -17942.38267664
  -Hartree energ DENC   =     -7442.35362033
  -exchange      EXHF   =         0.00000000
  -V(xc)+E(xc)   XCENC  =       943.41355138
  PAW double counting   =     22723.13631654   -23780.74879752
  entropy T*S    EENTRO =        -0.00000000
  eigenvalues    EBANDS =     -2994.43577838
  atomic energy  EATOM  =     26212.11861568
  Solvation  Ediel_sol  =         0.00000000
  ---------------------------------------------------
  free energy    TOTEN  =     -1408.54655353 eV

  energy without entropy =    -1408.54655353  energy(sigma->0) =    -1408.54655353


--------------------------------------------------------------------------------------------------------




--------------------------------------- Iteration      1(  19)  ---------------------------------------


    POTLOK:  cpu time    0.2561: real time    0.3092
    SETDIJ:  cpu time    1.1926: real time    1.1926
     EDDAV:  cpu time   13.1129: real time   13.1133
       DOS:  cpu time    0.0005: real time    0.0005
    CHARGE:  cpu time    2.6861: real time    2.6864
    MIXING:  cpu time    0.0021: real time    0.0021
    --------------------------------------------
      LOOP:  cpu time   17.2503: real time   17.3040

 eigenvalue-minimisations  :  2192
 total energy-change (2. order) : 0.2661266E-05  (-0.2177044E-07)
 number of electron     343.9999999 magnetization 
 augmentation part       -3.1870748 magnetization 

 Broyden mixing:
  rms(total) = 0.83633E-04    rms(broyden)= 0.56570E-04
  rms(prec ) = 0.73895E-04
  weight for this iteration     100.00
  WARNING: grid for Broyden might be to small

 eigenvalues of (default mixing * dielectric matrix)
  average eigenvalue GAMMA=   1.6953
  4.6186  3.0935  2.4355  1.9889  1.9889  1.2346  1.2346  1.2107  1.0337  1.0337
  1.0649  1.0649  0.8655  0.8655

 Free energy of the ion-electron system (eV)
  ---------------------------------------------------
  alpha Z        PSCENC =       872.70583573
  Ewald energy   TEWEN  =    -17942.38267664
  -Hartree energ DENC   =     -7442.35580896
  -exchange      EXHF   =         0.00000000
  -V(xc)+E(xc)   XCENC  =       943.41356213
  PAW double counting   =     22723.20628787   -23780.81852355
  entropy T*S    EENTRO =        -0.00000000
  eigenvalues    EBANDS =     -2994.43384314
  atomic energy  EATOM  =     26212.11861568
  Solvation  Ediel_sol  =         0.00000000
  ---------------------------------------------------
  free energy    TOTEN  =     -1408.54655087 eV

  energy without entropy =    -1408.54655087  energy(sigma->0) =    -1408.54655087


--------------------------------------------------------------------------------------------------------




--------------------------------------- Iteration      1(  20)  ---------------------------------------


    POTLOK:  cpu time    0.3113: real time    0.3196
    SETDIJ:  cpu time    1.1904: real time    1.1904
     EDDAV:  cpu time   12.6216: real time   12.6221
       DOS:  cpu time    0.0004: real time    0.0004
    CHARGE:  cpu time    2.6820: real time    2.6820
    MIXING:  cpu time    0.0026: real time    0.0026
    --------------------------------------------
      LOOP:  cpu time   16.8082: real time   16.8170

 eigenvalue-minimisations  :  2024
 total energy-change (2. order) : 0.1346939E-05  (-0.8726464E-08)
 number of electron     343.9999999 magnetization 
 augmentation part       -3.1870974 magnetization 

 Broyden mixing:
  rms(total) = 0.75567E-04    rms(broyden)= 0.43776E-04
  rms(prec ) = 0.53185E-04
  weight for this iteration     100.00
  WARNING: grid for Broyden might be to small

 eigenvalues of (default mixing * dielectric matrix)
  average eigenvalue GAMMA=   1.7117
  4.7020  3.1460  2.3438  2.1701  2.1701  1.3910  1.3910  1.2924  1.2924  1.0701
  1.0701  0.9618  0.9618  0.8823  0.8308

 Free energy of the ion-electron system (eV)
  ---------------------------------------------------
  alpha Z        PSCENC =       872.70583573
  Ewald energy   TEWEN  =    -17942.38267664
  -Hartree energ DENC   =     -7442.36015248
  -exchange      EXHF   =         0.00000000
  -V(xc)+E(xc)   XCENC  =       943.41374376
  PAW double counting   =     22723.21086455   -23780.82276367
  entropy T*S    EENTRO =        -0.00000000
  eigenvalues    EBANDS =     -2994.43001646
  atomic energy  EATOM  =     26212.11861568
  Solvation  Ediel_sol  =         0.00000000
  ---------------------------------------------------
  free energy    TOTEN  =     -1408.54654953 eV

  energy without entropy =    -1408.54654953  energy(sigma->0) =    -1408.54654953


--------------------------------------------------------------------------------------------------------




--------------------------------------- Iteration      1(  21)  ---------------------------------------


    POTLOK:  cpu time    0.2702: real time    0.3146
    SETDIJ:  cpu time    1.1919: real time    1.1919
     EDDAV:  cpu time   12.5864: real time   12.5869
       DOS:  cpu time    0.0004: real time    0.0004
    --------------------------------------------
      LOOP:  cpu time   14.0489: real time   14.0938

 eigenvalue-minimisations  :  2008
 total energy-change (2. order) :-0.7231706E-06  (-0.3825472E-08)
 number of electron     343.9999999 magnetization 
 augmentation part       -3.1870974 magnetization 

 Free energy of the ion-electron system (eV)
  ---------------------------------------------------
  alpha Z        PSCENC =       872.70583573
  Ewald energy   TEWEN  =    -17942.38267664
  -Hartree energ DENC   =     -7442.36047290
  -exchange      EXHF   =         0.00000000
  -V(xc)+E(xc)   XCENC  =       943.41379464
  PAW double counting   =     22723.20489394   -23780.81687195
  entropy T*S    EENTRO =        -0.00000000
  eigenvalues    EBANDS =     -2994.42966876
  atomic energy  EATOM  =     26212.11861568
  Solvation  Ediel_sol  =         0.00000000
  ---------------------------------------------------
  free energy    TOTEN  =     -1408.54655025 eV

  energy without entropy =    -1408.54655025  energy(sigma->0) =    -1408.54655025


--------------------------------------------------------------------------------------------------------




 average (electrostatic) potential at core
  the test charge radii are     1.1312  1.1541  1.0178
  (the norm of the test charge is              1.0000)
       1 -55.1054       2 -54.8579       3 -55.4252       4 -55.2942       5 -55.2350
       6 -54.7140       7 -55.2302       8 -55.3259       9-101.6692      10-102.0399
      11-101.6521      12-102.0835      13-101.6297      14-102.0145      15-101.6513
      16-102.0035      17 -69.0539      18 -69.1657      19 -68.9569      20 -69.1696
      21 -69.0732      22 -68.8762      23 -68.9831      24 -68.8935      25 -69.0493
      26 -69.0709      27 -69.0487      28 -69.0651      29 -69.0594      30 -69.0252
      31 -69.7148      32 -69.0389      33 -69.0833      34 -69.0646      35 -69.0282
      36 -69.5300      37 -69.0537      38 -69.0179      39 -67.8214



 E-fermi :   0.3969     XC(G=0):  -7.9593     alpha+bet : -6.9586


 k-point     1 :       0.0000    0.0000    0.0000
  band No.  band energies     occupation 
      1     -20.9554      2.00000
      2     -20.8502      2.00000
      3     -20.8278      2.00000
      4     -20.7663      2.00000
      5     -20.7599      2.00000
      6     -20.6433      2.00000
      7     -20.4110      2.00000
      8     -20.3153      2.00000
      9     -16.8736      2.00000
     10     -16.8098      2.00000
     11     -16.8043      2.00000
     12     -16.7867      2.00000
     13     -16.7769      2.00000
     14     -16.7577      2.00000
     15     -16.7516      2.00000
     16     -16.7414      2.00000
     17     -16.7279      2.00000
     18     -16.7133      2.00000
     19     -16.7070      2.00000
     20     -16.7035      2.00000
     21     -16.6865      2.00000
     22     -16.6755      2.00000
     23     -16.6693      2.00000
     24     -16.6672      2.00000
     25     -16.6617      2.00000
     26     -16.6484      2.00000
     27     -16.6273      2.00000
     28     -16.5988      2.00000
     29     -16.4850      2.00000
     30     -16.4652      2.00000
     31     -16.4582      2.00000
     32     -16.4450      2.00000
     33     -16.4150      2.00000
     34     -16.4035      2.00000
     35     -16.3975      2.00000
     36     -16.3788      2.00000
     37     -16.3376      2.00000
     38     -16.3305      2.00000
     39     -16.3227      2.00000
     40     -16.3222      2.00000
     41     -16.3195      2.00000
     42     -16.3141      2.00000
     43     -16.3132      2.00000
     44     -16.3063      2.00000
     45     -16.3047      2.00000
     46     -16.3010      2.00000
     47     -16.2937      2.00000
     48     -16.2858      2.00000
     49     -14.7182      2.00000
     50     -14.5326      2.00000
     51     -14.3349      2.00000
     52     -14.2751      2.00000
     53     -14.1696      2.00000
     54     -14.1417      2.00000
     55     -14.1207      2.00000
     56     -14.0983      2.00000
     57     -14.0945      2.00000
     58     -14.0865      2.00000
     59     -14.0799      2.00000
     60     -14.0689      2.00000
     61     -14.0678      2.00000
     62     -14.0546      2.00000
     63     -14.0476      2.00000
     64     -14.0149      2.00000
     65     -13.9360      2.00000
     66     -13.9057      2.00000
     67     -13.8563      2.00000
     68     -13.7710      2.00000
     69     -13.7631      2.00000
     70     -13.7554      2.00000
     71     -12.9054      2.00000
     72      -8.2787      2.00000
     73      -7.9060      2.00000
     74      -7.8118      2.00000
     75      -7.7545      2.00000
     76      -7.3850      2.00000
     77      -7.3725      2.00000
     78      -7.3529      2.00000
     79      -7.3259      2.00000
     80      -7.3033      2.00000
     81      -7.2722      2.00000
     82      -7.2610      2.00000
     83      -7.2508      2.00000
     84      -7.2370      2.00000
     85      -7.2267      2.00000
     86      -7.2233      2.00000
     87      -7.2156      2.00000
     88      -7.1814      2.00000
     89      -7.1741      2.00000
     90      -7.1686      2.00000
     91      -7.1514      2.00000
     92      -7.1464      2.00000
     93      -7.1410      2.00000
     94      -7.0671      2.00000
     95      -7.0547      2.00000
     96      -7.0473      2.00000
     97      -6.9014      2.00000
     98      -6.8632      2.00000
     99      -6.8304      2.00000
    100      -6.7988      2.00000
    101      -6.7636      2.00000
    102      -6.6680      2.00000
    103      -6.6390      2.00000
    104      -3.3907      2.00000
    105      -3.3542      2.00000
    106      -3.3149      2.00000
    107      -3.3086      2.00000
    108      -3.2568      2.00000
    109      -3.2517      2.00000
    110      -3.2309      2.00000
    111      -3.1820      2.00000
    112      -3.1480      2.00000
    113      -3.1069      2.00000
    114      -2.9482      2.00000
    115      -2.8264      2.00000
    116      -2.3551      2.00000
    117      -2.3389      2.00000
    118      -2.1565      2.00000
    119      -2.0901      2.00000
    120      -2.0687      2.00000
    121      -2.0073      2.00000
    122      -1.9474      2.00000
    123      -1.9160      2.00000
    124      -1.8768      2.00000
    125      -1.8676      2.00000
    126      -1.8129      2.00000
    127      -1.7719      2.00000
    128      -1.7246      2.00000
    129      -1.6943      2.00000
    130      -1.6757      2.00000
    131      -1.6426      2.00000
    132      -1.5823      2.00000
    133      -1.5680      2.00000
    134      -1.5584      2.00000
    135      -1.5464      2.00000
    136      -1.5298      2.00000
    137      -1.5062      2.00000
    138      -1.5040      2.00000
    139      -1.5013      2.00000
    140      -1.4956      2.00000
    141      -1.4505      2.00000
    142      -1.4460      2.00000
    143      -1.4065      2.00000
    144      -1.4036      2.00000
    145      -1.3973      2.00000
    146      -1.3870      2.00000
    147      -1.3661      2.00000
    148      -1.3596      2.00000
    149      -1.3506      2.00000
    150      -1.3460      2.00000
    151      -1.3157      2.00000
    152      -1.2931      2.00000
    153      -1.2820      2.00000
    154      -1.2495      2.00000
[...]


--------------------------------------------------------------------------------------------------------


 soft charge-density along one line, spin component           1
         0         1         2         3         4         5         6         7         8         9
 total charge-density along one line

 pseudopotential strength for first ion, spin component:           1
 17.895  -4.684  -0.000  -0.001   0.001   0.000   0.001  -0.001
 -4.684   1.235   0.000   0.000  -0.000  -0.000  -0.000   0.000
 -0.000   0.000   2.233   0.000  -0.000  -2.664  -0.000   0.000
 -0.001   0.000   0.000   2.233  -0.001  -0.000  -2.664   0.001
  0.001  -0.000  -0.000  -0.001   2.233   0.000   0.001  -2.664
  0.000  -0.000  -2.664  -0.000   0.000   3.144   0.000  -0.000
  0.001  -0.000  -0.000  -2.664   0.001   0.000   3.144  -0.001
 -0.001   0.000   0.000   0.001  -2.664  -0.000  -0.001   3.144
 -0.000   0.000   0.001  -0.000  -0.000  -0.001   0.000   0.000
  0.000  -0.000   0.001  -0.000  -0.000  -0.001   0.000   0.000
  0.000  -0.000   0.000  -0.001   0.001  -0.000   0.002  -0.001
 -0.001   0.000  -0.000   0.001   0.000   0.000  -0.002  -0.000
  0.000  -0.000   0.000  -0.000  -0.000  -0.000   0.000   0.001
 total augmentation occupancy for first ion, spin component:           1
  1.913  -0.135  -0.000  -0.000   0.000  -0.000  -0.000   0.000  -0.000   0.000  -0.000  -0.001  -0.000
 -0.135   0.123  -0.001  -0.003   0.002   0.000   0.001   0.000   0.000  -0.000  -0.000   0.002   0.001
 -0.000  -0.001   2.019   0.000  -0.000   0.005   0.000  -0.000   0.002   0.001   0.000  -0.000   0.000
 -0.000  -0.003   0.000   2.018  -0.002   0.000   0.005  -0.001  -0.000  -0.000  -0.003   0.001  -0.000
  0.000   0.002  -0.000  -0.002   2.019  -0.000  -0.001   0.005  -0.000  -0.000   0.000   0.000  -0.001
 -0.000   0.000   0.005   0.000  -0.000   0.009  -0.000   0.000  -0.001  -0.002  -0.000   0.000  -0.000
 -0.000   0.001   0.000   0.005  -0.001  -0.000   0.009   0.000   0.000   0.000   0.002  -0.001   0.001
  0.000   0.000  -0.000  -0.001   0.005   0.000   0.000   0.009   0.000   0.000  -0.001  -0.001   0.002
 -0.000   0.000   0.002  -0.000  -0.000  -0.001   0.000   0.000   0.006   0.001   0.000  -0.000  -0.000
  0.000  -0.000   0.001  -0.000  -0.000  -0.002   0.000   0.000   0.001   0.005  -0.000   0.000  -0.000
 -0.000  -0.000   0.000  -0.003   0.000  -0.000   0.002  -0.001   0.000  -0.000   0.006  -0.002  -0.000
 -0.001   0.002  -0.000   0.001   0.000   0.000  -0.001  -0.001  -0.000   0.000  -0.002   0.005   0.001
 -0.000   0.001   0.000  -0.000  -0.001  -0.000   0.001   0.002  -0.000  -0.000  -0.000   0.001   0.004


------------------------ aborting loop because EDIFF is reached ----------------------------------------





 total charge     

# of ion       s       p       d       tot
------------------------------------------
    1        1.787   4.717   0.020   6.523
    2        1.789   4.717   0.024   6.530
    3        1.786   4.717   0.018   6.521
    4        1.786   4.717   0.019   6.522
    5        1.786   4.716   0.019   6.521
    6        1.795   4.717   0.039   6.551
    7        1.786   4.717   0.018   6.520
    8        1.785   4.716   0.017   6.518
    9        1.553   0.417   9.834  11.804
   10        1.532   0.430   9.830  11.791
   11        1.554   0.419   9.834  11.807
   12        1.540   0.418   9.829  11.787
   13        1.554   0.422   9.835  11.811
   14        1.536   0.417   9.829  11.782
   15        1.554   0.419   9.834  11.807
   16        1.546   0.395   9.829  11.770
   17        1.615   3.286   0.007   4.907
   18        1.614   3.276   0.006   4.896
   19        1.614   3.288   0.007   4.909
   20        1.617   3.285   0.009   4.912
   21        1.615   3.285   0.007   4.906
   22        1.612   3.275   0.004   4.892
   23        1.615   3.283   0.007   4.905
   24        1.616   3.272   0.007   4.895
   25        1.614   3.287   0.007   4.908
   26        1.614   3.281   0.006   4.901
   27        1.614   3.278   0.006   4.897
   28        1.615   3.278   0.006   4.899
   29        1.614   3.277   0.006   4.897
   30        1.614   3.283   0.006   4.903
   31        1.616   3.268   0.007   4.891
   32        1.614   3.285   0.006   4.905
   33        1.614   3.279   0.006   4.899
   34        1.614   3.276   0.006   4.896
   35        1.614   3.284   0.006   4.904
   36        1.615   3.268   0.006   4.889
   37        1.614   3.279   0.006   4.900
   38        1.614   3.278   0.006   4.898
   39        1.613   3.308   0.004   4.926
--------------------------------------------------
tot         63.799 116.529  78.970 259.298

    CHARGE:  cpu time    0.3900: real time    0.3900
    FORLOC:  cpu time    0.0115: real time    0.0115
    FORNL :  cpu time    1.8988: real time    1.8988
    STRESS:  cpu time   49.5501: real time   49.5519
    FORCOR:  cpu time    0.2406: real time    0.2406
    FORHAR:  cpu time    0.0276: real time    0.0276
    MIXING:  cpu time    0.0021: real time    0.0021
    OFIELD:  cpu time    0.0001: real time    0.0001

  FORCE on cell =-STRESS in cart. coord.  units (eV):
  Direction    XX          YY          ZZ          XY          YZ          ZX
  --------------------------------------------------------------------------------------
  Alpha Z   872.70584   872.70584   872.70584
  Ewald   -6106.93647 -5523.71785 -6311.80691    27.60073    30.53627  -423.07196
  Hartree  2378.49276  2825.24880  2238.61922    19.26870    20.63786  -278.54570
  E(xc)   -1449.16857 -1449.23408 -1449.27226    -0.01337     0.02044    -0.40614
  Local   -2661.42361 -3689.66435 -2317.54494   -46.42817   -51.17517   702.93776
  n-local  1745.24647  1748.90735  1744.32071     0.05283     0.03767    -3.32364
  augment   817.90149   819.09240   817.06108     0.02396     0.02181    -1.07724
  Kinetic  4399.30813  4389.07234  4401.74333    -0.70634     0.09870     1.32488
  Fock        0.00000     0.00000     0.00000     0.00000     0.00000     0.00000
  -------------------------------------------------------------------------------------
  Total      -3.87398    -7.58955    -4.17394    -0.20166     0.17758    -2.16202
  in kB      -3.89120    -7.62328    -4.19249    -0.20256     0.17837    -2.17163
  external pressure =       -5.24 kB  Pullay stress =        0.00 kB


 VOLUME and BASIS-vectors are now :
 -----------------------------------------------------------------------------
  energy-cutoff  :      300.00
  volume of cell :     1595.09
      direct lattice vectors                 reciprocal lattice vectors
     8.456489000  0.000000000  8.040301000     0.059126193 -0.000000000  0.062186727
     0.000000000 11.729847000  0.000000000     0.000000000  0.085252604 -0.000000000
    -8.456489000  0.000000000  8.040301000    -0.059126193  0.000000000  0.062186727

  length of vectors
    11.668703715 11.729847000 11.668703715     0.085808482  0.085252604  0.085808482


 FORCES acting on ions
    electron-ion (+dipol)            ewald-force                    non-local-force                 convergence-correction
 -----------------------------------------------------------------------------------------------
   0.349E+02 0.308E+01 -.256E+02   -.349E+02 -.306E+01 0.257E+02   0.187E-01 -.241E-01 -.768E-01   -.182E-04 -.169E-04 0.463E-04
   -.479E+01 0.121E+02 0.151E+02   0.517E+01 -.120E+02 -.155E+02   -.485E+00 -.114E+00 0.532E+00   -.403E-04 -.310E-04 -.785E-05
   0.138E+02 -.904E+01 -.714E+02   -.138E+02 0.900E+01 0.710E+02   0.770E-02 0.285E-01 0.270E+00   -.149E-05 0.494E-04 -.145E-04
   -.416E+02 -.365E+01 0.640E+01   0.414E+02 0.359E+01 -.618E+01   0.209E+00 0.522E-01 -.189E+00   0.182E-04 0.156E-04 -.535E-04
   0.116E+02 0.592E+01 0.200E+02   -.116E+02 -.585E+01 -.201E+02   0.507E-02 -.742E-01 0.679E-01   0.363E-04 -.184E-04 -.227E-05
   0.444E+02 0.132E+02 -.782E+01   -.444E+02 -.131E+02 0.769E+01   0.106E+01 -.224E+00 -.416E+00   -.641E-04 -.377E-04 -.316E-04
   -.552E+02 -.729E+01 0.367E+02   0.552E+02 0.726E+01 -.369E+02   0.472E-01 0.261E-01 0.141E+00   0.125E-04 0.312E-04 -.744E-05
   -.154E+02 -.512E+01 -.145E+01   0.154E+02 0.509E+01 0.128E+01   0.876E-02 0.441E-01 0.155E+00   -.164E-04 0.185E-04 0.432E-04
   0.225E+02 0.173E+02 0.910E+01   -.228E+02 -.169E+02 -.856E+01   0.199E+00 -.245E+00 -.540E+00   -.101E-03 0.131E-03 -.125E-03
   -.121E+03 0.562E+02 -.888E+02   0.125E+03 -.591E+02 0.925E+02   -.454E+01 0.279E+01 -.367E+01   -.111E-03 0.146E-03 -.702E-04
   -.793E+01 0.159E+02 -.188E+02   0.799E+01 -.161E+02 0.189E+02   -.780E-01 0.220E+00 -.155E+00   0.982E-04 0.141E-03 0.127E-03
   0.802E+02 0.129E+01 0.100E+03   -.832E+02 -.335E+00 -.103E+03   0.312E+01 -.752E+00 0.282E+01   0.987E-04 0.829E-04 0.122E-03
   -.918E+01 -.164E+02 -.177E+02   0.930E+01 0.166E+02 0.178E+02   -.135E+00 -.217E+00 -.722E-01   0.865E-04 -.137E-03 0.113E-03
   0.710E+02 -.173E+02 0.108E+03   -.740E+02 0.173E+02 -.113E+03   0.303E+01 -.195E+00 0.446E+01   0.590E-04 -.120E-03 0.111E-03
   0.191E+02 -.193E+02 0.124E+02   -.189E+02 0.192E+02 -.125E+02   -.179E+00 0.728E-01 0.760E-01   -.840E-04 -.141E-03 -.109E-03
   -.857E+02 -.333E+02 -.582E+02   0.881E+02 0.320E+02 0.597E+02   -.228E+01 0.123E+01 -.133E+01   0.142E-04 -.836E-04 0.229E-04
   0.284E+01 -.261E+01 0.241E+02   -.296E+01 0.260E+01 -.243E+02   0.105E+00 0.768E-04 0.209E+00   0.632E-04 0.856E-05 0.633E-04
   0.422E+02 0.708E+00 0.734E+02   -.423E+02 -.820E+00 -.737E+02   0.252E-01 0.822E-01 0.287E+00   -.400E-04 0.421E-04 -.966E-05
   -.122E+02 0.352E+01 0.292E+02   0.123E+02 -.352E+01 -.293E+02   -.630E-01 0.177E-02 0.183E+00   -.580E-04 -.173E-04 -.640E-04
   0.661E+01 -.166E+02 0.478E+02   -.669E+01 0.171E+02 -.483E+02   -.354E+00 -.463E+00 0.131E+00   0.536E-04 -.125E-04 0.277E-04
   0.310E+02 -.280E+01 -.312E+02   -.313E+02 0.279E+01 0.315E+02   0.200E+00 0.445E-02 -.280E+00   -.639E-04 0.191E-04 -.411E-04
   -.359E+02 -.376E+02 -.525E+02   0.358E+02 0.380E+02 0.527E+02   -.263E-02 -.310E+00 -.213E+00   0.216E-04 0.325E-04 0.295E-04
   -.974E+01 0.291E+01 -.459E+02   0.988E+01 -.291E+01 0.462E+02   -.134E+00 -.480E-02 -.405E+00   0.417E-04 -.125E-04 0.840E-04
   0.124E+02 0.112E+02 -.648E+01   -.128E+02 -.113E+02 0.643E+01   0.578E+00 0.479E-01 0.396E+00   -.155E-04 -.219E-04 -.478E-04
   -.199E+02 0.406E+01 0.234E+02   0.200E+02 -.420E+01 -.236E+02   -.134E+00 0.156E+00 0.231E+00   0.487E-07 -.858E-04 0.967E-05
   0.147E+02 -.216E+02 -.128E+02   -.149E+02 0.218E+02 0.126E+02   0.788E-01 -.115E+00 0.231E+00   0.125E-04 -.716E-04 0.530E-04
   0.159E+02 -.280E+02 0.620E+02   -.161E+02 0.282E+02 -.622E+02   0.232E+00 -.112E+00 0.225E+00   -.438E-04 -.586E-04 -.505E-04
   -.530E+02 0.503E+01 -.214E+02   0.532E+02 -.491E+01 0.217E+02   -.232E+00 -.132E+00 -.280E+00   0.713E-04 0.658E-04 0.431E-04
   0.983E+01 -.116E+02 -.144E+02   -.957E+01 0.119E+02 0.145E+02   -.268E+00 -.299E+00 -.284E-01   -.517E-04 0.729E-04 -.138E-04
   0.339E+02 0.194E+02 -.351E+02   -.341E+02 -.195E+02 0.353E+02   0.198E+00 0.276E-01 -.204E+00   -.142E-04 0.867E-04 0.691E-05
   0.202E+02 0.468E+02 -.280E+02   -.206E+02 -.475E+02 0.285E+02   0.275E+00 0.659E+00 -.551E+00   0.397E-04 0.918E-04 -.356E-04
   -.214E+02 -.397E+01 0.255E+02   0.215E+02 0.413E+01 -.258E+02   -.146E+00 -.170E+00 0.269E+00   -.661E-05 0.832E-04 0.408E-05
   0.993E+01 0.267E+02 -.146E+02   -.101E+02 -.269E+02 0.144E+02   0.121E+00 0.192E+00 0.179E+00   0.138E-04 0.758E-04 0.654E-04
   0.127E+02 0.224E+02 0.739E+02   -.129E+02 -.226E+02 -.742E+02   0.194E+00 0.117E+00 0.290E+00   -.439E-04 0.667E-04 -.716E-04
   0.322E+02 -.211E+02 -.337E+02   -.324E+02 0.211E+02 0.339E+02   0.196E+00 -.312E-01 -.218E+00   -.948E-05 -.798E-04 -.118E-04
   0.510E+01 -.355E+02 -.360E+02   -.525E+01 0.359E+02 0.366E+02   0.273E+00 -.416E+00 -.583E+00   0.412E-04 -.696E-04 -.175E-04
   -.472E+02 0.281E+00 -.176E+02   0.474E+02 -.476E+00 0.179E+02   -.177E+00 0.205E+00 -.300E+00   0.564E-04 -.684E-04 0.338E-04
   0.948E+01 0.117E+02 -.245E+02   -.927E+01 -.120E+02 0.247E+02   -.235E+00 0.292E+00 -.147E+00   -.302E-04 -.913E-04 -.100E-04
   -.167E+02 0.103E+02 -.540E+01   0.165E+02 -.104E+02 0.552E+01   -.101E+01 0.438E+00 0.163E+00   0.115E-04 -.598E-04 -.280E-04
 -----------------------------------------------------------------------------------------------
   0.163E+00 -.278E+01 -.175E+01   0.121E-12 -.181E-12 0.240E-13   -.261E+00 0.279E+01 0.165E+01   0.364E-04 0.270E-04 0.183E-03


 POSITION                                       TOTAL-FORCE (eV/Angst)
 -----------------------------------------------------------------------------------
      0.68275      2.92966      3.73047        -0.006651     -0.000018     -0.039213
      0.20381      2.96427     12.20617        -0.101459     -0.022301      0.153433
      3.83931      8.79140      7.70707         0.044918     -0.002971     -0.070640
     -4.85170      8.77164      7.99540        -0.036287      0.004454      0.034246
     -3.89853      2.97626      8.19258        -0.025150     -0.004736     -0.013056
      4.91255      2.93190      8.18841         1.073617     -0.105596     -0.503978
     -0.52584      8.79466     12.16761        -0.014928     -0.000367      0.018674
     -0.41017      8.74437      4.19940         0.010838      0.004400     -0.017750
     -8.42437     11.69744      8.06529        -0.012079      0.076574      0.001347
     -0.04879      0.22280      7.95116         0.120368     -0.077662      0.146842
     -4.18307      0.01648     12.05194        -0.001299      0.045076     -0.000207
     -4.09100     11.68539      4.18106         0.053946      0.207837      0.028773
     -4.18503      5.85858     12.05772         0.001802     -0.048127      0.011983
     -4.20508      5.84848      4.04880        -0.007157     -0.239736     -0.025187
      0.02147      5.88944      0.02730        -0.035049     -0.077897     -0.014917
     -0.05597      5.77870      7.96121         0.093714     -0.084784      0.161214
     -4.17348      8.80436     11.65770        -0.001758     -0.003985      0.000126
      4.31960      8.82086     11.41563        -0.003136     -0.004945     -0.018936
      0.11679      2.92965     15.77820         0.086492     -0.005106      0.068714
     -0.43024      2.90011      7.17188        -0.451954     -0.054941     -0.395900
     -0.06221      8.79540      0.56529         0.008418      0.001037      0.011351
      0.29731      8.67875      8.57681        -0.015522      0.017893     -0.054075
      4.29987      2.93435      4.52888        -0.003671      0.002225     -0.044406
     -4.49473      2.91796      4.50833         0.227864     -0.047254      0.366836
     -5.92766      5.56932      9.66415         0.017363      0.015056      0.008257
      1.78228      6.16040      5.65298        -0.061647      0.025667      0.057876
      1.70799      6.28120     13.63101         0.046207      0.027095     -0.014952
     -1.67107      0.38578     10.42211        -0.018856     -0.013713     -0.013206
     -1.71657      0.42681      2.49079        -0.016245     -0.043051      0.037073
      5.98779     11.45363      6.45947        -0.005358     -0.048735     -0.023120
     -2.44502     11.13228      6.51901        -0.064528      0.033047     -0.087051
     -5.88796      0.31367      9.63108         0.018534     -0.018866      0.006179
      1.76829     11.40651      5.66887         0.007426     -0.032345     -0.016047
      1.72634     11.28473     13.66676         0.060906     -0.015783     -0.034052
      5.98446      6.14026      6.45986        -0.010468      0.043605     -0.027354
     -2.61847      6.32975      6.40177         0.121363     -0.035486      0.032527
     -1.71527      5.48957     10.40253         0.039306      0.019606     -0.054238
     -1.70345      5.42198      2.46664        -0.022851      0.043853      0.043624
      2.18999      3.20456      9.46759        -1.117031      0.420980      0.279206
 -----------------------------------------------------------------------------------
    total drift:                               -0.097817      0.010417     -0.097286


--------------------------------------------------------------------------------------------------------



  FREE ENERGIE OF THE ION-ELECTRON SYSTEM (eV)
  ---------------------------------------------------
  free  energy   TOTEN  =     -1408.54655025 eV

  energy  without entropy=    -1408.54655025  energy(sigma->0) =    -1408.54655025



--------------------------------------------------------------------------------------------------------


    POTLOK:  cpu time    1.4264: real time    1.4265


--------------------------------------------------------------------------------------------------------


 stress matrix after NEB project (eV)
     -3.87398     -0.20164     -2.16202
     -0.20166     -7.58955      0.17752
     -2.16211      0.17758     -4.17394
  FORCES: max atom, RMS     1.225944    0.312720
  FORCE total and by dimension    1.952938    1.117031
  Stress total and by dimension    9.976183    7.589550
     LOOP+:  cpu time  483.6390: real time  484.3315
    4ORBIT:  cpu time    0.0000: real time    0.0000



 total charge     

# of ion       s       p       d       tot
------------------------------------------
    1        1.787   4.717   0.020   6.523
    2        1.789   4.717   0.024   6.530
    3        1.786   4.717   0.018   6.521
    4        1.786   4.717   0.019   6.522
    5        1.786   4.716   0.019   6.521
    6        1.795   4.717   0.039   6.551
    7        1.786   4.717   0.018   6.520
    8        1.785   4.716   0.017   6.518
    9        1.553   0.417   9.834  11.804
   10        1.532   0.430   9.830  11.791
   11        1.554   0.419   9.834  11.807
   12        1.540   0.418   9.829  11.787
   13        1.554   0.422   9.835  11.811
   14        1.536   0.417   9.829  11.782
   15        1.554   0.419   9.834  11.807
   16        1.546   0.395   9.829  11.770
   17        1.615   3.286   0.007   4.907
   18        1.614   3.276   0.006   4.896
   19        1.614   3.288   0.007   4.909
   20        1.617   3.285   0.009   4.912
   21        1.615   3.285   0.007   4.906
   22        1.612   3.275   0.004   4.892
   23        1.615   3.283   0.007   4.905
   24        1.616   3.272   0.007   4.895
   25        1.614   3.287   0.007   4.908
   26        1.614   3.281   0.006   4.901
   27        1.614   3.278   0.006   4.897
   28        1.615   3.278   0.006   4.899
   29        1.614   3.277   0.006   4.897
   30        1.614   3.283   0.006   4.903
   31        1.616   3.268   0.007   4.891
   32        1.614   3.285   0.006   4.905
   33        1.614   3.279   0.006   4.899
   34        1.614   3.276   0.006   4.896
   35        1.614   3.284   0.006   4.904
   36        1.615   3.268   0.006   4.889
   37        1.614   3.279   0.006   4.900
   38        1.614   3.278   0.006   4.898
   39        1.613   3.308   0.004   4.926
--------------------------------------------------
tot         63.799 116.529  78.970 259.298


 total amount of memory used by VASP MPI-rank0    60646. kBytes
=======================================================================

   base      :      30000. kBytes
   nonlr-proj:       6481. kBytes
   fftplans  :       8423. kBytes
   grid      :       7465. kBytes
   one-center:         77. kBytes
   wavefun   :       8200. kBytes

  
  
 General timing and accounting informations for this job:
 ========================================================
  
                  Total CPU time used (sec):      496.066
                            User time (sec):      494.618
                          System time (sec):        1.448
                         Elapsed time (sec):      497.345
  
                   Maximum memory used (kb):       78328.
                   Average memory used (kb):           0.
  
                          Minor page faults:        20957
                          Major page faults:            0
                 Voluntary context switches:         1590
