       N       E                     dE             d eps       ncg     rms          rms(c)
DAV:   1     0.136856488412E+04    0.13686E+04   -0.11043E+05  3472   0.973E+02
DAV:   2    -0.108706378559E+04   -0.24556E+04   -0.23727E+04  4080   0.300E+02
DAV:   3    -0.145270618931E+04   -0.36564E+03   -0.36356E+03  4432   0.138E+02
DAV:   4    -0.146499083174E+04   -0.12285E+02   -0.12243E+02  3872   0.333E+01
DAV:   5    -0.146558868767E+04   -0.59786E+00   -0.59753E+00  4456   0.580E+00    0.103E+01
DAV:   6    -0.138666505009E+04    0.78924E+02   -0.23178E+01  4304   0.336E+01    0.723E+00
DAV:   7    -0.138625707372E+04    0.40798E+00   -0.98202E+00  4088   0.599E+00    0.384E+00
DAV:   8    -0.138643461328E+04   -0.17754E+00   -0.43152E-01  3928   0.205E+00    0.227E+00
DAV:   9    -0.138651780228E+04   -0.83189E-01   -0.18185E-01  3744   0.136E+00    0.453E-01
DAV:  10    -0.138652088276E+04   -0.30805E-02   -0.17565E-02  4664   0.406E-01    0.302E-01
DAV:  11    -0.138652458856E+04   -0.37058E-02   -0.34946E-03  3744   0.173E-01    0.114E-01
DAV:  12    -0.138652742632E+04   -0.28378E-02   -0.32268E-03  3736   0.131E-01    0.842E-02
DAV:  13    -0.138652724949E+04    0.17682E-03   -0.10050E-03  4432   0.924E-02    0.382E-02
DAV:  14    -0.138652724289E+04    0.66068E-05   -0.24151E-04  3872   0.288E-02    0.194E-02
DAV:  15    -0.138652724840E+04   -0.55113E-05   -0.40416E-05  3680   0.158E-02    0.117E-02
DAV:  16    -0.138652731163E+04   -0.63231E-04   -0.34012E-05  3616   0.147E-02    0.560E-03
DAV:  17    -0.138652731115E+04    0.48302E-06   -0.49191E-06  3464   0.517E-03
   1 F= -.13865273E+04 E0= -.13865273E+04  d E =-.180834E-14
