PROCAR new format
# of k-points:    8         # of bands:  208         # of ions:   39

 k-point     1 :    0.00000000 0.00000000 0.00000000     weight = 0.12500000

band     1 # energy  -21.54355007 # occ.  2.00000000

ion      s      p      d    tot
    1  0.000  0.000  0.000  0.000
    2  0.000  0.000  0.000  0.000
    3  0.000  0.000  0.000  0.000
    4  0.000  0.000  0.000  0.000
    5  0.000  0.000  0.000  0.000
    6  0.000  0.000  0.000  0.000
    7  0.000  0.000  0.000  0.000
    8  0.000  0.000  0.000  0.000
    9  0.000  0.000  0.000  0.000
   10  0.000  0.000  0.000  0.000
   11  0.000  0.000  0.000  0.000
   12  0.000  0.000  0.000  0.000
   13  0.000  0.000  0.000  0.000
   14  0.000  0.000  0.000  0.000
   15  0.000  0.000  0.000  0.000
   16  0.000  0.000  0.000  0.000
   17  0.000  0.000  0.000  0.000
   18  0.000  0.000  0.000  0.000
   19  0.000  0.000  0.000  0.000
   20  0.000  0.000  0.000  0.000
   21  0.000  0.000  0.000  0.000
   22  0.000  0.000  0.000  0.000
   23  0.000  0.000  0.000  0.000
   24  0.000  0.000  0.000  0.000
   25  0.000  0.000  0.000  0.000
   26  0.000  0.000  0.000  0.000
   27  0.000  0.000  0.000  0.000
   28  0.000  0.000  0.000  0.000
   29  0.000  0.000  0.000  0.000
   30  0.000  0.000  0.000  0.000
   31  0.000  0.000  0.000  0.000
   32  0.000  0.000  0.000  0.000
   33  0.000  0.000  0.000  0.000
   34  0.000  0.000  0.000  0.000
   35  0.000  0.000  0.000  0.000
   36  0.000  0.000  0.000  0.000
   37  0.000  0.000  0.000  0.000
   38  0.000  0.000  0.000  0.000
   39  0.887  0.000  0.000  0.887
tot    0.888  0.000  0.000  0.888

band     2 # energy  -20.93165755 # occ.  2.00000000

ion      s      p      d    tot
    1  0.000  0.000  0.000  0.000
    2  0.806  0.000  0.000  0.806
    3  0.000  0.000  0.000  0.000
    4  0.000  0.000  0.000  0.000
    5  0.081  0.000  0.000  0.081
    6  0.000  0.000  0.000  0.000
    7  0.000  0.000  0.000  0.000
    8  0.000  0.000  0.000  0.000
    9  0.000  0.000  0.000  0.000
   10  0.000  0.000  0.000  0.000
   11  0.000  0.000  0.000  0.000
   12  0.000  0.000  0.000  0.000
   13  0.000  0.000  0.000  0.000
   14  0.000  0.000  0.000  0.000
   15  0.000  0.000  0.000  0.000
   16  0.000  0.000  0.000  0.000
   17  0.000  0.000  0.000  0.000
   18  0.000  0.000  0.000  0.000
   19  0.000  0.000  0.000  0.000
   20  0.000  0.000  0.000  0.000
   21  0.000  0.000  0.000  0.000
   22  0.000  0.000  0.000  0.000
   23  0.000  0.000  0.000  0.000
   24  0.000  0.000  0.000  0.000
   25  0.000  0.000  0.000  0.000
   26  0.000  0.000  0.000  0.000
   27  0.000  0.000  0.000  0.000
   28  0.000  0.000  0.000  0.000
   29  0.000  0.000  0.000  0.000
   30  0.000  0.000  0.000  0.000
   31  0.000  0.000  0.000  0.000
   32  0.000  0.000  0.000  0.000
   33  0.000  0.000  0.000  0.000
   34  0.000  0.000  0.000  0.000
   35  0.000  0.000  0.000  0.000
   36  0.000  0.000  0.000  0.000
   37  0.000  0.000  0.000  0.000
   38  0.000  0.000  0.000  0.000
   39  0.000  0.000  0.000  0.000
tot    0.888  0.000  0.000  0.888

band     3 # energy  -20.92887167 # occ.  2.00000000

ion      s      p      d    tot
    1  0.000  0.000  0.000  0.000
    2  0.081  0.000  0.000  0.081
    3  0.000  0.000  0.000  0.000
    4  0.000  0.000  0.000  0.000
    5  0.806  0.000  0.000  0.806
    6  0.000  0.000  0.000  0.000
    7  0.000  0.000  0.000  0.000
    8  0.000  0.000  0.000  0.000
    9  0.000  0.000  0.000  0.000
   10  0.000  0.000  0.000  0.000
   11  0.000  0.000  0.000  0.000
   12  0.000  0.000  0.000  0.000
   13  0.000  0.000  0.000  0.000
   14  0.000  0.000  0.000  0.000
   15  0.000  0.000  0.000  0.000
   16  0.000  0.000  0.000  0.000
   17  0.000  0.000  0.000  0.000
   18  0.000  0.000  0.000  0.000
   19  0.000  0.000  0.000  0.000
   20  0.000  0.000  0.000  0.000
   21  0.000  0.000  0.000  0.000
   22  0.000  0.000  0.000  0.000
   23  0.000  0.000  0.000  0.000
   24  0.000  0.000  0.000  0.000
   25  0.000  0.000  0.000  0.000
   26  0.000  0.000  0.000  0.000
   27  0.000  0.000  0.000  0.000
   28  0.000  0.000  0.000  0.000
   29  0.000  0.000  0.000  0.000
   30  0.000  0.000  0.000  0.000
   31  0.000  0.000  0.000  0.000
   32  0.000  0.000  0.000  0.000
   33  0.000  0.000  0.000  0.000
   34  0.000  0.000  0.000  0.000
   35  0.000  0.000  0.000  0.000
   36  0.000  0.000  0.000  0.000
   37  0.000  0.000  0.000  0.000
   38  0.000  0.000  0.000  0.000
   39  0.000  0.000  0.000  0.000
tot    0.888  0.000  0.000  0.888

band     4 # energy  -20.89178473 # occ.  2.00000000

ion      s      p      d    tot
    1  0.028  0.000  0.000  0.028
    2  0.000  0.000  0.000  0.000
    3  0.001  0.000  0.000  0.001
    4  0.000  0.000  0.000  0.000
    5  0.000  0.000  0.000  0.000
    6  0.858  0.000  0.000  0.858
    7  0.000  0.000  0.000  0.000
    8  0.000  0.000  0.000  0.000
    9  0.000  0.000  0.000  0.000
   10  0.000  0.000  0.000  0.000
   11  0.000  0.000  0.000  0.000
   12  0.000  0.000  0.000  0.000
   13  0.000  0.000  0.000  0.000
   14  0.000  0.000  0.000  0.000
   15  0.000  0.000  0.000  0.000
   16  0.000  0.000  0.000  0.000
   17  0.000  0.000  0.000  0.000
   18  0.000  0.000  0.000  0.000
   19  0.000  0.000  0.000  0.000
   20  0.000  0.000  0.000  0.000
   21  0.000  0.000  0.000  0.000
   22  0.000  0.000  0.000  0.000
   23  0.000  0.000  0.000  0.000
   24  0.000  0.000  0.000  0.000
   25  0.000  0.000  0.000  0.000
   26  0.000  0.000  0.000  0.000
   27  0.000  0.000  0.000  0.000
   28  0.000  0.000  0.000  0.000
   29  0.000  0.000  0.000  0.000
   30  0.000  0.000  0.000  0.000
   31  0.000  0.000  0.000  0.000
   32  0.000  0.000  0.000  0.000
   33  0.000  0.000  0.000  0.000
   34  0.000  0.000  0.000  0.000
   35  0.000  0.000  0.000  0.000
   36  0.000  0.000  0.000  0.000
   37  0.000  0.000  0.000  0.000
   38  0.000  0.000  0.000  0.000
   39  0.000  0.000  0.000  0.000
tot    0.888  0.000  0.000  0.888

band     5 # energy  -20.88754585 # occ.  2.00000000

ion      s      p      d    tot
    1  0.858  0.000  0.000  0.858
    2  0.000  0.000  0.000  0.000
    3  0.000  0.000  0.000  0.000
    4  0.001  0.000  0.000  0.001
    5  0.000  0.000  0.000  0.000
    6  0.029  0.000  0.000  0.029
    7  0.000  0.000  0.000  0.000
    8  0.000  0.000  0.000  0.000
    9  0.000  0.000  0.000  0.000
   10  0.000  0.000  0.000  0.000
   11  0.000  0.000  0.000  0.000
   12  0.000  0.000  0.000  0.000
   13  0.000  0.000  0.000  0.000
   14  0.000  0.000  0.000  0.000
   15  0.000  0.000  0.000  0.000
   16  0.000  0.000  0.000  0.000
   17  0.000  0.000  0.000  0.000
   18  0.000  0.000  0.000  0.000
   19  0.000  0.000  0.000  0.000
   20  0.000  0.000  0.000  0.000
   21  0.000  0.000  0.000  0.000
   22  0.000  0.000  0.000  0.000
   23  0.000  0.000  0.000  0.000
   24  0.000  0.000  0.000  0.000
   25  0.000  0.000  0.000  0.000
   26  0.000  0.000  0.000  0.000
   27  0.000  0.000  0.000  0.000
   28  0.000  0.000  0.000  0.000
   29  0.000  0.000  0.000  0.000
   30  0.000  0.000  0.000  0.000
   31  0.000  0.000  0.000  0.000
   32  0.000  0.000  0.000  0.000
   33  0.000  0.000  0.000  0.000
   34  0.000  0.000  0.000  0.000
   35  0.000  0.000  0.000  0.000
   36  0.000  0.000  0.000  0.000
   37  0.000  0.000  0.000  0.000
   38  0.000  0.000  0.000  0.000
   39  0.000  0.000  0.000  0.000
tot    0.888  0.000  0.000  0.888

band     6 # energy  -20.85268242 # occ.  2.00000000

ion      s      p      d    tot
    1  0.001  0.000  0.000  0.001
    2  0.000  0.000  0.000  0.000
    3  0.097  0.000  0.000  0.097
    4  0.789  0.000  0.000  0.789
    5  0.000  0.000  0.000  0.000
    6  0.000  0.000  0.000  0.000
    7  0.000  0.000  0.000  0.000
    8  0.000  0.000  0.000  0.000
    9  0.000  0.000  0.000  0.000
   10  0.000  0.000  0.000  0.000
   11  0.000  0.000  0.000  0.000
   12  0.000  0.000  0.000  0.000
   13  0.000  0.000  0.000  0.000
   14  0.000  0.000  0.000  0.000
   15  0.000  0.000  0.000  0.000
   16  0.000  0.000  0.000  0.000
   17  0.000  0.000  0.000  0.000
   18  0.000  0.000  0.000  0.000
   19  0.000  0.000  0.000  0.000
   20  0.000  0.000  0.000  0.000
   21  0.000  0.000  0.000  0.000
   22  0.000  0.000  0.000  0.000
   23  0.000  0.000  0.000  0.000
   24  0.000  0.000  0.000  0.000
   25  0.000  0.000  0.000  0.000
   26  0.000  0.000  0.000  0.000
   27  0.000  0.000  0.000  0.000
   28  0.000  0.000  0.000  0.000
   29  0.000  0.000  0.000  0.000
   30  0.000  0.000  0.000  0.000
   31  0.000  0.000  0.000  0.000
   32  0.000  0.000  0.000  0.000
   33  0.000  0.000  0.000  0.000
   34  0.000  0.000  0.000  0.000
   35  0.000  0.000  0.000  0.000
   36  0.000  0.000  0.000  0.000
   37  0.000  0.000  0.000  0.000
   38  0.000  0.000  0.000  0.000
   39  0.000  0.000  0.000  0.000
tot    0.888  0.000  0.000  0.888

band     7 # energy  -20.84866134 # occ.  2.00000000

ion      s      p      d    tot
    1  0.000  0.000  0.000  0.000
    2  0.000  0.000  0.000  0.000
    3  0.790  0.000  0.000  0.790
    4  0.097  0.000  0.000  0.097
    5  0.000  0.000  0.000  0.000
    6  0.001  0.000  0.000  0.001
    7  0.000  0.000  0.000  0.000
    8  0.000  0.000  0.000  0.000
    9  0.000  0.000  0.000  0.000
   10  0.000  0.000  0.000  0.000
   11  0.000  0.000  0.000  0.000
   12  0.000  0.000  0.000  0.000
   13  0.000  0.000  0.000  0.000
   14  0.000  0.000  0.000  0.000
   15  0.000  0.000  0.000  0.000
   16  0.000  0.000  0.000  0.000
   17  0.000  0.000  0.000  0.000
   18  0.000  0.000  0.000  0.000
   19  0.000  0.000  0.000  0.000
   20  0.000  0.000  0.000  0.000
   21  0.000  0.000  0.000  0.000
   22  0.000  0.000  0.000  0.000
   23  0.000  0.000  0.000  0.000
   24  0.000  0.000  0.000  0.000
   25  0.000  0.000  0.000  0.000
   26  0.000  0.000  0.000  0.000
   27  0.000  0.000  0.000  0.000
   28  0.000  0.000  0.000  0.000
   29  0.000  0.000  0.000  0.000
   30  0.000  0.000  0.000  0.000
   31  0.000  0.000  0.000  0.000
   32  0.000  0.000  0.000  0.000
   33  0.000  0.000  0.000  0.000
   34  0.000  0.000  0.000  0.000
   35  0.000  0.000  0.000  0.000
   36  0.000  0.000  0.000  0.000
   37  0.000  0.000  0.000  0.000
   38  0.000  0.000  0.000  0.000
   39  0.000  0.000  0.000  0.000
tot    0.888  0.000  0.000  0.888

band     8 # energy  -16.77411433 # occ.  2.00000000

ion      s      p      d    tot
    1  0.000  0.000  0.000  0.000
    2  0.000  0.000  0.000  0.000
    3  0.000  0.000  0.000  0.000
    4  0.000  0.000  0.000  0.000
    5  0.000  0.000  0.000  0.000
    6  0.000  0.000  0.000  0.000
    7  0.000  0.000  0.000  0.000
    8  0.000  0.000  0.000  0.000
    9  0.000  0.000  0.000  0.000
   10  0.000  0.000  0.000  0.000
   11  0.000  0.000  0.281  0.281
   12  0.000  0.000  0.231  0.231
   13  0.000  0.000  0.223  0.223
   14  0.000  0.000  0.189  0.189
   15  0.000  0.000  0.000  0.000
   16  0.000  0.000  0.000  0.000
   17  0.000  0.000  0.000  0.000
   18  0.000  0.000  0.000  0.000
   19  0.000  0.000  0.000  0.000
   20  0.000  0.000  0.000  0.000
   21  0.000  0.000  0.000  0.000
   22  0.000  0.000  0.000  0.000
   23  0.008  0.000  0.000  0.009
   24  0.003  0.000  0.000  0.003
   25  0.002  0.000  0.000  0.002
   26  0.005  0.000  0.000  0.005
   27  0.000  0.000  0.000  0.000
   28  0.000  0.000  0.000  0.000
   29  0.000  0.000  0.000  0.000
   30  0.000  0.000  0.000  0.000
   31  0.000  0.000  0.000  0.000
   32  0.000  0.000  0.000  0.000
   33  0.000  0.000  0.000  0.000
   34  0.000  0.000  0.000  0.000
   35  0.004  0.000  0.000  0.004
   36  0.007  0.000  0.000  0.007
   37  0.006  0.000  0.000  0.006
   38  0.002  0.000  0.000  0.002
   39  0.000  0.000  0.000  0.000
tot    0.037  0.000  0.924  0.961

band     9 # energy  -16.75685427 # occ.  2.00000000

ion      s      p      d    tot
    1  0.000  0.000  0.000  0.000
    2  0.000  0.000  0.000  0.000
    3  0.000  0.000  0.000  0.000
    4  0.000  0.000  0.000  0.000
    5  0.000  0.000  0.000  0.000
    6  0.000  0.000  0.000  0.000
    7  0.000  0.000  0.002  0.002
    8  0.000  0.000  0.002  0.002
    9  0.000  0.000  0.001  0.001
   10  0.000  0.000  0.001  0.001
   11  0.000  0.000  0.260  0.260
   12  0.000  0.000  0.299  0.299
   13  0.000  0.000  0.172  0.172
   14  0.000  0.000  0.193  0.193
   15  0.000  0.000  0.000  0.000
   16  0.000  0.000  0.000  0.000
   17  0.001  0.000  0.000  0.001
   18  0.001  0.000  0.000  0.001
   19  0.001  0.000  0.000  0.001
   20  0.001  0.000  0.000  0.001
   21  0.000  0.000  0.000  0.000
   22  0.000  0.000  0.000  0.000
   23  0.008  0.000  0.000  0.009
   24  0.004  0.000  0.000  0.004
   25  0.000  0.000  0.000  0.000
   26  0.001  0.000  0.000  0.001
   27  0.000  0.000  0.000  0.000
   28  0.000  0.000  0.000  0.000
   29  0.000  0.000  0.000  0.000
   30  0.000  0.000  0.000  0.000
   31  0.000  0.000  0.000  0.000
   32  0.000  0.000  0.000  0.000
   33  0.000  0.000  0.000  0.000
   34  0.000  0.000  0.000  0.000
   35  0.004  0.000  0.000  0.004
   36  0.009  0.000  0.000  0.010
   37  0.000  0.000  0.000  0.001
   38  0.000  0.000  0.000  0.000
   39  0.000  0.000  0.000  0.000
tot    0.032  0.001  0.930  0.963

band    10 # energy  -16.74670580 # occ.  2.00000000

ion      s      p      d    tot
    1  0.000  0.000  0.000  0.000
    2  0.000  0.000  0.000  0.000
    3  0.000  0.000  0.000  0.000
    4  0.000  0.000  0.000  0.000
    5  0.000  0.000  0.000  0.000
    6  0.000  0.000  0.000  0.000
    7  0.000  0.000  0.001  0.001
    8  0.000  0.000  0.001  0.001
    9  0.000  0.000  0.004  0.004
   10  0.000  0.000  0.002  0.002
   11  0.000  0.000  0.271  0.271
   12  0.000  0.000  0.209  0.209
   13  0.000  0.000  0.215  0.215
   14  0.000  0.000  0.230  0.230
   15  0.001  0.000  0.000  0.002
   16  0.001  0.000  0.000  0.001
   17  0.000  0.000  0.000  0.000
   18  0.000  0.000  0.000  0.000
   19  0.000  0.000  0.000  0.000
   20  0.000  0.000  0.000  0.000
   21  0.001  0.000  0.000  0.001
   22  0.001  0.000  0.000  0.001
   23  0.001  0.000  0.000  0.001
   24  0.000  0.000  0.000  0.000
   25  0.004  0.000  0.000  0.004
   26  0.008  0.000  0.000  0.008
   27  0.000  0.000  0.000  0.000
   28  0.000  0.000  0.000  0.000
   29  0.000  0.000  0.000  0.000
   30  0.000  0.000  0.000  0.000
   31  0.000  0.000  0.000  0.000
   32  0.000  0.000  0.000  0.000
   33  0.000  0.000  0.000  0.000
   34  0.000  0.000  0.000  0.000
   35  0.000  0.000  0.000  0.000
   36  0.000  0.000  0.000  0.000
   37  0.009  0.000  0.000  0.010
   38  0.003  0.000  0.000  0.003
   39  0.000  0.000  0.000  0.000
tot    0.031  0.001  0.932  0.963

band    11 # energy  -16.73346276 # occ.  2.00000000

ion      s      p      d    tot
    1  0.000  0.000  0.000  0.000
    2  0.000  0.000  0.000  0.000
    3  0.000  0.000  0.000  0.000
    4  0.000  0.000  0.000  0.000
    5  0.000  0.000  0.000  0.000
    6  0.000  0.000  0.000  0.000
    7  0.000  0.000  0.006  0.006
    8  0.000  0.000  0.005  0.005
    9  0.000  0.000  0.007  0.007
   10  0.000  0.000  0.008  0.008
   11  0.000  0.000  0.239  0.239
   12  0.000  0.000  0.270  0.270
   13  0.000  0.000  0.205  0.205
   14  0.000  0.000  0.195  0.195
   15  0.002  0.000  0.000  0.002
   16  0.001  0.000  0.000  0.002
   17  0.002  0.000  0.000  0.002
   18  0.002  0.000  0.000  0.002
   19  0.002  0.000  0.000  0.002
   20  0.001  0.000  0.000  0.002
   21  0.001  0.000  0.000  0.001
   22  0.002  0.000  0.000  0.002
   23  0.001  0.000  0.000  0.002
   24  0.001  0.000  0.000  0.001
   25  0.001  0.000  0.000  0.001
   26  0.004  0.000  0.000  0.004
   27  0.000  0.000  0.000  0.000
   28  0.000  0.000  0.000  0.000
   29  0.000  0.000  0.000  0.000
   30  0.000  0.000  0.000  0.000
   31  0.000  0.000  0.000  0.000
   32  0.000  0.000  0.000  0.000
   33  0.000  0.000  0.000  0.000
   34  0.000  0.000  0.000  0.000
   35  0.001  0.000  0.000  0.001
   36  0.002  0.000  0.000  0.002
   37  0.003  0.000  0.000  0.003
   38  0.002  0.000  0.000  0.002
   39  0.000  0.000  0.000  0.000
tot    0.029  0.001  0.935  0.964

band    12 # energy  -16.70232112 # occ.  2.00000000

ion      s      p      d    tot
    1  0.000  0.000  0.000  0.000
    2  0.000  0.000  0.000  0.000
    3  0.000  0.000  0.000  0.000
    4  0.000  0.000  0.000  0.000
    5  0.000  0.000  0.000  0.000
    6  0.000  0.000  0.000  0.000
    7  0.000  0.000  0.013  0.013
    8  0.000  0.000  0.005  0.005
    9  0.000  0.000  0.012  0.012
   10  0.000  0.000  0.004  0.004
   11  0.000  0.000  0.301  0.301
   12  0.000  0.000  0.107  0.107
   13  0.000  0.000  0.363  0.363
   14  0.000  0.000  0.149  0.149
   15  0.003  0.000  0.000  0.003
   16  0.001  0.000  0.000  0.001
   17  0.003  0.000  0.000  0.003
   18  0.001  0.000  0.000  0.001
   19  0.003  0.000  0.000  0.003
   20  0.001  0.000  0.000  0.001
   21  0.002  0.000  0.000  0.002
   22  0.001  0.000  0.000  0.001
   23  0.000  0.000  0.000  0.000
   24  0.000  0.000  0.000  0.000
   25  0.000  0.000  0.000  0.000
   26  0.000  0.000  0.000  0.000
   27  0.000  0.000  0.000  0.000
   28  0.000  0.000  0.000  0.000
   29  0.000  0.000  0.000  0.000
   30  0.000  0.000  0.000  0.000
   31  0.000  0.000  0.000  0.000
   32  0.000  0.000  0.000  0.000
   33  0.000  0.000  0.000  0.000
   34  0.000  0.000  0.000  0.000
   35  0.000  0.000  0.000  0.000
   36  0.000  0.000  0.000  0.000
   37  0.000  0.000  0.000  0.000
   38  0.000  0.000  0.000  0.000
   39  0.000  0.000  0.000  0.000
tot    0.015  0.001  0.952  0.969

band    13 # energy  -16.69943939 # occ.  2.00000000

ion      s      p      d    tot
    1  0.000  0.000  0.000  0.000
    2  0.000  0.000  0.000  0.000
    3  0.000  0.000  0.000  0.000
    4  0.000  0.000  0.000  0.000
    5  0.000  0.000  0.000  0.000
    6  0.000  0.000  0.000  0.000
    7  0.000  0.000  0.006  0.006
    8  0.000  0.000  0.014  0.014
    9  0.000  0.000  0.002  0.002
   10  0.000  0.000  0.009  0.009
   11  0.000  0.000  0.115  0.115
   12  0.000  0.000  0.277  0.277
   13  0.000  0.000  0.150  0.150
   14  0.000  0.000  0.382  0.382
   15  0.000  0.000  0.000  0.000
   16  0.001  0.000  0.000  0.001
   17  0.001  0.000  0.000  0.001
   18  0.003  0.000  0.000  0.003
   19  0.001  0.000  0.000  0.001
   20  0.003  0.000  0.000  0.003
   21  0.000  0.000  0.000  0.000
   22  0.002  0.000  0.000  0.002
   23  0.000  0.000  0.000  0.000
   24  0.000  0.000  0.000  0.000
   25  0.000  0.000  0.000  0.000
   26  0.000  0.000  0.000  0.000
   27  0.000  0.000  0.000  0.000
   28  0.000  0.000  0.000  0.000
   29  0.000  0.000  0.000  0.000
   30  0.000  0.000  0.000  0.000
   31  0.000  0.000  0.000  0.000
   32  0.000  0.000  0.000  0.000
   33  0.000  0.000  0.000  0.000
   34  0.000  0.000  0.000  0.000
   35  0.000  0.000  0.000  0.000
   36  0.000  0.001  0.000  0.001
   37  0.000  0.000  0.000  0.000
   38  0.000  0.000  0.000  0.000
   39  0.000  0.000  0.000  0.000
tot    0.012  0.002  0.956  0.970

band    14 # energy  -16.69318188 # occ.  2.00000000

ion      s      p      d    tot
    1  0.000  0.000  0.000  0.000
    2  0.000  0.000  0.000  0.000
    3  0.000  0.000  0.000  0.000
    4  0.000  0.000  0.000  0.000
    5  0.000  0.000  0.000  0.000
    6  0.000  0.000  0.000  0.000
    7  0.000  0.000  0.006  0.006
    8  0.000  0.000  0.005  0.005
    9  0.000  0.000  0.008  0.008
   10  0.000  0.000  0.011  0.011
   11  0.000  0.000  0.179  0.179
   12  0.000  0.000  0.245  0.245
   13  0.000  0.000  0.267  0.267
   14  0.000  0.000  0.235  0.235
   15  0.001  0.000  0.000  0.002
   16  0.001  0.000  0.000  0.001
   17  0.001  0.000  0.000  0.001
   18  0.001  0.000  0.000  0.001
   19  0.001  0.000  0.000  0.001
   20  0.001  0.000  0.000  0.001
   21  0.001  0.000  0.000  0.001
   22  0.002  0.000  0.000  0.002
   23  0.000  0.000  0.000  0.000
   24  0.000  0.000  0.000  0.000
   25  0.000  0.000  0.000  0.001
   26  0.000  0.000  0.000  0.000
   27  0.000  0.000  0.000  0.000
   28  0.000  0.000  0.000  0.000
   29  0.000  0.000  0.000  0.000
   30  0.000  0.000  0.000  0.000
   31  0.000  0.000  0.000  0.000
   32  0.000  0.000  0.000  0.000
   33  0.000  0.000  0.000  0.000
   34  0.000  0.000  0.000  0.000
   35  0.000  0.000  0.000  0.000
   36  0.000  0.000  0.000  0.000
   37  0.000  0.000  0.000  0.000
   38  0.000  0.000  0.000  0.001
   39  0.000  0.000  0.000  0.000
tot    0.012  0.002  0.957  0.970

band    15 # energy  -16.68213628 # occ.  2.00000000

ion      s      p      d    tot
    1  0.000  0.000  0.000  0.000
    2  0.000  0.000  0.000  0.000
    3  0.000  0.000  0.000  0.000
    4  0.000  0.000  0.000  0.000
    5  0.000  0.000  0.000  0.000
    6  0.000  0.000  0.000  0.000
    7  0.000  0.000  0.000  0.000
    8  0.000  0.000  0.000  0.000
    9  0.000  0.000  0.000  0.000
   10  0.000  0.000  0.000  0.000
   11  0.000  0.000  0.208  0.208
   12  0.000  0.000  0.216  0.216
   13  0.000  0.000  0.261  0.261
   14  0.000  0.000  0.284  0.284
   15  0.000  0.000  0.000  0.000
   16  0.000  0.000  0.000  0.000
   17  0.000  0.000  0.000  0.000
   18  0.000  0.000  0.000  0.000
   19  0.000  0.000  0.000  0.000
   20  0.000  0.000  0.000  0.000
   21  0.000  0.000  0.000  0.000
   22  0.000  0.000  0.000  0.000
   23  0.000  0.000  0.000  0.000
   24  0.000  0.000  0.000  0.000
   25  0.000  0.000  0.000  0.000
   26  0.000  0.000  0.000  0.000
   27  0.000  0.000  0.000  0.000
   28  0.000  0.000  0.000  0.000
   29  0.000  0.000  0.000  0.000
   30  0.000  0.000  0.000  0.000
   31  0.000  0.000  0.000  0.000
   32  0.000  0.000  0.000  0.000
   33  0.000  0.000  0.000  0.000
   34  0.000  0.000  0.000  0.000
   35  0.000  0.000  0.000  0.000
   36  0.000  0.000  0.000  0.000
   37  0.000  0.000  0.000  0.000
   38  0.000  0.000  0.000  0.000
   39  0.000  0.000  0.000  0.000
tot    0.001  0.002  0.971  0.974

band    16 # energy  -16.62593024 # occ.  2.00000000

ion      s      p      d    tot
    1  0.000  0.000  0.000  0.000
    2  0.000  0.000  0.000  0.000
    3  0.000  0.000  0.000  0.000
    4  0.000  0.000  0.000  0.000
    5  0.000  0.000  0.000  0.000
    6  0.000  0.000  0.000  0.000
    7  0.000  0.000  0.000  0.000
    8  0.000  0.000  0.000  0.000
    9  0.000  0.000  0.001  0.001
   10  0.000  0.000  0.000  0.000
   11  0.000  0.000  0.480  0.480
   12  0.000  0.000  0.097  0.097
   13  0.000  0.000  0.333  0.333
   14  0.000  0.000  0.062  0.062
   15  0.000  0.000  0.000  0.000
   16  0.000  0.000  0.000  0.000
   17  0.000  0.000  0.000  0.000
   18  0.000  0.000  0.000  0.000
   19  0.000  0.000  0.000  0.000
   20  0.000  0.000  0.000  0.000
   21  0.000  0.000  0.000  0.000
   22  0.000  0.000  0.000  0.000
   23  0.000  0.000  0.000  0.000
   24  0.000  0.000  0.000  0.000
   25  0.000  0.000  0.000  0.000
   26  0.000  0.000  0.000  0.000
   27  0.000  0.000  0.000  0.000
   28  0.000  0.000  0.000  0.000
   29  0.000  0.000  0.000  0.000
   30  0.000  0.000  0.000  0.000
   31  0.000  0.000  0.000  0.000
   32  0.000  0.000  0.000  0.000
   33  0.000  0.000  0.000  0.000
   34  0.000  0.000  0.000  0.000
   35  0.001  0.000  0.000  0.001
   36  0.000  0.000  0.000  0.000
   37  0.000  0.000  0.000  0.000
   38  0.000  0.000  0.000  0.000
   39  0.000  0.000  0.000  0.000
tot    0.002  0.000  0.974  0.976

band    17 # energy  -16.62446213 # occ.  2.00000000

ion      s      p      d    tot
    1  0.000  0.000  0.000  0.000
    2  0.000  0.000  0.000  0.000
    3  0.000  0.000  0.000  0.000
    4  0.000  0.000  0.000  0.000
    5  0.000  0.000  0.000  0.000
    6  0.000  0.000  0.000  0.000
    7  0.000  0.000  0.000  0.000
    8  0.000  0.000  0.000  0.000
    9  0.000  0.000  0.000  0.000
   10  0.000  0.000  0.001  0.001
   11  0.000  0.000  0.120  0.120
   12  0.000  0.000  0.572  0.572
   13  0.000  0.000  0.042  0.042
   14  0.000  0.000  0.239  0.239
   15  0.000  0.000  0.000  0.000
   16  0.000  0.000  0.000  0.000
   17  0.000  0.000  0.000  0.000
   18  0.000  0.000  0.000  0.000
   19  0.000  0.000  0.000  0.000
   20  0.000  0.000  0.000  0.000
   21  0.000  0.000  0.000  0.000
   22  0.000  0.000  0.000  0.000
   23  0.000  0.000  0.000  0.000
   24  0.001  0.000  0.000  0.001
   25  0.000  0.000  0.000  0.000
   26  0.000  0.000  0.000  0.000
   27  0.000  0.000  0.000  0.000
   28  0.000  0.000  0.000  0.000
   29  0.000  0.000  0.000  0.000
   30  0.000  0.000  0.000  0.000
   31  0.000  0.000  0.000  0.000
   32  0.000  0.000  0.000  0.000
   33  0.000  0.000  0.000  0.000
   34  0.000  0.000  0.000  0.000
   35  0.000  0.000  0.000  0.000
   36  0.000  0.000  0.000  0.000
   37  0.000  0.000  0.000  0.000
   38  0.000  0.000  0.000  0.000
   39  0.000  0.000  0.000  0.000
tot    0.002  0.000  0.974  0.977

band    18 # energy  -16.62143701 # occ.  2.00000000

ion      s      p      d    tot
    1  0.000  0.000  0.000  0.000
    2  0.000  0.000  0.000  0.000
    3  0.000  0.000  0.000  0.000
    4  0.000  0.000  0.000  0.000
    5  0.000  0.000  0.000  0.000
    6  0.000  0.000  0.000  0.000
    7  0.000  0.000  0.001  0.001
    8  0.000  0.000  0.000  0.000
    9  0.000  0.000  0.001  0.001
   10  0.000  0.000  0.001  0.001
   11  0.000  0.000  0.351  0.351
   12  0.000  0.000  0.014  0.014
   13  0.000  0.000  0.530  0.530
   14  0.000  0.000  0.077  0.077
   15  0.000  0.000  0.000  0.000
   16  0.000  0.000  0.000  0.000
   17  0.000  0.000  0.000  0.000
   18  0.000  0.000  0.000  0.000
   19  0.000  0.000  0.000  0.000
   20  0.000  0.000  0.000  0.000
   21  0.000  0.000  0.000  0.000
   22  0.000  0.000  0.000  0.000
   23  0.000  0.000  0.000  0.000
   24  0.000  0.000  0.000  0.000
   25  0.000  0.000  0.000  0.000
   26  0.000  0.000  0.000  0.000
   27  0.000  0.000  0.000  0.000
   28  0.000  0.000  0.000  0.000
   29  0.000  0.000  0.000  0.000
   30  0.000  0.000  0.000  0.000
   31  0.000  0.000  0.000  0.000
   32  0.000  0.000  0.000  0.000
   33  0.000  0.000  0.000  0.000
   34  0.000  0.000  0.000  0.000
   35  0.000  0.000  0.000  0.000
   36  0.000  0.000  0.000  0.000
   37  0.000  0.000  0.000  0.000
   38  0.000  0.000  0.000  0.000
   39  0.000  0.000  0.000  0.000
tot    0.001  0.000  0.976  0.977

band    19 # energy  -16.61988185 # occ.  2.00000000

ion      s      p      d    tot
    1  0.000  0.000  0.000  0.000
    2  0.000  0.000  0.000  0.000
    3  0.000  0.000  0.000  0.000
    4  0.000  0.000  0.000  0.000
    5  0.000  0.000  0.000  0.000
    6  0.000  0.000  0.000  0.000
    7  0.000  0.000  0.000  0.000
    8  0.000  0.000  0.001  0.001
    9  0.000  0.000  0.001  0.001
   10  0.000  0.000  0.000  0.000
   11  0.000  0.000  0.051  0.051
   12  0.000  0.000  0.315  0.315
   13  0.000  0.000  0.040  0.040
   14  0.000  0.000  0.568  0.568
   15  0.000  0.000  0.000  0.000
   16  0.000  0.000  0.000  0.000
   17  0.000  0.000  0.000  0.000
   18  0.000  0.000  0.000  0.000
   19  0.000  0.000  0.000  0.000
   20  0.000  0.000  0.000  0.000
   21  0.000  0.000  0.000  0.000
   22  0.000  0.000  0.000  0.000
   23  0.000  0.000  0.000  0.000
   24  0.000  0.000  0.000  0.000
   25  0.000  0.000  0.000  0.000
   26  0.000  0.000  0.000  0.000
   27  0.000  0.000  0.000  0.000
   28  0.000  0.000  0.000  0.000
   29  0.000  0.000  0.000  0.000
   30  0.000  0.000  0.000  0.000
   31  0.000  0.000  0.000  0.000
   32  0.000  0.000  0.000  0.000
   33  0.000  0.000  0.000  0.000
   34  0.000  0.000  0.000  0.000
   35  0.000  0.000  0.000  0.000
   36  0.000  0.000  0.000  0.000
   37  0.000  0.000  0.000  0.000
   38  0.000  0.000  0.000  0.000
   39  0.000  0.000  0.000  0.000
tot    0.001  0.000  0.976  0.977

band    20 # energy  -16.61820295 # occ.  2.00000000

ion      s      p      d    tot
    1  0.000  0.000  0.000  0.000
    2  0.000  0.000  0.000  0.000
    3  0.000  0.000  0.000  0.000
    4  0.000  0.000  0.000  0.000
    5  0.000  0.000  0.000  0.000
    6  0.000  0.000  0.000  0.000
    7  0.000  0.000  0.169  0.169
    8  0.000  0.000  0.142  0.142
    9  0.000  0.000  0.274  0.274
   10  0.000  0.000  0.338  0.338
   11  0.000  0.000  0.002  0.002
   12  0.000  0.000  0.003  0.003
   13  0.000  0.000  0.002  0.002
   14  0.000  0.000  0.002  0.002
   15  0.000  0.000  0.000  0.000
   16  0.000  0.000  0.000  0.000
   17  0.000  0.000  0.000  0.000
   18  0.000  0.000  0.000  0.000
   19  0.000  0.000  0.000  0.000
   20  0.000  0.000  0.000  0.000
   21  0.000  0.000  0.000  0.000
   22  0.000  0.000  0.000  0.000
   23  0.000  0.000  0.000  0.000
   24  0.000  0.000  0.000  0.000
   25  0.000  0.000  0.000  0.000
   26  0.000  0.000  0.000  0.000
   27  0.004  0.000  0.000  0.004
   28  0.006  0.000  0.000  0.006
   29  0.003  0.000  0.000  0.003
   30  0.002  0.000  0.000  0.002
   31  0.002  0.000  0.000  0.002
   32  0.003  0.000  0.000  0.004
   33  0.005  0.000  0.000  0.005
   34  0.005  0.000  0.000  0.005
   35  0.000  0.000  0.000  0.000
   36  0.000  0.000  0.000  0.000
   37  0.000  0.000  0.000  0.000
   38  0.000  0.000  0.000  0.000
   39  0.000  0.000  0.000  0.000
tot    0.031  0.000  0.932  0.963

band    21 # energy  -16.61276916 # occ.  2.00000000

ion      s      p      d    tot
    1  0.000  0.000  0.000  0.000
    2  0.000  0.000  0.000  0.000
    3  0.000  0.000  0.000  0.000
    4  0.000  0.000  0.000  0.000
    5  0.000  0.000  0.000  0.000
    6  0.000  0.000  0.000  0.000
    7  0.000  0.000  0.009  0.009
    8  0.000  0.000  0.006  0.006
    9  0.000  0.000  0.032  0.032
   10  0.000  0.000  0.019  0.019
   11  0.000  0.000  0.825  0.825
   12  0.000  0.000  0.050  0.050
   13  0.000  0.000  0.024  0.024
   14  0.000  0.000  0.007  0.007
   15  0.000  0.000  0.000  0.000
   16  0.000  0.000  0.000  0.000
   17  0.000  0.000  0.000  0.000
   18  0.000  0.000  0.000  0.000
   19  0.000  0.000  0.000  0.000
   20  0.000  0.000  0.000  0.000
   21  0.000  0.000  0.000  0.000
   22  0.000  0.000  0.000  0.000
   23  0.000  0.000  0.000  0.000