  39  39   1   0
  0.4089970E+02  0.1166870E-08  0.1172985E-08  0.1166870E-08  0.5000000E-15
   1.0000000000000000E-004
  CAR 
 CsPbBr3 cubic bulk                      
      8.06487873    -22.30378140  301      0.49802091      1.00000000
    -22.304  0.0000E+00  0.0000E+00
    -22.203  0.0000E+00  0.0000E+00
    -22.101  0.0000E+00  0.0000E+00
    -22.000  0.0000E+00  0.0000E+00
    -21.899  0.0000E+00  0.0000E+00
    -21.798  0.0000E+00  0.0000E+00
    -21.696  0.0000E+00  0.0000E+00
    -21.595  0.0000E+00  0.0000E+00
    -21.494  0.0000E+00  0.0000E+00
    -21.393  0.0000E+00  0.0000E+00
    -21.291  0.0000E+00  0.0000E+00
    -21.190  0.0000E+00  0.0000E+00
    -21.089  0.0000E+00  0.0000E+00
    -20.988  0.0000E+00  0.0000E+00
    -20.887  0.1976E+02  0.2000E+01
    -20.785  0.4476E+02  0.6531E+01
    -20.684  0.7819E+02  0.1591E+02
    -20.583  0.0000E+00  0.1600E+02
    -20.482  0.0000E+00  0.1600E+02
    -20.380  0.0000E+00  0.1600E+02
    -20.279  0.0000E+00  0.1600E+02
    -20.178  0.0000E+00  0.1600E+02
    -20.077  0.0000E+00  0.1600E+02
    -19.976  0.0000E+00  0.1600E+02
    -19.874  0.0000E+00  0.1600E+02
    -19.773  0.0000E+00  0.1600E+02
    -19.672  0.0000E+00  0.1600E+02
    -19.571  0.0000E+00  0.1600E+02
    -19.469  0.0000E+00  0.1600E+02
    -19.368  0.0000E+00  0.1600E+02
    -19.267  0.0000E+00  0.1600E+02
    -19.166  0.0000E+00  0.1600E+02
    -19.064  0.0000E+00  0.1600E+02
    -18.963  0.0000E+00  0.1600E+02
    -18.862  0.0000E+00  0.1600E+02
    -18.761  0.0000E+00  0.1600E+02
    -18.660  0.0000E+00  0.1600E+02
    -18.558  0.0000E+00  0.1600E+02
    -18.457  0.0000E+00  0.1600E+02
    -18.356  0.0000E+00  0.1600E+02
    -18.255  0.0000E+00  0.1600E+02
    -18.153  0.0000E+00  0.1600E+02
    -18.052  0.0000E+00  0.1600E+02
    -17.951  0.0000E+00  0.1600E+02
    -17.850  0.0000E+00  0.1600E+02
    -17.748  0.0000E+00  0.1600E+02
    -17.647  0.0000E+00  0.1600E+02
    -17.546  0.0000E+00  0.1600E+02
    -17.445  0.0000E+00  0.1600E+02
    -17.344  0.0000E+00  0.1600E+02
    -17.242  0.0000E+00  0.1600E+02
    -17.141  0.0000E+00  0.1600E+02
    -17.040  0.0000E+00  0.1600E+02
    -16.939  0.0000E+00  0.1600E+02
    -16.837  0.1710E+02  0.1773E+02
    -16.736  0.8801E-06  0.1800E+02
    -16.635  0.7903E+02  0.2600E+02
    -16.534  0.1185E+03  0.3800E+02
    -16.433  0.4301E+02  0.4235E+02
    -16.331  0.1665E+03  0.6136E+02
    -16.230  0.2329E+03  0.8733E+02
    -16.129  0.5666E+02  0.9574E+02
    -16.028  0.0000E+00  0.9600E+02
    -15.926  0.0000E+00  0.9600E+02
    -15.825  0.0000E+00  0.9600E+02
    -15.724  0.0000E+00  0.9600E+02
    -15.623  0.0000E+00  0.9600E+02
    -15.521  0.0000E+00  0.9600E+02
    -15.420  0.0000E+00  0.9600E+02
    -15.319  0.0000E+00  0.9600E+02
    -15.218  0.0000E+00  0.9600E+02
    -15.117  0.0000E+00  0.9600E+02
    -15.015  0.0000E+00  0.9600E+02
    -14.914  0.0000E+00  0.9600E+02
    -14.813  0.0000E+00  0.9600E+02
    -14.712  0.0000E+00  0.9600E+02
    -14.610  0.6252E-10  0.9600E+02
    -14.509  0.1976E+02  0.9800E+02
    -14.408  0.6497E-02  0.9800E+02
    -14.307  0.2504E+02  0.1008E+03
    -14.205  0.3671E+02  0.1055E+03
    -14.104  0.4068E+02  0.1104E+03
    -14.003  0.7573E+02  0.1209E+03
    -13.902  0.7246E+02  0.1286E+03
    -13.801  0.5264E+02  0.1358E+03
    -13.699  0.3407E+02  0.1407E+03
    -13.598  0.9879E+01  0.1420E+03
    -13.497  0.0000E+00  0.1420E+03
    -13.396  0.0000E+00  0.1420E+03
    -13.294  0.0000E+00  0.1420E+03
    -13.193  0.0000E+00  0.1420E+03
    -13.092  0.0000E+00  0.1420E+03
    -12.991  0.0000E+00  0.1420E+03
    -12.889  0.0000E+00  0.1420E+03
    -12.788  0.0000E+00  0.1420E+03
    -12.687  0.0000E+00  0.1420E+03
    -12.586  0.0000E+00  0.1420E+03
    -12.485  0.0000E+00  0.1420E+03
    -12.383  0.0000E+00  0.1420E+03
    -12.282  0.0000E+00  0.1420E+03
    -12.181  0.0000E+00  0.1420E+03
    -12.080  0.0000E+00  0.1420E+03
    -11.978  0.0000E+00  0.1420E+03
    -11.877  0.0000E+00  0.1420E+03
    -11.776  0.0000E+00  0.1420E+03
    -11.675  0.0000E+00  0.1420E+03
    -11.574  0.0000E+00  0.1420E+03
    -11.472  0.0000E+00  0.1420E+03
    -11.371  0.0000E+00  0.1420E+03
    -11.270  0.0000E+00  0.1420E+03
    -11.169  0.0000E+00  0.1420E+03
    -11.067  0.0000E+00  0.1420E+03
    -10.966  0.0000E+00  0.1420E+03
    -10.865  0.0000E+00  0.1420E+03
    -10.764  0.0000E+00  0.1420E+03
    -10.662  0.0000E+00  0.1420E+03
    -10.561  0.0000E+00  0.1420E+03
    -10.460  0.0000E+00  0.1420E+03
    -10.359  0.0000E+00  0.1420E+03
    -10.258  0.0000E+00  0.1420E+03
    -10.156  0.0000E+00  0.1420E+03
    -10.055  0.0000E+00  0.1420E+03
     -9.954  0.0000E+00  0.1420E+03
     -9.853  0.0000E+00  0.1420E+03
     -9.751  0.0000E+00  0.1420E+03
     -9.650  0.0000E+00  0.1420E+03
     -9.549  0.0000E+00  0.1420E+03
     -9.448  0.0000E+00  0.1420E+03
     -9.346  0.0000E+00  0.1420E+03
     -9.245  0.0000E+00  0.1420E+03
     -9.144  0.0000E+00  0.1420E+03
     -9.043  0.0000E+00  0.1420E+03
     -8.942  0.0000E+00  0.1420E+03
     -8.840  0.0000E+00  0.1420E+03
     -8.739  0.0000E+00  0.1420E+03
     -8.638  0.0000E+00  0.1420E+03
     -8.537  0.0000E+00  0.1420E+03
     -8.435  0.0000E+00  0.1420E+03
     -8.334  0.0000E+00  0.1420E+03
     -8.233  0.1670E-04  0.1420E+03
     -8.132  0.2470E+01  0.1422E+03
     -8.031  0.4900E+01  0.1427E+03
     -7.929  0.9527E+01  0.1437E+03
     -7.828  0.6628E+01  0.1447E+03
     -7.727  0.1226E+02  0.1465E+03
     -7.626  0.1950E+02  0.1487E+03
     -7.524  0.3407E+01  0.1493E+03
     -7.423  0.1965E+02  0.1525E+03
     -7.322  0.3145E+02  0.1557E+03
     -7.221  0.9008E+02  0.1669E+03
     -7.119  0.1740E+03  0.1894E+03
     -7.018  0.7460E+02  0.2043E+03
     -6.917  0.3356E+01  0.2048E+03
     -6.816  0.7405E+01  0.2057E+03
     -6.715  0.0000E+00  0.2058E+03
     -6.613  0.6787E-04  0.2058E+03
     -6.512  0.2470E+01  0.2060E+03
     -6.411  0.0000E+00  0.2060E+03
     -6.310  0.0000E+00  0.2060E+03
     -6.208  0.0000E+00  0.2060E+03
     -6.107  0.0000E+00  0.2060E+03
     -6.006  0.0000E+00  0.2060E+03
     -5.905  0.0000E+00  0.2060E+03
     -5.803  0.0000E+00  0.2060E+03
     -5.702  0.0000E+00  0.2060E+03
     -5.601  0.0000E+00  0.2060E+03
     -5.500  0.0000E+00  0.2060E+03
     -5.399  0.0000E+00  0.2060E+03
     -5.297  0.0000E+00  0.2060E+03
     -5.196  0.0000E+00  0.2060E+03
     -5.095  0.0000E+00  0.2060E+03
     -4.994  0.0000E+00  0.2060E+03
     -4.892  0.0000E+00  0.2060E+03
     -4.791  0.0000E+00  0.2060E+03
     -4.690  0.0000E+00  0.2060E+03
     -4.589  0.0000E+00  0.2060E+03
     -4.488  0.0000E+00  0.2060E+03
     -4.386  0.0000E+00  0.2060E+03
     -4.285  0.0000E+00  0.2060E+03
     -4.184  0.0000E+00  0.2060E+03
     -4.083  0.0000E+00  0.2060E+03
     -3.981  0.0000E+00  0.2060E+03
     -3.880  0.0000E+00  0.2060E+03
     -3.779  0.0000E+00  0.2060E+03
     -3.678  0.0000E+00  0.2060E+03
     -3.576  0.0000E+00  0.2060E+03
     -3.475  0.0000E+00  0.2060E+03
     -3.374  0.4018E+01  0.2064E+03
     -3.273  0.3165E+02  0.2105E+03
     -3.172  0.3105E+02  0.2149E+03
     -3.070  0.1780E+02  0.2173E+03
     -2.969  0.9753E+01  0.2187E+03
     -2.868  0.7409E+01  0.2198E+03
     -2.767  0.9664E+01  0.2207E+03
     -2.665  0.1278E+02  0.2220E+03
     -2.564  0.2992E+02  0.2260E+03
     -2.463  0.1968E+02  0.2292E+03
     -2.362  0.3813E+02  0.2336E+03
     -2.260  0.4161E+02  0.2390E+03
     -2.159  0.2190E+02  0.2415E+03
     -2.058  0.2800E+02  0.2446E+03
     -1.957  0.4524E+02  0.2503E+03
     -1.856  0.2189E+02  0.2532E+03
     -1.754  0.3301E+02  0.2581E+03
     -1.653  0.4761E+02  0.2641E+03
     -1.552  0.5507E+02  0.2711E+03
     -1.451  0.6770E+02  0.2799E+03
     -1.349  0.1040E+03  0.2928E+03
     -1.248  0.9621E+02  0.3047E+03
     -1.147  0.8052E+02  0.3149E+03
     -1.046  0.6389E+02  0.3242E+03
     -0.944  0.3312E+02  0.3289E+03
     -0.843  0.2907E+02  0.3332E+03
     -0.742  0.1089E+02  0.3344E+03
     -0.641  0.1234E+02  0.3357E+03
     -0.540  0.1564E+02  0.3373E+03
     -0.438  0.4301E+01  0.3384E+03
     -0.337  0.9880E+01  0.3400E+03
     -0.236  0.7391E+01  0.3407E+03
     -0.135  0.9825E+01  0.3420E+03
     -0.033  0.4417E-02  0.3420E+03
      0.068  0.1103E+02  0.3431E+03
      0.169  0.2137E+01  0.3435E+03
      0.270  0.0000E+00  0.3438E+03
      0.371  0.5009E-12  0.3438E+03
      0.473  0.2470E+01  0.3440E+03
      0.574  0.0000E+00  0.3440E+03
      0.675  0.0000E+00  0.3440E+03
      0.776  0.0000E+00  0.3440E+03
      0.878  0.0000E+00  0.3440E+03
      0.979  0.0000E+00  0.3440E+03
      1.080  0.0000E+00  0.3440E+03
      1.181  0.0000E+00  0.3440E+03
      1.283  0.0000E+00  0.3440E+03
      1.384  0.0000E+00  0.3440E+03
      1.485  0.0000E+00  0.3440E+03
      1.586  0.0000E+00  0.3440E+03
      1.687  0.0000E+00  0.3440E+03
      1.789  0.0000E+00  0.3440E+03
      1.890  0.0000E+00  0.3440E+03
      1.991  0.0000E+00  0.3440E+03
      2.092  0.0000E+00  0.3440E+03
      2.194  0.0000E+00  0.3440E+03
      2.295  0.0000E+00  0.3440E+03
      2.396  0.0000E+00  0.3440E+03
      2.497  0.9455E-04  0.3440E+03
      2.599  0.4939E+01  0.3445E+03
      2.700  0.7413E+01  0.3453E+03
      2.801  0.7429E+01  0.3463E+03
      2.902  0.2629E+01  0.3468E+03
      3.003  0.1715E+02  0.3490E+03
      3.105  0.4683E+01  0.3500E+03
      3.206  0.2221E+02  0.3522E+03
      3.307  0.2478E+02  0.3548E+03
      3.408  0.1411E+02  0.3567E+03
      3.510  0.7914E+00  0.3573E+03
      3.611  0.2469E+01  0.3580E+03
      3.712  0.0000E+00  0.3580E+03
      3.813  0.0000E+00  0.3580E+03
      3.914  0.0000E+00  0.3580E+03
      4.016  0.5818E+01  0.3586E+03
      4.117  0.9877E+01  0.3600E+03
      4.218  0.1888E-04  0.3600E+03
      4.319  0.1479E+02  0.3615E+03
      4.421  0.3444E+02  0.3655E+03
      4.522  0.1878E+02  0.3677E+03
      4.623  0.2813E+02  0.3716E+03
      4.724  0.1788E+02  0.3741E+03
      4.826  0.3147E+02  0.3779E+03
      4.927  0.1645E+02  0.3799E+03
      5.028  0.0000E+00  0.3802E+03
      5.129  0.0000E+00  0.3802E+03
      5.230  0.2434E+01  0.3805E+03
      5.332  0.1838E+01  0.3809E+03
      5.433  0.5915E+01  0.3816E+03
      5.534  0.4949E+01  0.3825E+03
      5.635  0.1078E+02  0.3838E+03
      5.737  0.7712E+01  0.3848E+03
      5.838  0.2052E+02  0.3873E+03
      5.939  0.2201E+02  0.3900E+03
      6.040  0.1859E+02  0.3926E+03
      6.142  0.3210E+02  0.3968E+03
      6.243  0.2658E+02  0.4002E+03
      6.344  0.3446E+02  0.4052E+03
      6.445  0.2666E+02  0.4084E+03
      6.546  0.3328E+02  0.4124E+03
      6.648  0.2458E+02  0.4157E+03
      6.749  0.2470E+01  0.4160E+03
      6.850  0.0000E+00  0.4160E+03
      6.951  0.0000E+00  0.4160E+03
      7.053  0.0000E+00  0.4160E+03
      7.154  0.0000E+00  0.4160E+03
      7.255  0.0000E+00  0.4160E+03
      7.356  0.0000E+00  0.4160E+03
      7.458  0.0000E+00  0.4160E+03
      7.559  0.0000E+00  0.4160E+03
      7.660  0.0000E+00  0.4160E+03
      7.761  0.0000E+00  0.4160E+03
      7.862  0.0000E+00  0.4160E+03
      7.964  0.0000E+00  0.4160E+03
      8.065  0.0000E+00  0.4160E+03
      8.06487873    -22.30378140  301      0.49802091      1.00000000
    -22.304  0.0000E+00  0.0000E+00  0.0000E+00
    -22.203  0.0000E+00  0.0000E+00  0.0000E+00
    -22.101  0.0000E+00  0.0000E+00  0.0000E+00
    -22.000  0.0000E+00  0.0000E+00  0.0000E+00
    -21.899  0.0000E+00  0.0000E+00  0.0000E+00
    -21.798  0.0000E+00  0.0000E+00  0.0000E+00
    -21.696  0.0000E+00  0.0000E+00  0.0000E+00
    -21.595  0.0000E+00  0.0000E+00  0.0000E+00
    -21.494  0.0000E+00  0.0000E+00  0.0000E+00
    -21.393  0.0000E+00  0.0000E+00  0.0000E+00
    -21.291  0.0000E+00  0.0000E+00  0.0000E+00
    -21.190  0.0000E+00  0.0000E+00  0.0000E+00
    -21.089  0.0000E+00  0.0000E+00  0.0000E+00
    -20.988  0.0000E+00  0.0000E+00  0.0000E+00
    -20.887  0.2554E-03  0.4953E-07  0.9609E-08
    -20.785  0.4658E+01  0.2594E-04  0.1976E-05
    -20.684  0.4337E-02  0.2239E-06  0.2607E-07
    -20.583  0.0000E+00  0.0000E+00  0.0000E+00
    -20.482  0.0000E+00  0.0000E+00  0.0000E+00
    -20.380  0.0000E+00  0.0000E+00  0.0000E+00
    -20.279  0.0000E+00  0.0000E+00  0.0000E+00
    -20.178  0.0000E+00  0.0000E+00  0.0000E+00
    -20.077  0.0000E+00  0.0000E+00  0.0000E+00
    -19.976  0.0000E+00  0.0000E+00  0.0000E+00
    -19.874  0.0000E+00  0.0000E+00  0.0000E+00
    -19.773  0.0000E+00  0.0000E+00  0.0000E+00
    -19.672  0.0000E+00  0.0000E+00  0.0000E+00
    -19.571  0.0000E+00  0.0000E+00  0.0000E+00
    -19.469  0.0000E+00  0.0000E+00  0.0000E+00
    -19.368  0.0000E+00  0.0000E+00  0.0000E+00
    -19.267  0.0000E+00  0.0000E+00  0.0000E+00
    -19.166  0.0000E+00  0.0000E+00  0.0000E+00
    -19.064  0.0000E+00  0.0000E+00  0.0000E+00
    -18.963  0.0000E+00  0.0000E+00  0.0000E+00
    -18.862  0.0000E+00  0.0000E+00  0.0000E+00
    -18.761  0.0000E+00  0.0000E+00  0.0000E+00
    -18.660  0.0000E+00  0.0000E+00  0.0000E+00
    -18.558  0.0000E+00  0.0000E+00  0.0000E+00
    -18.457  0.0000E+00  0.0000E+00  0.0000E+00
    -18.356  0.0000E+00  0.0000E+00  0.0000E+00
    -18.255  0.0000E+00  0.0000E+00  0.0000E+00
    -18.153  0.0000E+00  0.0000E+00  0.0000E+00
    -18.052  0.0000E+00  0.0000E+00  0.0000E+00
    -17.951  0.0000E+00  0.0000E+00  0.0000E+00
    -17.850  0.0000E+00  0.0000E+00  0.0000E+00
    -17.748  0.0000E+00  0.0000E+00  0.0000E+00
    -17.647  0.0000E+00  0.0000E+00  0.0000E+00
    -17.546  0.0000E+00  0.0000E+00  0.0000E+00
    -17.445  0.0000E+00  0.0000E+00  0.0000E+00
    -17.344  0.0000E+00  0.0000E+00  0.0000E+00
    -17.242  0.0000E+00  0.0000E+00  0.0000E+00
    -17.141  0.0000E+00  0.0000E+00  0.0000E+00
    -17.040  0.0000E+00  0.0000E+00  0.0000E+00
    -16.939  0.0000E+00  0.0000E+00  0.0000E+00
    -16.837  0.2461E-06  0.1753E-06  0.5127E-07
    -16.736  0.9766E-12  0.4041E-12  0.4285E-13
    -16.635  0.4856E-04  0.2732E-04  0.4684E-05
    -16.534  0.1553E-04  0.7910E-05  0.1068E-05
    -16.433  0.1669E-04  0.1679E-04  0.4114E-05
    -16.331  0.5466E-04  0.6521E-04  0.1130E-04
    -16.230  0.6348E-04  0.3959E-04  0.4655E-05
    -16.129  0.3345E-05  0.1860E-05  0.1879E-06
    -16.028  0.0000E+00  0.0000E+00  0.0000E+00
    -15.926  0.0000E+00  0.0000E+00  0.0000E+00
    -15.825  0.0000E+00  0.0000E+00  0.0000E+00
    -15.724  0.0000E+00  0.0000E+00  0.0000E+00
    -15.623  0.0000E+00  0.0000E+00  0.0000E+00
    -15.521  0.0000E+00  0.0000E+00  0.0000E+00
    -15.420  0.0000E+00  0.0000E+00  0.0000E+00
    -15.319  0.0000E+00  0.0000E+00  0.0000E+00
    -15.218  0.0000E+00  0.0000E+00  0.0000E+00
    -15.117  0.0000E+00  0.0000E+00  0.0000E+00
    -15.015  0.0000E+00  0.0000E+00  0.0000E+00
    -14.914  0.0000E+00  0.0000E+00  0.0000E+00
    -14.813  0.0000E+00  0.0000E+00  0.0000E+00
    -14.712  0.0000E+00  0.0000E+00  0.0000E+00
    -14.610  0.1451E-14  0.6831E-15  0.3751E-16
    -14.509  0.3195E-03  0.2448E-03  0.1490E-04
    -14.408  0.7367E-06  0.1267E-06  0.7494E-08
    -14.307  0.1554E-02  0.9238E-03  0.3681E-04
    -14.205  0.2982E-02  0.2951E-02  0.7825E-04
    -14.104  0.6116E-03  0.4126E-02  0.1404E-03
    -14.003  0.2492E-02  0.6347E-02  0.5165E-03
    -13.902  0.1016E-02  0.3496E-02  0.4488E-03
    -13.801  0.7891E-03  0.1841E-02  0.3114E-03
    -13.699  0.7790E-03  0.1704E-02  0.1786E-03
    -13.598  0.2520E-03  0.5798E-03  0.6410E-04
    -13.497  0.0000E+00  0.0000E+00  0.0000E+00
    -13.396  0.0000E+00  0.0000E+00  0.0000E+00
    -13.294  0.0000E+00  0.0000E+00  0.0000E+00
    -13.193  0.0000E+00  0.0000E+00  0.0000E+00
    -13.092  0.0000E+00  0.0000E+00  0.0000E+00
    -12.991  0.0000E+00  0.0000E+00  0.0000E+00
    -12.889  0.0000E+00  0.0000E+00  0.0000E+00
    -12.788  0.0000E+00  0.0000E+00  0.0000E+00
    -12.687  0.0000E+00  0.0000E+00  0.0000E+00
    -12.586  0.0000E+00  0.0000E+00  0.0000E+00
    -12.485  0.0000E+00  0.0000E+00  0.0000E+00
    -12.383  0.0000E+00  0.0000E+00  0.0000E+00
    -12.282  0.0000E+00  0.0000E+00  0.0000E+00
    -12.181  0.0000E+00  0.0000E+00  0.0000E+00
    -12.080  0.0000E+00  0.0000E+00  0.0000E+00
    -11.978  0.0000E+00  0.0000E+00  0.0000E+00
    -11.877  0.0000E+00  0.0000E+00  0.0000E+00
    -11.776  0.0000E+00  0.0000E+00  0.0000E+00
    -11.675  0.0000E+00  0.0000E+00  0.0000E+00
    -11.574  0.0000E+00  0.0000E+00  0.0000E+00
    -11.472  0.0000E+00  0.0000E+00  0.0000E+00
    -11.371  0.0000E+00  0.0000E+00  0.0000E+00
    -11.270  0.0000E+00  0.0000E+00  0.0000E+00
    -11.169  0.0000E+00  0.0000E+00  0.0000E+00
    -11.067  0.0000E+00  0.0000E+00  0.0000E+00
    -10.966  0.0000E+00  0.0000E+00  0.0000E+00
    -10.865  0.0000E+00  0.0000E+00  0.0000E+00
    -10.764  0.0000E+00  0.0000E+00  0.0000E+00
    -10.662  0.0000E+00  0.0000E+00  0.0000E+00
    -10.561  0.0000E+00  0.0000E+00  0.0000E+00
    -10.460  0.0000E+00  0.0000E+00  0.0000E+00
    -10.359  0.0000E+00  0.0000E+00  0.0000E+00
    -10.258  0.0000E+00  0.0000E+00  0.0000E+00
    -10.156  0.0000E+00  0.0000E+00  0.0000E+00
    -10.055  0.0000E+00  0.0000E+00  0.0000E+00
     -9.954  0.0000E+00  0.0000E+00  0.0000E+00
     -9.853  0.0000E+00  0.0000E+00  0.0000E+00
     -9.751  0.0000E+00  0.0000E+00  0.0000E+00
     -9.650  0.0000E+00  0.0000E+00  0.0000E+00
     -9.549  0.0000E+00  0.0000E+00  0.0000E+00
     -9.448  0.0000E+00  0.0000E+00  0.0000E+00
     -9.346  0.0000E+00  0.0000E+00  0.0000E+00
     -9.245  0.0000E+00  0.0000E+00  0.0000E+00
     -9.144  0.0000E+00  0.0000E+00  0.0000E+00
     -9.043  0.0000E+00  0.0000E+00  0.0000E+00
     -8.942  0.0000E+00  0.0000E+00  0.0000E+00
     -8.840  0.0000E+00  0.0000E+00  0.0000E+00
     -8.739  0.0000E+00  0.0000E+00  0.0000E+00
     -8.638  0.0000E+00  0.0000E+00  0.0000E+00
     -8.537  0.0000E+00  0.0000E+00  0.0000E+00
     -8.435  0.0000E+00  0.0000E+00  0.0000E+00
     -8.334  0.0000E+00  0.0000E+00  0.0000E+00
     -8.233  0.2128E-12  0.1447E-08  0.7144E-10
     -8.132  0.3147E-07  0.2140E-03  0.1056E-04
     -8.031  0.8868E-07  0.2722E-02  0.1531E-04
     -7.929  0.6271E-06  0.8045E-02  0.2540E-04
     -7.828  0.9003E-06  0.8818E-02  0.1946E-04
     -7.727  0.3191E-05  0.1173E-01  0.3489E-04
     -7.626  0.1551E-04  0.5612E-01  0.5421E-04
     -7.524  0.3585E-05  0.3817E-02  0.8871E-05
     -7.423  0.2604E-04  0.1929E+00  0.5810E-04
     -7.322  0.1549E-04  0.1043E+00  0.3256E-04
     -7.221  0.4168E-04  0.4167E+01  0.6240E-04
     -7.119  0.1493E-03  0.2975E+02  0.1327E-03
     -7.018  0.3179E-04  0.8536E+00  0.4194E-04
     -6.917  0.2109E-04  0.7678E-02  0.6730E-05
     -6.816  0.2977E-04  0.2621E-01  0.1554E-04
     -6.715  0.0000E+00  0.0000E+00  0.0000E+00
     -6.613  0.3030E-09  0.1055E-06  0.4687E-10
     -6.512  0.1102E-04  0.3840E-02  0.1706E-05
     -6.411  0.0000E+00  0.0000E+00  0.0000E+00
     -6.310  0.0000E+00  0.0000E+00  0.0000E+00
     -6.208  0.0000E+00  0.0000E+00  0.0000E+00
     -6.107  0.0000E+00  0.0000E+00  0.0000E+00
     -6.006  0.0000E+00  0.0000E+00  0.0000E+00
     -5.905  0.0000E+00  0.0000E+00  0.0000E+00
     -5.803  0.0000E+00  0.0000E+00  0.0000E+00
     -5.702  0.0000E+00  0.0000E+00  0.0000E+00
     -5.601  0.0000E+00  0.0000E+00  0.0000E+00
     -5.500  0.0000E+00  0.0000E+00  0.0000E+00
     -5.399  0.0000E+00  0.0000E+00  0.0000E+00
     -5.297  0.0000E+00  0.0000E+00  0.0000E+00
     -5.196  0.0000E+00  0.0000E+00  0.0000E+00
     -5.095  0.0000E+00  0.0000E+00  0.0000E+00
     -4.994  0.0000E+00  0.0000E+00  0.0000E+00
     -4.892  0.0000E+00  0.0000E+00  0.0000E+00
     -4.791  0.0000E+00  0.0000E+00  0.0000E+00
     -4.690  0.0000E+00  0.0000E+00  0.0000E+00
     -4.589  0.0000E+00  0.0000E+00  0.0000E+00
     -4.488  0.0000E+00  0.0000E+00  0.0000E+00
     -4.386  0.0000E+00  0.0000E+00  0.0000E+00
     -4.285  0.0000E+00  0.0000E+00  0.0000E+00
     -4.184  0.0000E+00  0.0000E+00  0.0000E+00
     -4.083  0.0000E+00  0.0000E+00  0.0000E+00
     -3.981  0.0000E+00  0.0000E+00  0.0000E+00
     -3.880  0.0000E+00  0.0000E+00  0.0000E+00
     -3.779  0.0000E+00  0.0000E+00  0.0000E+00
     -3.678  0.0000E+00  0.0000E+00  0.0000E+00
     -3.576  0.0000E+00  0.0000E+00  0.0000E+00
     -3.475  0.0000E+00  0.0000E+00  0.0000E+00
     -3.374  0.1515E-04  0.3052E-02  0.3983E-04
     -3.273  0.1464E-03  0.1084E-01  0.1090E-02
     -3.172  0.3917E-03  0.2172E-01  0.1860E-02
     -3.070  0.9221E-04  0.7345E-02  0.1024E-02
     -2.969  0.1536E-03  0.5266E-02  0.1771E-03
     -2.868  0.8858E-04  0.2235E-02  0.2723E-03
     -2.767  0.9459E-04  0.3572E-02  0.1957E-03
     -2.665  0.5370E-03  0.1055E-01  0.5312E-03
     -2.564  0.1442E-02  0.2726E-01  0.1567E-02
     -2.463  0.9125E-03  0.1863E-01  0.7203E-03
     -2.362  0.2050E-02  0.2588E-01  0.3494E-02
     -2.260  0.4064E-02  0.1909E-01  0.2815E-02
     -2.159  0.4057E-02  0.9245E-02  0.2667E-02
     -2.058  0.6133E-02  0.2603E-01  0.2208E-02
     -1.957  0.2218E-01  0.3676E-01  0.3836E-02
     -1.856  0.2298E-02  0.4277E-01  0.3246E-02
     -1.754  0.3086E-02  0.5417E-01  0.3395E-02
     -1.653  0.3633E-02  0.9226E-01  0.9681E-02
     -1.552  0.2596E-02  0.8938E-01  0.1112E-01
     -1.451  0.4820E-02  0.4974E-01  0.1303E-01
     -1.349  0.4828E-02  0.8856E-01  0.2070E-01
     -1.248  0.5966E-02  0.8175E-01  0.1606E-01
     -1.147  0.2324E-02  0.9213E-01  0.1412E-01
     -1.046  0.7612E-03  0.5574E-01  0.1289E-01
     -0.944  0.5635E-03  0.2324E-01  0.3486E-02
     -0.843  0.1306E-02  0.2287E-01  0.4642E-02
     -0.742  0.2759E-03  0.5493E-02  0.1158E-02
     -0.641  0.1645E-03  0.4100E-02  0.6827E-03
     -0.540  0.1574E-03  0.3305E-02  0.7426E-03
     -0.438  0.1603E-04  0.7848E-03  0.3633E-03
     -0.337  0.1008E-03  0.7485E-03  0.4733E-03
     -0.236  0.3315E-04  0.1373E-02  0.3122E-03
     -0.135  0.1158E-04  0.1335E-02  0.7097E-03
     -0.033  0.1152E-08  0.1611E-06  0.2854E-06
      0.068  0.1033E-04  0.9646E-03  0.8832E-03
      0.169  0.1215E-05  0.2232E-03  0.1005E-03
      0.270  0.0000E+00  0.0000E+00  0.0000E+00
      0.371  0.8728E-19  0.2845E-16  0.2884E-16
      0.473  0.4303E-06  0.1402E-03  0.1422E-03
      0.574  0.0000E+00  0.0000E+00  0.0000E+00
      0.675  0.0000E+00  0.0000E+00  0.0000E+00
      0.776  0.0000E+00  0.0000E+00  0.0000E+00
      0.878  0.0000E+00  0.0000E+00  0.0000E+00
      0.979  0.0000E+00  0.0000E+00  0.0000E+00
      1.080  0.0000E+00  0.0000E+00  0.0000E+00
      1.181  0.0000E+00  0.0000E+00  0.0000E+00
      1.283  0.0000E+00  0.0000E+00  0.0000E+00
      1.384  0.0000E+00  0.0000E+00  0.0000E+00
      1.485  0.0000E+00  0.0000E+00  0.0000E+00
      1.586  0.0000E+00  0.0000E+00  0.0000E+00
      1.687  0.0000E+00  0.0000E+00  0.0000E+00
      1.789  0.0000E+00  0.0000E+00  0.0000E+00
      1.890  0.0000E+00  0.0000E+00  0.0000E+00
      1.991  0.0000E+00  0.0000E+00  0.0000E+00
      2.092  0.0000E+00  0.0000E+00  0.0000E+00
      2.194  0.0000E+00  0.0000E+00  0.0000E+00
      2.295  0.0000E+00  0.0000E+00  0.0000E+00
      2.396  0.0000E+00  0.0000E+00  0.0000E+00
      2.497  0.2827E-08  0.8753E-08  0.1643E-08
      2.599  0.1748E-03  0.5793E-03  0.1864E-03
      2.700  0.2622E-03  0.5349E-03  0.1817E-02
      2.801  0.7409E-04  0.9344E-03  0.2779E-02
      2.902  0.2136E-04  0.2655E-03  0.9542E-03
      3.003  0.6009E-03  0.2305E-02  0.5011E-02
      3.105  0.3343E-03  0.5069E-03  0.9536E-03
      3.206  0.1044E-02  0.3882E-02  0.5079E-02
      3.307  0.1535E-02  0.5103E-02  0.4759E-02
      3.408  0.8496E-03  0.2673E-02  0.2829E-02
      3.510  0.1148E-04  0.1391E-03  0.5885E-04
      3.611  0.5747E-03  0.1425E-03  0.8955E-03
      3.712  0.0000E+00  0.0000E+00  0.0000E+00
      3.813  0.0000E+00  0.0000E+00  0.0000E+00
      3.914  0.0000E+00  0.0000E+00  0.0000E+00
      4.016  0.8796E-03  0.3700E-02  0.9381E-02
      4.117  0.8187E-03  0.3954E-02  0.1293E-01
      4.218  0.2308E-10  0.1659E-09  0.3421E-08
      4.319  0.4117E-03  0.1853E-02  0.7742E-02
      4.421  0.5268E-02  0.1146E-01  0.1998E-01
      4.522  0.9720E-03  0.4247E-02  0.1152E-01
      4.623  0.1168E-02  0.4763E-02  0.1235E-01
      4.724  0.2895E-02  0.3467E-02  0.5788E-02
      4.826  0.1918E-01  0.6075E-02  0.7772E-02
      4.927  0.3267E-02  0.4553E-02  0.8175E-02
      5.028  0.0000E+00  0.0000E+00  0.0000E+00
      5.129  0.0000E+00  0.0000E+00  0.0000E+00
      5.230  0.4980E-02  0.3296E-02  0.3331E-02
      5.332  0.9683E-03  0.2065E-02  0.4927E-02
      5.433  0.8209E-02  0.2153E-02  0.3775E-02
      5.534  0.8403E-02  0.5162E-03  0.4137E-02
      5.635  0.8419E-02  0.3824E-02  0.1143E-01
      5.737  0.1251E-02  0.2507E-02  0.9274E-02
      5.838  0.7206E-02  0.9149E-02  0.5209E-01
      5.939  0.5675E-02  0.5569E-02  0.6433E-01
      6.040  0.2836E-01  0.6946E-02  0.6423E-01
      6.142  0.4409E-01  0.2133E-01  0.1726E+00
      6.243  0.2088E-01  0.1359E-01  0.2011E+00
      6.344  0.4529E-01  0.2176E-01  0.3623E+00
      6.445  0.3477E-01  0.2026E-01  0.3656E+00
      6.546  0.2622E-01  0.3002E-01  0.3594E+00
      6.648  0.2677E-01  0.1823E-01  0.2963E+00
      6.749  0.5341E-03  0.4047E-02  0.8515E-01
      6.850  0.0000E+00  0.0000E+00  0.0000E+00
      6.951  0.0000E+00  0.0000E+00  0.0000E+00
      7.053  0.0000E+00  0.0000E+00  0.0000E+00
      7.154  0.0000E+00  0.0000E+00  0.0000E+00
      7.255  0.0000E+00  0.0000E+00  0.0000E+00
      7.356  0.0000E+00  0.0000E+00  0.0000E+00
      7.458  0.0000E+00  0.0000E+00  0.0000E+00
      7.559  0.0000E+00  0.0000E+00  0.0000E+00
      7.660  0.0000E+00  0.0000E+00  0.0000E+00
      7.761  0.0000E+00  0.0000E+00  0.0000E+00
      7.862  0.0000E+00  0.0000E+00  0.0000E+00
      7.964  0.0000E+00  0.0000E+00  0.0000E+00
      8.065  0.0000E+00  0.0000E+00  0.0000E+00
      8.06487873    -22.30378140  301      0.49802091      1.00000000
    -22.304  0.0000E+00  0.0000E+00  0.0000E+00
    -22.203  0.0000E+00  0.0000E+00  0.0000E+00
    -22.101  0.0000E+00  0.0000E+00  0.0000E+00
    -22.000  0.0000E+00  0.0000E+00  0.0000E+00
    -21.899  0.0000E+00  0.0000E+00  0.0000E+00
    -21.798  0.0000E+00  0.0000E+00  0.0000E+00
    -21.696  0.0000E+00  0.0000E+00  0.0000E+00
    -21.595  0.0000E+00  0.0000E+00  0.0000E+00
    -21.494  0.0000E+00  0.0000E+00  0.0000E+00
    -21.393  0.0000E+00  0.0000E+00  0.0000E+00
    -21.291  0.0000E+00  0.0000E+00  0.0000E+00
    -21.190  0.0000E+00  0.0000E+00  0.0000E+00
    -21.089  0.0000E+00  0.0000E+00  0.0000E+00
    -20.988  0.0000E+00  0.0000E+00  0.0000E+00
    -20.887  0.3039E-06  0.1394E-08  0.6480E-10
    -20.785  0.1753E+02  0.1329E-03  0.1816E-04
    -20.684  0.1415E-02  0.1685E-06  0.2537E-07
    -20.583  0.0000E+00  0.0000E+00  0.0000E+00
    -20.482  0.0000E+00  0.0000E+00  0.0000E+00
    -20.380  0.0000E+00  0.0000E+00  0.0000E+00
    -20.279  0.0000E+00  0.0000E+00  0.0000E+00
    -20.178  0.0000E+00  0.0000E+00  0.0000E+00
    -20.077  0.0000E+00  0.0000E+00  0.0000E+00
    -19.976  0.0000E+00  0.0000E+00  0.0000E+00
    -19.874  0.0000E+00  0.0000E+00  0.0000E+00
    -19.773  0.0000E+00  0.0000E+00  0.0000E+00
    -19.672  0.0000E+00  0.0000E+00  0.0000E+00
    -19.571  0.0000E+00  0.0000E+00  0.0000E+00
    -19.469  0.0000E+00  0.0000E+00  0.0000E+00
    -19.368  0.0000E+00  0.0000E+00  0.0000E+00
    -19.267  0.0000E+00  0.0000E+00  0.0000E+00
    -19.166  0.0000E+00  0.0000E+00  0.0000E+00
    -19.064  0.0000E+00  0.0000E+00  0.0000E+00
    -18.963  0.0000E+00  0.0000E+00  0.0000E+00
    -18.862  0.0000E+00  0.0000E+00  0.0000E+00
    -18.761  0.0000E+00  0.0000E+00  0.0000E+00
    -18.660  0.0000E+00  0.0000E+00  0.0000E+00
    -18.558  0.0000E+00  0.0000E+00  0.0000E+00
    -18.457  0.0000E+00  0.0000E+00  0.0000E+00
    -18.356  0.0000E+00  0.0000E+00  0.0000E+00
    -18.255  0.0000E+00  0.0000E+00  0.0000E+00
    -18.153  0.0000E+00  0.0000E+00  0.0000E+00
    -18.052  0.0000E+00  0.0000E+00  0.0000E+00
    -17.951  0.0000E+00  0.0000E+00  0.0000E+00
    -17.850  0.0000E+00  0.0000E+00  0.0000E+00
    -17.748  0.0000E+00  0.0000E+00  0.0000E+00
    -17.647  0.0000E+00  0.0000E+00  0.0000E+00
    -17.546  0.0000E+00  0.0000E+00  0.0000E+00
    -17.445  0.0000E+00  0.0000E+00  0.0000E+00
    -17.344  0.0000E+00  0.0000E+00  0.0000E+00
    -17.242  0.0000E+00  0.0000E+00  0.0000E+00
    -17.141  0.0000E+00  0.0000E+00  0.0000E+00
    -17.040  0.0000E+00  0.0000E+00  0.0000E+00
    -16.939  0.0000E+00  0.0000E+00  0.0000E+00
    -16.837  0.6164E-07  0.3999E-07  0.8917E-08
    -16.736  0.1318E-11  0.5743E-12  0.7901E-13
    -16.635  0.5419E-04  0.2887E-04  0.4639E-05
    -16.534  0.1277E-04  0.6552E-05  0.8499E-06
    -16.433  0.3779E-04  0.2971E-04  0.4981E-05
    -16.331  0.7483E-04  0.6300E-04  0.1026E-04
    -16.230  0.6202E-04  0.4373E-04  0.5193E-05
    -16.129  0.1420E-05  0.1093E-05  0.1630E-06
    -16.028  0.0000E+00  0.0000E+00  0.0000E+00
    -15.926  0.0000E+00  0.0000E+00  0.0000E+00
    -15.825  0.0000E+00  0.0000E+00  0.0000E+00
    -15.724  0.0000E+00  0.0000E+00  0.0000E+00
    -15.623  0.0000E+00  0.0000E+00  0.0000E+00
    -15.521  0.0000E+00  0.0000E+00  0.0000E+00
    -15.420  0.0000E+00  0.0000E+00  0.0000E+00
    -15.319  0.0000E+00  0.0000E+00  0.0000E+00
    -15.218  0.0000E+00  0.0000E+00  0.0000E+00
    -15.117  0.0000E+00  0.0000E+00  0.0000E+00
    -15.015  0.0000E+00  0.0000E+00  0.0000E+00
    -14.914  0.0000E+00  0.0000E+00  0.0000E+00
    -14.813  0.0000E+00  0.0000E+00  0.0000E+00
    -14.712  0.0000E+00  0.0000E+00  0.0000E+00
    -14.610  0.1308E-14  0.8112E-15  0.5544E-16
    -14.509  0.3014E-03  0.2642E-03  0.1643E-04
    -14.408  0.1030E-05  0.7425E-07  0.8015E-08
    -14.307  0.1678E-02  0.1560E-02  0.8695E-04
    -14.205  0.2493E-02  0.4244E-02  0.1473E-03
    -14.104  0.1173E-02  0.4337E-02  0.2735E-03
    -14.003  0.1761E-02  0.4261E-02  0.2857E-03
    -13.902  0.1382E-02  0.4490E-02  0.4909E-03
    -13.801  0.6831E-03  0.2486E-02  0.3333E-03
    -13.699  0.4300E-03  0.1056E-02  0.1517E-03
    -13.598  0.1234E-03  0.1711E-03  0.9474E-05
    -13.497  0.0000E+00  0.0000E+00  0.0000E+00
    -13.396  0.0000E+00  0.0000E+00  0.0000E+00
    -13.294  0.0000E+00  0.0000E+00  0.0000E+00