       N       E                     dE             d eps       ncg     rms          rms(c)
DAV:   1     0.133388852651E+04    0.13339E+04   -0.11059E+05  3480   0.973E+02
DAV:   2    -0.111200653538E+04   -0.24459E+04   -0.23634E+04  4080   0.300E+02
DAV:   3    -0.147381731217E+04   -0.36181E+03   -0.35982E+03  4424   0.137E+02
DAV:   4    -0.148596517602E+04   -0.12148E+02   -0.12109E+02  3888   0.331E+01
DAV:   5    -0.148654331221E+04   -0.57814E+00   -0.57784E+00  4448   0.562E+00    0.108E+01
DAV:   6    -0.140890574905E+04    0.77638E+02   -0.23570E+01  4304   0.310E+01    0.761E+00
DAV:   7    -0.140839586084E+04    0.50989E+00   -0.87126E+00  4120   0.566E+00    0.377E+00
DAV:   8    -0.140856631039E+04   -0.17045E+00   -0.45415E-01  4152   0.208E+00    0.217E+00
DAV:   9    -0.140862914726E+04   -0.62837E-01   -0.15663E-01  3880   0.129E+00    0.438E-01
DAV:  10    -0.140863238775E+04   -0.32405E-02   -0.21105E-02  4688   0.439E-01    0.316E-01
DAV:  11    -0.140863471926E+04   -0.23315E-02   -0.31116E-03  4040   0.168E-01    0.134E-01
DAV:  12    -0.140863705223E+04   -0.23330E-02   -0.45059E-03  3664   0.180E-01    0.102E-01
DAV:  13    -0.140863659823E+04    0.45400E-03   -0.16043E-03  4592   0.117E-01    0.447E-02
DAV:  14    -0.140863658244E+04    0.15786E-04   -0.39302E-04  3904   0.382E-02    0.279E-02
DAV:  15    -0.140863657540E+04    0.70422E-05   -0.35789E-05  3696   0.144E-02    0.162E-02
DAV:  16    -0.140863665094E+04   -0.75542E-04   -0.37475E-05  3920   0.191E-02    0.690E-03
DAV:  17    -0.140863664350E+04    0.74472E-05   -0.60355E-06  3768   0.666E-03    0.454E-03
DAV:  18    -0.140863664150E+04    0.19981E-05   -0.37559E-06  2776   0.345E-03    0.260E-03
DAV:  19    -0.140863663894E+04    0.25612E-05   -0.23943E-06  2264   0.230E-03    0.166E-03
DAV:  20    -0.140863663577E+04    0.31697E-05   -0.35691E-07  2168   0.145E-03    0.121E-03
DAV:  21    -0.140863663465E+04    0.11197E-05   -0.26441E-07  2072   0.119E-03    0.101E-03
DAV:  22    -0.140863663437E+04    0.27908E-06   -0.69469E-08  1976   0.826E-04
   1 F= -.14086366E+04 E0= -.14086366E+04  d E =-.181718E-27
