 vasp.5.4.4.18Apr17-6-g9f103f2a35 (build Jun 22 2020 09:27:21) complex           
 executed on tx2_gcc-7.3_libsci-1 date 2021.10.12  05:27:32
 running on   64 total cores
 distrk:  each k-point on   64 cores,    1 groups
 distr:  one band on NCORES_PER_BAND=   8 cores,    8 groups


--------------------------------------------------------------------------------------------------------


 INCAR:
 POTCAR:    PAW_PBE Cs_sv 08Apr2002               
 POTCAR:    PAW_PBE Pb_d 06Sep2000                
 POTCAR:    PAW_PBE Br 06Sep2000                  
 POTCAR:    PAW_PBE Cs_sv 08Apr2002               
   SHA256 =  c1463496f0f6037ed62c6012a8013a89ee9ad6ffb38599dcd6c079e7ed31779b Cs
   COPYR  = (c) Copyright 08Apr2002 Georg Kresse                                
   COPYR  = This file is part of the software VASP. Any use, copying, and all ot
   COPYR  = If you do not have a valid VASP license, you may not use, copy or di
   VRHFIN =Cs: 5s5p6s                                                           
   LEXCH  = PE                                                                  
   EATOM  =   555.6835 eV,   40.8416 Ry                                         
                                                                                
   TITEL  = PAW_PBE Cs_sv 08Apr2002                                             
   LULTRA =        F    use ultrasoft PP ?                                      
   IUNSCR =        1    unscreen: 0-lin 1-nonlin 2-no                           
   RPACOR =    2.200    partial core radius                                     
   POMASS =  132.900; ZVAL   =    9.000    mass and valenz                      
   RCORE  =    2.500    outmost cutoff radius                                   
   RWIGS  =    2.500; RWIGS  =    1.323    wigner-seitz radius (au A)           
   ENMAX  =  220.318; ENMIN  =  165.238 eV                                      
   RCLOC  =    2.207    cutoff for local pot                                    
   LCOR   =        T    correct aug charges                                     
   LPAW   =        T    paw PP                                                  
   EAUG   =  407.933                                                            
   DEXC   =    0.000                                                            
   RMAX   =    2.554    core radius for proj-oper                               
   RAUG   =    1.300    factor for augmentation sphere                          
   RDEP   =    2.590    radius for radial grids                                 
   RDEPT  =    2.117    core radius for aug-charge                              
                                                                                
   Atomic configuration                                                         
   13 entries                                                                   
     n  l   j            E        occ.                                          
     1  0  0.50    -35790.1377   2.0000                                         
     2  0  0.50     -5613.6201   2.0000                                         
     2  1  1.50     -5035.0101   6.0000                                         
     3  0  0.50     -1167.0767   2.0000                                         
     3  1  1.50      -980.9754   6.0000                                         
     3  2  2.50      -708.0703  10.0000                                         
     4  0  0.50      -220.2386   2.0000                                         
     4  1  1.50      -160.7596   6.0000                                         
     4  2  2.50       -74.2354  10.0000                                         
     5  0  0.50       -26.7287   2.0000                                         
     6  0  0.50        -2.0862   1.0000                                         
     5  1  1.50       -13.5159   6.0000                                         
     5  2  2.50        -0.4136   0.0000                                         
   Description                                                                  
     l       E           TYP  RCUT    TYP  RCUT                                 
     0    -26.7287425     23  1.900                                             
     0     -2.0862306     23  1.900                                             
     1    -13.5158719     23  2.500                                             
     1     -2.7211652     23  2.500                                             
     2     -0.4136171     23  2.500                                             
  local pseudopotential read in
  partial core-charges read in
  partial kinetic energy density read in
  atomic valenz-charges read in
  non local Contribution for L=           0  read in
    real space projection operators read in
  non local Contribution for L=           0  read in
    real space projection operators read in
  non local Contribution for L=           1  read in
    real space projection operators read in
  non local Contribution for L=           1  read in
    real space projection operators read in
  non local Contribution for L=           2  read in
    real space projection operators read in
    PAW grid and wavefunctions read in

   number of l-projection  operators is LMAX  =           5
   number of lm-projection operators is LMMAX =          13

 POTCAR:    PAW_PBE Pb_d 06Sep2000                
   SHA256 =  fb885b08f0fba73a15f6a6b0e39bd200c13ec96ef97cf3ecd8e63bade5137abd Pb
   COPYR  = (c) Copyright 06Sep2000 Georg Kresse                                
   COPYR  = This file is part of the software VASP. Any use, copying, and all ot
   COPYR  = If you do not have a valid VASP license, you may not use, copy or di
   VRHFIN =Pb:                                                                  
   LEXCH  = PE                                                                  
   EATOM  =  1661.6185 eV,  122.1255 Ry                                         
                                                                                
   TITEL  = PAW_PBE Pb_d 06Sep2000                                              
   LULTRA =        F    use ultrasoft PP ?                                      
   IUNSCR =        1    unscreen: 0-lin 1-nonlin 2-no                           
   RPACOR =    2.200    partial core radius                                     
   POMASS =  207.200; ZVAL   =   14.000    mass and valenz                      
   RCORE  =    2.500    outmost cutoff radius                                   
   RWIGS  =    3.260; RWIGS  =    1.725    wigner-seitz radius (au A)           
   ENMAX  =  237.835; ENMIN  =  178.376 eV                                      
   ICORE  =        3    local potential                                         
   LCOR   =        T    correct aug charges                                     
   LPAW   =        T    paw PP                                                  
   EAUG   =  391.914                                                            
   DEXC   =    0.000                                                            
   RMAX   =    2.565    core radius for proj-oper                               
   RAUG   =    1.300    factor for augmentation sphere                          
   RDEP   =    2.643    radius for radial grids                                 
   RDEPT  =    2.092    core radius for aug-charge                              
                                                                                
   Atomic configuration                                                         
   16 entries                                                                   
     n  l   j            E        occ.                                          
     1  0  0.50    -88091.8466   2.0000                                         
     2  0  0.50    -15753.4197   2.0000                                         
     2  1  1.50    -13508.1797   6.0000                                         
     3  0  0.50     -3781.7194   2.0000                                         
     3  1  1.50     -3138.2529   6.0000                                         
     3  2  2.50     -2483.2977  10.0000                                         
     4  0  0.50      -856.2895   2.0000                                         
     4  1  1.50      -645.4942   6.0000                                         
     4  2  2.50      -401.8768  10.0000                                         
     4  3  3.50      -132.9059  14.0000                                         
     5  0  0.50      -144.0950   2.0000                                         
     5  1  1.50       -85.7879   6.0000                                         
     5  2  2.50       -21.1769  10.0000                                         
     6  0  0.50       -12.0372   2.0000                                         
     6  1  1.50        -3.4971   2.0000                                         
     5  3  2.50        -2.7212   0.0000                                         
   Description                                                                  
     l       E           TYP  RCUT    TYP  RCUT                                 
     2    -21.1768523     23  2.500                                             
     2      1.3605826     23  2.500                                             
     0    -12.0371562     23  2.500                                             
     0     13.6058260     23  2.500                                             
     1     -3.4971339     23  2.500                                             
     1     13.6058260     23  2.500                                             
     3     -1.3605826      7  2.500                                             
  local pseudopotential read in
  partial core-charges read in
  partial kinetic energy density read in
  atomic valenz-charges read in
  non local Contribution for L=           2  read in
    real space projection operators read in
  non local Contribution for L=           2  read in
    real space projection operators read in
  non local Contribution for L=           0  read in
    real space projection operators read in
  non local Contribution for L=           0  read in
    real space projection operators read in
  non local Contribution for L=           1  read in
    real space projection operators read in
  non local Contribution for L=           1  read in
    real space projection operators read in
    PAW grid and wavefunctions read in

   number of l-projection  operators is LMAX  =           6
   number of lm-projection operators is LMMAX =          18

 POTCAR:    PAW_PBE Br 06Sep2000                  
   SHA256 =  96a73d2954943bbee26f4990d676cc6c3bf44b8dd2c75cd4b3b825d8403f0103 Br
   COPYR  = (c) Copyright 06Sep2000 Georg Kresse                                
   COPYR  = This file is part of the software VASP. Any use, copying, and all ot
   COPYR  = If you do not have a valid VASP license, you may not use, copy or di
   VRHFIN =Br: s2p5                                                             
   LEXCH  = PE                                                                  
   EATOM  =   368.4488 eV,   27.0802 Ry                                         
                                                                                
   TITEL  = PAW_PBE Br 06Sep2000                                                
   LULTRA =        F    use ultrasoft PP ?                                      
   IUNSCR =        1    unscreen: 0-lin 1-nonlin 2-no                           
   RPACOR =    1.900    partial core radius                                     
   POMASS =   79.904; ZVAL   =    7.000    mass and valenz                      
   RCORE  =    2.100    outmost cutoff radius                                   
   RWIGS  =    2.200; RWIGS  =    1.164    wigner-seitz radius (au A)           
   ENMAX  =  216.285; ENMIN  =  162.214 eV                                      
   ICORE  =        3    local potential                                         
   LCOR   =        T    correct aug charges                                     
   LPAW   =        T    paw PP                                                  
   EAUG   =  503.852                                                            
   DEXC   =    0.000                                                            
   RMAX   =    2.139    core radius for proj-oper                               
   RAUG   =    1.300    factor for augmentation sphere                          
   RDEP   =    2.186    radius for radial grids                                 
   RDEPT  =    1.890    core radius for aug-charge                              
                                                                                
   Atomic configuration                                                         
   10 entries                                                                   
     n  l   j            E        occ.                                          
     1  0  0.50    -13316.2796   2.0000                                         
     2  0  0.50     -1732.8239   2.0000                                         
     2  1  1.50     -1528.2193   6.0000                                         
     3  0  0.50      -238.0460   2.0000                                         
     3  1  1.50      -173.4609   6.0000                                         
     3  2  2.50       -66.7132  10.0000                                         
     4  0  0.50       -20.1334   2.0000                                         
     4  1  0.50        -7.8591   5.0000                                         
     4  2  2.50        -8.1635   0.0000                                         
     4  3  2.50        -8.1635   0.0000                                         
   Description                                                                  
     l       E           TYP  RCUT    TYP  RCUT                                 
     0    -20.1333652     23  2.100                                             
     0    -21.4939478     23  2.100                                             
     1     -7.8591052     23  2.100                                             
     1     -3.1608434     23  2.100                                             
     2     -8.1634956     23  2.100                                             
     3     -1.3605826      7  2.100                                             
  local pseudopotential read in
  partial core-charges read in
  partial kinetic energy density read in
  atomic valenz-charges read in
  non local Contribution for L=           0  read in
    real space projection operators read in
  non local Contribution for L=           0  read in
    real space projection operators read in
  non local Contribution for L=           1  read in
    real space projection operators read in
  non local Contribution for L=           1  read in
    real space projection operators read in
  non local Contribution for L=           2  read in
    real space projection operators read in
    PAW grid and wavefunctions read in

   number of l-projection  operators is LMAX  =           5
   number of lm-projection operators is LMMAX =          13

 Optimization of the real space projectors (new method)

 maximal supplied QI-value         = 15.12
 optimisation between [QCUT,QGAM] = [  8.77, 17.69] = [ 21.53, 87.61] Ry 
 Optimized for a Real-space Cutoff    1.85 Angstroem

   l    n(q)    QCUT    max X(q) W(low)/X(q) W(high)/X(q)  e(spline) 
   0     10     8.768    25.322    0.81E-04    0.51E-04    0.48E-06
   0     10     8.768    99.187    0.78E-04    0.50E-04    0.47E-06
   1      9     8.768    11.761    0.21E-03    0.20E-03    0.37E-06
   1      9     8.768     8.275    0.24E-03    0.22E-03    0.41E-06
   2      9     8.768     3.829    0.23E-04    0.15E-03    0.18E-06
 Optimization of the real space projectors (new method)

 maximal supplied QI-value         = 15.12
 optimisation between [QCUT,QGAM] = [  8.77, 17.69] = [ 21.53, 87.61] Ry 
 Optimized for a Real-space Cutoff    1.59 Angstroem

   l    n(q)    QCUT    max X(q) W(low)/X(q) W(high)/X(q)  e(spline) 
   2      7     8.768     3.846    0.48E-04    0.11E-03    0.11E-06
   2      7     8.768     8.593    0.20E-03    0.22E-04    0.24E-06
   0      8     8.768    20.082    0.68E-04    0.88E-04    0.41E-07
   0      8     8.768     8.597    0.89E-04    0.13E-03    0.59E-07
   1      8     8.768    33.223    0.15E-03    0.53E-04    0.87E-07
   1      8     8.768    15.899    0.14E-03    0.44E-04    0.78E-07
 Optimization of the real space projectors (new method)

 maximal supplied QI-value         = 17.95
 optimisation between [QCUT,QGAM] = [  8.80, 17.59] = [ 21.67, 86.68] Ry 
 Optimized for a Real-space Cutoff    1.59 Angstroem

   l    n(q)    QCUT    max X(q) W(low)/X(q) W(high)/X(q)  e(spline) 
   0      8     8.797   175.082    0.82E-04    0.14E-03    0.89E-07
   0      8     8.797   174.004    0.79E-04    0.14E-03    0.86E-07
   1      8     8.797    54.315    0.16E-03    0.14E-04    0.30E-06
   1      8     8.797    42.441    0.16E-03    0.14E-04    0.30E-06
   2      7     8.797     3.596    0.92E-04    0.15E-03    0.85E-07
  PAW_PBE Cs_sv 08Apr2002               :
 energy of atom  1       EATOM= -555.6835
 kinetic energy error for atom=    0.0069 (will be added to EATOM!!)
  PAW_PBE Pb_d 06Sep2000                :
 energy of atom  2       EATOM=-1661.6185
 kinetic energy error for atom=    0.0498 (will be added to EATOM!!)
  PAW_PBE Br 06Sep2000                  :
 energy of atom  3       EATOM= -368.4488
 kinetic energy error for atom=    0.0072 (will be added to EATOM!!)


 POSCAR: Cs8 Pb8 Br23                            
  positions in direct lattice
  No initial velocities read in

 METAGGA = SCAN     LMAXTAU =  6    LMIXTAU =  F

 exchange correlation table for  LEXCH =        8
   RHO(1)=    0.500       N(1)  =     2000
   RHO(2)=  100.500       N(2)  =     4000

 VTST: version 3.2, (02/03/18)

 CHAIN: initializing optimizer
 
 OPT: Using VASP Conjugate-Gradient optimizer
 CHAIN: Read ICHAIN            0

 POSCAR: Cs8 Pb8 Br23                            
  positions in direct lattice
  No initial velocities read in



--------------------------------------------------------------------------------------------------------


 ion  position               nearest neighbor table
   1  0.265  0.240  0.202-
   2  0.777  0.237  0.725-
   3  0.717  0.768  0.263-
   4  0.209  0.754  0.778-
   5  0.281  0.244  0.729-
   6  0.799  0.247  0.226-
   7  0.729  0.754  0.792-
   8  0.224  0.757  0.291-
   9  0.002  0.998  1.000-  21 2.97  29 2.97  19 2.98  34 2.99  28 3.00  31 3.00
  10  0.498  0.001  0.499-  33 2.99  27 3.00  32 3.00  30 3.01  20 3.02  22 3.03
  11  0.499  0.001  1.000-  31 2.97  27 2.99  29 3.00  17 3.00  23 3.00  33 3.01
  12  0.999  0.999  0.501-  28 2.99  18 2.99  34 3.00  24 3.00  30 3.00  32 3.01
  13  0.506  0.497  0.994-  23 2.95  37 2.96  17 2.98  35 2.98  25 2.99
  14  0.002  0.502  0.499-  36 2.93  18 2.96  24 2.96  26 2.99  38 3.00
  15  0.002  0.500  0.999-  21 2.96  19 2.97  38 3.02  25 3.02  35 3.02  26 3.03
  16  0.491  0.500  0.508-  39 2.40  37 2.93  20 2.95  36 2.96  22 2.96
  17  0.474  0.748  0.971-  13 2.98  11 3.00
  18  0.966  0.749  0.463-  14 2.96  12 2.99
  19  0.976  0.249  0.974-  15 2.97   9 2.98
  20  0.454  0.254  0.469-  16 2.95  10 3.02
  21  0.034  0.749  0.032-  15 2.96   9 2.97
  22  0.541  0.747  0.521-  16 2.96  10 3.03
  23  0.531  0.251  0.043-  13 2.95  11 3.00
  24  0.021  0.252  0.533-  14 2.96  12 3.00
  25  0.252  0.467  0.952-  13 2.99  15 3.02
  26  0.946  0.531  0.745-  14 2.99  15 3.03
  27  0.545  0.034  0.752-  11 2.99  10 3.00
  28  0.047  0.029  0.253-  12 2.99   9 3.00
  29  0.754  0.976  0.042-   9 2.97  11 3.00
  30  0.251  0.962  0.550-  12 3.00  10 3.01
  31  0.249  0.031  0.949-  11 2.97   9 3.00
  32  0.746  0.038  0.451-  10 3.00  12 3.01
  33  0.448  0.967  0.248-  10 2.99  11 3.01
  34  0.951  0.964  0.748-   9 2.99  12 3.00
  35  0.754  0.533  0.053-  13 2.98  15 3.02
  36  0.247  0.539  0.553-  14 2.93  16 2.96
  37  0.557  0.463  0.751-  16 2.93  13 2.96
  38  0.057  0.467  0.252-  14 3.00  15 3.02
  39  0.607  0.498  0.345-  16 2.40


IMPORTANT INFORMATION: All symmetrisations will be switched off!
NOSYMM: (Re-)initialisation of all symmetry stuff for point group C_1.



 KPOINTS: 1x1x1                                   

Automatic generation of k-mesh.
Space group operators:
 irot       det(A)        alpha          n_x          n_y          n_z        tau_x        tau_y        tau_z
    1     1.000000     0.000001     1.000000     0.000000     0.000000     0.000000     0.000000     0.000000
 
 Subroutine IBZKPT returns following result:
 ===========================================
 
 Found      8 irreducible k-points:
 
 Following reciprocal coordinates:
            Coordinates               Weight
  0.000000  0.000000  0.000000      1.000000
  0.500000  0.000000  0.000000      1.000000
  0.000000  0.500000  0.000000      1.000000
  0.500000  0.500000  0.000000      1.000000
  0.000000  0.000000  0.500000      1.000000
  0.500000  0.000000  0.500000      1.000000
  0.000000  0.500000  0.500000      1.000000
  0.500000  0.500000  0.500000      1.000000
 
 Following cartesian coordinates:
            Coordinates               Weight
 -0.000000  0.000000  0.000000      1.000000
  0.029563  0.000000  0.031093      1.000000
 -0.000000  0.042626  0.000000      1.000000
  0.029563  0.042626  0.031093      1.000000
 -0.029563  0.000000  0.031093      1.000000
  0.000000  0.000000  0.062187      1.000000
 -0.029563  0.042626  0.031093      1.000000
  0.000000  0.042626  0.062187      1.000000
 


--------------------------------------------------------------------------------------------------------




 Dimension of arrays:
   k-points           NKPTS =      8   k-points in BZ     NKDIM =      8   number of bands    NBANDS=    208
   number of dos      NEDOS =    301   number of ions     NIONS =     39
   non local maximal  LDIM  =      6   non local SUM 2l+1 LMDIM =     18
   total plane-waves  NPLWV = 343000
   max r-space proj   IRMAX =   5734   max aug-charges    IRDMAX=  91523
   dimension x,y,z NGX =    70 NGY =   70 NGZ =   70
   dimension x,y,z NGXF=   140 NGYF=  140 NGZF=  140
   support grid    NGXF=   280 NGYF=  280 NGZF=  280
   ions per type =               8   8  23
   NGX,Y,Z   is equivalent  to a cutoff of   9.97,  9.92,  9.97 a.u.
   NGXF,Y,Z  is equivalent  to a cutoff of  19.95, 19.84, 19.95 a.u.

 SYSTEM =  CsPbBr3 cubic bulk                      
 POSCAR =  Cs8 Pb8 Br23                            

 Startparameter for this run:
   NWRITE =      2    write-flag & timer
   PREC   = accura    normal or accurate (medium, high low for compatibility)
   ISTART =      0    job   : 0-new  1-cont  2-samecut
   ICHARG =      2    charge: 1-file 2-atom 10-const
   ISPIN  =      1    spin polarized calculation?
   LNONCOLLINEAR =      F non collinear calculations
   LSORBIT =      F    spin-orbit coupling
   INIWAV =      1    electr: 0-lowe 1-rand  2-diag
   LASPH  =      T    aspherical Exc in radial PAW
   METAGGA=      F    non-selfconsistent MetaGGA calc.

 Electronic Relaxation 1
   ENCUT  =  300.0 eV  22.05 Ry    4.70 a.u.  16.48 16.57 16.48*2*pi/ulx,y,z
   ENINI  =  300.0     initial cutoff
   ENAUG  =  503.9 eV  augmentation charge cutoff
   NELM   =    200;   NELMIN=  2; NELMDL= -5     # of ELM steps 
   EDIFF  = 0.1E-05   stopping-criterion for ELM
   LREAL  =      T    real-space projection
   NLSPLINE    = F    spline interpolate recip. space projectors
   LCOMPAT=      F    compatible to vasp.4.4
   GGA_COMPAT  = T    GGA compatible to vasp.4.4-vasp.4.6
   LMAXPAW     = -100 max onsite density
   LMAXMIX     =    2 max onsite mixed and CHGCAR
   VOSKOWN=      0    Vosko Wilk Nusair interpolation
   ROPT   =   -0.00025  -0.00025  -0.00025
 Ionic relaxation
   EDIFFG = -.1E-01   stopping-criterion for IOM
   NSW    =      0    number of steps for IOM
   NBLOCK =      1;   KBLOCK =      1    inner block; outer block 
   IBRION =     -1    ionic relax: 0-MD 1-quasi-New 2-CG
   NFREE  =      1    steps in history (QN), initial steepest desc. (CG)
   ISIF   =      2    stress and relaxation
   IWAVPR =     10    prediction:  0-non 1-charg 2-wave 3-comb
   ISYM   =      0    0-nonsym 1-usesym 2-fastsym
   LCORR  =      T    Harris-Foulkes like correction to forces

   POTIM  = 0.5000    time-step for ionic-motion
   TEIN   =    0.0    initial temperature
   TEBEG  =    0.0;   TEEND  =   0.0 temperature during run
   SMASS  =  -3.00    Nose mass-parameter (am)
   estimated Nose-frequenzy (Omega)   =  0.10E-29 period in steps =****** mass=  -0.311E-26a.u.
   SCALEE = 1.0000    scale energy and forces
   NPACO  =    256;   APACO  = 16.0  distance and # of slots for P.C.
   PSTRESS=    0.0 pullay stress

  Mass of Ions in am
   POMASS = 132.90207.20 79.90
  Ionic Valenz
   ZVAL   =   9.00 14.00  7.00
  Atomic Wigner-Seitz radii
   RWIGS  =  -1.00 -1.00 -1.00
  virtual crystal weights 
   VCA    =   1.00  1.00  1.00
   NELECT =     344.0000    total number of electrons
   NUPDOWN=       0.0000    fix difference up-down

 DOS related values:
   EMIN   =  10.00;   EMAX   =-10.00  energy-range for DOS
   EFERMI =   0.00
   ISMEAR =     0;   SIGMA  =   0.01  broadening in eV -4-tet -1-fermi 0-gaus

 Electronic relaxation 2 (details)
   IALGO  =     38    algorithm
   LDIAG  =      T    sub-space diagonalisation (order eigenvalues)
   LSUBROT=      F    optimize rotation matrix (better conditioning)
   TURBO    =      0    0=normal 1=particle mesh
   IRESTART =      0    0=no restart 2=restart with 2 vectors
   NREBOOT  =      0    no. of reboots
   NMIN     =      0    reboot dimension
   EREF     =   0.00    reference energy to select bands
   IMIX   =      4    mixing-type and parameters
     AMIX     =   0.40;   BMIX     =  1.00
     AMIX_MAG =   1.60;   BMIX_MAG =  1.00
     AMIN     =   0.10
     WC   =   100.;   INIMIX=   1;  MIXPRE=   1;  MAXMIX= -45

 Intra band minimization:
   WEIMIN = 0.0000     energy-eigenvalue tresh-hold
   EBREAK =  0.12E-08  absolut break condition
   DEPER  =   0.30     relativ break condition  

   TIME   =   0.40     timestep for ELM

  volume/ion in A,a.u.               =      40.90       276.00
  Fermi-wavevector in a.u.,A,eV,Ry     =   0.981747  1.855232 13.113654  0.963826
  Thomas-Fermi vector in A             =   2.112777

 Write flags
   LWAVE        =      F    write WAVECAR
   LDOWNSAMPLE  =      F    k-point downsampling of WAVECAR
   LCHARG       =      F    write CHGCAR
   LVTOT        =      F    write LOCPOT, total local potential
   LVHAR        =      T    write LOCPOT, Hartree potential only
   LELF         =      F    write electronic localiz. function (ELF)
   LORBIT       =     10    0 simple, 1 ext, 2 COOP (PROOUT), +10 PAW based schemes


 Dipole corrections
   LMONO  =      F    monopole corrections only (constant potential shift)
   LDIPOL =      F    correct potential (dipole corrections)
   IDIPOL =      0    1-x, 2-y, 3-z, 4-all directions 
   EPSILON=  1.0000000 bulk dielectric constant

 Exchange correlation treatment:
   GGA     =    --    GGA type
   LEXCH   =     8    internal setting for exchange type
   VOSKOWN=      0    Vosko Wilk Nusair interpolation
   LHFCALC =     F    Hartree Fock is set to
   LHFONE  =     F    Hartree Fock one center treatment
   AEXX    =    0.0000 exact exchange contribution

 Linear response parameters
   LEPSILON=     F    determine dielectric tensor
   LRPA    =     F    only Hartree local field effects (RPA)
   LNABLA  =     F    use nabla operator in PAW spheres
   LVEL    =     F    velocity operator in full k-point grid
   LINTERFAST=   F  fast interpolation
   KINTER  =     0    interpolate to denser k-point grid
   CSHIFT  =0.1000    complex shift for real part using Kramers Kronig
   OMEGAMAX=  -1.0    maximum frequency
   DEG_THRESHOLD= 0.2000000E-02 threshold for treating states as degnerate
   RTIME   =   -0.100 relaxation time in fs
  (WPLASMAI=    0.000 imaginary part of plasma frequency in eV, 0.658/RTIME)
   DFIELD  = 0.0000000 0.0000000 0.0000000 field for delta impulse in time

 Orbital magnetization related:
   ORBITALMAG=     F  switch on orbital magnetization
   LCHIMAG   =     F  perturbation theory with respect to B field
   DQ        =  0.001000  dq finite difference perturbation B field
   LLRAUG    =     F  two centre corrections for induced B field



--------------------------------------------------------------------------------------------------------


 Static calculation
 charge density and potential will be updated during run
 non-spin polarized calculation
 Variant of blocked Davidson
 Davidson routine will perform the subspace rotation
 perform sub-space diagonalisation
    after iterative eigenvector-optimisation
 modified Broyden-mixing scheme, WC =      100.0
 initial mixing is a Kerker type mixing with AMIX =  0.4000 and BMIX =      1.0000
 Hartree-type preconditioning will be used
 using additional bands           36
 real space projection scheme for non local part
 use partial core corrections
 calculate Harris-corrections to forces   (improved forces if not selfconsistent)
 use gradient corrections 
 use of overlap-Matrix (Vanderbilt PP)
 Gauss-broadening in eV      SIGMA  =   0.01


--------------------------------------------------------------------------------------------------------


  energy-cutoff  :      300.00
  volume of cell :     1595.09
      direct lattice vectors                 reciprocal lattice vectors
     8.456489000  0.000000000  8.040301000     0.059126193 -0.000000000  0.062186727
     0.000000000 11.729847000  0.000000000     0.000000000  0.085252604 -0.000000000
    -8.456489000  0.000000000  8.040301000    -0.059126193  0.000000000  0.062186727

  length of vectors
    11.668703715 11.729847000 11.668703715     0.085808482  0.085252604  0.085808482



 k-points in units of 2pi/SCALE and weight: 1x1x1                                   
  -0.00000000  0.00000000  0.00000000       0.125
   0.02956310  0.00000000  0.03109336       0.125
  -0.00000000  0.04262630  0.00000000       0.125
   0.02956310  0.04262630  0.03109336       0.125
  -0.02956310  0.00000000  0.03109336       0.125
   0.00000000  0.00000000  0.06218673       0.125
  -0.02956310  0.04262630  0.03109336       0.125
   0.00000000  0.04262630  0.06218673       0.125

 k-points in reciprocal lattice and weights: 1x1x1                                   
   0.00000000  0.00000000  0.00000000       0.125
   0.50000000  0.00000000  0.00000000       0.125
   0.00000000  0.50000000  0.00000000       0.125
   0.50000000  0.50000000  0.00000000       0.125
   0.00000000  0.00000000  0.50000000       0.125
   0.50000000  0.00000000  0.50000000       0.125
   0.00000000  0.50000000  0.50000000       0.125
   0.50000000  0.50000000  0.50000000       0.125

 position of ions in fractional coordinates (direct lattice) 
   0.26480700  0.23995800  0.20172900
   0.77685700  0.23665300  0.72488300
   0.71674800  0.76841100  0.26269800
   0.20914900  0.75388800  0.77828800
   0.28050200  0.24388900  0.72859600
   0.79902700  0.24652900  0.22617600
   0.72870400  0.75437000  0.79244100
   0.22448000  0.75693000  0.29073900
   0.00174800  0.99809000  0.99963800
   0.49817500  0.00124600  0.49944200
   0.49931900  0.00094300  0.99983400
   0.99859000  0.99947700  0.50053300
   0.50553700  0.49698800  0.99404600
   0.00153300  0.50158800  0.49867400
   0.00243700  0.50038700  0.99869300
   0.49068200  0.50004400  0.50838300
   0.47423700  0.74787200  0.97141800
   0.96590400  0.74876300  0.46291100
   0.97624200  0.24943300  0.97370600
   0.45398000  0.25360000  0.46908600
   0.03414200  0.74880500  0.03238800
   0.54098300  0.74739600  0.52120500
   0.53128600  0.25149800  0.04285800
   0.02080700  0.25193900  0.53327100
   0.25237800  0.46676300  0.95154600
   0.94558700  0.53137700  0.74451400
   0.54456800  0.03387000  0.75213000
   0.04693000  0.02855100  0.25302200
   0.75355000  0.97585600  0.04181500
   0.25075300  0.96201600  0.54963900
   0.24914500  0.03111400  0.94853700
   0.74572400  0.03829200  0.45131800
   0.44798000  0.96743100  0.24771000
   0.95140200  0.96393900  0.74792300
   0.75399700  0.53348500  0.05336900
   0.24655400  0.53908500  0.55297700
   0.55713800  0.46257000  0.75098300
   0.05673700  0.46742800  0.25235800
   0.60738000  0.49836100  0.34475600

 position of ions in cartesian coordinates  (Angst):
   0.53341841  2.81467063  3.75108987
   0.43951756  2.77590348 12.07444162
   3.83966883  9.01334346  7.87504065
  -4.81291769  8.84299090  7.93929070
  -3.78930198  2.86078065  8.11345166
   4.84430818  2.89174745  8.24294071
  -0.53899124  8.84864468 12.23046366
  -0.56031850  8.87867309  4.14251584
  -8.43864581 11.70744299  8.05144486
  -0.01071437  0.01461539  8.02114096
  -4.23259959  0.01106125 12.05364137
   4.21181354 11.72371229 12.05340016
  -4.13107098  5.82959320 12.05709869
  -4.20406740  5.88355050  4.02181484
  -8.42482791  5.86946295  8.04938654
  -0.14968831  5.86543961  8.03278332
  -4.20440566  8.77242414 11.62350134
   4.25355477  8.78287543 11.48810267
   0.02144566  2.92581093 15.67816885
  -0.12774372  2.97468920  7.42172848
   0.01483268  8.78336808  0.53492123
   0.16725244  8.76684073  8.54031124
   4.13038601  2.95003306  4.61629058
  -4.33364618  2.95520592  4.45495390
  -5.91250650  5.47505858  9.67991134
   1.70037161  6.23297091 13.58892076
  -1.75524577  0.39728992 10.42584223
  -1.74281473  0.33489886  2.41170437
   6.01877920 11.44664157  6.39497400
  -2.52752617 11.28430049  6.43539260
  -5.91440075  0.36496246  9.62972378
   2.48964110  0.44915930  9.62457799
   1.69358105 11.34781761  5.59355700
   1.72071793 11.30685699 13.66308450
   5.92485298  6.25769743  6.49146566
  -2.59126273  6.32338457  6.42846990
  -1.63924811  5.42587533 10.51768658
  -1.65426683  5.48285892  2.48521684
   2.22087697  5.84569828  7.65546003



--------------------------------------------------------------------------------------------------------


 k-point  1 :   0.0000 0.0000 0.0000  plane waves:   18809
 k-point  2 :   0.5000 0.0000 0.0000  plane waves:   18808
 k-point  3 :   0.0000 0.5000 0.0000  plane waves:   18794
 k-point  4 :   0.5000 0.5000 0.0000  plane waves:   18804
 k-point  5 :   0.0000 0.0000 0.5000  plane waves:   18808
 k-point  6 :   0.5000 0.0000 0.5000  plane waves:   18790
 k-point  7 :   0.0000 0.5000 0.5000  plane waves:   18804
 k-point  8 :   0.5000 0.5000 0.5000  plane waves:   18800

 maximum and minimum number of plane-waves per node :      2389     2304

 maximum number of plane-waves:     18809
 maximum index in each direction: 
   IXMAX=   16   IYMAX=   16   IZMAX=   16
   IXMIN=  -16   IYMIN=  -17   IZMIN=  -16


 real space projection operators:
  total allocation   :      16737.09 KBytes
  max/ min on nodes  :       2188.32       1818.79


 parallel 3D FFT for wavefunctions:
    minimum data exchange during FFTs selected (reduces bandwidth)
 parallel 3D FFT for charge:
    minimum data exchange during FFTs selected (reduces bandwidth)


 total amount of memory used by VASP MPI-rank0    60641. kBytes
=======================================================================

   base      :      30000. kBytes
   nonlr-proj:       6476. kBytes
   fftplans  :       8423. kBytes
   grid      :       7465. kBytes
   one-center:         77. kBytes
   wavefun   :       8200. kBytes

     INWAV:  cpu time    0.0000: real time    0.0000
 Broyden mixing: mesh for mixing (old mesh)
   NGX = 33   NGY = 33   NGZ = 33
  (NGX  =140   NGY  =140   NGZ  =140)
  gives a total of  35937 points

 initial charge density was supplied:
 charge density of overlapping atoms calculated
 number of electron     345.0000000 magnetization 
 keeping initial charge density in first step


--------------------------------------------------------------------------------------------------------


 Maximum index for non-local projection operator          729
 Maximum index for augmentation-charges         3062 (set IRDMAX)


--------------------------------------------------------------------------------------------------------


 First call to EWALD:  gamma=   0.152
 Maximum number of real-space cells 3x 3x 3
 Maximum number of reciprocal cells 3x 3x 3

    FEWALD:  cpu time    0.0038: real time    0.0039


--------------------------------------- Iteration      1(   1)  ---------------------------------------


    POTLOK:  cpu time    0.2622: real time    0.2748
    SETDIJ:  cpu time    1.1997: real time    1.1998
     EDDAV:  cpu time   16.6410: real time   16.6462
       DOS:  cpu time    0.0008: real time    0.0008
    --------------------------------------------
      LOOP:  cpu time   18.1038: real time   18.1216

 eigenvalue-minimisations  :  3480
 total energy-change (2. order) : 0.1333889E+04  (-0.1105854E+05)
 number of electron     345.0000000 magnetization 
 augmentation part      345.0000000 magnetization 

 Free energy of the ion-electron system (eV)
  ---------------------------------------------------
  alpha Z        PSCENC =       872.70583573
  Ewald energy   TEWEN  =    -17905.91336583
  -Hartree energ DENC   =     -7447.82258215
  -exchange      EXHF   =         0.00000000
  -V(xc)+E(xc)   XCENC  =       908.50604006
  PAW double counting   =     21345.28103884   -22405.85761495
  entropy T*S    EENTRO =        -0.00126241
  eigenvalues    EBANDS =      -245.12817846
  atomic energy  EATOM  =     26212.11861568
  Solvation  Ediel_sol  =         0.00000000
  ---------------------------------------------------
  free energy    TOTEN  =      1333.88852651 eV

  energy without entropy =     1333.88978892  energy(sigma->0) =     1333.88915772


--------------------------------------------------------------------------------------------------------




--------------------------------------- Iteration      1(   2)  ---------------------------------------


     EDDAV:  cpu time   18.4459: real time   18.4769
       DOS:  cpu time    0.0004: real time    0.0004
    --------------------------------------------
      LOOP:  cpu time   18.4463: real time   18.4772

 eigenvalue-minimisations  :  4080
 total energy-change (2. order) :-0.2445895E+04  (-0.2363386E+04)
 number of electron     345.0000000 magnetization 
 augmentation part      345.0000000 magnetization 

 Free energy of the ion-electron system (eV)
  ---------------------------------------------------
  alpha Z        PSCENC =       872.70583573
  Ewald energy   TEWEN  =    -17905.91336583
  -Hartree energ DENC   =     -7447.82258215
  -exchange      EXHF   =         0.00000000
  -V(xc)+E(xc)   XCENC  =       908.50604006
  PAW double counting   =     21345.28103884   -22405.85761495
  entropy T*S    EENTRO =        -0.00000000
  eigenvalues    EBANDS =     -2691.02450275
  atomic energy  EATOM  =     26212.11861568
  Solvation  Ediel_sol  =         0.00000000
  ---------------------------------------------------
  free energy    TOTEN  =     -1112.00653538 eV

  energy without entropy =    -1112.00653538  energy(sigma->0) =    -1112.00653538


--------------------------------------------------------------------------------------------------------




--------------------------------------- Iteration      1(   3)  ---------------------------------------


     EDDAV:  cpu time   19.3989: real time   19.4724
       DOS:  cpu time    0.0004: real time    0.0004
    --------------------------------------------
      LOOP:  cpu time   19.3993: real time   19.4728

 eigenvalue-minimisations  :  4424
 total energy-change (2. order) :-0.3618108E+03  (-0.3598225E+03)
 number of electron     345.0000000 magnetization 
 augmentation part      345.0000000 magnetization 

 Free energy of the ion-electron system (eV)
  ---------------------------------------------------
  alpha Z        PSCENC =       872.70583573
  Ewald energy   TEWEN  =    -17905.91336583
  -Hartree energ DENC   =     -7447.82258215
  -exchange      EXHF   =         0.00000000
  -V(xc)+E(xc)   XCENC  =       908.50604006
  PAW double counting   =     21345.28103884   -22405.85761495
  entropy T*S    EENTRO =        -0.00000000
  eigenvalues    EBANDS =     -3052.83527954
  atomic energy  EATOM  =     26212.11861568
  Solvation  Ediel_sol  =         0.00000000
  ---------------------------------------------------
  free energy    TOTEN  =     -1473.81731217 eV

  energy without entropy =    -1473.81731217  energy(sigma->0) =    -1473.81731217


--------------------------------------------------------------------------------------------------------




--------------------------------------- Iteration      1(   4)  ---------------------------------------


     EDDAV:  cpu time   17.8470: real time   17.8936
       DOS:  cpu time    0.0006: real time    0.0006
    --------------------------------------------
      LOOP:  cpu time   17.8476: real time   17.8942

 eigenvalue-minimisations  :  3888
 total energy-change (2. order) :-0.1214786E+02  (-0.1210916E+02)
 number of electron     345.0000000 magnetization 
 augmentation part      345.0000000 magnetization 

 Free energy of the ion-electron system (eV)
  ---------------------------------------------------
  alpha Z        PSCENC =       872.70583573
  Ewald energy   TEWEN  =    -17905.91336583
  -Hartree energ DENC   =     -7447.82258215
  -exchange      EXHF   =         0.00000000
  -V(xc)+E(xc)   XCENC  =       908.50604006
  PAW double counting   =     21345.28103884   -22405.85761495
  entropy T*S    EENTRO =        -0.00000000
  eigenvalues    EBANDS =     -3064.98314339
  atomic energy  EATOM  =     26212.11861568
  Solvation  Ediel_sol  =         0.00000000
  ---------------------------------------------------
  free energy    TOTEN  =     -1485.96517602 eV

  energy without entropy =    -1485.96517602  energy(sigma->0) =    -1485.96517602


--------------------------------------------------------------------------------------------------------




--------------------------------------- Iteration      1(   5)  ---------------------------------------


     EDDAV:  cpu time   19.4626: real time   19.5102
       DOS:  cpu time    0.0004: real time    0.0004
    CHARGE:  cpu time    2.6957: real time    2.6958
    MIXING:  cpu time    0.0017: real time    0.0017
    --------------------------------------------
      LOOP:  cpu time   22.1603: real time   22.2081

 eigenvalue-minimisations  :  4448
 total energy-change (2. order) :-0.5781362E+00  (-0.5778428E+00)
 number of electron     344.0000002 magnetization 
 augmentation part       -5.0690842 magnetization 

 Broyden mixing:
  rms(total) = 0.10815E+01    rms(broyden)= 0.10809E+01
  rms(prec ) = 0.14470E+01
  weight for this iteration     100.00

 Free energy of the ion-electron system (eV)
  ---------------------------------------------------
  alpha Z        PSCENC =       872.70583573
  Ewald energy   TEWEN  =    -17905.91336583
  -Hartree energ DENC   =     -7447.82258215
  -exchange      EXHF   =         0.00000000
  -V(xc)+E(xc)   XCENC  =       908.50604006
  PAW double counting   =     21345.28103884   -22405.85761495
  entropy T*S    EENTRO =        -0.00000000
  eigenvalues    EBANDS =     -3065.56127958
  atomic energy  EATOM  =     26212.11861568
  Solvation  Ediel_sol  =         0.00000000
  ---------------------------------------------------
  free energy    TOTEN  =     -1486.54331221 eV

  energy without entropy =    -1486.54331221  energy(sigma->0) =    -1486.54331221


--------------------------------------------------------------------------------------------------------




--------------------------------------- Iteration      1(   6)  ---------------------------------------


    POTLOK:  cpu time    0.2551: real time    0.3115
    SETDIJ:  cpu time    1.1949: real time    1.1949
     EDDAV:  cpu time   19.0696: real time   19.0703
       DOS:  cpu time    0.0004: real time    0.0004
    CHARGE:  cpu time    2.6817: real time    2.6818
    MIXING:  cpu time    0.0016: real time    0.0016
    --------------------------------------------
      LOOP:  cpu time   23.2033: real time   23.2606

 eigenvalue-minimisations  :  4304
 total energy-change (2. order) : 0.7763756E+02  (-0.2356981E+01)
 number of electron     344.0000002 magnetization 
 augmentation part       -3.6819678 magnetization 

 Broyden mixing:
  rms(total) = 0.76067E+00    rms(broyden)= 0.76059E+00
  rms(prec ) = 0.93250E+00
  weight for this iteration     100.00

 eigenvalues of (default mixing * dielectric matrix)
  average eigenvalue GAMMA=   1.2890
  1.2890

 Free energy of the ion-electron system (eV)
  ---------------------------------------------------
  alpha Z        PSCENC =       872.70583573
  Ewald energy   TEWEN  =    -17905.91336583
  -Hartree energ DENC   =     -7429.58851438
  -exchange      EXHF   =         0.00000000
  -V(xc)+E(xc)   XCENC  =       936.50773251
  PAW double counting   =     21671.47586493   -22730.71326019
  entropy T*S    EENTRO =        -0.00000000
  eigenvalues    EBANDS =     -3035.49865750
  atomic energy  EATOM  =     26212.11861568
  Solvation  Ediel_sol  =         0.00000000
  ---------------------------------------------------
  free energy    TOTEN  =     -1408.90574905 eV

  energy without entropy =    -1408.90574905  energy(sigma->0) =    -1408.90574905


--------------------------------------------------------------------------------------------------------




--------------------------------------- Iteration      1(   7)  ---------------------------------------


    POTLOK:  cpu time    0.2985: real time    0.3144
    SETDIJ:  cpu time    1.1946: real time    1.1947
     EDDAV:  cpu time   18.5065: real time   18.5073
       DOS:  cpu time    0.0004: real time    0.0004
    CHARGE:  cpu time    2.6963: real time    2.6964
    MIXING:  cpu time    0.0017: real time    0.0017
    --------------------------------------------
      LOOP:  cpu time   22.6980: real time   22.7150

 eigenvalue-minimisations  :  4120
 total energy-change (2. order) : 0.5098882E+00  (-0.8712642E+00)
 number of electron     344.0000002 magnetization 
 augmentation part       -3.1173122 magnetization 

 Broyden mixing:
  rms(total) = 0.37725E+00    rms(broyden)= 0.37723E+00
  rms(prec ) = 0.41764E+00
  weight for this iteration     100.00

 eigenvalues of (default mixing * dielectric matrix)
  average eigenvalue GAMMA=   1.3237
  1.3237  1.3237

 Free energy of the ion-electron system (eV)
  ---------------------------------------------------
  alpha Z        PSCENC =       872.70583573
  Ewald energy   TEWEN  =    -17905.91336583
  -Hartree energ DENC   =     -7473.91494714
  -exchange      EXHF   =         0.00000000
  -V(xc)+E(xc)   XCENC  =       941.76198527
  PAW double counting   =     22339.75495144   -23397.45220068
  entropy T*S    EENTRO =        -0.00000000
  eigenvalues    EBANDS =     -2997.45673532
  atomic energy  EATOM  =     26212.11861568
  Solvation  Ediel_sol  =         0.00000000
  ---------------------------------------------------
  free energy    TOTEN  =     -1408.39586084 eV

  energy without entropy =    -1408.39586084  energy(sigma->0) =    -1408.39586084


--------------------------------------------------------------------------------------------------------




--------------------------------------- Iteration      1(   8)  ---------------------------------------


    POTLOK:  cpu time    0.3150: real time    0.3176
    SETDIJ:  cpu time    1.1946: real time    1.1946
     EDDAV:  cpu time   18.6053: real time   18.6063
       DOS:  cpu time    0.0005: real time    0.0005
    CHARGE:  cpu time    2.6876: real time    2.6878
    MIXING:  cpu time    0.0017: real time    0.0017
    --------------------------------------------
      LOOP:  cpu time   22.8046: real time   22.8085

 eigenvalue-minimisations  :  4152
 total energy-change (2. order) :-0.1704495E+00  (-0.4541508E-01)
 number of electron     344.0000002 magnetization 
 augmentation part       -3.2086842 magnetization 

 Broyden mixing:
  rms(total) = 0.21700E+00    rms(broyden)= 0.21700E+00
  rms(prec ) = 0.24486E+00
  weight for this iteration     100.00

 eigenvalues of (default mixing * dielectric matrix)
  average eigenvalue GAMMA=   1.6886
  1.1012  1.3510  2.6137

 Free energy of the ion-electron system (eV)
  ---------------------------------------------------
  alpha Z        PSCENC =       872.70583573
  Ewald energy   TEWEN  =    -17905.91336583
  -Hartree energ DENC   =     -7479.77310375
  -exchange      EXHF   =         0.00000000
  -V(xc)+E(xc)   XCENC  =       942.46314001
  PAW double counting   =     22588.06181006   -23646.25681314
  entropy T*S    EENTRO =        -0.00000000
  eigenvalues    EBANDS =     -2991.97242915
  atomic energy  EATOM  =     26212.11861568
  Solvation  Ediel_sol  =         0.00000000
  ---------------------------------------------------
  free energy    TOTEN  =     -1408.56631039 eV

  energy without entropy =    -1408.56631039  energy(sigma->0) =    -1408.56631039


--------------------------------------------------------------------------------------------------------




--------------------------------------- Iteration      1(   9)  ---------------------------------------


    POTLOK:  cpu time    0.2605: real time    0.2789
    SETDIJ:  cpu time    1.1907: real time    1.1907
     EDDAV:  cpu time   17.8146: real time   17.8156
       DOS:  cpu time    0.0006: real time    0.0006
    CHARGE:  cpu time    2.6891: real time    2.6893
    MIXING:  cpu time    0.0019: real time    0.0019
    --------------------------------------------
      LOOP:  cpu time   21.9574: real time   21.9769

 eigenvalue-minimisations  :  3880
 total energy-change (2. order) :-0.6283687E-01  (-0.1566317E-01)
 number of electron     344.0000002 magnetization 
 augmentation part       -3.2520094 magnetization 

 Broyden mixing:
  rms(total) = 0.43802E-01    rms(broyden)= 0.43798E-01
  rms(prec ) = 0.54261E-01
  weight for this iteration     100.00

 eigenvalues of (default mixing * dielectric matrix)
  average eigenvalue GAMMA=   1.4764
  2.5114  1.2656  1.2656  0.8629

 Free energy of the ion-electron system (eV)
  ---------------------------------------------------
  alpha Z        PSCENC =       872.70583573
  Ewald energy   TEWEN  =    -17905.91336583
  -Hartree energ DENC   =     -7486.44513015
  -exchange      EXHF   =         0.00000000
  -V(xc)+E(xc)   XCENC  =       944.24692055
  PAW double counting   =     22923.17017320   -23982.36663620
  entropy T*S    EENTRO =        -0.00000000
  eigenvalues    EBANDS =     -2986.14556024
  atomic energy  EATOM  =     26212.11861568
  Solvation  Ediel_sol  =         0.00000000
  ---------------------------------------------------
  free energy    TOTEN  =     -1408.62914726 eV

  energy without entropy =    -1408.62914726  energy(sigma->0) =    -1408.62914726


--------------------------------------------------------------------------------------------------------




--------------------------------------- Iteration      1(  10)  ---------------------------------------


    POTLOK:  cpu time    0.2890: real time    0.3152
    SETDIJ:  cpu time    1.1933: real time    1.1933
     EDDAV:  cpu time   20.1582: real time   20.1595
       DOS:  cpu time    0.0005: real time    0.0005
    CHARGE:  cpu time    2.6940: real time    2.6943
    MIXING:  cpu time    0.0017: real time    0.0017
    --------------------------------------------
      LOOP:  cpu time   24.3368: real time   24.3646

 eigenvalue-minimisations  :  4688
 total energy-change (2. order) :-0.3240491E-02  (-0.2110472E-02)
 number of electron     344.0000002 magnetization 
 augmentation part       -3.2379640 magnetization 

 Broyden mixing:
  rms(total) = 0.31575E-01    rms(broyden)= 0.31574E-01
  rms(prec ) = 0.40454E-01
  weight for this iteration     100.00

 eigenvalues of (default mixing * dielectric matrix)
  average eigenvalue GAMMA=   1.3338
  2.3955  1.3601  1.3601  0.8531  0.7004

 Free energy of the ion-electron system (eV)
  ---------------------------------------------------
  alpha Z        PSCENC =       872.70583573
  Ewald energy   TEWEN  =    -17905.91336583
  -Hartree energ DENC   =     -7484.86517846
  -exchange      EXHF   =         0.00000000
  -V(xc)+E(xc)   XCENC  =       944.13394974
  PAW double counting   =     22893.97654302   -23953.21397536
  entropy T*S    EENTRO =        -0.00000000
  eigenvalues    EBANDS =     -2987.57481227
  atomic energy  EATOM  =     26212.11861568
  Solvation  Ediel_sol  =         0.00000000
  ---------------------------------------------------
  free energy    TOTEN  =     -1408.63238775 eV

  energy without entropy =    -1408.63238775  energy(sigma->0) =    -1408.63238775


--------------------------------------------------------------------------------------------------------




--------------------------------------- Iteration      1(  11)  ---------------------------------------


    POTLOK:  cpu time    0.2930: real time    0.3160
    SETDIJ:  cpu time    1.1946: real time    1.1947
     EDDAV:  cpu time   18.2974: real time   18.2983
       DOS:  cpu time    0.0004: real time    0.0004
    CHARGE:  cpu time    2.6971: real time    2.6972
    MIXING:  cpu time    0.0016: real time    0.0016
    --------------------------------------------
      LOOP:  cpu time   22.4842: real time   22.5082

 eigenvalue-minimisations  :  4040
 total energy-change (2. order) :-0.2331509E-02  (-0.3111621E-03)
 number of electron     344.0000002 magnetization 
 augmentation part       -3.2364929 magnetization 

 Broyden mixing:
  rms(total) = 0.13401E-01    rms(broyden)= 0.13400E-01
  rms(prec ) = 0.21560E-01
  weight for this iteration     100.00

 eigenvalues of (default mixing * dielectric matrix)
  average eigenvalue GAMMA=   1.6152
  2.7830  2.7830  1.2143  1.2143  0.8483  0.8483

 Free energy of the ion-electron system (eV)
  ---------------------------------------------------
  alpha Z        PSCENC =       872.70583573
  Ewald energy   TEWEN  =    -17905.91336583
  -Hartree energ DENC   =     -7483.52526326
  -exchange      EXHF   =         0.00000000
  -V(xc)+E(xc)   XCENC  =       944.08205419
  PAW double counting   =     22875.31388516   -23934.71228819
  entropy T*S    EENTRO =        -0.00000000
  eigenvalues    EBANDS =     -2988.70419274
  atomic energy  EATOM  =     26212.11861568
  Solvation  Ediel_sol  =         0.00000000
  ---------------------------------------------------
  free energy    TOTEN  =     -1408.63471926 eV

  energy without entropy =    -1408.63471926  energy(sigma->0) =    -1408.63471926


--------------------------------------------------------------------------------------------------------




--------------------------------------- Iteration      1(  12)  ---------------------------------------


    POTLOK:  cpu time    0.2504: real time    0.3107
    SETDIJ:  cpu time    1.1923: real time    1.1923
     EDDAV:  cpu time   17.1712: real time   17.1720
       DOS:  cpu time    0.0004: real time    0.0004
    CHARGE:  cpu time    2.6953: real time    2.6954
    MIXING:  cpu time    0.0016: real time    0.0016
    --------------------------------------------
      LOOP:  cpu time   21.3112: real time   21.3724

 eigenvalue-minimisations  :  3664
 total energy-change (2. order) :-0.2332974E-02  (-0.4505937E-03)
 number of electron     344.0000002 magnetization 
 augmentation part       -3.2395739 magnetization 

 Broyden mixing:
  rms(total) = 0.10177E-01    rms(broyden)= 0.10176E-01
  rms(prec ) = 0.12895E-01
  weight for this iteration     100.00

 eigenvalues of (default mixing * dielectric matrix)
  average eigenvalue GAMMA=   1.6131
  3.0228  2.6489  1.3644  1.3644  0.9226  0.9843  0.9843

 Free energy of the ion-electron system (eV)
  ---------------------------------------------------
  alpha Z        PSCENC =       872.70583573
  Ewald energy   TEWEN  =    -17905.91336583
  -Hartree energ DENC   =     -7483.01457306
  -exchange      EXHF   =         0.00000000
  -V(xc)+E(xc)   XCENC  =       944.13530334
  PAW double counting   =     22869.69640647   -23929.32263059
  entropy T*S    EENTRO =        -0.00000000
  eigenvalues    EBANDS =     -2989.04264398
  atomic energy  EATOM  =     26212.11861568
  Solvation  Ediel_sol  =         0.00000000
  ---------------------------------------------------
  free energy    TOTEN  =     -1408.63705223 eV

  energy without entropy =    -1408.63705223  energy(sigma->0) =    -1408.63705223


--------------------------------------------------------------------------------------------------------




--------------------------------------- Iteration      1(  13)  ---------------------------------------


    POTLOK:  cpu time    0.2577: real time    0.3203
    SETDIJ:  cpu time    1.1944: real time    1.1945
     EDDAV:  cpu time   19.8744: real time   19.8751
       DOS:  cpu time    0.0004: real time    0.0004
    CHARGE:  cpu time    2.6967: real time    2.6969
    MIXING:  cpu time    0.0023: real time    0.0023
    --------------------------------------------
      LOOP:  cpu time   24.0260: real time   24.0896

 eigenvalue-minimisations  :  4592
 total energy-change (2. order) : 0.4540022E-03  (-0.1604337E-03)
 number of electron     344.0000002 magnetization 
 augmentation part       -3.2407635 magnetization 

 Broyden mixing:
  rms(total) = 0.44733E-02    rms(broyden)= 0.44725E-02
  rms(prec ) = 0.52761E-02
  weight for this iteration     100.00

 eigenvalues of (default mixing * dielectric matrix)
  average eigenvalue GAMMA=   1.5581
  3.2510  2.2978  1.9197  1.0422  1.0422  1.0777  1.0777  0.7567

 Free energy of the ion-electron system (eV)
  ---------------------------------------------------
  alpha Z        PSCENC =       872.70583573
  Ewald energy   TEWEN  =    -17905.91336583
  -Hartree energ DENC   =     -7484.11451352
  -exchange      EXHF   =         0.00000000
  -V(xc)+E(xc)   XCENC  =       944.20381303
  PAW double counting   =     22872.15396542   -23931.73778866
  entropy T*S    EENTRO =        -0.00000000
  eigenvalues    EBANDS =     -2988.05316008
  atomic energy  EATOM  =     26212.11861568
  Solvation  Ediel_sol  =         0.00000000
  ---------------------------------------------------
  free energy    TOTEN  =     -1408.63659823 eV

  energy without entropy =    -1408.63659823  energy(sigma->0) =    -1408.63659823


--------------------------------------------------------------------------------------------------------




--------------------------------------- Iteration      1(  14)  ---------------------------------------


    POTLOK:  cpu time    0.2647: real time    0.3194
    SETDIJ:  cpu time    1.1958: real time    1.1959
     EDDAV:  cpu time   17.8691: real time   17.8702
       DOS:  cpu time    0.0004: real time    0.0004
    CHARGE:  cpu time    2.6974: real time    2.6975
    MIXING:  cpu time    0.0017: real time    0.0017
    --------------------------------------------
      LOOP:  cpu time   22.0292: real time   22.0851

 eigenvalue-minimisations  :  3904
 total energy-change (2. order) : 0.1578638E-04  (-0.3930236E-04)
 number of electron     344.0000002 magnetization 
 augmentation part       -3.2401737 magnetization 

 Broyden mixing:
  rms(total) = 0.27890E-02    rms(broyden)= 0.27880E-02
  rms(prec ) = 0.35384E-02
  weight for this iteration     100.00

 eigenvalues of (default mixing * dielectric matrix)
  average eigenvalue GAMMA=   1.5699
  3.2999  2.3093  2.3093  1.1688  1.1688  0.8764  0.8764  1.0603  1.0603

 Free energy of the ion-electron system (eV)
  ---------------------------------------------------
  alpha Z        PSCENC =       872.70583573
  Ewald energy   TEWEN  =    -17905.91336583
  -Hartree energ DENC   =     -7484.34649767
  -exchange      EXHF   =         0.00000000
  -V(xc)+E(xc)   XCENC  =       944.21187906
  PAW double counting   =     22872.97921431   -23932.54354711
  entropy T*S    EENTRO =        -0.00000000
  eigenvalues    EBANDS =     -2987.84871662
  atomic energy  EATOM  =     26212.11861568
  Solvation  Ediel_sol  =         0.00000000
  ---------------------------------------------------
  free energy    TOTEN  =     -1408.63658244 eV

  energy without entropy =    -1408.63658244  energy(sigma->0) =    -1408.63658244


--------------------------------------------------------------------------------------------------------




--------------------------------------- Iteration      1(  15)  ---------------------------------------


    POTLOK:  cpu time    0.2569: real time    0.3191
    SETDIJ:  cpu time    1.1926: real time    1.1927
     EDDAV:  cpu time   17.2880: real time   17.2890
       DOS:  cpu time    0.0005: real time    0.0005
    CHARGE:  cpu time    2.6942: real time    2.6943
    MIXING:  cpu time    0.0018: real time    0.0018
    --------------------------------------------
      LOOP:  cpu time   21.4340: real time   21.4974

 eigenvalue-minimisations  :  3696
 total energy-change (2. order) : 0.7042192E-05  (-0.3578855E-05)
 number of electron     344.0000002 magnetization 
 augmentation part       -3.2400140 magnetization 

 Broyden mixing:
  rms(total) = 0.16238E-02    rms(broyden)= 0.16226E-02
  rms(prec ) = 0.21558E-02
  weight for this iteration     100.00

 eigenvalues of (default mixing * dielectric matrix)
  average eigenvalue GAMMA=   1.6422
  3.8051  2.4443  2.4443  1.5437  1.3147  1.0685  1.0685  0.8203  0.9566  0.9566

 Free energy of the ion-electron system (eV)
  ---------------------------------------------------
  alpha Z        PSCENC =       872.70583573
  Ewald energy   TEWEN  =    -17905.91336583
  -Hartree energ DENC   =     -7484.45527023
  -exchange      EXHF   =         0.00000000
  -V(xc)+E(xc)   XCENC  =       944.21473606
  PAW double counting   =     22873.24741438   -23932.80711760
  entropy T*S    EENTRO =        -0.00000000
  eigenvalues    EBANDS =     -2987.74742358
  atomic energy  EATOM  =     26212.11861568
  Solvation  Ediel_sol  =         0.00000000
  ---------------------------------------------------
  free energy    TOTEN  =     -1408.63657540 eV

  energy without entropy =    -1408.63657540  energy(sigma->0) =    -1408.63657540


--------------------------------------------------------------------------------------------------------




--------------------------------------- Iteration      1(  16)  ---------------------------------------


    POTLOK:  cpu time    0.3030: real time    0.3172
    SETDIJ:  cpu time    1.1958: real time    1.1958
     EDDAV:  cpu time   17.9664: real time   17.9672
       DOS:  cpu time    0.0006: real time    0.0006
    CHARGE:  cpu time    2.6840: real time    2.6841
    MIXING:  cpu time    0.0018: real time    0.0018
    --------------------------------------------
      LOOP:  cpu time   22.1515: real time   22.1667

 eigenvalue-minimisations  :  3920
 total energy-change (2. order) :-0.7554210E-04  (-0.3747510E-05)
 number of electron     344.0000002 magnetization 
 augmentation part       -3.2395899 magnetization 

 Broyden mixing:
  rms(total) = 0.68960E-03    rms(broyden)= 0.68677E-03
  rms(prec ) = 0.80936E-03
  weight for this iteration     100.00

 eigenvalues of (default mixing * dielectric matrix)
  average eigenvalue GAMMA=   1.6909
  4.2632  2.8621  2.3541  1.9244  1.0758  1.0758  1.1325  1.1325  0.9872  0.9872
  0.8050

 Free energy of the ion-electron system (eV)
  ---------------------------------------------------
  alpha Z        PSCENC =       872.70583573
  Ewald energy   TEWEN  =    -17905.91336583
  -Hartree energ DENC   =     -7484.40538565
  -exchange      EXHF   =         0.00000000
  -V(xc)+E(xc)   XCENC  =       944.20188492
  PAW double counting   =     22872.04405386   -23931.60164819
  entropy T*S    EENTRO =        -0.00000000
  eigenvalues    EBANDS =     -2987.78664145
  atomic energy  EATOM  =     26212.11861568
  Solvation  Ediel_sol  =         0.00000000
  ---------------------------------------------------
  free energy    TOTEN  =     -1408.63665094 eV

  energy without entropy =    -1408.63665094  energy(sigma->0) =    -1408.63665094


--------------------------------------------------------------------------------------------------------




--------------------------------------- Iteration      1(  17)  ---------------------------------------


    POTLOK:  cpu time    0.2845: real time    0.3138
    SETDIJ:  cpu time    1.1945: real time    1.1946
     EDDAV:  cpu time   17.5598: real time   17.5605
       DOS:  cpu time    0.0004: real time    0.0004
    CHARGE:  cpu time    2.6885: real time    2.6886
    MIXING:  cpu time    0.0020: real time    0.0020
    --------------------------------------------
      LOOP:  cpu time   21.7297: real time   21.7600

 eigenvalue-minimisations  :  3768
 total energy-change (2. order) : 0.7447156E-05  (-0.6035524E-06)
 number of electron     344.0000002 magnetization 
 augmentation part       -3.2395828 magnetization 

 Broyden mixing:
  rms(total) = 0.45353E-03    rms(broyden)= 0.44929E-03
  rms(prec ) = 0.50168E-03
  weight for this iteration     100.00

 eigenvalues of (default mixing * dielectric matrix)
  average eigenvalue GAMMA=   1.6322
  4.2948  2.9024  2.1741  2.1741  1.1656  1.1656  1.1552  1.1552  0.9535  0.9535
  0.7462  0.7462

 Free energy of the ion-electron system (eV)
  ---------------------------------------------------
  alpha Z        PSCENC =       872.70583573
  Ewald energy   TEWEN  =    -17905.91336583
  -Hartree energ DENC   =     -7484.41558569
  -exchange      EXHF   =         0.00000000
  -V(xc)+E(xc)   XCENC  =       944.20042474
  PAW double counting   =     22872.18658045   -23931.74118959
  entropy T*S    EENTRO =        -0.00000000
  eigenvalues    EBANDS =     -2987.77795898
  atomic energy  EATOM  =     26212.11861568
  Solvation  Ediel_sol  =         0.00000000
  ---------------------------------------------------
  free energy    TOTEN  =     -1408.63664350 eV

  energy without entropy =    -1408.63664350  energy(sigma->0) =    -1408.63664350


--------------------------------------------------------------------------------------------------------




--------------------------------------- Iteration      1(  18)  ---------------------------------------


    POTLOK:  cpu time    0.3102: real time    0.3157
    SETDIJ:  cpu time    1.1950: real time    1.1951
     EDDAV:  cpu time   14.7113: real time   14.7121
       DOS:  cpu time    0.0004: real time    0.0004
    CHARGE:  cpu time    2.6858: real time    2.6859
    MIXING:  cpu time    0.0021: real time    0.0021
    --------------------------------------------
      LOOP:  cpu time   18.9048: real time   18.9113

 eigenvalue-minimisations  :  2776
 total energy-change (2. order) : 0.1998078E-05  (-0.3755909E-06)
 number of electron     344.0000002 magnetization 
 augmentation part       -3.2396222 magnetization 

 Broyden mixing:
  rms(total) = 0.25989E-03    rms(broyden)= 0.25242E-03
  rms(prec ) = 0.28068E-03
  weight for this iteration     100.00

 eigenvalues of (default mixing * dielectric matrix)
  average eigenvalue GAMMA=   1.5634
  4.3768  2.9331  2.1838  2.1838  1.1679  1.1679  1.1544  1.1544  0.9563  0.9563
  0.7782  0.6553  0.6553

 Free energy of the ion-electron system (eV)
  ---------------------------------------------------
  alpha Z        PSCENC =       872.70583573
  Ewald energy   TEWEN  =    -17905.91336583
  -Hartree energ DENC   =     -7484.41221888
  -exchange      EXHF   =         0.00000000
  -V(xc)+E(xc)   XCENC  =       944.20013873
  PAW double counting   =     22872.22476194   -23931.78200339
  entropy T*S    EENTRO =        -0.00000000
  eigenvalues    EBANDS =     -2987.77840547
  atomic energy  EATOM  =     26212.11861568
  Solvation  Ediel_sol  =         0.00000000
  ---------------------------------------------------
  free energy    TOTEN  =     -1408.63664150 eV

  energy without entropy =    -1408.63664150  energy(sigma->0) =    -1408.63664150


--------------------------------------------------------------------------------------------------------




--------------------------------------- Iteration      1(  19)  ---------------------------------------


    POTLOK:  cpu time    0.2662: real time    0.3167
    SETDIJ:  cpu time    1.1938: real time    1.1939
     EDDAV:  cpu time   13.2622: real time   13.2628
       DOS:  cpu time    0.0004: real time    0.0004
    CHARGE:  cpu time    2.6875: real time    2.6877
    MIXING:  cpu time    0.0022: real time    0.0022
    --------------------------------------------
      LOOP:  cpu time   17.4124: real time   17.4637

 eigenvalue-minimisations  :  2264
 total energy-change (2. order) : 0.2561199E-05  (-0.2394253E-06)
 number of electron     344.0000002 magnetization 
 augmentation part       -3.2396277 magnetization 

 Broyden mixing:
  rms(total) = 0.16599E-03    rms(broyden)= 0.15406E-03
  rms(prec ) = 0.17916E-03
  weight for this iteration     100.00

 eigenvalues of (default mixing * dielectric matrix)
  average eigenvalue GAMMA=   1.5925
  4.6708  3.0256  2.2436  2.2436  1.3470  1.3470  1.1698  1.1698  0.9838  0.9838
  0.9599  0.9599  0.7910  0.3998

 Free energy of the ion-electron system (eV)
  ---------------------------------------------------
  alpha Z        PSCENC =       872.70583573
  Ewald energy   TEWEN  =    -17905.91336583
  -Hartree energ DENC   =     -7484.41441073
  -exchange      EXHF   =         0.00000000
  -V(xc)+E(xc)   XCENC  =       944.20010736
  PAW double counting   =     22872.23956903   -23931.79358018
  entropy T*S    EENTRO =        -0.00000000
  eigenvalues    EBANDS =     -2987.77940999
  atomic energy  EATOM  =     26212.11861568
  Solvation  Ediel_sol  =         0.00000000
  ---------------------------------------------------
  free energy    TOTEN  =     -1408.63663894 eV

  energy without entropy =    -1408.63663894  energy(sigma->0) =    -1408.63663894


--------------------------------------------------------------------------------------------------------




--------------------------------------- Iteration      1(  20)  ---------------------------------------


    POTLOK:  cpu time    0.3132: real time    0.3151
    SETDIJ:  cpu time    1.1945: real time    1.1945
     EDDAV:  cpu time   12.9793: real time   12.9800
       DOS:  cpu time    0.0005: real time    0.0005
    CHARGE:  cpu time    2.6847: real time    2.6849
    MIXING:  cpu time    0.0021: real time    0.0021
    --------------------------------------------
      LOOP:  cpu time   17.1743: real time   17.1771

 eigenvalue-minimisations  :  2168
 total energy-change (2. order) : 0.3169671E-05  (-0.3569109E-07)
 number of electron     344.0000002 magnetization 
 augmentation part       -3.2396586 magnetization 

 Broyden mixing:
  rms(total) = 0.12126E-03    rms(broyden)= 0.10435E-03
  rms(prec ) = 0.11542E-03
  weight for this iteration     100.00
  WARNING: grid for Broyden might be to small

 eigenvalues of (default mixing * dielectric matrix)
  average eigenvalue GAMMA=   1.5441
  4.6878  3.0232  2.3138  2.1455  1.3792  1.3792  1.0840  1.0840  1.1423  1.1423
  0.9749  0.9749  0.7781  0.5261  0.5261

 Free energy of the ion-electron system (eV)
  ---------------------------------------------------
  alpha Z        PSCENC =       872.70583573
  Ewald energy   TEWEN  =    -17905.91336583
  -Hartree energ DENC   =     -7484.41824589
  -exchange      EXHF   =         0.00000000
  -V(xc)+E(xc)   XCENC  =       944.20014491
  PAW double counting   =     22872.27780912   -23931.83231060
  entropy T*S    EENTRO =        -0.00000000
  eigenvalues    EBANDS =     -2987.77511890
  atomic energy  EATOM  =     26212.11861568
  Solvation  Ediel_sol  =         0.00000000
  ---------------------------------------------------
  free energy    TOTEN  =     -1408.63663577 eV

  energy without entropy =    -1408.63663577  energy(sigma->0) =    -1408.63663577


--------------------------------------------------------------------------------------------------------




--------------------------------------- Iteration      1(  21)  ---------------------------------------


    POTLOK:  cpu time    0.2554: real time    0.3080
    SETDIJ:  cpu time    1.1928: real time    1.1928
     EDDAV:  cpu time   12.7119: real time   12.7124
       DOS:  cpu time    0.0004: real time    0.0004
    CHARGE:  cpu time    2.6881: real time    2.6882
    MIXING:  cpu time    0.0022: real time    0.0022
    --------------------------------------------
      LOOP:  cpu time   16.8508: real time   16.9041

 eigenvalue-minimisations  :  2072
 total energy-change (2. order) : 0.1119724E-05  (-0.2644149E-07)
 number of electron     344.0000002 magnetization 
 augmentation part       -3.2396456 magnetization 

 Broyden mixing:
  rms(total) = 0.10084E-03    rms(broyden)= 0.79714E-04
  rms(prec ) = 0.87777E-04
  weight for this iteration     100.00
  WARNING: grid for Broyden might be to small

 eigenvalues of (default mixing * dielectric matrix)
  average eigenvalue GAMMA=   1.5194
  4.6720  3.0352  2.2893  2.0306  2.0306  1.1968  1.1968  1.1822  1.1822  1.0101
  0.9227  0.9227  0.7839  0.7839  0.6584  0.4138

 Free energy of the ion-electron system (eV)
  ---------------------------------------------------
  alpha Z        PSCENC =       872.70583573
  Ewald energy   TEWEN  =    -17905.91336583
  -Hartree energ DENC   =     -7484.42021477
  -exchange      EXHF   =         0.00000000
  -V(xc)+E(xc)   XCENC  =       944.20026855
  PAW double counting   =     22872.27728746   -23931.83071323
  entropy T*S    EENTRO =        -0.00000000
  eigenvalues    EBANDS =     -2987.77434824
  atomic energy  EATOM  =     26212.11861568
  Solvation  Ediel_sol  =         0.00000000
  ---------------------------------------------------
  free energy    TOTEN  =     -1408.63663465 eV

  energy without entropy =    -1408.63663465  energy(sigma->0) =    -1408.63663465


--------------------------------------------------------------------------------------------------------




--------------------------------------- Iteration      1(  22)  ---------------------------------------


    POTLOK:  cpu time    0.2830: real time    0.3228
    SETDIJ:  cpu time    1.1952: real time    1.1952
     EDDAV:  cpu time   12.4371: real time   12.4377
       DOS:  cpu time    0.0004: real time    0.0004
    --------------------------------------------
      LOOP:  cpu time   13.9156: real time   13.9561

 eigenvalue-minimisations  :  1976
 total energy-change (2. order) : 0.2790775E-06  (-0.6946927E-08)
 number of electron     344.0000002 magnetization 
 augmentation part       -3.2396456 magnetization 

 Free energy of the ion-electron system (eV)
  ---------------------------------------------------
  alpha Z        PSCENC =       872.70583573
  Ewald energy   TEWEN  =    -17905.91336583
  -Hartree energ DENC   =     -7484.42134688
  -exchange      EXHF   =         0.00000000
  -V(xc)+E(xc)   XCENC  =       944.20035254
  PAW double counting   =     22872.28086552   -23931.83424368
  entropy T*S    EENTRO =        -0.00000000
  eigenvalues    EBANDS =     -2987.77334744
  atomic energy  EATOM  =     26212.11861568
  Solvation  Ediel_sol  =         0.00000000
  ---------------------------------------------------
  free energy    TOTEN  =     -1408.63663437 eV

  energy without entropy =    -1408.63663437  energy(sigma->0) =    -1408.63663437


--------------------------------------------------------------------------------------------------------




 average (electrostatic) potential at core
  the test charge radii are     1.1312  1.1541  1.0178
  (the norm of the test charge is              1.0000)
       1 -55.2494       2 -55.2888       3 -55.1546       4 -55.1771       5 -55.2032
       6 -55.3029       7 -55.1937       8 -55.3990       9-101.6009      10-101.5494
      11-101.6140      12-101.6245      13-101.9391      14-101.9362      15-101.6980
      16-101.4744      17 -69.0641      18 -69.0688      19 -69.0347      20 -68.8608
      21 -69.0360      22 -68.8486      23 -69.0651      24 -69.0905      25 -69.0593
      26 -69.0423      27 -68.9168      28 -68.9998      29 -68.9912      30 -68.9019
      31 -68.9917      32 -68.9135      33 -68.9233      34 -68.9826      35 -69.0145
      36 -69.2903      37 -69.2781      38 -69.0759      39 -69.5475



 E-fermi :   0.4980     XC(G=0):  -7.9528     alpha+bet : -6.9586


 k-point     1 :       0.0000    0.0000    0.0000
  band No.  band energies     occupation 
      1     -20.9234      2.00000
      2     -20.8285      2.00000
      3     -20.8195      2.00000
      4     -20.7809      2.00000
      5     -20.7299      2.00000
      6     -20.7216      2.00000
      7     -20.7074      2.00000
      8     -20.6963      2.00000
      9     -16.8454      2.00000
     10     -16.6990      2.00000
     11     -16.6939      2.00000
     12     -16.6835      2.00000
     13     -16.6798      2.00000
     14     -16.6068      2.00000
     15     -16.6025      2.00000
     16     -16.5980      2.00000
     17     -16.5927      2.00000
     18     -16.5616      2.00000
     19     -16.5548      2.00000
     20     -16.4859      2.00000
     21     -16.4569      2.00000
     22     -16.4302      2.00000
     23     -16.4143      2.00000
     24     -16.4042      2.00000
     25     -16.3964      2.00000
     26     -16.3665      2.00000
     27     -16.3626      2.00000
     28     -16.3540      2.00000
     29     -16.3537      2.00000
     30     -16.3474      2.00000
     31     -16.3441      2.00000
     32     -16.3045      2.00000
     33     -16.3033      2.00000
     34     -16.2905      2.00000
     35     -16.2876      2.00000
     36     -16.2840      2.00000
     37     -16.2808      2.00000
     38     -16.2752      2.00000
     39     -16.2749      2.00000
     40     -16.2687      2.00000
     41     -16.2665      2.00000
     42     -16.2644      2.00000
     43     -16.2584      2.00000
     44     -16.2330      2.00000
     45     -16.2100      2.00000
     46     -16.2058      2.00000
     47     -16.1993      2.00000
     48     -16.1368      2.00000
     49     -14.5629      2.00000
     50     -14.3882      2.00000
     51     -14.2830      2.00000
     52     -14.2631      2.00000
     53     -14.1466      2.00000
     54     -14.1213      2.00000
     55     -14.1008      2.00000
     56     -14.0970      2.00000
     57     -14.0894      2.00000
     58     -14.0683      2.00000
     59     -14.0525      2.00000
     60     -14.0441      2.00000
     61     -14.0318      2.00000
     62     -14.0278      2.00000
     63     -13.9531      2.00000
     64     -13.9318      2.00000
     65     -13.9277      2.00000
     66     -13.8971      2.00000
     67     -13.8918      2.00000
     68     -13.7854      2.00000
     69     -13.7753      2.00000
     70     -13.6968      2.00000
     71     -13.6498      2.00000
     72      -8.2022      2.00000
     73      -7.8068      2.00000
     74      -7.7541      2.00000
     75      -7.6684      2.00000
     76      -7.3788      2.00000
     77      -7.3457      2.00000
     78      -7.3112      2.00000
     79      -7.2947      2.00000
     80      -7.2631      2.00000
     81      -7.2494      2.00000
     82      -7.2300      2.00000
     83      -7.2218      2.00000
     84      -7.2163      2.00000
     85      -7.2084      2.00000
     86      -7.2041      2.00000
     87      -7.1818      2.00000
     88      -7.1761      2.00000
     89      -7.1608      2.00000
     90      -7.1522      2.00000
     91      -7.1387      2.00000
     92      -7.1314      2.00000
     93      -7.1284      2.00000
     94      -7.1266      2.00000
     95      -7.1178      2.00000
     96      -7.1147      2.00000
[...]


--------------------------------------------------------------------------------------------------------


 soft charge-density along one line, spin component           1
         0         1         2         3         4         5         6         7         8         9
 total charge-density along one line

 pseudopotential strength for first ion, spin component:           1
 17.958  -4.701   0.004   0.001  -0.000  -0.005  -0.001   0.000
 -4.701   1.239  -0.001  -0.000   0.000   0.001   0.000  -0.000
  0.004  -0.001   2.259   0.001   0.000  -2.701  -0.001  -0.001
  0.001  -0.000   0.001   2.259  -0.001  -0.001  -2.700   0.001
 -0.000   0.000   0.000  -0.001   2.258  -0.001   0.001  -2.700
 -0.005   0.001  -2.701  -0.001  -0.001   3.197   0.001   0.001
 -0.001   0.000  -0.001  -2.700   0.001   0.001   3.196  -0.001
  0.000  -0.000  -0.001   0.001  -2.700   0.001  -0.001   3.195
  0.000  -0.000   0.001   0.000   0.002  -0.001  -0.000  -0.003
  0.001  -0.000   0.002   0.002   0.000  -0.002  -0.003  -0.000
 -0.000   0.000  -0.001  -0.001   0.000   0.001   0.002  -0.000
 -0.001   0.000   0.000  -0.000   0.001  -0.000   0.000  -0.002
 -0.001   0.000  -0.002  -0.000  -0.001   0.003   0.000   0.002
 total augmentation occupancy for first ion, spin component:           1
  1.912  -0.137   0.001   0.000  -0.000   0.002   0.000  -0.000   0.001   0.001  -0.000  -0.001  -0.001
 -0.137   0.119   0.012   0.002   0.000  -0.004  -0.001   0.001  -0.001  -0.001  -0.001   0.004   0.001
  0.001   0.012   2.020   0.003   0.001   0.006   0.002   0.001   0.003   0.004  -0.002   0.001  -0.005
  0.000   0.002   0.003   2.017  -0.002   0.002   0.004  -0.001   0.001   0.004  -0.004   0.000  -0.001
 -0.000   0.000   0.001  -0.002   2.017   0.001  -0.001   0.004   0.003   0.001  -0.000   0.002  -0.003
  0.002  -0.004   0.006   0.002   0.001   0.008  -0.000  -0.000  -0.002  -0.003   0.000  -0.000   0.001
  0.000  -0.001   0.002   0.004  -0.001  -0.000   0.008   0.001  -0.000  -0.001   0.002  -0.000   0.001
 -0.000   0.001   0.001  -0.001   0.004  -0.000   0.001   0.009  -0.001  -0.000  -0.001  -0.001   0.002
  0.001  -0.001   0.003   0.001   0.003  -0.002  -0.000  -0.001   0.007   0.002  -0.000   0.000   0.001
  0.001  -0.001   0.004   0.004   0.001  -0.003  -0.001  -0.000   0.002   0.005   0.000  -0.000   0.001
 -0.000  -0.001  -0.002  -0.004  -0.000   0.000   0.002  -0.001  -0.000   0.000   0.005  -0.002  -0.001
 -0.001   0.004   0.001   0.000   0.002  -0.000  -0.000  -0.001   0.000  -0.000  -0.002   0.004   0.001
 -0.001   0.001  -0.005  -0.001  -0.003   0.001   0.001   0.002   0.001   0.001  -0.001   0.001   0.004


------------------------ aborting loop because EDIFF is reached ----------------------------------------





 total charge     

# of ion       s       p       d       tot
------------------------------------------
    1        1.786   4.717   0.018   6.521
    2        1.786   4.717   0.018   6.521
    3        1.787   4.718   0.020   6.525
    4        1.786   4.717   0.018   6.520
    5        1.785   4.716   0.017   6.519
    6        1.785   4.716   0.017   6.519
    7        1.785   4.716   0.018   6.519
    8        1.785   4.716   0.017   6.518
    9        1.554   0.422   9.835  11.811
   10        1.554   0.410   9.832  11.796
   11        1.554   0.417   9.834  11.805
   12        1.554   0.415   9.833  11.803
   13        1.537   0.427   9.830  11.793
   14        1.530   0.437   9.829  11.797
   15        1.554   0.412   9.833  11.798
   16        1.531   0.584   9.856  11.972
   17        1.614   3.281   0.006   4.901
   18        1.615   3.282   0.006   4.904
   19        1.614   3.286   0.007   4.907
   20        1.615   3.282   0.006   4.903
   21        1.615   3.285   0.007   4.906
   22        1.614   3.282   0.006   4.903
   23        1.615   3.281   0.006   4.902
   24        1.614   3.282   0.006   4.903
   25        1.614   3.278   0.006   4.898
   26        1.614   3.275   0.006   4.895
   27        1.614   3.282   0.006   4.902
   28        1.614   3.284   0.006   4.905
   29        1.614   3.286   0.007   4.906
   30        1.614   3.280   0.006   4.900
   31        1.614   3.285   0.006   4.906
   32        1.614   3.281   0.006   4.901
   33        1.614   3.282   0.006   4.902
   34        1.614   3.284   0.006   4.904
   35        1.614   3.277   0.006   4.897
   36        1.619   3.263   0.008   4.890
   37        1.618   3.267   0.008   4.893
   38        1.614   3.279   0.006   4.899
   39        1.624   3.328   0.021   4.973
--------------------------------------------------
tot         63.797 116.750  78.989 259.536

    CHARGE:  cpu time    0.3945: real time    0.3946
    FORLOC:  cpu time    0.0111: real time    0.0111
    FORNL :  cpu time    1.9081: real time    1.9081
    STRESS:  cpu time   49.5961: real time   49.5986
    FORCOR:  cpu time    0.2413: real time    0.2414
    FORHAR:  cpu time    0.0274: real time    0.0274
    MIXING:  cpu time    0.0022: real time    0.0022
    OFIELD:  cpu time    0.0000: real time    0.0000

  FORCE on cell =-STRESS in cart. coord.  units (eV):
  Direction    XX          YY          ZZ          XY          YZ          ZX
  --------------------------------------------------------------------------------------
  Alpha Z   872.70584   872.70584   872.70584
  Ewald   -5878.63816 -5640.93693 -6386.41700    24.25408     3.11998   -94.11189
  Hartree  2534.19209  2710.30488  2239.92394    15.77546     1.82689   -59.98458
  E(xc)   -1449.59770 -1449.65250 -1450.06983     0.06027    -0.01600    -0.05300
  Local   -3045.51987 -3463.77850 -2247.07871   -40.65491    -5.20270   153.21213
  n-local  1757.10496  1751.41156  1746.22060     0.12563     0.13106    -1.26579
  augment   817.40451   818.09001   816.42269     0.04716     0.06349    -0.03231
  Kinetic  4395.72925  4398.75388  4402.30635     0.77120    -0.15563     0.78032
  Fock        0.00000     0.00000     0.00000     0.00000     0.00000     0.00000
  -------------------------------------------------------------------------------------
  Total       3.38092    -3.10174    -5.98613     0.37890    -0.23291    -1.45512
  in kB       3.39594    -3.11553    -6.01273     0.38058    -0.23395    -1.46159
  external pressure =       -1.91 kB  Pullay stress =        0.00 kB


 VOLUME and BASIS-vectors are now :
 -----------------------------------------------------------------------------
  energy-cutoff  :      300.00
  volume of cell :     1595.09
      direct lattice vectors                 reciprocal lattice vectors
     8.456489000  0.000000000  8.040301000     0.059126193 -0.000000000  0.062186727
     0.000000000 11.729847000  0.000000000     0.000000000  0.085252604 -0.000000000
    -8.456489000  0.000000000  8.040301000    -0.059126193  0.000000000  0.062186727

  length of vectors
    11.668703715 11.729847000 11.668703715     0.085808482  0.085252604  0.085808482


 FORCES acting on ions
    electron-ion (+dipol)            ewald-force                    non-local-force                 convergence-correction
 -----------------------------------------------------------------------------------------------
   0.209E+02 -.468E+02 -.389E+02   -.209E+02 0.464E+02 0.389E+02   -.118E-01 0.350E+00 0.617E-01   -.512E-04 0.453E-04 0.245E-03
   0.716E+01 -.402E+02 0.242E+02   -.722E+01 0.399E+02 -.239E+02   0.198E-01 0.316E+00 -.279E+00   -.110E-03 -.531E-04 -.148E-03
   -.446E+01 0.352E+02 -.863E+01   0.438E+01 -.350E+02 0.876E+01   0.127E+00 -.683E-01 -.117E+00   -.200E-03 0.659E-04 -.180E-04
   -.356E+02 0.197E+02 -.126E+02   0.355E+02 -.196E+02 0.127E+02   0.977E-01 -.151E+00 -.521E-01   0.235E-03 -.615E-04 -.551E-04
   0.144E+02 -.198E+02 0.958E+01   -.142E+02 0.196E+02 -.964E+01   -.807E-01 0.196E+00 0.640E-01   0.262E-03 0.497E-04 0.257E-04
   0.564E+02 -.342E+02 -.545E+01   -.562E+02 0.339E+02 0.512E+01   -.279E+00 0.342E+00 0.304E+00   -.786E-04 -.937E-04 -.714E-04
   -.315E+02 0.221E+02 0.266E+02   0.314E+02 -.220E+02 -.267E+02   0.290E-01 -.116E+00 0.264E-01   -.146E-04 -.331E-04 -.202E-03
   -.560E+02 0.489E+02 -.120E+02   0.555E+02 -.483E+02 0.117E+02   0.443E+00 -.560E+00 0.316E+00   0.398E-04 0.589E-04 0.461E-03
   -.787E-01 0.599E+01 -.357E+01   0.270E+00 -.594E+01 0.380E+01   -.210E+00 -.437E-01 -.262E+00   -.107E-04 -.769E-05 0.362E-04
   -.833E+01 -.262E+01 -.291E+01   0.822E+01 0.262E+01 0.305E+01   0.112E+00 -.349E-01 -.979E-01   -.412E-04 -.598E-04 -.113E-03
   0.545E+01 0.664E+01 -.550E+01   -.540E+01 -.674E+01 0.591E+01   -.239E-01 0.112E+00 -.408E+00   -.487E-04 -.468E-05 0.162E-04
   0.455E+01 -.703E+01 0.374E+01   -.461E+01 0.714E+01 -.369E+01   0.898E-01 -.127E+00 -.175E-01   0.826E-04 -.977E-04 0.372E-04
   0.851E+02 -.181E+02 -.361E+02   -.888E+02 0.189E+02 0.383E+02   0.403E+01 -.857E+00 -.229E+01   0.754E-03 -.117E-03 -.516E-03
   0.574E+02 0.205E+02 0.915E+02   -.601E+02 -.213E+02 -.959E+02   0.297E+01 0.875E+00 0.479E+01   0.569E-03 0.221E-03 0.842E-03
   -.130E+00 -.353E+01 -.582E+01   0.253E+00 0.342E+01 0.558E+01   -.187E+00 0.110E+00 0.195E+00   0.174E-04 0.160E-04 0.216E-04
   0.105E+02 -.250E+01 0.712E+01   -.221E+02 0.292E+01 -.608E+01   0.801E+01 -.356E+00 -.506E+00   -.380E-03 0.378E-04 -.793E-04
   0.275E+02 0.200E+02 0.210E+02   -.277E+02 -.200E+02 -.212E+02   0.947E-01 -.300E-01 0.234E+00   0.372E-04 -.407E-04 0.163E-04
   0.215E+02 0.229E+02 0.440E+02   -.216E+02 -.229E+02 -.443E+02   0.101E+00 -.571E-01 0.258E+00   -.319E-04 -.161E-04 0.521E-04
   -.109E+02 -.144E+02 0.298E+02   0.111E+02 0.144E+02 -.300E+02   -.124E+00 0.630E-02 0.186E+00   0.132E-04 0.447E-04 0.415E-04
   -.193E+02 -.967E+01 0.373E+02   0.194E+02 0.962E+01 -.376E+02   -.191E+00 -.194E+00 0.228E+00   -.218E-04 0.757E-04 -.255E-04
   0.116E+02 0.139E+02 -.405E+02   -.118E+02 -.139E+02 0.408E+02   0.125E+00 -.193E-01 -.259E+00   -.391E-05 -.499E-04 -.110E-04
   -.782E+01 0.992E+01 -.307E+02   0.794E+01 -.985E+01 0.309E+02   -.172E+00 0.227E+00 -.172E+00   -.744E-04 -.591E-04 -.927E-04
   0.906E+01 -.170E+02 -.428E+02   -.906E+01 0.169E+02 0.432E+02   -.122E-01 0.695E-01 -.348E+00   -.611E-04 0.348E-04 -.493E-04
   -.762E+00 -.200E+02 -.124E+02   0.799E+00 0.200E+02 0.126E+02   -.384E-01 0.442E-01 -.211E+00   0.131E-03 0.285E-04 0.699E-04
   -.139E+02 0.616E+01 0.339E+00   0.140E+02 -.634E+01 -.581E+00   -.161E+00 0.184E+00 0.242E+00   0.693E-04 0.133E-04 0.588E-04
   0.201E+02 -.969E+01 0.500E+02   -.203E+02 0.986E+01 -.502E+02   0.224E+00 -.170E+00 0.209E+00   0.392E-04 0.298E-04 -.321E-04
   -.243E+02 -.186E+02 -.157E+02   0.245E+02 0.188E+02 0.158E+02   -.199E+00 -.147E+00 -.151E+00   0.314E-04 -.107E-04 -.140E-03
   -.141E+02 -.188E+02 -.285E+02   0.143E+02 0.189E+02 0.287E+02   -.166E+00 -.138E+00 -.195E+00   -.731E-05 -.562E-05 0.112E-03
   0.251E+02 0.129E+02 -.156E+02   -.253E+02 -.129E+02 0.157E+02   0.187E+00 0.107E+00 -.143E+00   -.633E-04 -.304E-04 -.593E-04
   0.125E+02 0.230E+02 -.266E+02   -.127E+02 -.232E+02 0.269E+02   0.163E+00 0.201E+00 -.276E+00   0.169E-03 -.385E-04 0.314E-04
   -.225E+02 -.147E+02 0.213E+02   0.227E+02 0.148E+02 -.216E+02   -.195E+00 -.175E+00 0.281E+00   0.537E-04 0.186E-04 0.825E-04
   -.129E+02 -.337E+02 0.259E+02   0.131E+02 0.339E+02 -.261E+02   -.150E+00 -.165E+00 0.234E+00   -.126E-03 -.537E-04 -.756E-04
   0.203E+02 0.270E+02 0.200E+02   -.205E+02 -.272E+02 -.202E+02   0.187E+00 0.136E+00 0.195E+00   -.946E-04 -.376E-04 0.106E-03
   0.147E+02 0.230E+02 0.322E+02   -.149E+02 -.232E+02 -.324E+02   0.179E+00 0.206E+00 0.225E+00   0.431E-04 -.439E-04 -.699E-04
   0.336E+02 -.165E+02 -.293E+02   -.339E+02 0.167E+02 0.297E+02   0.308E+00 -.205E+00 -.320E+00   -.146E-04 0.111E-04 -.837E-04
   0.360E+01 -.195E+02 -.234E+02   -.359E+01 0.196E+02 0.239E+02   -.613E+00 -.108E+00 -.119E+01   0.175E-03 -.238E-04 0.353E-04
   -.415E+02 0.202E+02 -.280E+02   0.418E+02 -.204E+02 0.281E+02   -.707E+00 0.159E+00 0.635E+00   -.194E-04 0.711E-04 -.157E-03
   -.156E+02 0.126E+02 -.381E+02   0.159E+02 -.128E+02 0.383E+02   -.212E+00 0.183E+00 -.194E+00   0.683E-04 0.293E-04 0.174E-03
   -.157E+03 0.167E+02 0.178E+02   0.160E+03 -.168E+02 -.183E+02   0.128E+01 -.951E-01 -.180E+00   -.303E-03 0.254E-04 -.624E-04
 -----------------------------------------------------------------------------------------------
   -.151E+02 -.385E-02 -.916E+00   0.284E-13 -.746E-13 0.355E-14   0.150E+02 0.700E-02 0.102E+01   0.103E-02 -.611E-04 0.402E-03


 POSITION                                       TOTAL-FORCE (eV/Angst)
 -----------------------------------------------------------------------------------
      0.53342      2.81467      3.75109        -0.004624     -0.048070      0.003341
      0.43952      2.77590     12.07444        -0.032255     -0.037696      0.009619
      3.83967      9.01334      7.87504         0.023191      0.147418      0.009515
     -4.81292      8.84299      7.93929         0.017078     -0.000103     -0.015955
     -3.78930      2.86078      8.11345         0.048526      0.015139     -0.012956
      4.84431      2.89175      8.24294        -0.033157      0.017979     -0.010973
     -0.53899      8.84864     12.23046        -0.009105      0.007517     -0.032880
     -0.56032      8.87867      4.14252        -0.035982      0.021956      0.024665
     -8.43865     11.70744      8.05144        -0.006319      0.001844     -0.024988
     -0.01071      0.01462      8.02114        -0.000715     -0.025996      0.015959
     -4.23260      0.01106     12.05364         0.016971      0.008468     -0.007409
      4.21181     11.72371     12.05340         0.014116     -0.021683      0.023336
     -4.13107      5.82959     12.05710         0.379721     -0.073201     -0.082156
     -4.20407      5.88355      4.02181         0.196389      0.111525      0.383708
     -8.42483      5.86946      8.04939        -0.052106      0.003538     -0.047961
     -0.14969      5.86544      8.03278        -3.605581      0.058514      0.548800
     -4.20441      8.77242     11.62350        -0.023711     -0.034030      0.012513
      4.25355      8.78288     11.48810         0.002642     -0.029367     -0.016262
      0.02145      2.92581     15.67817        -0.002523      0.009035      0.004144
     -0.12774      2.97469      7.42173        -0.064847     -0.244876     -0.034683
      0.01483      8.78337      0.53492        -0.003087     -0.008996      0.007555
      0.16725      8.76684      8.54031        -0.059021      0.279406      0.040255
      4.13039      2.95003      4.61629        -0.012108      0.021307      0.002660
     -4.33365      2.95521      4.45495        -0.012040      0.023096     -0.013802
     -5.91251      5.47506      9.67991        -0.004781      0.005297      0.032952
      1.70037      6.23297     13.58892         0.002107     -0.011718     -0.015564
     -1.75525      0.39729     10.42584        -0.016090      0.011341      0.023692
     -1.74281      0.33490      2.41170         0.008347      0.003975     -0.003274
      6.01878     11.44664      6.39497         0.009380      0.018386     -0.009332
     -2.52753     11.28430      6.43539        -0.021498      0.002462     -0.028235
     -5.91440      0.36496      9.62972        -0.012512     -0.010511     -0.005289
      2.48964      0.44916      9.62458         0.030649      0.026736      0.036355
      1.69358     11.34782      5.59356         0.015967     -0.024592     -0.034927
      1.72072     11.30686     13.66308        -0.002277      0.001031     -0.001653
      5.92485      6.25770      6.49147         0.065434      0.001644      0.002964
     -2.59126      6.32338      6.42847        -0.618761     -0.007230     -0.777158
     -1.63925      5.42588     10.51769        -0.521098     -0.012258      0.681643
     -1.65427      5.48286      2.48522        -0.006519      0.004656      0.019434
      2.22088      5.84570      7.65546         4.330204     -0.211940     -0.707653
 -----------------------------------------------------------------------------------
    total drift:                               -0.007105      0.003095      0.105365


--------------------------------------------------------------------------------------------------------



  FREE ENERGIE OF THE ION-ELECTRON SYSTEM (eV)
  ---------------------------------------------------
  free  energy   TOTEN  =     -1408.63663437 eV

  energy  without entropy=    -1408.63663437  energy(sigma->0) =    -1408.63663437



--------------------------------------------------------------------------------------------------------


    POTLOK:  cpu time    1.4271: real time    1.4272


--------------------------------------------------------------------------------------------------------


 stress matrix after NEB project (eV)
      3.38092      0.37889     -1.45512
      0.37890     -3.10174     -0.23303
     -1.45511     -0.23291     -5.98613
  FORCES: max atom, RMS     4.392762    0.945850
  FORCE total and by dimension    5.906828    4.330204
  Stress total and by dimension    7.843180    5.986126
     LOOP+:  cpu time  505.2984: real time  506.1523
    4ORBIT:  cpu time    0.0000: real time    0.0000



 total charge     

# of ion       s       p       d       tot
------------------------------------------
    1        1.786   4.717   0.018   6.521
    2        1.786   4.717   0.018   6.521
    3        1.787   4.718   0.020   6.525
    4        1.786   4.717   0.018   6.520
    5        1.785   4.716   0.017   6.519
    6        1.785   4.716   0.017   6.519
    7        1.785   4.716   0.018   6.519
    8        1.785   4.716   0.017   6.518
    9        1.554   0.422   9.835  11.811
   10        1.554   0.410   9.832  11.796
   11        1.554   0.417   9.834  11.805
   12        1.554   0.415   9.833  11.803
   13        1.537   0.427   9.830  11.793
   14        1.530   0.437   9.829  11.797
   15        1.554   0.412   9.833  11.798
   16        1.531   0.584   9.856  11.972
   17        1.614   3.281   0.006   4.901
   18        1.615   3.282   0.006   4.904
   19        1.614   3.286   0.007   4.907
   20        1.615   3.282   0.006   4.903
   21        1.615   3.285   0.007   4.906
   22        1.614   3.282   0.006   4.903
   23        1.615   3.281   0.006   4.902
   24        1.614   3.282   0.006   4.903
   25        1.614   3.278   0.006   4.898
   26        1.614   3.275   0.006   4.895
   27        1.614   3.282   0.006   4.902
   28        1.614   3.284   0.006   4.905
   29        1.614   3.286   0.007   4.906
   30        1.614   3.280   0.006   4.900
   31        1.614   3.285   0.006   4.906
   32        1.614   3.281   0.006   4.901
   33        1.614   3.282   0.006   4.902
   34        1.614   3.284   0.006   4.904
   35        1.614   3.277   0.006   4.897
   36        1.619   3.263   0.008   4.890
   37        1.618   3.267   0.008   4.893
   38        1.614   3.279   0.006   4.899
   39        1.624   3.328   0.021   4.973
--------------------------------------------------
tot         63.797 116.750  78.989 259.536


 total amount of memory used by VASP MPI-rank0    60641. kBytes
=======================================================================

   base      :      30000. kBytes
   nonlr-proj:       6476. kBytes
   fftplans  :       8423. kBytes
   grid      :       7465. kBytes
   one-center:         77. kBytes
   wavefun   :       8200. kBytes

  
  
 General timing and accounting informations for this job:
 ========================================================
  
                  Total CPU time used (sec):      517.714
                            User time (sec):      515.986
                          System time (sec):        1.728
                         Elapsed time (sec):      519.207
  
                   Maximum memory used (kb):       78484.
                   Average memory used (kb):           0.
  
                          Minor page faults:        21069
                          Major page faults:            1
                 Voluntary context switches:         2251
