CsPbBr3 cubic bulk                      
           1
     8.456489    0.000000    8.040301
     0.000000   11.729847    0.000000
    -8.456489    0.000000    8.040301
   Cs   Pb   Br
   8   8  23
Direct configuration=     1
   0.26480700  0.23995800  0.20172900
   0.77685700  0.23665300  0.72488300
   0.71674800  0.76841100  0.26269800
   0.20914900  0.75388800  0.77828800
   0.28050200  0.24388900  0.72859600
   0.79902700  0.24652900  0.22617600
   0.72870400  0.75437000  0.79244100
   0.22448000  0.75693000  0.29073900
   0.00174800  0.99809000  0.99963800
   0.49817500  0.00124600  0.49944200
   0.49931900  0.00094300  0.99983400
   0.99859000  0.99947700  0.50053300
   0.50553700  0.49698800  0.99404600
   0.00153300  0.50158800  0.49867400
   0.00243700  0.50038700  0.99869300
   0.49068200  0.50004400  0.50838300
   0.47423700  0.74787200  0.97141800
   0.96590400  0.74876300  0.46291100
   0.97624200  0.24943300  0.97370600
   0.45398000  0.25360000  0.46908600
   0.03414200  0.74880500  0.03238800
   0.54098300  0.74739600  0.52120500
   0.53128600  0.25149800  0.04285800
   0.02080700  0.25193900  0.53327100
   0.25237800  0.46676300  0.95154600
   0.94558700  0.53137700  0.74451400
   0.54456800  0.03387000  0.75213000
   0.04693000  0.02855100  0.25302200
   0.75355000  0.97585600  0.04181500
   0.25075300  0.96201600  0.54963900
   0.24914500  0.03111400  0.94853700
   0.74572400  0.03829200  0.45131800
   0.44798000  0.96743100  0.24771000
   0.95140200  0.96393900  0.74792300
   0.75399700  0.53348500  0.05336900
   0.24655400  0.53908500  0.55297700
   0.55713800  0.46257000  0.75098300
   0.05673700  0.46742800  0.25235800
   0.60738000  0.49836100  0.34475600
