  20  20   1   0
  0.4106550E+02  0.8588418E-09  0.1160622E-08  0.8239540E-09  0.5000000E-15
   1.0000000000000000E-004
  CAR 
 CsPbBr3 cubic bulk                      
      8.48078548    -22.32269311  301      0.29219409      1.00000000
    -22.323  0.0000E+00  0.0000E+00
    -22.220  0.0000E+00  0.0000E+00
    -22.117  0.0000E+00  0.0000E+00
    -22.015  0.0000E+00  0.0000E+00
    -21.912  0.0000E+00  0.0000E+00
    -21.809  0.0000E+00  0.0000E+00
    -21.707  0.0000E+00  0.0000E+00
    -21.604  0.0000E+00  0.0000E+00
    -21.501  0.0000E+00  0.0000E+00
    -21.399  0.0000E+00  0.0000E+00
    -21.296  0.0000E+00  0.0000E+00
    -21.193  0.0000E+00  0.0000E+00
    -21.091  0.0000E+00  0.0000E+00
    -20.988  0.0000E+00  0.0000E+00
    -20.885  0.7791E+02  0.8000E+01
    -20.783  0.0000E+00  0.8000E+01
    -20.680  0.0000E+00  0.8000E+01
    -20.577  0.0000E+00  0.8000E+01
    -20.474  0.0000E+00  0.8000E+01
    -20.372  0.0000E+00  0.8000E+01
    -20.269  0.0000E+00  0.8000E+01
    -20.166  0.0000E+00  0.8000E+01
    -20.064  0.0000E+00  0.8000E+01
    -19.961  0.0000E+00  0.8000E+01
    -19.858  0.0000E+00  0.8000E+01
    -19.756  0.0000E+00  0.8000E+01
    -19.653  0.0000E+00  0.8000E+01
    -19.550  0.0000E+00  0.8000E+01
    -19.448  0.0000E+00  0.8000E+01
    -19.345  0.0000E+00  0.8000E+01
    -19.242  0.0000E+00  0.8000E+01
    -19.140  0.0000E+00  0.8000E+01
    -19.037  0.0000E+00  0.8000E+01
    -18.934  0.0000E+00  0.8000E+01
    -18.832  0.0000E+00  0.8000E+01
    -18.729  0.0000E+00  0.8000E+01
    -18.626  0.0000E+00  0.8000E+01
    -18.524  0.0000E+00  0.8000E+01
    -18.421  0.0000E+00  0.8000E+01
    -18.318  0.0000E+00  0.8000E+01
    -18.216  0.0000E+00  0.8000E+01
    -18.113  0.0000E+00  0.8000E+01
    -18.010  0.0000E+00  0.8000E+01
    -17.908  0.0000E+00  0.8000E+01
    -17.805  0.0000E+00  0.8000E+01
    -17.702  0.0000E+00  0.8000E+01
    -17.599  0.0000E+00  0.8000E+01
    -17.497  0.0000E+00  0.8000E+01
    -17.394  0.0000E+00  0.8000E+01
    -17.291  0.0000E+00  0.8000E+01
    -17.189  0.0000E+00  0.8000E+01
    -17.086  0.0000E+00  0.8000E+01
    -16.983  0.0000E+00  0.8000E+01
    -16.881  0.0000E+00  0.8000E+01
    -16.778  0.0000E+00  0.8000E+01
    -16.675  0.7309E-04  0.8000E+01
    -16.573  0.1242E+03  0.2075E+02
    -16.470  0.2330E+03  0.4792E+02
    -16.367  0.0000E+00  0.4800E+02
    -16.265  0.0000E+00  0.4800E+02
    -16.162  0.0000E+00  0.4800E+02
    -16.059  0.0000E+00  0.4800E+02
    -15.957  0.0000E+00  0.4800E+02
    -15.854  0.0000E+00  0.4800E+02
    -15.751  0.0000E+00  0.4800E+02
    -15.649  0.0000E+00  0.4800E+02
    -15.546  0.0000E+00  0.4800E+02
    -15.443  0.0000E+00  0.4800E+02
    -15.341  0.0000E+00  0.4800E+02
    -15.238  0.0000E+00  0.4800E+02
    -15.135  0.0000E+00  0.4800E+02
    -15.033  0.0000E+00  0.4800E+02
    -14.930  0.0000E+00  0.4800E+02
    -14.827  0.0000E+00  0.4800E+02
    -14.725  0.0000E+00  0.4800E+02
    -14.622  0.0000E+00  0.4800E+02
    -14.519  0.0000E+00  0.4800E+02
    -14.416  0.3304E+00  0.4803E+02
    -14.314  0.1709E+02  0.4987E+02
    -14.211  0.3302E+02  0.5350E+02
    -14.108  0.3091E+02  0.5695E+02
    -14.006  0.5690E+02  0.6329E+02
    -13.903  0.3931E+02  0.6859E+02
    -13.800  0.9739E+01  0.7200E+02
    -13.698  0.0000E+00  0.7200E+02
    -13.595  0.0000E+00  0.7200E+02
    -13.492  0.0000E+00  0.7200E+02
    -13.390  0.0000E+00  0.7200E+02
    -13.287  0.0000E+00  0.7200E+02
    -13.184  0.0000E+00  0.7200E+02
    -13.082  0.0000E+00  0.7200E+02
    -12.979  0.0000E+00  0.7200E+02
    -12.876  0.0000E+00  0.7200E+02
    -12.774  0.0000E+00  0.7200E+02
    -12.671  0.0000E+00  0.7200E+02
    -12.568  0.0000E+00  0.7200E+02
    -12.466  0.0000E+00  0.7200E+02
    -12.363  0.0000E+00  0.7200E+02
    -12.260  0.0000E+00  0.7200E+02
    -12.158  0.0000E+00  0.7200E+02
    -12.055  0.0000E+00  0.7200E+02
    -11.952  0.0000E+00  0.7200E+02
    -11.850  0.0000E+00  0.7200E+02
    -11.747  0.0000E+00  0.7200E+02
    -11.644  0.0000E+00  0.7200E+02
    -11.541  0.0000E+00  0.7200E+02
    -11.439  0.0000E+00  0.7200E+02
    -11.336  0.0000E+00  0.7200E+02
    -11.233  0.0000E+00  0.7200E+02
    -11.131  0.0000E+00  0.7200E+02
    -11.028  0.0000E+00  0.7200E+02
    -10.925  0.0000E+00  0.7200E+02
    -10.823  0.0000E+00  0.7200E+02
    -10.720  0.0000E+00  0.7200E+02
    -10.617  0.0000E+00  0.7200E+02
    -10.515  0.0000E+00  0.7200E+02
    -10.412  0.0000E+00  0.7200E+02
    -10.309  0.0000E+00  0.7200E+02
    -10.207  0.0000E+00  0.7200E+02
    -10.104  0.0000E+00  0.7200E+02
    -10.001  0.0000E+00  0.7200E+02
     -9.899  0.0000E+00  0.7200E+02
     -9.796  0.0000E+00  0.7200E+02
     -9.693  0.0000E+00  0.7200E+02
     -9.591  0.0000E+00  0.7200E+02
     -9.488  0.0000E+00  0.7200E+02
     -9.385  0.0000E+00  0.7200E+02
     -9.283  0.0000E+00  0.7200E+02
     -9.180  0.0000E+00  0.7200E+02
     -9.077  0.0000E+00  0.7200E+02
     -8.975  0.0000E+00  0.7200E+02
     -8.872  0.0000E+00  0.7200E+02
     -8.769  0.0000E+00  0.7200E+02
     -8.666  0.0000E+00  0.7200E+02
     -8.564  0.0000E+00  0.7200E+02
     -8.461  0.0000E+00  0.7200E+02
     -8.358  0.0000E+00  0.7200E+02
     -8.256  0.8404E+00  0.7209E+02
     -8.153  0.0000E+00  0.7211E+02
     -8.050  0.4314E+01  0.7255E+02
     -7.948  0.5795E+01  0.7315E+02
     -7.845  0.3606E-01  0.7323E+02
     -7.742  0.1310E+01  0.7425E+02
     -7.640  0.1011E+02  0.7570E+02
     -7.537  0.3272E+01  0.7634E+02
     -7.434  0.8946E+01  0.7736E+02
     -7.332  0.4804E+02  0.8271E+02
     -7.229  0.1298E+03  0.1028E+03
     -7.126  0.3013E+01  0.1031E+03
     -7.024  0.3978E+01  0.1036E+03
     -6.921  0.0000E+00  0.1039E+03
     -6.818  0.0000E+00  0.1039E+03
     -6.716  0.7908E+00  0.1040E+03
     -6.613  0.0000E+00  0.1040E+03
     -6.510  0.0000E+00  0.1040E+03
     -6.408  0.0000E+00  0.1040E+03
     -6.305  0.0000E+00  0.1040E+03
     -6.202  0.0000E+00  0.1040E+03
     -6.100  0.0000E+00  0.1040E+03
     -5.997  0.0000E+00  0.1040E+03
     -5.894  0.0000E+00  0.1040E+03
     -5.791  0.0000E+00  0.1040E+03
     -5.689  0.0000E+00  0.1040E+03
     -5.586  0.0000E+00  0.1040E+03
     -5.483  0.0000E+00  0.1040E+03
     -5.381  0.0000E+00  0.1040E+03
     -5.278  0.0000E+00  0.1040E+03
     -5.175  0.0000E+00  0.1040E+03
     -5.073  0.0000E+00  0.1040E+03
     -4.970  0.0000E+00  0.1040E+03
     -4.867  0.0000E+00  0.1040E+03
     -4.765  0.0000E+00  0.1040E+03
     -4.662  0.0000E+00  0.1040E+03
     -4.559  0.0000E+00  0.1040E+03
     -4.457  0.0000E+00  0.1040E+03
     -4.354  0.0000E+00  0.1040E+03
     -4.251  0.0000E+00  0.1040E+03
     -4.149  0.0000E+00  0.1040E+03
     -4.046  0.0000E+00  0.1040E+03
     -3.943  0.0000E+00  0.1040E+03
     -3.841  0.0000E+00  0.1040E+03
     -3.738  0.0000E+00  0.1040E+03
     -3.635  0.0000E+00  0.1040E+03
     -3.533  0.0000E+00  0.1040E+03
     -3.430  0.8985E-01  0.1040E+03
     -3.327  0.1281E+02  0.1054E+03
     -3.225  0.9523E+01  0.1069E+03
     -3.122  0.1076E+02  0.1082E+03
     -3.019  0.4490E+01  0.1087E+03
     -2.917  0.8650E+01  0.1100E+03
     -2.814  0.2800E+02  0.1129E+03
     -2.711  0.4806E+01  0.1136E+03
     -2.608  0.8702E+01  0.1149E+03
     -2.506  0.7763E+01  0.1161E+03
     -2.403  0.1082E+02  0.1180E+03
     -2.300  0.4010E+01  0.1184E+03
     -2.198  0.2171E+02  0.1207E+03
     -2.095  0.2494E+02  0.1238E+03
     -1.992  0.1515E+02  0.1266E+03
     -1.890  0.1405E+02  0.1280E+03
     -1.787  0.1522E+02  0.1296E+03
     -1.684  0.3138E+02  0.1346E+03
     -1.582  0.3731E+02  0.1384E+03
     -1.479  0.4076E+02  0.1439E+03
     -1.376  0.6325E+02  0.1517E+03
     -1.274  0.4441E+02  0.1578E+03
     -1.171  0.5619E+02  0.1657E+03
     -1.068  0.9739E+01  0.1680E+03
     -0.966  0.6780E+01  0.1687E+03
     -0.863  0.1415E+02  0.1712E+03
     -0.760  0.9739E+01  0.1724E+03
     -0.658  0.1731E+02  0.1742E+03
     -0.555  0.2842E+00  0.1743E+03
     -0.452  0.8521E-09  0.1747E+03
     -0.350  0.1082E+01  0.1748E+03
     -0.247  0.8900E+01  0.1757E+03
     -0.144  0.0000E+00  0.1759E+03
     -0.042  0.0000E+00  0.1759E+03
      0.061  0.0000E+00  0.1759E+03
      0.164  0.0000E+00  0.1759E+03
      0.267  0.1082E+01  0.1760E+03
      0.369  0.0000E+00  0.1760E+03
      0.472  0.0000E+00  0.1760E+03
      0.575  0.0000E+00  0.1760E+03
      0.677  0.0000E+00  0.1760E+03
      0.780  0.0000E+00  0.1760E+03
      0.883  0.0000E+00  0.1760E+03
      0.985  0.0000E+00  0.1760E+03
      1.088  0.0000E+00  0.1760E+03
      1.191  0.0000E+00  0.1760E+03
      1.293  0.0000E+00  0.1760E+03
      1.396  0.0000E+00  0.1760E+03
      1.499  0.0000E+00  0.1760E+03
      1.601  0.0000E+00  0.1760E+03
      1.704  0.0000E+00  0.1760E+03
      1.807  0.0000E+00  0.1760E+03
      1.909  0.0000E+00  0.1760E+03
      2.012  0.0000E+00  0.1760E+03
      2.115  0.0000E+00  0.1760E+03
      2.217  0.0000E+00  0.1760E+03
      2.320  0.0000E+00  0.1760E+03
      2.423  0.1327E-12  0.1760E+03
      2.525  0.1082E+01  0.1761E+03
      2.628  0.5458E-03  0.1761E+03
      2.731  0.3246E+01  0.1764E+03
      2.833  0.6463E+01  0.1771E+03
      2.936  0.6478E+01  0.1778E+03
      3.039  0.1299E+02  0.1791E+03
      3.142  0.2815E+01  0.1794E+03
      3.244  0.8657E+01  0.1806E+03
      3.347  0.2165E+01  0.1808E+03
      3.450  0.8334E+01  0.1816E+03
      3.552  0.7531E+01  0.1826E+03
      3.655  0.9585E+01  0.1839E+03
      3.758  0.2994E+01  0.1843E+03
      3.860  0.2033E+01  0.1855E+03
      3.963  0.3475E+01  0.1859E+03
      4.066  0.0000E+00  0.1860E+03
      4.168  0.0000E+00  0.1860E+03
      4.271  0.2164E+01  0.1862E+03
      4.374  0.4515E+01  0.1867E+03
      4.476  0.8360E+01  0.1880E+03
      4.579  0.5265E+01  0.1885E+03
      4.682  0.8656E+01  0.1902E+03
      4.784  0.1267E+02  0.1915E+03
      4.887  0.2553E+01  0.1924E+03
      4.990  0.1956E+02  0.1948E+03
      5.092  0.2148E+01  0.1952E+03
      5.195  0.2164E+01  0.1954E+03
      5.298  0.6699E-01  0.1955E+03
      5.400  0.5095E-09  0.1959E+03
      5.503  0.1238E+02  0.1972E+03
      5.606  0.3222E+01  0.1977E+03
      5.708  0.4328E+01  0.1981E+03
      5.811  0.1421E+02  0.1996E+03
      5.914  0.9896E+01  0.2007E+03
      6.017  0.2167E+01  0.2014E+03
      6.119  0.1641E+02  0.2032E+03
      6.222  0.1293E+02  0.2053E+03
      6.325  0.2898E+02  0.2083E+03
      6.427  0.1082E+02  0.2100E+03
      6.530  0.1533E+02  0.2125E+03
      6.633  0.2001E+02  0.2148E+03
      6.735  0.2540E+02  0.2187E+03
      6.838  0.3126E+02  0.2221E+03
      6.941  0.5776E+01  0.2231E+03
      7.043  0.2791E-06  0.2236E+03
      7.146  0.4329E+01  0.2240E+03
      7.249  0.0000E+00  0.2240E+03
      7.351  0.0000E+00  0.2240E+03
      7.454  0.0000E+00  0.2240E+03
      7.557  0.0000E+00  0.2240E+03
      7.659  0.0000E+00  0.2240E+03
      7.762  0.0000E+00  0.2240E+03
      7.865  0.0000E+00  0.2240E+03
      7.967  0.0000E+00  0.2240E+03
      8.070  0.0000E+00  0.2240E+03
      8.173  0.0000E+00  0.2240E+03
      8.275  0.0000E+00  0.2240E+03
      8.378  0.0000E+00  0.2240E+03
      8.481  0.0000E+00  0.2240E+03
      8.48078548    -22.32269311  301      0.29219409      1.00000000
    -22.323  0.0000E+00  0.0000E+00  0.0000E+00
    -22.220  0.0000E+00  0.0000E+00  0.0000E+00
    -22.117  0.0000E+00  0.0000E+00  0.0000E+00
    -22.015  0.0000E+00  0.0000E+00  0.0000E+00
    -21.912  0.0000E+00  0.0000E+00  0.0000E+00
    -21.809  0.0000E+00  0.0000E+00  0.0000E+00
    -21.707  0.0000E+00  0.0000E+00  0.0000E+00
    -21.604  0.0000E+00  0.0000E+00  0.0000E+00
    -21.501  0.0000E+00  0.0000E+00  0.0000E+00
    -21.399  0.0000E+00  0.0000E+00  0.0000E+00
    -21.296  0.0000E+00  0.0000E+00  0.0000E+00
    -21.193  0.0000E+00  0.0000E+00  0.0000E+00
    -21.091  0.0000E+00  0.0000E+00  0.0000E+00
    -20.988  0.0000E+00  0.0000E+00  0.0000E+00
    -20.885  0.1729E+02  0.1031E-04  0.1417E-05
    -20.783  0.0000E+00  0.0000E+00  0.0000E+00
    -20.680  0.0000E+00  0.0000E+00  0.0000E+00
    -20.577  0.0000E+00  0.0000E+00  0.0000E+00
    -20.474  0.0000E+00  0.0000E+00  0.0000E+00
    -20.372  0.0000E+00  0.0000E+00  0.0000E+00
    -20.269  0.0000E+00  0.0000E+00  0.0000E+00
    -20.166  0.0000E+00  0.0000E+00  0.0000E+00
    -20.064  0.0000E+00  0.0000E+00  0.0000E+00
    -19.961  0.0000E+00  0.0000E+00  0.0000E+00
    -19.858  0.0000E+00  0.0000E+00  0.0000E+00
    -19.756  0.0000E+00  0.0000E+00  0.0000E+00
    -19.653  0.0000E+00  0.0000E+00  0.0000E+00
    -19.550  0.0000E+00  0.0000E+00  0.0000E+00
    -19.448  0.0000E+00  0.0000E+00  0.0000E+00
    -19.345  0.0000E+00  0.0000E+00  0.0000E+00
    -19.242  0.0000E+00  0.0000E+00  0.0000E+00
    -19.140  0.0000E+00  0.0000E+00  0.0000E+00
    -19.037  0.0000E+00  0.0000E+00  0.0000E+00
    -18.934  0.0000E+00  0.0000E+00  0.0000E+00
    -18.832  0.0000E+00  0.0000E+00  0.0000E+00
    -18.729  0.0000E+00  0.0000E+00  0.0000E+00
    -18.626  0.0000E+00  0.0000E+00  0.0000E+00
    -18.524  0.0000E+00  0.0000E+00  0.0000E+00
    -18.421  0.0000E+00  0.0000E+00  0.0000E+00
    -18.318  0.0000E+00  0.0000E+00  0.0000E+00
    -18.216  0.0000E+00  0.0000E+00  0.0000E+00
    -18.113  0.0000E+00  0.0000E+00  0.0000E+00
    -18.010  0.0000E+00  0.0000E+00  0.0000E+00
    -17.908  0.0000E+00  0.0000E+00  0.0000E+00
    -17.805  0.0000E+00  0.0000E+00  0.0000E+00
    -17.702  0.0000E+00  0.0000E+00  0.0000E+00
    -17.599  0.0000E+00  0.0000E+00  0.0000E+00
    -17.497  0.0000E+00  0.0000E+00  0.0000E+00
    -17.394  0.0000E+00  0.0000E+00  0.0000E+00
    -17.291  0.0000E+00  0.0000E+00  0.0000E+00
    -17.189  0.0000E+00  0.0000E+00  0.0000E+00
    -17.086  0.0000E+00  0.0000E+00  0.0000E+00
    -16.983  0.0000E+00  0.0000E+00  0.0000E+00
    -16.881  0.0000E+00  0.0000E+00  0.0000E+00
    -16.778  0.0000E+00  0.0000E+00  0.0000E+00
    -16.675  0.1334E-09  0.1259E-09  0.1371E-10
    -16.573  0.1050E-03  0.8965E-04  0.1680E-04
    -16.470  0.5694E-04  0.3185E-04  0.3919E-05
    -16.367  0.0000E+00  0.0000E+00  0.0000E+00
    -16.265  0.0000E+00  0.0000E+00  0.0000E+00
    -16.162  0.0000E+00  0.0000E+00  0.0000E+00
    -16.059  0.0000E+00  0.0000E+00  0.0000E+00
    -15.957  0.0000E+00  0.0000E+00  0.0000E+00
    -15.854  0.0000E+00  0.0000E+00  0.0000E+00
    -15.751  0.0000E+00  0.0000E+00  0.0000E+00
    -15.649  0.0000E+00  0.0000E+00  0.0000E+00
    -15.546  0.0000E+00  0.0000E+00  0.0000E+00
    -15.443  0.0000E+00  0.0000E+00  0.0000E+00
    -15.341  0.0000E+00  0.0000E+00  0.0000E+00
    -15.238  0.0000E+00  0.0000E+00  0.0000E+00
    -15.135  0.0000E+00  0.0000E+00  0.0000E+00
    -15.033  0.0000E+00  0.0000E+00  0.0000E+00
    -14.930  0.0000E+00  0.0000E+00  0.0000E+00
    -14.827  0.0000E+00  0.0000E+00  0.0000E+00
    -14.725  0.0000E+00  0.0000E+00  0.0000E+00
    -14.622  0.0000E+00  0.0000E+00  0.0000E+00
    -14.519  0.0000E+00  0.0000E+00  0.0000E+00
    -14.416  0.1269E-03  0.2229E-05  0.1160E-06
    -14.314  0.3461E-02  0.2039E-02  0.3897E-04
    -14.211  0.1746E-02  0.5450E-02  0.2270E-03
    -14.108  0.1100E-02  0.4088E-02  0.2959E-03
    -14.006  0.2275E-02  0.5813E-02  0.4838E-03
    -13.903  0.8547E-03  0.2620E-02  0.4018E-03
    -13.800  0.3978E-03  0.6694E-03  0.7172E-04
    -13.698  0.0000E+00  0.0000E+00  0.0000E+00
    -13.595  0.0000E+00  0.0000E+00  0.0000E+00
    -13.492  0.0000E+00  0.0000E+00  0.0000E+00
    -13.390  0.0000E+00  0.0000E+00  0.0000E+00
    -13.287  0.0000E+00  0.0000E+00  0.0000E+00
    -13.184  0.0000E+00  0.0000E+00  0.0000E+00
    -13.082  0.0000E+00  0.0000E+00  0.0000E+00
    -12.979  0.0000E+00  0.0000E+00  0.0000E+00
    -12.876  0.0000E+00  0.0000E+00  0.0000E+00
    -12.774  0.0000E+00  0.0000E+00  0.0000E+00
    -12.671  0.0000E+00  0.0000E+00  0.0000E+00
    -12.568  0.0000E+00  0.0000E+00  0.0000E+00
    -12.466  0.0000E+00  0.0000E+00  0.0000E+00
    -12.363  0.0000E+00  0.0000E+00  0.0000E+00
    -12.260  0.0000E+00  0.0000E+00  0.0000E+00
    -12.158  0.0000E+00  0.0000E+00  0.0000E+00
    -12.055  0.0000E+00  0.0000E+00  0.0000E+00
    -11.952  0.0000E+00  0.0000E+00  0.0000E+00
    -11.850  0.0000E+00  0.0000E+00  0.0000E+00
    -11.747  0.0000E+00  0.0000E+00  0.0000E+00
    -11.644  0.0000E+00  0.0000E+00  0.0000E+00
    -11.541  0.0000E+00  0.0000E+00  0.0000E+00
    -11.439  0.0000E+00  0.0000E+00  0.0000E+00
    -11.336  0.0000E+00  0.0000E+00  0.0000E+00
    -11.233  0.0000E+00  0.0000E+00  0.0000E+00
    -11.131  0.0000E+00  0.0000E+00  0.0000E+00
    -11.028  0.0000E+00  0.0000E+00  0.0000E+00
    -10.925  0.0000E+00  0.0000E+00  0.0000E+00
    -10.823  0.0000E+00  0.0000E+00  0.0000E+00
    -10.720  0.0000E+00  0.0000E+00  0.0000E+00
    -10.617  0.0000E+00  0.0000E+00  0.0000E+00
    -10.515  0.0000E+00  0.0000E+00  0.0000E+00
    -10.412  0.0000E+00  0.0000E+00  0.0000E+00
    -10.309  0.0000E+00  0.0000E+00  0.0000E+00
    -10.207  0.0000E+00  0.0000E+00  0.0000E+00
    -10.104  0.0000E+00  0.0000E+00  0.0000E+00
    -10.001  0.0000E+00  0.0000E+00  0.0000E+00
     -9.899  0.0000E+00  0.0000E+00  0.0000E+00
     -9.796  0.0000E+00  0.0000E+00  0.0000E+00
     -9.693  0.0000E+00  0.0000E+00  0.0000E+00
     -9.591  0.0000E+00  0.0000E+00  0.0000E+00
     -9.488  0.0000E+00  0.0000E+00  0.0000E+00
     -9.385  0.0000E+00  0.0000E+00  0.0000E+00
     -9.283  0.0000E+00  0.0000E+00  0.0000E+00
     -9.180  0.0000E+00  0.0000E+00  0.0000E+00
     -9.077  0.0000E+00  0.0000E+00  0.0000E+00
     -8.975  0.0000E+00  0.0000E+00  0.0000E+00
     -8.872  0.0000E+00  0.0000E+00  0.0000E+00
     -8.769  0.0000E+00  0.0000E+00  0.0000E+00
     -8.666  0.0000E+00  0.0000E+00  0.0000E+00
     -8.564  0.0000E+00  0.0000E+00  0.0000E+00
     -8.461  0.0000E+00  0.0000E+00  0.0000E+00
     -8.358  0.0000E+00  0.0000E+00  0.0000E+00
     -8.256  0.4229E-20  0.3557E-05  0.3879E-05
     -8.153  0.0000E+00  0.0000E+00  0.0000E+00
     -8.050  0.4448E-12  0.1733E-02  0.1741E-04
     -7.948  0.6195E-07  0.4419E-02  0.2343E-04
     -7.845  0.3703E-07  0.1033E-03  0.1160E-06
     -7.742  0.2988E-07  0.7810E-02  0.2463E-05
     -7.640  0.9332E-05  0.2551E-01  0.4169E-04
     -7.537  0.6112E-05  0.7549E-01  0.1108E-04
     -7.434  0.2091E-04  0.2293E+00  0.3111E-04
     -7.332  0.4736E-04  0.7674E+01  0.5092E-04
     -7.229  0.3553E-04  0.2501E+02  0.4837E-04
     -7.126  0.1133E-04  0.5741E-01  0.2020E-04
     -7.024  0.2872E-04  0.1930E-01  0.1569E-04
     -6.921  0.0000E+00  0.0000E+00  0.0000E+00
     -6.818  0.0000E+00  0.0000E+00  0.0000E+00
     -6.716  0.8571E-05  0.1370E-02  0.4456E-06
     -6.613  0.0000E+00  0.0000E+00  0.0000E+00
     -6.510  0.0000E+00  0.0000E+00  0.0000E+00
     -6.408  0.0000E+00  0.0000E+00  0.0000E+00
     -6.305  0.0000E+00  0.0000E+00  0.0000E+00
     -6.202  0.0000E+00  0.0000E+00  0.0000E+00
     -6.100  0.0000E+00  0.0000E+00  0.0000E+00
     -5.997  0.0000E+00  0.0000E+00  0.0000E+00
     -5.894  0.0000E+00  0.0000E+00  0.0000E+00
     -5.791  0.0000E+00  0.0000E+00  0.0000E+00
     -5.689  0.0000E+00  0.0000E+00  0.0000E+00
     -5.586  0.0000E+00  0.0000E+00  0.0000E+00
     -5.483  0.0000E+00  0.0000E+00  0.0000E+00
     -5.381  0.0000E+00  0.0000E+00  0.0000E+00
     -5.278  0.0000E+00  0.0000E+00  0.0000E+00
     -5.175  0.0000E+00  0.0000E+00  0.0000E+00
     -5.073  0.0000E+00  0.0000E+00  0.0000E+00
     -4.970  0.0000E+00  0.0000E+00  0.0000E+00
     -4.867  0.0000E+00  0.0000E+00  0.0000E+00
     -4.765  0.0000E+00  0.0000E+00  0.0000E+00
     -4.662  0.0000E+00  0.0000E+00  0.0000E+00
     -4.559  0.0000E+00  0.0000E+00  0.0000E+00
     -4.457  0.0000E+00  0.0000E+00  0.0000E+00
     -4.354  0.0000E+00  0.0000E+00  0.0000E+00
     -4.251  0.0000E+00  0.0000E+00  0.0000E+00
     -4.149  0.0000E+00  0.0000E+00  0.0000E+00
     -4.046  0.0000E+00  0.0000E+00  0.0000E+00
     -3.943  0.0000E+00  0.0000E+00  0.0000E+00
     -3.841  0.0000E+00  0.0000E+00  0.0000E+00
     -3.738  0.0000E+00  0.0000E+00  0.0000E+00
     -3.635  0.0000E+00  0.0000E+00  0.0000E+00
     -3.533  0.0000E+00  0.0000E+00  0.0000E+00
     -3.430  0.1379E-18  0.1859E-03  0.1394E-05
     -3.327  0.7374E-11  0.9611E-02  0.1086E-02
     -3.225  0.1984E-03  0.1324E-01  0.9394E-03
     -3.122  0.1455E-03  0.7442E-02  0.1298E-02
     -3.019  0.6960E-05  0.1365E-02  0.3192E-03
     -2.917  0.1956E-03  0.1280E-01  0.7452E-03
     -2.814  0.5642E-03  0.2810E-01  0.2392E-02
     -2.711  0.8227E-17  0.1741E-02  0.4871E-03
     -2.608  0.2786E-03  0.1332E-01  0.8152E-03
     -2.506  0.2685E-03  0.9256E-02  0.5497E-03
     -2.403  0.1307E-02  0.7706E-02  0.1724E-02
     -2.300  0.6929E-03  0.6530E-02  0.3540E-03
     -2.198  0.8925E-02  0.2120E-01  0.2248E-02
     -2.095  0.1322E-01  0.3705E-01  0.4159E-02
     -1.992  0.9193E-02  0.3649E-01  0.2157E-02
     -1.890  0.1831E-02  0.7671E-01  0.2819E-02
     -1.787  0.1601E-02  0.6053E-01  0.4335E-02
     -1.684  0.1181E-02  0.8924E-01  0.1255E-01
     -1.582  0.2993E-02  0.8395E-01  0.1368E-01
     -1.479  0.5684E-02  0.5843E-01  0.1517E-01
     -1.376  0.5335E-02  0.8205E-01  0.2197E-01
     -1.274  0.2772E-02  0.6953E-01  0.1227E-01
     -1.171  0.2088E-02  0.7747E-01  0.1282E-01
     -1.068  0.2983E-03  0.1138E-01  0.3551E-02
     -0.966  0.1300E-03  0.7861E-02  0.2332E-02
     -0.863  0.9342E-03  0.1564E-01  0.2768E-02
     -0.760  0.2454E-03  0.3350E-02  0.1111E-02
     -0.658  0.4049E-03  0.4549E-02  0.1388E-02
     -0.555  0.1496E-15  0.1771E-03  0.2378E-05
     -0.452  0.1389E-14  0.2995E-12  0.1333E-12
     -0.350  0.1763E-05  0.3803E-03  0.1693E-03
     -0.247  0.4690E-06  0.8666E-03  0.9493E-03
     -0.144  0.0000E+00  0.0000E+00  0.0000E+00
     -0.042  0.0000E+00  0.0000E+00  0.0000E+00
      0.061  0.0000E+00  0.0000E+00  0.0000E+00
      0.164  0.0000E+00  0.0000E+00  0.0000E+00
      0.267  0.7444E-16  0.1471E-04  0.6343E-04
      0.369  0.0000E+00  0.0000E+00  0.0000E+00
      0.472  0.0000E+00  0.0000E+00  0.0000E+00
      0.575  0.0000E+00  0.0000E+00  0.0000E+00
      0.677  0.0000E+00  0.0000E+00  0.0000E+00
      0.780  0.0000E+00  0.0000E+00  0.0000E+00
      0.883  0.0000E+00  0.0000E+00  0.0000E+00
      0.985  0.0000E+00  0.0000E+00  0.0000E+00
      1.088  0.0000E+00  0.0000E+00  0.0000E+00
      1.191  0.0000E+00  0.0000E+00  0.0000E+00
      1.293  0.0000E+00  0.0000E+00  0.0000E+00
      1.396  0.0000E+00  0.0000E+00  0.0000E+00
      1.499  0.0000E+00  0.0000E+00  0.0000E+00
      1.601  0.0000E+00  0.0000E+00  0.0000E+00
      1.704  0.0000E+00  0.0000E+00  0.0000E+00
      1.807  0.0000E+00  0.0000E+00  0.0000E+00
      1.909  0.0000E+00  0.0000E+00  0.0000E+00
      2.012  0.0000E+00  0.0000E+00  0.0000E+00
      2.115  0.0000E+00  0.0000E+00  0.0000E+00
      2.217  0.0000E+00  0.0000E+00  0.0000E+00
      2.320  0.0000E+00  0.0000E+00  0.0000E+00
      2.423  0.1169E-29  0.2564E-17  0.8787E-16
      2.525  0.9531E-17  0.2091E-04  0.7166E-03
      2.628  0.3282E-13  0.1189E-07  0.4240E-06
      2.731  0.3522E-03  0.1709E-03  0.1870E-02
      2.833  0.2981E-03  0.2344E-02  0.2065E-02
      2.936  0.3830E-03  0.1252E-02  0.3156E-02
      3.039  0.5035E-03  0.5010E-02  0.4819E-02
      3.142  0.3437E-03  0.4748E-03  0.4773E-03
      3.244  0.5675E-03  0.3675E-02  0.2331E-02
      3.347  0.3433E-16  0.2735E-03  0.1236E-02
      3.450  0.5515E-03  0.1129E-02  0.5924E-02
      3.552  0.6743E-03  0.1790E-02  0.5358E-02
      3.655  0.5777E-03  0.1307E-02  0.5037E-02
      3.758  0.1316E-03  0.6421E-03  0.9412E-03
      3.860  0.1369E-03  0.8015E-03  0.4377E-03
      3.963  0.1414E-04  0.1103E-02  0.6706E-03
      4.066  0.0000E+00  0.0000E+00  0.0000E+00
      4.168  0.0000E+00  0.0000E+00  0.0000E+00
      4.271  0.3892E-04  0.2607E-03  0.3498E-02
      4.374  0.3979E-03  0.1312E-02  0.5684E-02
      4.476  0.1013E-03  0.2597E-02  0.7212E-02
      4.579  0.4515E-03  0.1327E-02  0.3730E-02
      4.682  0.2507E-02  0.3801E-02  0.3817E-02
      4.784  0.1337E-01  0.2797E-02  0.8750E-02
      4.887  0.2233E-03  0.1255E-02  0.1925E-02
      4.990  0.1541E-01  0.1071E-01  0.1120E-01
      5.092  0.8729E-03  0.1630E-03  0.3673E-02
      5.195  0.3525E-03  0.3858E-03  0.8461E-03
      5.298  0.3564E-18  0.1149E-05  0.1146E-03
      5.400  0.5116E-22  0.1041E-12  0.3555E-12
      5.503  0.2090E-01  0.5539E-02  0.1404E-01
      5.606  0.1088E-01  0.1469E-02  0.1505E-02
      5.708  0.9015E-02  0.4569E-02  0.7588E-02
      5.811  0.2982E-01  0.9381E-02  0.3092E-01
      5.914  0.3781E-01  0.7748E-02  0.5027E-01
      6.017  0.6617E-03  0.1243E-03  0.3523E-02
      6.119  0.4740E-01  0.2097E-01  0.1000E+00
      6.222  0.2921E-01  0.1147E-01  0.2539E+00
      6.325  0.4331E-01  0.3838E-01  0.7078E+00
      6.427  0.2498E-01  0.2896E-01  0.2507E+00
      6.530  0.3859E-01  0.1737E-01  0.3739E+00
      6.633  0.3438E-01  0.4706E-01  0.4937E+00
      6.735  0.4338E-01  0.4612E-01  0.5966E+00
      6.838  0.3692E-01  0.6026E-01  0.9071E+00
      6.941  0.1361E-02  0.1636E-01  0.1845E+00
      7.043  0.3553E-10  0.1934E-09  0.3037E-08
      7.146  0.5510E-03  0.2999E-02  0.4710E-01
      7.249  0.0000E+00  0.0000E+00  0.0000E+00
      7.351  0.0000E+00  0.0000E+00  0.0000E+00
      7.454  0.0000E+00  0.0000E+00  0.0000E+00
      7.557  0.0000E+00  0.0000E+00  0.0000E+00
      7.659  0.0000E+00  0.0000E+00  0.0000E+00
      7.762  0.0000E+00  0.0000E+00  0.0000E+00
      7.865  0.0000E+00  0.0000E+00  0.0000E+00
      7.967  0.0000E+00  0.0000E+00  0.0000E+00
      8.070  0.0000E+00  0.0000E+00  0.0000E+00
      8.173  0.0000E+00  0.0000E+00  0.0000E+00
      8.275  0.0000E+00  0.0000E+00  0.0000E+00
      8.378  0.0000E+00  0.0000E+00  0.0000E+00
      8.481  0.0000E+00  0.0000E+00  0.0000E+00
      8.48078548    -22.32269311  301      0.29219409      1.00000000
    -22.323  0.0000E+00  0.0000E+00  0.0000E+00
    -22.220  0.0000E+00  0.0000E+00  0.0000E+00
    -22.117  0.0000E+00  0.0000E+00  0.0000E+00
    -22.015  0.0000E+00  0.0000E+00  0.0000E+00
    -21.912  0.0000E+00  0.0000E+00  0.0000E+00
    -21.809  0.0000E+00  0.0000E+00  0.0000E+00
    -21.707  0.0000E+00  0.0000E+00  0.0000E+00
    -21.604  0.0000E+00  0.0000E+00  0.0000E+00
    -21.501  0.0000E+00  0.0000E+00  0.0000E+00
    -21.399  0.0000E+00  0.0000E+00  0.0000E+00
    -21.296  0.0000E+00  0.0000E+00  0.0000E+00
    -21.193  0.0000E+00  0.0000E+00  0.0000E+00
    -21.091  0.0000E+00  0.0000E+00  0.0000E+00
    -20.988  0.0000E+00  0.0000E+00  0.0000E+00
    -20.885  0.1729E+02  0.1030E-04  0.1409E-05
    -20.783  0.0000E+00  0.0000E+00  0.0000E+00
    -20.680  0.0000E+00  0.0000E+00  0.0000E+00
    -20.577  0.0000E+00  0.0000E+00  0.0000E+00
    -20.474  0.0000E+00  0.0000E+00  0.0000E+00
    -20.372  0.0000E+00  0.0000E+00  0.0000E+00
    -20.269  0.0000E+00  0.0000E+00  0.0000E+00
    -20.166  0.0000E+00  0.0000E+00  0.0000E+00
    -20.064  0.0000E+00  0.0000E+00  0.0000E+00
    -19.961  0.0000E+00  0.0000E+00  0.0000E+00
    -19.858  0.0000E+00  0.0000E+00  0.0000E+00
    -19.756  0.0000E+00  0.0000E+00  0.0000E+00
    -19.653  0.0000E+00  0.0000E+00  0.0000E+00
    -19.550  0.0000E+00  0.0000E+00  0.0000E+00
    -19.448  0.0000E+00  0.0000E+00  0.0000E+00
    -19.345  0.0000E+00  0.0000E+00  0.0000E+00
    -19.242  0.0000E+00  0.0000E+00  0.0000E+00
    -19.140  0.0000E+00  0.0000E+00  0.0000E+00
    -19.037  0.0000E+00  0.0000E+00  0.0000E+00
    -18.934  0.0000E+00  0.0000E+00  0.0000E+00
    -18.832  0.0000E+00  0.0000E+00  0.0000E+00
    -18.729  0.0000E+00  0.0000E+00  0.0000E+00
    -18.626  0.0000E+00  0.0000E+00  0.0000E+00
    -18.524  0.0000E+00  0.0000E+00  0.0000E+00
    -18.421  0.0000E+00  0.0000E+00  0.0000E+00
    -18.318  0.0000E+00  0.0000E+00  0.0000E+00
    -18.216  0.0000E+00  0.0000E+00  0.0000E+00
    -18.113  0.0000E+00  0.0000E+00  0.0000E+00
    -18.010  0.0000E+00  0.0000E+00  0.0000E+00
    -17.908  0.0000E+00  0.0000E+00  0.0000E+00
    -17.805  0.0000E+00  0.0000E+00  0.0000E+00
    -17.702  0.0000E+00  0.0000E+00  0.0000E+00
    -17.599  0.0000E+00  0.0000E+00  0.0000E+00
    -17.497  0.0000E+00  0.0000E+00  0.0000E+00
    -17.394  0.0000E+00  0.0000E+00  0.0000E+00
    -17.291  0.0000E+00  0.0000E+00  0.0000E+00
    -17.189  0.0000E+00  0.0000E+00  0.0000E+00
    -17.086  0.0000E+00  0.0000E+00  0.0000E+00
    -16.983  0.0000E+00  0.0000E+00  0.0000E+00
    -16.881  0.0000E+00  0.0000E+00  0.0000E+00
    -16.778  0.0000E+00  0.0000E+00  0.0000E+00
    -16.675  0.4367E-10  0.1278E-09  0.1624E-10
    -16.573  0.1053E-03  0.8769E-04  0.1677E-04
    -16.470  0.5704E-04  0.3188E-04  0.3923E-05
    -16.367  0.0000E+00  0.0000E+00  0.0000E+00
    -16.265  0.0000E+00  0.0000E+00  0.0000E+00
    -16.162  0.0000E+00  0.0000E+00  0.0000E+00
    -16.059  0.0000E+00  0.0000E+00  0.0000E+00
    -15.957  0.0000E+00  0.0000E+00  0.0000E+00
    -15.854  0.0000E+00  0.0000E+00  0.0000E+00
    -15.751  0.0000E+00  0.0000E+00  0.0000E+00
    -15.649  0.0000E+00  0.0000E+00  0.0000E+00
    -15.546  0.0000E+00  0.0000E+00  0.0000E+00
    -15.443  0.0000E+00  0.0000E+00  0.0000E+00
    -15.341  0.0000E+00  0.0000E+00  0.0000E+00
    -15.238  0.0000E+00  0.0000E+00  0.0000E+00
    -15.135  0.0000E+00  0.0000E+00  0.0000E+00
    -15.033  0.0000E+00  0.0000E+00  0.0000E+00
    -14.930  0.0000E+00  0.0000E+00  0.0000E+00
    -14.827  0.0000E+00  0.0000E+00  0.0000E+00
    -14.725  0.0000E+00  0.0000E+00  0.0000E+00
    -14.622  0.0000E+00  0.0000E+00  0.0000E+00
    -14.519  0.0000E+00  0.0000E+00  0.0000E+00
    -14.416  0.1269E-03  0.2229E-05  0.1160E-06
    -14.314  0.3575E-02  0.1743E-02  0.4630E-04
    -14.211  0.1854E-02  0.6065E-02  0.2198E-03
    -14.108  0.1083E-02  0.4442E-02  0.2735E-03
    -14.006  0.1452E-02  0.4984E-02  0.5288E-03
    -13.903  0.1071E-02  0.2763E-02  0.3657E-03
    -13.800  0.1480E-03  0.5429E-03  0.8307E-04
    -13.698  0.0000E+00  0.0000E+00  0.0000E+00
    -13.595  0.0000E+00  0.0000E+00  0.0000E+00
    -13.492  0.0000E+00  0.0000E+00  0.0000E+00
    -13.390  0.0000E+00  0.0000E+00  0.0000E+00
    -13.287  0.0000E+00  0.0000E+00  0.0000E+00
    -13.184  0.0000E+00  0.0000E+00  0.0000E+00