 vasp.5.4.4.18Apr17-6-g9f103f2a35 (build Jun 29 2021 12:14:42) complex           
 executed on tx2_gcc-7.3_libsci-1 date 2021.09.21  08:32:49
 running on   64 total cores
 distrk:  each k-point on   64 cores,    1 groups
 distr:  one band on NCORES_PER_BAND=   8 cores,    8 groups


--------------------------------------------------------------------------------------------------------


 INCAR:
 POTCAR:    PAW_PBE Cs_sv 08Apr2002               
 POTCAR:    PAW_PBE Pb_d 06Sep2000                
 POTCAR:    PAW_PBE Br 06Sep2000                  
 POTCAR:    PAW_PBE Cs_sv 08Apr2002               
   SHA256 =  c1463496f0f6037ed62c6012a8013a89ee9ad6ffb38599dcd6c079e7ed31779b Cs
   COPYR  = (c) Copyright 08Apr2002 Georg Kresse                                
   COPYR  = This file is part of the software VASP. Any use, copying, and all ot
   COPYR  = If you do not have a valid VASP license, you may not use, copy or di
   VRHFIN =Cs: 5s5p6s                                                           
   LEXCH  = PE                                                                  
   EATOM  =   555.6835 eV,   40.8416 Ry                                         
                                                                                
   TITEL  = PAW_PBE Cs_sv 08Apr2002                                             
   LULTRA =        F    use ultrasoft PP ?                                      
   IUNSCR =        1    unscreen: 0-lin 1-nonlin 2-no                           
   RPACOR =    2.200    partial core radius                                     
   POMASS =  132.900; ZVAL   =    9.000    mass and valenz                      
   RCORE  =    2.500    outmost cutoff radius                                   
   RWIGS  =    2.500; RWIGS  =    1.323    wigner-seitz radius (au A)           
   ENMAX  =  220.318; ENMIN  =  165.238 eV                                      
   RCLOC  =    2.207    cutoff for local pot                                    
   LCOR   =        T    correct aug charges                                     
   LPAW   =        T    paw PP                                                  
   EAUG   =  407.933                                                            
   DEXC   =    0.000                                                            
   RMAX   =    2.554    core radius for proj-oper                               
   RAUG   =    1.300    factor for augmentation sphere                          
   RDEP   =    2.590    radius for radial grids                                 
   RDEPT  =    2.117    core radius for aug-charge                              
                                                                                
   Atomic configuration                                                         
   13 entries                                                                   
     n  l   j            E        occ.                                          
     1  0  0.50    -35790.1377   2.0000                                         
     2  0  0.50     -5613.6201   2.0000                                         
     2  1  1.50     -5035.0101   6.0000                                         
     3  0  0.50     -1167.0767   2.0000                                         
     3  1  1.50      -980.9754   6.0000                                         
     3  2  2.50      -708.0703  10.0000                                         
     4  0  0.50      -220.2386   2.0000                                         
     4  1  1.50      -160.7596   6.0000                                         
     4  2  2.50       -74.2354  10.0000                                         
     5  0  0.50       -26.7287   2.0000                                         
     6  0  0.50        -2.0862   1.0000                                         
     5  1  1.50       -13.5159   6.0000                                         
     5  2  2.50        -0.4136   0.0000                                         
   Description                                                                  
     l       E           TYP  RCUT    TYP  RCUT                                 
     0    -26.7287425     23  1.900                                             
     0     -2.0862306     23  1.900                                             
     1    -13.5158719     23  2.500                                             
     1     -2.7211652     23  2.500                                             
     2     -0.4136171     23  2.500                                             
  local pseudopotential read in
  partial core-charges read in
  partial kinetic energy density read in
  atomic valenz-charges read in
  non local Contribution for L=           0  read in
    real space projection operators read in
  non local Contribution for L=           0  read in
    real space projection operators read in
  non local Contribution for L=           1  read in
    real space projection operators read in
  non local Contribution for L=           1  read in
    real space projection operators read in
  non local Contribution for L=           2  read in
    real space projection operators read in
    PAW grid and wavefunctions read in

   number of l-projection  operators is LMAX  =           5
   number of lm-projection operators is LMMAX =          13

 POTCAR:    PAW_PBE Pb_d 06Sep2000                
   SHA256 =  fb885b08f0fba73a15f6a6b0e39bd200c13ec96ef97cf3ecd8e63bade5137abd Pb
   COPYR  = (c) Copyright 06Sep2000 Georg Kresse                                
   COPYR  = This file is part of the software VASP. Any use, copying, and all ot
   COPYR  = If you do not have a valid VASP license, you may not use, copy or di
   VRHFIN =Pb:                                                                  
   LEXCH  = PE                                                                  
   EATOM  =  1661.6185 eV,  122.1255 Ry                                         
                                                                                
   TITEL  = PAW_PBE Pb_d 06Sep2000                                              
   LULTRA =        F    use ultrasoft PP ?                                      
   IUNSCR =        1    unscreen: 0-lin 1-nonlin 2-no                           
   RPACOR =    2.200    partial core radius                                     
   POMASS =  207.200; ZVAL   =   14.000    mass and valenz                      
   RCORE  =    2.500    outmost cutoff radius                                   
   RWIGS  =    3.260; RWIGS  =    1.725    wigner-seitz radius (au A)           
   ENMAX  =  237.835; ENMIN  =  178.376 eV                                      
   ICORE  =        3    local potential                                         
   LCOR   =        T    correct aug charges                                     
   LPAW   =        T    paw PP                                                  
   EAUG   =  391.914                                                            
   DEXC   =    0.000                                                            
   RMAX   =    2.565    core radius for proj-oper                               
   RAUG   =    1.300    factor for augmentation sphere                          
   RDEP   =    2.643    radius for radial grids                                 
   RDEPT  =    2.092    core radius for aug-charge                              
                                                                                
   Atomic configuration                                                         
   16 entries                                                                   
     n  l   j            E        occ.                                          
     1  0  0.50    -88091.8466   2.0000                                         
     2  0  0.50    -15753.4197   2.0000                                         
     2  1  1.50    -13508.1797   6.0000                                         
     3  0  0.50     -3781.7194   2.0000                                         
     3  1  1.50     -3138.2529   6.0000                                         
     3  2  2.50     -2483.2977  10.0000                                         
     4  0  0.50      -856.2895   2.0000                                         
     4  1  1.50      -645.4942   6.0000                                         
     4  2  2.50      -401.8768  10.0000                                         
     4  3  3.50      -132.9059  14.0000                                         
     5  0  0.50      -144.0950   2.0000                                         
     5  1  1.50       -85.7879   6.0000                                         
     5  2  2.50       -21.1769  10.0000                                         
     6  0  0.50       -12.0372   2.0000                                         
     6  1  1.50        -3.4971   2.0000                                         
     5  3  2.50        -2.7212   0.0000                                         
   Description                                                                  
     l       E           TYP  RCUT    TYP  RCUT                                 
     2    -21.1768523     23  2.500                                             
     2      1.3605826     23  2.500                                             
     0    -12.0371562     23  2.500                                             
     0     13.6058260     23  2.500                                             
     1     -3.4971339     23  2.500                                             
     1     13.6058260     23  2.500                                             
     3     -1.3605826      7  2.500                                             
  local pseudopotential read in
  partial core-charges read in
  partial kinetic energy density read in
  atomic valenz-charges read in
  non local Contribution for L=           2  read in
    real space projection operators read in
  non local Contribution for L=           2  read in
    real space projection operators read in
  non local Contribution for L=           0  read in
    real space projection operators read in
  non local Contribution for L=           0  read in
    real space projection operators read in
  non local Contribution for L=           1  read in
    real space projection operators read in
  non local Contribution for L=           1  read in
    real space projection operators read in
    PAW grid and wavefunctions read in

   number of l-projection  operators is LMAX  =           6
   number of lm-projection operators is LMMAX =          18

 POTCAR:    PAW_PBE Br 06Sep2000                  
   SHA256 =  96a73d2954943bbee26f4990d676cc6c3bf44b8dd2c75cd4b3b825d8403f0103 Br
   COPYR  = (c) Copyright 06Sep2000 Georg Kresse                                
   COPYR  = This file is part of the software VASP. Any use, copying, and all ot
   COPYR  = If you do not have a valid VASP license, you may not use, copy or di
   VRHFIN =Br: s2p5                                                             
   LEXCH  = PE                                                                  
   EATOM  =   368.4488 eV,   27.0802 Ry                                         
                                                                                
   TITEL  = PAW_PBE Br 06Sep2000                                                
   LULTRA =        F    use ultrasoft PP ?                                      
   IUNSCR =        1    unscreen: 0-lin 1-nonlin 2-no                           
   RPACOR =    1.900    partial core radius                                     
   POMASS =   79.904; ZVAL   =    7.000    mass and valenz                      
   RCORE  =    2.100    outmost cutoff radius                                   
   RWIGS  =    2.200; RWIGS  =    1.164    wigner-seitz radius (au A)           
   ENMAX  =  216.285; ENMIN  =  162.214 eV                                      
   ICORE  =        3    local potential                                         
   LCOR   =        T    correct aug charges                                     
   LPAW   =        T    paw PP                                                  
   EAUG   =  503.852                                                            
   DEXC   =    0.000                                                            
   RMAX   =    2.139    core radius for proj-oper                               
   RAUG   =    1.300    factor for augmentation sphere                          
   RDEP   =    2.186    radius for radial grids                                 
   RDEPT  =    1.890    core radius for aug-charge                              
                                                                                
   Atomic configuration                                                         
   10 entries                                                                   
     n  l   j            E        occ.                                          
     1  0  0.50    -13316.2796   2.0000                                         
     2  0  0.50     -1732.8239   2.0000                                         
     2  1  1.50     -1528.2193   6.0000                                         
     3  0  0.50      -238.0460   2.0000                                         
     3  1  1.50      -173.4609   6.0000                                         
     3  2  2.50       -66.7132  10.0000                                         
     4  0  0.50       -20.1334   2.0000                                         
     4  1  0.50        -7.8591   5.0000                                         
     4  2  2.50        -8.1635   0.0000                                         
     4  3  2.50        -8.1635   0.0000                                         
   Description                                                                  
     l       E           TYP  RCUT    TYP  RCUT                                 
     0    -20.1333652     23  2.100                                             
     0    -21.4939478     23  2.100                                             
     1     -7.8591052     23  2.100                                             
     1     -3.1608434     23  2.100                                             
     2     -8.1634956     23  2.100                                             
     3     -1.3605826      7  2.100                                             
  local pseudopotential read in
  partial core-charges read in
  partial kinetic energy density read in
  atomic valenz-charges read in
  non local Contribution for L=           0  read in
    real space projection operators read in
  non local Contribution for L=           0  read in
    real space projection operators read in
  non local Contribution for L=           1  read in
    real space projection operators read in
  non local Contribution for L=           1  read in
    real space projection operators read in
  non local Contribution for L=           2  read in
    real space projection operators read in
    PAW grid and wavefunctions read in

   number of l-projection  operators is LMAX  =           5
   number of lm-projection operators is LMMAX =          13

 Optimization of the real space projectors (new method)

 maximal supplied QI-value         = 15.12
 optimisation between [QCUT,QGAM] = [  8.77, 17.69] = [ 21.53, 87.61] Ry 
 Optimized for a Real-space Cutoff    1.85 Angstroem

   l    n(q)    QCUT    max X(q) W(low)/X(q) W(high)/X(q)  e(spline) 
   0     10     8.768    25.322    0.81E-04    0.51E-04    0.48E-06
   0     10     8.768    99.187    0.78E-04    0.50E-04    0.47E-06
   1      9     8.768    11.761    0.21E-03    0.20E-03    0.37E-06
   1      9     8.768     8.275    0.24E-03    0.22E-03    0.41E-06
   2      9     8.768     3.829    0.23E-04    0.15E-03    0.18E-06
 Optimization of the real space projectors (new method)

 maximal supplied QI-value         = 15.12
 optimisation between [QCUT,QGAM] = [  8.77, 17.69] = [ 21.53, 87.61] Ry 
 Optimized for a Real-space Cutoff    1.59 Angstroem

   l    n(q)    QCUT    max X(q) W(low)/X(q) W(high)/X(q)  e(spline) 
   2      7     8.768     3.846    0.48E-04    0.11E-03    0.11E-06
   2      7     8.768     8.593    0.20E-03    0.22E-04    0.24E-06
   0      8     8.768    20.082    0.68E-04    0.88E-04    0.41E-07
   0      8     8.768     8.597    0.89E-04    0.13E-03    0.59E-07
   1      8     8.768    33.223    0.15E-03    0.53E-04    0.87E-07
   1      8     8.768    15.899    0.14E-03    0.44E-04    0.78E-07
 Optimization of the real space projectors (new method)

 maximal supplied QI-value         = 17.95
 optimisation between [QCUT,QGAM] = [  8.80, 17.59] = [ 21.67, 86.68] Ry 
 Optimized for a Real-space Cutoff    1.59 Angstroem

   l    n(q)    QCUT    max X(q) W(low)/X(q) W(high)/X(q)  e(spline) 
   0      8     8.797   175.082    0.82E-04    0.14E-03    0.89E-07
   0      8     8.797   174.004    0.79E-04    0.14E-03    0.86E-07
   1      8     8.797    54.315    0.16E-03    0.14E-04    0.30E-06
   1      8     8.797    42.441    0.16E-03    0.14E-04    0.30E-06
   2      7     8.797     3.596    0.92E-04    0.15E-03    0.85E-07
  PAW_PBE Cs_sv 08Apr2002               :
 energy of atom  1       EATOM= -555.6835
 kinetic energy error for atom=    0.0069 (will be added to EATOM!!)
  PAW_PBE Pb_d 06Sep2000                :
 energy of atom  2       EATOM=-1661.6185
 kinetic energy error for atom=    0.0498 (will be added to EATOM!!)
  PAW_PBE Br 06Sep2000                  :
 energy of atom  3       EATOM= -368.4488
 kinetic energy error for atom=    0.0072 (will be added to EATOM!!)


 POSCAR: Cs4 Pb4 Br12                            
  positions in direct lattice
  velocities in cartesian coordinates

 METAGGA = SCAN     LMAXTAU =  6    LMIXTAU =  F

 exchange correlation table for  LEXCH =        8
   RHO(1)=    0.500       N(1)  =     2000
   RHO(2)=  100.500       N(2)  =     4000

 VTST: version 3.2, (02/03/18)

 CHAIN: initializing optimizer
 
 OPT: Using VASP Conjugate-Gradient optimizer
 CHAIN: Read ICHAIN            0

 POSCAR: Cs4 Pb4 Br12                            
  positions in direct lattice
  velocities in cartesian coordinates



--------------------------------------------------------------------------------------------------------


 ion  position               nearest neighbor table
   1  0.058  0.250  0.482-
   2  0.442  0.750  0.982-
   3  0.558  0.250  0.018-
   4  0.942  0.750  0.518-
   5  0.000  0.000  0.000-  10 2.98  11 2.98  15 3.04  18 3.04  17 3.05  16 3.05
   6  0.500  0.000  0.500-   9 2.98  12 2.98  16 3.04  17 3.04  15 3.05  18 3.05
   7  0.500  0.500  0.500-   9 2.98  12 2.98  13 3.04  19 3.04  14 3.05  20 3.05
   8  0.000  0.500  0.000-  10 2.98  11 2.98  14 3.04  20 3.04  19 3.05  13 3.05
   9  0.517  0.750  0.422-   6 2.98   7 2.98
  10  0.983  0.250  0.922-   5 2.98   8 2.98
  11  0.017  0.750  0.078-   5 2.98   8 2.98
  12  0.483  0.250  0.578-   6 2.98   7 2.98
  13  0.288  0.462  0.210-   7 3.04   8 3.05
  14  0.212  0.538  0.710-   8 3.04   7 3.05
  15  0.788  0.038  0.290-   5 3.04   6 3.05
  16  0.712  0.962  0.790-   6 3.04   5 3.05
  17  0.288  0.038  0.210-   6 3.04   5 3.05
  18  0.212  0.962  0.710-   5 3.04   6 3.05
  19  0.712  0.538  0.790-   7 3.04   8 3.05
  20  0.788  0.462  0.290-   8 3.04   7 3.05

  LATTYP: Found a simple orthorhombic cell.
 ALAT       =     8.2395401648
 B/A-ratio  =     1.0423418999
 C/A-ratio  =     1.4086009053
  
  Lattice vectors:
  
 A1 = (   0.0000000000,   0.0000000000,   8.2395401648)
 A2 = (  -8.5884179498,   0.0000000000,   0.0000000000)
 A3 = (   0.0000000000, -11.6062237353,   0.0000000000)


Analysis of symmetry for initial positions (statically):
=====================================================================
 Subroutine PRICEL returns:
 Original cell was already a primitive cell.
 

 Routine SETGRP: Setting up the symmetry group for a 
 simple orthorhombic supercell.


 Subroutine GETGRP returns: Found  8 space group operations
 (whereof  2 operations were pure point group operations)
 out of a pool of  8 trial point group operations.


The static configuration has the point symmetry S_2 .
 The point group associated with its full space group is D_2h.


Analysis of symmetry for dynamics (positions and initial velocities):
=====================================================================
 Subroutine PRICEL returns:
 Original cell was already a primitive cell.
 

 Routine SETGRP: Setting up the symmetry group for a 
 simple orthorhombic supercell.


 Subroutine GETGRP returns: Found  8 space group operations
 (whereof  2 operations were pure point group operations)
 out of a pool of  8 trial point group operations.


The dynamic configuration has the point symmetry S_2 .
 The point group associated with its full space group is D_2h.


 Subroutine INISYM returns: Found  8 space group operations
 (whereof  2 operations are pure point group operations),
 and found     1 'primitive' translations



 KPOINTS: 1x1x1                                   

Automatic generation of k-mesh.
Space group operators:
 irot       det(A)        alpha          n_x          n_y          n_z        tau_x        tau_y        tau_z
    1     1.000000     0.000000     1.000000     0.000000     0.000000     0.000000     0.000000     0.000000
    2    -1.000000     0.000000     1.000000     0.000000     0.000000     0.000000     0.000000     0.000000
    3     1.000000   180.000000     0.000000     1.000000     0.000000     0.000000    -0.500000     0.000000
    4    -1.000000   180.000000     0.000000     1.000000     0.000000     0.000000    -0.500000     0.000000
    5     1.000000   180.000000     1.000000     0.000000     0.000000    -0.500000    -0.500000     0.500000
    6    -1.000000   180.000000     1.000000     0.000000     0.000000    -0.500000    -0.500000     0.500000
    7     1.000000   180.000000     0.000000     0.000000     1.000000    -0.500000     0.000000     0.500000
    8    -1.000000   180.000000     0.000000     0.000000     1.000000    -0.500000     0.000000     0.500000
 
 Subroutine IBZKPT returns following result:
 ===========================================
 
 Found      8 irreducible k-points:
 
 Following reciprocal coordinates:
            Coordinates               Weight
  0.000000  0.000000  0.000000      1.000000
  0.333333  0.000000  0.000000      2.000000
  0.000000  0.500000  0.000000      1.000000
  0.333333  0.500000  0.000000      2.000000
  0.000000  0.000000  0.333333      2.000000
  0.333333  0.000000  0.333333      4.000000
  0.000000  0.500000  0.333333      2.000000
  0.333333  0.500000  0.333333      4.000000
 
 Following cartesian coordinates:
            Coordinates               Weight
  0.000000  0.000000  0.000000      1.000000
  0.038812  0.000000  0.000000      2.000000
  0.000000  0.043080  0.000000      1.000000
  0.038812  0.043080  0.000000      2.000000
  0.000000  0.000000  0.040455      2.000000
  0.038812  0.000000  0.040455      4.000000
  0.000000  0.043080  0.040455      2.000000
  0.038812  0.043080  0.040455      4.000000
 


--------------------------------------------------------------------------------------------------------




 Dimension of arrays:
   k-points           NKPTS =      8   k-points in BZ     NKDIM =      8   number of bands    NBANDS=    112
   number of dos      NEDOS =    301   number of ions     NIONS =     20
   non local maximal  LDIM  =      6   non local SUM 2l+1 LMDIM =     18
   total plane-waves  NPLWV = 168000
   max r-space proj   IRMAX =   5457   max aug-charges    IRDMAX=  87070
   dimension x,y,z NGX =    50 NGY =   70 NGZ =   48
   dimension x,y,z NGXF=   100 NGYF=  140 NGZF=   96
   support grid    NGXF=   200 NGYF=  280 NGZF=  192
   ions per type =               4   4  12
   NGX,Y,Z   is equivalent  to a cutoff of   9.68, 10.03,  9.68 a.u.
   NGXF,Y,Z  is equivalent  to a cutoff of  19.36, 20.05, 19.37 a.u.

 SYSTEM =  CsPbBr3 cubic bulk                      
 POSCAR =  Cs4 Pb4 Br12                            

 Startparameter for this run:
   NWRITE =      2    write-flag & timer
   PREC   = accura    normal or accurate (medium, high low for compatibility)
   ISTART =      0    job   : 0-new  1-cont  2-samecut
   ICHARG =      2    charge: 1-file 2-atom 10-const
   ISPIN  =      1    spin polarized calculation?
   LNONCOLLINEAR =      F non collinear calculations
   LSORBIT =      F    spin-orbit coupling
   INIWAV =      1    electr: 0-lowe 1-rand  2-diag
   LASPH  =      T    aspherical Exc in radial PAW
   METAGGA=      F    non-selfconsistent MetaGGA calc.

 Electronic Relaxation 1
   ENCUT  =  300.0 eV  22.05 Ry    4.70 a.u.  12.13 16.39 11.64*2*pi/ulx,y,z
   ENINI  =  300.0     initial cutoff
   ENAUG  =  503.9 eV  augmentation charge cutoff
   NELM   =    200;   NELMIN=  2; NELMDL= -5     # of ELM steps 
   EDIFF  = 0.1E-05   stopping-criterion for ELM
   LREAL  =      T    real-space projection
   NLSPLINE    = F    spline interpolate recip. space projectors
   LCOMPAT=      F    compatible to vasp.4.4
   GGA_COMPAT  = T    GGA compatible to vasp.4.4-vasp.4.6
   LMAXPAW     = -100 max onsite density
   LMAXMIX     =    2 max onsite mixed and CHGCAR
   VOSKOWN=      0    Vosko Wilk Nusair interpolation
   ROPT   =   -0.00025  -0.00025  -0.00025
 Ionic relaxation
   EDIFFG = -.1E-01   stopping-criterion for IOM
   NSW    =      0    number of steps for IOM
   NBLOCK =      1;   KBLOCK =      1    inner block; outer block 
   IBRION =     -1    ionic relax: 0-MD 1-quasi-New 2-CG
   NFREE  =      1    steps in history (QN), initial steepest desc. (CG)
   ISIF   =      3    stress and relaxation
   IWAVPR =     10    prediction:  0-non 1-charg 2-wave 3-comb
   ISYM   =      2    0-nonsym 1-usesym 2-fastsym
   LCORR  =      T    Harris-Foulkes like correction to forces

   POTIM  = 0.5000    time-step for ionic-motion
   TEIN   =    0.0    initial temperature
   TEBEG  =    0.0;   TEEND  =   0.0 temperature during run
   SMASS  =  -3.00    Nose mass-parameter (am)
   estimated Nose-frequenzy (Omega)   =  0.10E-29 period in steps =****** mass=  -0.169E-26a.u.
   SCALEE = 1.0000    scale energy and forces
   NPACO  =    256;   APACO  = 16.0  distance and # of slots for P.C.
   PSTRESS=    0.0 pullay stress

  Mass of Ions in am
   POMASS = 132.90207.20 79.90
  Ionic Valenz
   ZVAL   =   9.00 14.00  7.00
  Atomic Wigner-Seitz radii
   RWIGS  =  -1.00 -1.00 -1.00
  virtual crystal weights 
   VCA    =   1.00  1.00  1.00
   NELECT =     176.0000    total number of electrons
   NUPDOWN=      -1.0000    fix difference up-down

 DOS related values:
   EMIN   =  10.00;   EMAX   =-10.00  energy-range for DOS
   EFERMI =   0.00
   ISMEAR =     0;   SIGMA  =   0.01  broadening in eV -4-tet -1-fermi 0-gaus

 Electronic relaxation 2 (details)
   IALGO  =     38    algorithm
   LDIAG  =      T    sub-space diagonalisation (order eigenvalues)
   LSUBROT=      F    optimize rotation matrix (better conditioning)
   TURBO    =      0    0=normal 1=particle mesh
   IRESTART =      0    0=no restart 2=restart with 2 vectors
   NREBOOT  =      0    no. of reboots
   NMIN     =      0    reboot dimension
   EREF     =   0.00    reference energy to select bands
   IMIX   =      4    mixing-type and parameters
     AMIX     =   0.40;   BMIX     =  1.00
     AMIX_MAG =   1.60;   BMIX_MAG =  1.00
     AMIN     =   0.10
     WC   =   100.;   INIMIX=   1;  MIXPRE=   1;  MAXMIX= -45

 Intra band minimization:
   WEIMIN = 0.0000     energy-eigenvalue tresh-hold
   EBREAK =  0.22E-08  absolut break condition
   DEPER  =   0.30     relativ break condition  

   TIME   =   0.40     timestep for ELM

  volume/ion in A,a.u.               =      41.07       277.12
  Fermi-wavevector in a.u.,A,eV,Ry     =   0.979663  1.851295 13.058049  0.959740
  Thomas-Fermi vector in A             =   2.110533

 Write flags
   LWAVE        =      F    write WAVECAR
   LDOWNSAMPLE  =      F    k-point downsampling of WAVECAR
   LCHARG       =      F    write CHGCAR
   LVTOT        =      F    write LOCPOT, total local potential
   LVHAR        =      T    write LOCPOT, Hartree potential only
   LELF         =      F    write electronic localiz. function (ELF)
   LORBIT       =     10    0 simple, 1 ext, 2 COOP (PROOUT), +10 PAW based schemes


 Dipole corrections
   LMONO  =      F    monopole corrections only (constant potential shift)
   LDIPOL =      F    correct potential (dipole corrections)
   IDIPOL =      0    1-x, 2-y, 3-z, 4-all directions 
   EPSILON=  1.0000000 bulk dielectric constant

 Exchange correlation treatment:
   GGA     =    --    GGA type
   LEXCH   =     8    internal setting for exchange type
   VOSKOWN=      0    Vosko Wilk Nusair interpolation
   LHFCALC =     F    Hartree Fock is set to
   LHFONE  =     F    Hartree Fock one center treatment
   AEXX    =    0.0000 exact exchange contribution

 Linear response parameters
   LEPSILON=     F    determine dielectric tensor
   LRPA    =     F    only Hartree local field effects (RPA)
   LNABLA  =     F    use nabla operator in PAW spheres
   LVEL    =     F    velocity operator in full k-point grid
   LINTERFAST=   F  fast interpolation
   KINTER  =     0    interpolate to denser k-point grid
   CSHIFT  =0.1000    complex shift for real part using Kramers Kronig
   OMEGAMAX=  -1.0    maximum frequency
   DEG_THRESHOLD= 0.2000000E-02 threshold for treating states as degnerate
   RTIME   =   -0.100 relaxation time in fs
  (WPLASMAI=    0.000 imaginary part of plasma frequency in eV, 0.658/RTIME)
   DFIELD  = 0.0000000 0.0000000 0.0000000 field for delta impulse in time

 Orbital magnetization related:
   ORBITALMAG=     F  switch on orbital magnetization
   LCHIMAG   =     F  perturbation theory with respect to B field
   DQ        =  0.001000  dq finite difference perturbation B field
   LLRAUG    =     F  two centre corrections for induced B field



--------------------------------------------------------------------------------------------------------


 Static calculation
 charge density and potential will be updated during run
 non-spin polarized calculation
 Variant of blocked Davidson
 Davidson routine will perform the subspace rotation
 perform sub-space diagonalisation
    after iterative eigenvector-optimisation
 modified Broyden-mixing scheme, WC =      100.0
 initial mixing is a Kerker type mixing with AMIX =  0.4000 and BMIX =      1.0000
 Hartree-type preconditioning will be used
 using additional bands           24
 real space projection scheme for non local part
 use partial core corrections
 calculate Harris-corrections to forces   (improved forces if not selfconsistent)
 use gradient corrections 
 use of overlap-Matrix (Vanderbilt PP)
 Gauss-broadening in eV      SIGMA  =   0.01


--------------------------------------------------------------------------------------------------------


  energy-cutoff  :      300.00
  volume of cell :      821.31
      direct lattice vectors                 reciprocal lattice vectors
     8.588417950  0.000000000  0.000000000     0.116435880  0.000000000  0.000000000
     0.000000000 11.606223735  0.000000000     0.000000000  0.086160669  0.000000000
     0.000000000  0.000000000  8.239540165     0.000000000  0.000000000  0.121365996

  length of vectors
     8.588417950 11.606223735  8.239540165     0.116435880  0.086160669  0.121365996



 k-points in units of 2pi/SCALE and weight: 1x1x1                                   
   0.00000000  0.00000000  0.00000000       0.056
   0.03881196  0.00000000  0.00000000       0.111
   0.00000000  0.04308033  0.00000000       0.056
   0.03881196  0.04308033  0.00000000       0.111
   0.00000000  0.00000000  0.04045533       0.111
   0.03881196  0.00000000  0.04045533       0.222
   0.00000000  0.04308033  0.04045533       0.111
   0.03881196  0.04308033  0.04045533       0.222

 k-points in reciprocal lattice and weights: 1x1x1                                   
   0.00000000  0.00000000  0.00000000       0.056
   0.33333333  0.00000000  0.00000000       0.111
   0.00000000  0.50000000  0.00000000       0.056
   0.33333333  0.50000000  0.00000000       0.111
   0.00000000  0.00000000  0.33333333       0.111
   0.33333333  0.00000000  0.33333333       0.222
   0.00000000  0.50000000  0.33333333       0.111
   0.33333333  0.50000000  0.33333333       0.222

 position of ions in fractional coordinates (direct lattice) 
   0.05821920  0.25000000  0.48155770
   0.44178080  0.75000000  0.98155770
   0.55821920  0.25000000  0.01844230
   0.94178080  0.75000000  0.51844230
   0.00000000  0.00000000  0.00000000
   0.50000000  0.00000000  0.50000000
   0.50000000  0.50000000  0.50000000
   0.00000000  0.50000000  0.00000000
   0.51679788  0.75000000  0.42183154
   0.98320212  0.25000000  0.92183154
   0.01679788  0.75000000  0.07816846
   0.48320212  0.25000000  0.57816846
   0.28753270  0.46158301  0.20968987
   0.21246730  0.53841699  0.70968987
   0.78753270  0.03841699  0.29031013
   0.71246730  0.96158301  0.79031013
   0.28753270  0.03841699  0.20968987
   0.21246730  0.96158301  0.70968987
   0.71246730  0.53841699  0.79031013
   0.78753270  0.46158301  0.29031013

 position of ions in cartesian coordinates  (Angst):
   0.50001080  2.90155593  3.96781402
   3.79419817  8.70466780  8.08758411
   4.79421978  2.90155593  0.15195606
   8.08840715  8.70466780  4.27172614
   0.00000000  0.00000000  0.00000000
   4.29420897  0.00000000  4.11977008
   4.29420897  5.80311187  4.11977008
   0.00000000  5.80311187  0.00000000
   4.43847618  8.70466780  3.47569788
   8.44415075  2.90155593  7.59546796
   0.14426720  8.70466780  0.64407220
   4.14994177  2.90155593  4.76384229
   2.46945102  5.35723571  1.72774808
   1.82475795  6.24898802  5.84751817
   6.76366000  0.44587615  2.39202200
   6.11896693 11.16034758  6.51179208
   2.46945102  0.44587615  1.72774808
   1.82475795 11.16034758  5.84751817
   6.11896693  6.24898802  6.51179208
   6.76366000  5.35723571  2.39202200



--------------------------------------------------------------------------------------------------------


 k-point  1 :   0.0000 0.0000 0.0000  plane waves:    9675
 k-point  2 :   0.3333 0.0000 0.0000  plane waves:    9710
 k-point  3 :   0.0000 0.5000 0.0000  plane waves:    9624
 k-point  4 :   0.3333 0.5000 0.0000  plane waves:    9698
 k-point  5 :   0.0000 0.0000 0.3333  plane waves:    9697
 k-point  6 :   0.3333 0.0000 0.3333  plane waves:    9676
 k-point  7 :   0.0000 0.5000 0.3333  plane waves:    9666
 k-point  8 :   0.3333 0.5000 0.3333  plane waves:    9684

 maximum and minimum number of plane-waves per node :      1226     1194

 maximum number of plane-waves:      9710
 maximum index in each direction: 
   IXMAX=   12   IYMAX=   16   IZMAX=   11
   IXMIN=  -12   IYMIN=  -16   IZMIN=  -11


 real space projection operators:
  total allocation   :       8105.00 KBytes
  max/ min on nodes  :       1144.17        942.67


 parallel 3D FFT for wavefunctions:
    minimum data exchange during FFTs selected (reduces bandwidth)
 parallel 3D FFT for charge:
    minimum data exchange during FFTs selected (reduces bandwidth)


 total amount of memory used by VASP MPI-rank0    43662. kBytes
=======================================================================

   base      :      30000. kBytes
   nonlr-proj:       3253. kBytes
   fftplans  :       4446. kBytes
   grid      :       3667. kBytes
   one-center:         46. kBytes
   wavefun   :       2250. kBytes

     INWAV:  cpu time    0.0000: real time    0.0000
 Broyden mixing: mesh for mixing (old mesh)
   NGX = 25   NGY = 33   NGZ = 23
  (NGX  =100   NGY  =140   NGZ  = 96)
  gives a total of  18975 points

 initial charge density was supplied:
 charge density of overlapping atoms calculated
 number of electron     176.0000000 magnetization 
 keeping initial charge density in first step


--------------------------------------------------------------------------------------------------------


 Maximum index for non-local projection operator          924
 Maximum index for augmentation-charges         4486 (set IRDMAX)


--------------------------------------------------------------------------------------------------------


 First call to EWALD:  gamma=   0.189
 Maximum number of real-space cells 3x 2x 3
 Maximum number of reciprocal cells 3x 3x 2

    FEWALD:  cpu time    0.0022: real time    0.0022


--------------------------------------- Iteration      1(   1)  ---------------------------------------


    POTLOK:  cpu time    0.1300: real time    0.1454
    SETDIJ:  cpu time    1.0994: real time    1.0995
     EDDAV:  cpu time    4.3683: real time    4.3734
       DOS:  cpu time    0.0004: real time    0.0004
    --------------------------------------------
      LOOP:  cpu time    5.5982: real time    5.6187

 eigenvalue-minimisations  :  1856
 total energy-change (2. order) : 0.6514113E+03  (-0.5604381E+04)
 number of electron     176.0000000 magnetization 
 augmentation part      176.0000000 magnetization 

 Free energy of the ion-electron system (eV)
  ---------------------------------------------------
  alpha Z        PSCENC =       439.30909846
  Ewald energy   TEWEN  =     -9146.22394814
  -Hartree energ DENC   =     -3703.35755929
  -exchange      EXHF   =         0.00000000
  -V(xc)+E(xc)   XCENC  =       461.52108201
  PAW double counting   =     10816.98087266   -11353.96092700
  entropy T*S    EENTRO =        -0.00000000
  eigenvalues    EBANDS =      -153.13741352
  atomic energy  EATOM  =     13290.28009929
  Solvation  Ediel_sol  =         0.00000000
  ---------------------------------------------------
  free energy    TOTEN  =       651.41130445 eV

  energy without entropy =      651.41130445  energy(sigma->0) =      651.41130445


--------------------------------------------------------------------------------------------------------




--------------------------------------- Iteration      1(   2)  ---------------------------------------


     EDDAV:  cpu time    4.8913: real time    4.9006
       DOS:  cpu time    0.0003: real time    0.0003
    --------------------------------------------
      LOOP:  cpu time    4.8916: real time    4.9009

 eigenvalue-minimisations  :  2200
 total energy-change (2. order) :-0.1228837E+04  (-0.1183663E+04)
 number of electron     176.0000000 magnetization 
 augmentation part      176.0000000 magnetization 

 Free energy of the ion-electron system (eV)
  ---------------------------------------------------
  alpha Z        PSCENC =       439.30909846
  Ewald energy   TEWEN  =     -9146.22394814
  -Hartree energ DENC   =     -3703.35755929
  -exchange      EXHF   =         0.00000000
  -V(xc)+E(xc)   XCENC  =       461.52108201
  PAW double counting   =     10816.98087266   -11353.96092700
  entropy T*S    EENTRO =        -0.00000000
  eigenvalues    EBANDS =     -1381.97409946
  atomic energy  EATOM  =     13290.28009929
  Solvation  Ediel_sol  =         0.00000000
  ---------------------------------------------------
  free energy    TOTEN  =      -577.42538149 eV

  energy without entropy =     -577.42538149  energy(sigma->0) =     -577.42538149


--------------------------------------------------------------------------------------------------------




--------------------------------------- Iteration      1(   3)  ---------------------------------------


     EDDAV:  cpu time    5.2011: real time    5.2462
       DOS:  cpu time    0.0003: real time    0.0003
    --------------------------------------------
      LOOP:  cpu time    5.2014: real time    5.2465

 eigenvalue-minimisations  :  2424
 total energy-change (2. order) :-0.1713627E+03  (-0.1702838E+03)
 number of electron     176.0000000 magnetization 
 augmentation part      176.0000000 magnetization 

 Free energy of the ion-electron system (eV)
  ---------------------------------------------------
  alpha Z        PSCENC =       439.30909846
  Ewald energy   TEWEN  =     -9146.22394814
  -Hartree energ DENC   =     -3703.35755929
  -exchange      EXHF   =         0.00000000
  -V(xc)+E(xc)   XCENC  =       461.52108201
  PAW double counting   =     10816.98087266   -11353.96092700
  entropy T*S    EENTRO =        -0.00000000
  eigenvalues    EBANDS =     -1553.33679062
  atomic energy  EATOM  =     13290.28009929
  Solvation  Ediel_sol  =         0.00000000
  ---------------------------------------------------
  free energy    TOTEN  =      -748.78807265 eV

  energy without entropy =     -748.78807265  energy(sigma->0) =     -748.78807265


--------------------------------------------------------------------------------------------------------




--------------------------------------- Iteration      1(   4)  ---------------------------------------


     EDDAV:  cpu time    4.8669: real time    4.8809
       DOS:  cpu time    0.0003: real time    0.0003
    --------------------------------------------
      LOOP:  cpu time    4.8672: real time    4.8812

 eigenvalue-minimisations  :  2168
 total energy-change (2. order) :-0.5754808E+01  (-0.5735078E+01)
 number of electron     176.0000000 magnetization 
 augmentation part      176.0000000 magnetization 

 Free energy of the ion-electron system (eV)
  ---------------------------------------------------
  alpha Z        PSCENC =       439.30909846
  Ewald energy   TEWEN  =     -9146.22394814
  -Hartree energ DENC   =     -3703.35755929
  -exchange      EXHF   =         0.00000000
  -V(xc)+E(xc)   XCENC  =       461.52108201
  PAW double counting   =     10816.98087266   -11353.96092700
  entropy T*S    EENTRO =        -0.00000000
  eigenvalues    EBANDS =     -1559.09159812
  atomic energy  EATOM  =     13290.28009929
  Solvation  Ediel_sol  =         0.00000000
  ---------------------------------------------------
  free energy    TOTEN  =      -754.54288015 eV

  energy without entropy =     -754.54288015  energy(sigma->0) =     -754.54288015


--------------------------------------------------------------------------------------------------------




--------------------------------------- Iteration      1(   5)  ---------------------------------------


     EDDAV:  cpu time    5.1672: real time    5.1962
       DOS:  cpu time    0.0004: real time    0.0004
    CHARGE:  cpu time    0.9525: real time    0.9526
    MIXING:  cpu time    0.0008: real time    0.0008
    --------------------------------------------
      LOOP:  cpu time    6.1210: real time    6.1500

 eigenvalue-minimisations  :  2392
 total energy-change (2. order) :-0.2683478E+00  (-0.2681450E+00)
 number of electron     175.9999996 magnetization 
 augmentation part       -3.2369315 magnetization 

 Broyden mixing:
  rms(total) = 0.69312E+00    rms(broyden)= 0.69288E+00
  rms(prec ) = 0.98489E+00
  weight for this iteration     100.00

 Free energy of the ion-electron system (eV)
  ---------------------------------------------------
  alpha Z        PSCENC =       439.30909846
  Ewald energy   TEWEN  =     -9146.22394814
  -Hartree energ DENC   =     -3703.35755929
  -exchange      EXHF   =         0.00000000
  -V(xc)+E(xc)   XCENC  =       461.52108201
  PAW double counting   =     10816.98087266   -11353.96092700
  entropy T*S    EENTRO =        -0.00000000
  eigenvalues    EBANDS =     -1559.35994588
  atomic energy  EATOM  =     13290.28009929
  Solvation  Ediel_sol  =         0.00000000
  ---------------------------------------------------
  free energy    TOTEN  =      -754.81122790 eV

  energy without entropy =     -754.81122790  energy(sigma->0) =     -754.81122790


--------------------------------------------------------------------------------------------------------




--------------------------------------- Iteration      1(   6)  ---------------------------------------


    POTLOK:  cpu time    0.1405: real time    0.1854
    SETDIJ:  cpu time    1.0997: real time    1.0998
     EDDAV:  cpu time    5.0627: real time    5.0631
       DOS:  cpu time    0.0004: real time    0.0004
    CHARGE:  cpu time    0.9169: real time    0.9169
    MIXING:  cpu time    0.0009: real time    0.0009
    --------------------------------------------
      LOOP:  cpu time    7.2212: real time    7.2665

 eigenvalue-minimisations  :  2344
 total energy-change (2. order) : 0.3986286E+02  (-0.1188219E+01)
 number of electron     175.9999996 magnetization 
 augmentation part       -2.5084320 magnetization 

 Broyden mixing:
  rms(total) = 0.49309E+00    rms(broyden)= 0.49303E+00
  rms(prec ) = 0.62323E+00
  weight for this iteration     100.00

 eigenvalues of (default mixing * dielectric matrix)
  average eigenvalue GAMMA=   1.1368
  1.1368

 Free energy of the ion-electron system (eV)
  ---------------------------------------------------
  alpha Z        PSCENC =       439.30909846
  Ewald energy   TEWEN  =     -9146.22394814
  -Hartree energ DENC   =     -3693.61985641
  -exchange      EXHF   =         0.00000000
  -V(xc)+E(xc)   XCENC  =       477.05301514
  PAW double counting   =     10948.09099674   -11484.01271294
  entropy T*S    EENTRO =        -0.00000000
  eigenvalues    EBANDS =     -1545.82505973
  atomic energy  EATOM  =     13290.28009929
  Solvation  Ediel_sol  =         0.00000000
  ---------------------------------------------------
  free energy    TOTEN  =      -714.94836759 eV

  energy without entropy =     -714.94836759  energy(sigma->0) =     -714.94836759


--------------------------------------------------------------------------------------------------------




--------------------------------------- Iteration      1(   7)  ---------------------------------------


    POTLOK:  cpu time    0.1550: real time    0.1642
    SETDIJ:  cpu time    1.0981: real time    1.0981
     EDDAV:  cpu time    4.9567: real time    4.9569
       DOS:  cpu time    0.0004: real time    0.0004
    CHARGE:  cpu time    0.9155: real time    0.9155
    MIXING:  cpu time    0.0010: real time    0.0010
    --------------------------------------------
      LOOP:  cpu time    7.1267: real time    7.1360

 eigenvalue-minimisations  :  2272
 total energy-change (2. order) : 0.2345805E+00  (-0.3984978E+00)
 number of electron     175.9999996 magnetization 
 augmentation part       -2.2395588 magnetization 

 Broyden mixing:
  rms(total) = 0.25882E+00    rms(broyden)= 0.25881E+00
  rms(prec ) = 0.28541E+00
  weight for this iteration     100.00

 eigenvalues of (default mixing * dielectric matrix)
  average eigenvalue GAMMA=   1.3057
  1.3057  1.3057

 Free energy of the ion-electron system (eV)
  ---------------------------------------------------
  alpha Z        PSCENC =       439.30909846
  Ewald energy   TEWEN  =     -9146.22394814
  -Hartree energ DENC   =     -3713.28637800
  -exchange      EXHF   =         0.00000000
  -V(xc)+E(xc)   XCENC  =       479.64310185
  PAW double counting   =     11241.62696933   -11776.49173919
  entropy T*S    EENTRO =        -0.00000000
  eigenvalues    EBANDS =     -1529.57099064
  atomic energy  EATOM  =     13290.28009929
  Solvation  Ediel_sol  =         0.00000000
  ---------------------------------------------------
  free energy    TOTEN  =      -714.71378705 eV

  energy without entropy =     -714.71378705  energy(sigma->0) =     -714.71378705


--------------------------------------------------------------------------------------------------------




--------------------------------------- Iteration      1(   8)  ---------------------------------------


    POTLOK:  cpu time    0.1243: real time    0.1459
    SETDIJ:  cpu time    1.0975: real time    1.0975
     EDDAV:  cpu time    4.7687: real time    4.7689
       DOS:  cpu time    0.0004: real time    0.0004
    CHARGE:  cpu time    0.9159: real time    0.9159
    MIXING:  cpu time    0.0010: real time    0.0010
    --------------------------------------------
      LOOP:  cpu time    6.9078: real time    6.9296

 eigenvalue-minimisations  :  2144
 total energy-change (2. order) :-0.9784384E-01  (-0.1843565E-01)
 number of electron     175.9999996 magnetization 
 augmentation part       -2.2838831 magnetization 

 Broyden mixing:
  rms(total) = 0.14907E+00    rms(broyden)= 0.14907E+00
  rms(prec ) = 0.16638E+00
  weight for this iteration     100.00

 eigenvalues of (default mixing * dielectric matrix)
  average eigenvalue GAMMA=   1.7064
  1.1161  1.2944  2.7087

 Free energy of the ion-electron system (eV)
  ---------------------------------------------------
  alpha Z        PSCENC =       439.30909846
  Ewald energy   TEWEN  =     -9146.22394814
  -Hartree energ DENC   =     -3715.23446244
  -exchange      EXHF   =         0.00000000
  -V(xc)+E(xc)   XCENC  =       479.99569008
  PAW double counting   =     11355.00609844   -11889.99227370
  entropy T*S    EENTRO =        -0.00000000
  eigenvalues    EBANDS =     -1527.95193287
  atomic energy  EATOM  =     13290.28009929
  Solvation  Ediel_sol  =         0.00000000
  ---------------------------------------------------
  free energy    TOTEN  =      -714.81163088 eV

  energy without entropy =     -714.81163088  energy(sigma->0) =     -714.81163088


--------------------------------------------------------------------------------------------------------




--------------------------------------- Iteration      1(   9)  ---------------------------------------


    POTLOK:  cpu time    0.1503: real time    0.1690
    SETDIJ:  cpu time    1.0974: real time    1.0974
     EDDAV:  cpu time    4.5390: real time    4.5391
       DOS:  cpu time    0.0007: real time    0.0007
    CHARGE:  cpu time    0.9145: real time    0.9145
    MIXING:  cpu time    0.0009: real time    0.0009
    --------------------------------------------
      LOOP:  cpu time    6.7027: real time    6.7216

 eigenvalue-minimisations  :  1984
 total energy-change (2. order) :-0.4334715E-01  (-0.8970828E-02)
 number of electron     175.9999996 magnetization 
 augmentation part       -2.3058628 magnetization 

 Broyden mixing:
  rms(total) = 0.32708E-01    rms(broyden)= 0.32706E-01
  rms(prec ) = 0.35185E-01
  weight for this iteration     100.00

 eigenvalues of (default mixing * dielectric matrix)
  average eigenvalue GAMMA=   1.4616
  2.5399  1.2404  1.2404  0.8259

 Free energy of the ion-electron system (eV)
  ---------------------------------------------------
  alpha Z        PSCENC =       439.30909846
  Ewald energy   TEWEN  =     -9146.22394814
  -Hartree energ DENC   =     -3717.70669834
  -exchange      EXHF   =         0.00000000
  -V(xc)+E(xc)   XCENC  =       481.01681896
  PAW double counting   =     11519.97919930   -12055.28265092
  entropy T*S    EENTRO =        -0.00000000
  eigenvalues    EBANDS =     -1526.22689664
  atomic energy  EATOM  =     13290.28009929
  Solvation  Ediel_sol  =         0.00000000
  ---------------------------------------------------
  free energy    TOTEN  =      -714.85497803 eV

  energy without entropy =     -714.85497803  energy(sigma->0) =     -714.85497803


--------------------------------------------------------------------------------------------------------




--------------------------------------- Iteration      1(  10)  ---------------------------------------


    POTLOK:  cpu time    0.1267: real time    0.1496
    SETDIJ:  cpu time    1.0980: real time    1.0981
     EDDAV:  cpu time    5.3789: real time    5.3790
       DOS:  cpu time    0.0003: real time    0.0003
    CHARGE:  cpu time    0.9153: real time    0.9154
    MIXING:  cpu time    0.0010: real time    0.0010
    --------------------------------------------
      LOOP:  cpu time    7.5203: real time    7.5435

 eigenvalue-minimisations  :  2560
 total energy-change (2. order) :-0.9523000E-03  (-0.5262534E-03)
 number of electron     175.9999996 magnetization 
 augmentation part       -2.2992162 magnetization 

 Broyden mixing:
  rms(total) = 0.18858E-01    rms(broyden)= 0.18857E-01
  rms(prec ) = 0.21116E-01
  weight for this iteration     100.00

 eigenvalues of (default mixing * dielectric matrix)
  average eigenvalue GAMMA=   1.6083
  2.4671  2.4671  1.1325  1.1325  0.8422

 Free energy of the ion-electron system (eV)
  ---------------------------------------------------
  alpha Z        PSCENC =       439.30909846
  Ewald energy   TEWEN  =     -9146.22394814
  -Hartree energ DENC   =     -3716.79933276
  -exchange      EXHF   =         0.00000000
  -V(xc)+E(xc)   XCENC  =       480.91095474
  PAW double counting   =     11503.28348903   -12038.63689878
  entropy T*S    EENTRO =        -0.00000000
  eigenvalues    EBANDS =     -1526.97939217
  atomic energy  EATOM  =     13290.28009929
  Solvation  Ediel_sol  =         0.00000000
  ---------------------------------------------------
  free energy    TOTEN  =      -714.85593033 eV

  energy without entropy =     -714.85593033  energy(sigma->0) =     -714.85593033


--------------------------------------------------------------------------------------------------------




--------------------------------------- Iteration      1(  11)  ---------------------------------------


    POTLOK:  cpu time    0.1572: real time    0.1589
    SETDIJ:  cpu time    1.0960: real time    1.0960
     EDDAV:  cpu time    4.5581: real time    4.5582
       DOS:  cpu time    0.0004: real time    0.0004
    CHARGE:  cpu time    0.9127: real time    0.9127
    MIXING:  cpu time    0.0010: real time    0.0010
    --------------------------------------------
      LOOP:  cpu time    6.7253: real time    6.7273

 eigenvalue-minimisations  :  2000
 total energy-change (2. order) :-0.1722052E-02  (-0.1873821E-03)
 number of electron     175.9999996 magnetization 
 augmentation part       -2.2989063 magnetization 

 Broyden mixing:
  rms(total) = 0.69899E-02    rms(broyden)= 0.69896E-02
  rms(prec ) = 0.85793E-02
  weight for this iteration     100.00

 eigenvalues of (default mixing * dielectric matrix)
  average eigenvalue GAMMA=   1.5789
  2.5981  2.5981  1.2226  1.2226  0.9161  0.9161

 Free energy of the ion-electron system (eV)
  ---------------------------------------------------
  alpha Z        PSCENC =       439.30909846
  Ewald energy   TEWEN  =     -9146.22394814
  -Hartree energ DENC   =     -3715.38593621
  -exchange      EXHF   =         0.00000000
  -V(xc)+E(xc)   XCENC  =       480.85997107
  PAW double counting   =     11488.95887833   -12024.49489197
  entropy T*S    EENTRO =        -0.00000000
  eigenvalues    EBANDS =     -1528.16092322
  atomic energy  EATOM  =     13290.28009929
  Solvation  Ediel_sol  =         0.00000000
  ---------------------------------------------------
  free energy    TOTEN  =      -714.85765238 eV

  energy without entropy =     -714.85765238  energy(sigma->0) =     -714.85765238


--------------------------------------------------------------------------------------------------------




--------------------------------------- Iteration      1(  12)  ---------------------------------------


    POTLOK:  cpu time    0.1482: real time    0.1816
    SETDIJ:  cpu time    1.0963: real time    1.0963
     EDDAV:  cpu time    4.8154: real time    4.8156
       DOS:  cpu time    0.0004: real time    0.0004
    CHARGE:  cpu time    0.9138: real time    0.9138
    MIXING:  cpu time    0.0011: real time    0.0011
    --------------------------------------------
      LOOP:  cpu time    6.9751: real time    7.0089

 eigenvalue-minimisations  :  2176
 total energy-change (2. order) :-0.2068585E-04  (-0.4878625E-04)
 number of electron     175.9999996 magnetization 
 augmentation part       -2.3007342 magnetization 

 Broyden mixing:
  rms(total) = 0.23509E-02    rms(broyden)= 0.23504E-02
  rms(prec ) = 0.26599E-02
  weight for this iteration     100.00

 eigenvalues of (default mixing * dielectric matrix)
  average eigenvalue GAMMA=   1.6369
  3.0638  2.2979  1.9481  0.9576  0.9576  1.1168  1.1168

 Free energy of the ion-electron system (eV)
  ---------------------------------------------------
  alpha Z        PSCENC =       439.30909846
  Ewald energy   TEWEN  =     -9146.22394814
  -Hartree energ DENC   =     -3715.56805344
  -exchange      EXHF   =         0.00000000
  -V(xc)+E(xc)   XCENC  =       480.92303074
  PAW double counting   =     11494.26878997   -12029.84577113
  entropy T*S    EENTRO =        -0.00000000
  eigenvalues    EBANDS =     -1528.00091882
  atomic energy  EATOM  =     13290.28009929
  Solvation  Ediel_sol  =         0.00000000
  ---------------------------------------------------
  free energy    TOTEN  =      -714.85767307 eV

  energy without entropy =     -714.85767307  energy(sigma->0) =     -714.85767307


--------------------------------------------------------------------------------------------------------




--------------------------------------- Iteration      1(  13)  ---------------------------------------


    POTLOK:  cpu time    0.1231: real time    0.1792
    SETDIJ:  cpu time    1.0959: real time    1.0959
     EDDAV:  cpu time    4.7685: real time    4.7687
       DOS:  cpu time    0.0004: real time    0.0004
    CHARGE:  cpu time    0.9127: real time    0.9127
    MIXING:  cpu time    0.0014: real time    0.0014
    --------------------------------------------
      LOOP:  cpu time    6.9020: real time    6.9583

 eigenvalue-minimisations  :  2144
 total energy-change (2. order) :-0.4161441E-05  (-0.4769271E-05)
 number of electron     175.9999996 magnetization 
 augmentation part       -2.3006219 magnetization 

 Broyden mixing:
  rms(total) = 0.63269E-03    rms(broyden)= 0.63170E-03
  rms(prec ) = 0.68906E-03
  weight for this iteration     100.00

 eigenvalues of (default mixing * dielectric matrix)
  average eigenvalue GAMMA=   1.6239
  2.9978  2.4509  2.0686  1.2679  1.2679  0.9351  1.0017  1.0017

 Free energy of the ion-electron system (eV)
  ---------------------------------------------------
  alpha Z        PSCENC =       439.30909846
  Ewald energy   TEWEN  =     -9146.22394814
  -Hartree energ DENC   =     -3715.72206063
  -exchange      EXHF   =         0.00000000
  -V(xc)+E(xc)   XCENC  =       480.93642750
  PAW double counting   =     11492.94124264   -12028.52204451
  entropy T*S    EENTRO =        -0.00000000
  eigenvalues    EBANDS =     -1527.85649184
  atomic energy  EATOM  =     13290.28009929
  Solvation  Ediel_sol  =         0.00000000
  ---------------------------------------------------
  free energy    TOTEN  =      -714.85767723 eV

  energy without entropy =     -714.85767723  energy(sigma->0) =     -714.85767723


--------------------------------------------------------------------------------------------------------




--------------------------------------- Iteration      1(  14)  ---------------------------------------


    POTLOK:  cpu time    0.1295: real time    0.1695
    SETDIJ:  cpu time    1.0954: real time    1.0955
     EDDAV:  cpu time    4.1085: real time    4.1086
       DOS:  cpu time    0.0004: real time    0.0004
    CHARGE:  cpu time    0.9134: real time    0.9135
    MIXING:  cpu time    0.0010: real time    0.0010
    --------------------------------------------
      LOOP:  cpu time    6.2482: real time    6.2884

 eigenvalue-minimisations  :  1656
 total energy-change (2. order) :-0.1411315E-04  (-0.2390975E-06)
 number of electron     175.9999996 magnetization 
 augmentation part       -2.3004878 magnetization 

 Broyden mixing:
  rms(total) = 0.19815E-03    rms(broyden)= 0.19521E-03
  rms(prec ) = 0.23083E-03
  weight for this iteration     100.00

 eigenvalues of (default mixing * dielectric matrix)
  average eigenvalue GAMMA=   1.6853
  2.8030  2.8030  2.3507  2.0131  1.1385  1.1385  0.9245  0.9983  0.9983

 Free energy of the ion-electron system (eV)
  ---------------------------------------------------
  alpha Z        PSCENC =       439.30909846
  Ewald energy   TEWEN  =     -9146.22394814
  -Hartree energ DENC   =     -3715.72662449
  -exchange      EXHF   =         0.00000000
  -V(xc)+E(xc)   XCENC  =       480.93586495
  PAW double counting   =     11492.58271365   -12028.16173069
  entropy T*S    EENTRO =        -0.00000000
  eigenvalues    EBANDS =     -1527.85316437
  atomic energy  EATOM  =     13290.28009929
  Solvation  Ediel_sol  =         0.00000000
  ---------------------------------------------------
  free energy    TOTEN  =      -714.85769134 eV

  energy without entropy =     -714.85769134  energy(sigma->0) =     -714.85769134


--------------------------------------------------------------------------------------------------------




--------------------------------------- Iteration      1(  15)  ---------------------------------------


    POTLOK:  cpu time    0.1538: real time    0.1663
    SETDIJ:  cpu time    1.0976: real time    1.0976
     EDDAV:  cpu time    3.5008: real time    3.5009
       DOS:  cpu time    0.0004: real time    0.0004
    CHARGE:  cpu time    0.9162: real time    0.9163
    MIXING:  cpu time    0.0012: real time    0.0012
    --------------------------------------------
      LOOP:  cpu time    5.6700: real time    5.6827

 eigenvalue-minimisations  :  1224
 total energy-change (2. order) :-0.1973058E-05  (-0.4624642E-07)
 number of electron     175.9999996 magnetization 
 augmentation part       -2.3004694 magnetization 

 Broyden mixing:
  rms(total) = 0.73277E-04    rms(broyden)= 0.64959E-04
  rms(prec ) = 0.76647E-04
  weight for this iteration     100.00
  WARNING: grid for Broyden might be to small

 eigenvalues of (default mixing * dielectric matrix)
  average eigenvalue GAMMA=   1.6579
  3.0939  2.7063  2.4646  1.9449  1.2297  1.2297  1.0184  1.0184  0.9367  0.9367

 Free energy of the ion-electron system (eV)
  ---------------------------------------------------
  alpha Z        PSCENC =       439.30909846
  Ewald energy   TEWEN  =     -9146.22394814
  -Hartree energ DENC   =     -3715.71696903
  -exchange      EXHF   =         0.00000000
  -V(xc)+E(xc)   XCENC  =       480.93546705
  PAW double counting   =     11492.61431510   -12028.19278289
  entropy T*S    EENTRO =        -0.00000000
  eigenvalues    EBANDS =     -1527.86297316
  atomic energy  EATOM  =     13290.28009929
  Solvation  Ediel_sol  =         0.00000000
  ---------------------------------------------------
  free energy    TOTEN  =      -714.85769332 eV

  energy without entropy =     -714.85769332  energy(sigma->0) =     -714.85769332


--------------------------------------------------------------------------------------------------------




--------------------------------------- Iteration      1(  16)  ---------------------------------------


    POTLOK:  cpu time    0.1691: real time    0.1704
    SETDIJ:  cpu time    1.0962: real time    1.0962
     EDDAV:  cpu time    3.4795: real time    3.4796
       DOS:  cpu time    0.0004: real time    0.0004
    CHARGE:  cpu time    0.9164: real time    0.9164
    MIXING:  cpu time    0.0012: real time    0.0012
    --------------------------------------------
      LOOP:  cpu time    5.6628: real time    5.6642

 eigenvalue-minimisations  :  1208
 total energy-change (2. order) : 0.1953105E-05  (-0.1589734E-07)
 number of electron     175.9999996 magnetization 
 augmentation part       -2.3005173 magnetization 

 Broyden mixing:
  rms(total) = 0.50115E-04    rms(broyden)= 0.36907E-04
  rms(prec ) = 0.40763E-04
  weight for this iteration     100.00
  WARNING: grid for Broyden might be to small

 eigenvalues of (default mixing * dielectric matrix)
  average eigenvalue GAMMA=   1.6576
  3.0952  2.6775  2.6775  1.8163  1.8163  1.1574  1.1574  0.9417  0.9417  0.9764
  0.9764

 Free energy of the ion-electron system (eV)
  ---------------------------------------------------
  alpha Z        PSCENC =       439.30909846
  Ewald energy   TEWEN  =     -9146.22394814
  -Hartree energ DENC   =     -3715.72008693
  -exchange      EXHF   =         0.00000000
  -V(xc)+E(xc)   XCENC  =       480.93575067
  PAW double counting   =     11492.60764402   -12028.18611948
  entropy T*S    EENTRO =        -0.00000000
  eigenvalues    EBANDS =     -1527.86012925
  atomic energy  EATOM  =     13290.28009929
  Solvation  Ediel_sol  =         0.00000000
  ---------------------------------------------------
  free energy    TOTEN  =      -714.85769136 eV

  energy without entropy =     -714.85769136  energy(sigma->0) =     -714.85769136


--------------------------------------------------------------------------------------------------------




--------------------------------------- Iteration      1(  17)  ---------------------------------------


    POTLOK:  cpu time    0.1202: real time    0.1708
    SETDIJ:  cpu time    1.0974: real time    1.0974
     EDDAV:  cpu time    3.3049: real time    3.3050
       DOS:  cpu time    0.0004: real time    0.0004
    CHARGE:  cpu time    0.9152: real time    0.9153
    MIXING:  cpu time    0.0013: real time    0.0013
    --------------------------------------------
      LOOP:  cpu time    5.4394: real time    5.4902

 eigenvalue-minimisations  :  1088
 total energy-change (2. order) : 0.1428123E-05  (-0.5254689E-08)
 number of electron     175.9999996 magnetization 
 augmentation part       -2.3004959 magnetization 

 Broyden mixing:
  rms(total) = 0.36913E-04    rms(broyden)= 0.14607E-04
  rms(prec ) = 0.15944E-04
  weight for this iteration     100.00
  WARNING: grid for Broyden might be to small

 eigenvalues of (default mixing * dielectric matrix)
  average eigenvalue GAMMA=   1.7354
  3.6431  3.0341  2.4251  2.4251  2.0173  1.2228  1.1441  1.1441  0.9731  0.9731
  0.9113  0.9113

 Free energy of the ion-electron system (eV)
  ---------------------------------------------------
  alpha Z        PSCENC =       439.30909846
  Ewald energy   TEWEN  =     -9146.22394814
  -Hartree energ DENC   =     -3715.72177730
  -exchange      EXHF   =         0.00000000
  -V(xc)+E(xc)   XCENC  =       480.93589421
  PAW double counting   =     11492.61882737   -12028.19716933
  entropy T*S    EENTRO =        -0.00000000
  eigenvalues    EBANDS =     -1527.85871450
  atomic energy  EATOM  =     13290.28009929
  Solvation  Ediel_sol  =         0.00000000
  ---------------------------------------------------
  free energy    TOTEN  =      -714.85768994 eV

  energy without entropy =     -714.85768994  energy(sigma->0) =     -714.85768994


--------------------------------------------------------------------------------------------------------




--------------------------------------- Iteration      1(  18)  ---------------------------------------


    POTLOK:  cpu time    0.1368: real time    0.1725
    SETDIJ:  cpu time    1.0973: real time    1.0973
     EDDAV:  cpu time    3.3074: real time    3.3075
       DOS:  cpu time    0.0003: real time    0.0003
    --------------------------------------------
      LOOP:  cpu time    4.5417: real time    4.5776

 eigenvalue-minimisations  :  1088
 total energy-change (2. order) : 0.1521762E-06  (-0.2528702E-08)
 number of electron     175.9999996 magnetization 
 augmentation part       -2.3004959 magnetization 

 Free energy of the ion-electron system (eV)
  ---------------------------------------------------
  alpha Z        PSCENC =       439.30909846
  Ewald energy   TEWEN  =     -9146.22394814
  -Hartree energ DENC   =     -3715.72274729
  -exchange      EXHF   =         0.00000000
  -V(xc)+E(xc)   XCENC  =       480.93591027
  PAW double counting   =     11492.60948158   -12028.18781603
  entropy T*S    EENTRO =        -0.00000000
  eigenvalues    EBANDS =     -1527.85776793
  atomic energy  EATOM  =     13290.28009929
  Solvation  Ediel_sol  =         0.00000000
  ---------------------------------------------------
  free energy    TOTEN  =      -714.85768978 eV

  energy without entropy =     -714.85768978  energy(sigma->0) =     -714.85768978


--------------------------------------------------------------------------------------------------------




 average (electrostatic) potential at core
  the test charge radii are     1.1312  1.1541  1.0178
  (the norm of the test charge is              1.0000)
       1 -55.3959       2 -55.3959       3 -55.3959       4 -55.3959       5-101.8415
       6-101.8415       7-101.8415       8-101.8415       9 -69.1300      10 -69.1300
      11 -69.1300      12 -69.1300      13 -69.0719      14 -69.0719      15 -69.0719
      16 -69.0719      17 -69.0719      18 -69.0719      19 -69.0719      20 -69.0719



 E-fermi :   0.2922     XC(G=0):  -7.9727     alpha+bet : -6.8920


 k-point     1 :       0.0000    0.0000    0.0000
  band No.  band energies     occupation 
      1     -20.9225      2.00000
      2     -20.9209      2.00000
      3     -20.9193      2.00000
      4     -20.9183      2.00000
      5     -16.6476      2.00000
      6     -16.6282      2.00000
      7     -16.6229      2.00000
      8     -16.6226      2.00000
      9     -16.5842      2.00000
     10     -16.5596      2.00000
     11     -16.5544      2.00000
     12     -16.5543      2.00000
     13     -16.5003      2.00000
     14     -16.5002      2.00000
     15     -16.4992      2.00000
     16     -16.4991      2.00000
     17     -16.4937      2.00000
     18     -16.4933      2.00000
     19     -16.4928      2.00000
     20     -16.4922      2.00000
     21     -16.4877      2.00000
     22     -16.4869      2.00000
     23     -16.4869      2.00000
     24     -16.4860      2.00000
     25     -14.4129      2.00000
     26     -14.2021      2.00000
     27     -14.1745      2.00000
     28     -14.1688      2.00000
     29     -14.1025      2.00000
     30     -14.0769      2.00000
     31     -14.0655      2.00000
     32     -14.0626      2.00000
     33     -14.0545      2.00000
     34     -13.8644      2.00000
     35     -13.8453      2.00000
     36     -13.8364      2.00000
     37      -8.2612      2.00000
     38      -7.7373      2.00000
     39      -7.3732      2.00000
     40      -7.3549      2.00000
     41      -7.3518      2.00000
     42      -7.3406      2.00000
     43      -7.3340      2.00000
     44      -7.3255      2.00000
     45      -7.3113      2.00000
     46      -7.3030      2.00000
     47      -7.3005      2.00000
     48      -7.2979      2.00000
     49      -7.2850      2.00000
     50      -7.2810      2.00000
     51      -7.2773      2.00000
     52      -6.7199      2.00000
     53      -3.4201      2.00000
     54      -3.2922      2.00000
     55      -3.2809      2.00000
     56      -3.2762      2.00000
     57      -3.1697      2.00000
     58      -3.1330      2.00000
     59      -2.1806      2.00000
     60      -1.9694      2.00000
     61      -1.9684      2.00000
     62      -1.9683      2.00000
     63      -1.9083      2.00000
     64      -1.9074      2.00000
     65      -1.7641      2.00000
     66      -1.6102      2.00000
     67      -1.5892      2.00000
     68      -1.5755      2.00000
     69      -1.5654      2.00000
     70      -1.5226      2.00000
     71      -1.4980      2.00000
     72      -1.4816      2.00000
     73      -1.4750      2.00000
     74      -1.4547      2.00000
     75      -1.4451      2.00000
     76      -1.4229      2.00000
     77      -1.4159      2.00000
     78      -1.3239      2.00000
     79      -1.2565      2.00000
     80      -1.2263      2.00000
     81      -1.2207      2.00000
     82      -1.1217      2.00000
     83      -1.1188      2.00000
     84      -1.0926      2.00000
     85      -0.9359      2.00000
     86      -0.7901      2.00000
     87      -0.4095      2.00000
     88       0.2298      2.00000
     89       2.4745      0.00000
     90       2.6514      0.00000
     91       2.7637      0.00000
     92       2.8194      0.00000
     93       3.0764      0.00000
     94       3.4599      0.00000
     95       4.7459      0.00000
     96       5.4437      0.00000
     97       5.5739      0.00000
     98       5.7708      0.00000
     99       5.8190      0.00000
    100       5.9590      0.00000
    101       5.9926      0.00000
    102       6.0360      0.00000
    103       6.1894      0.00000
    104       6.2044      0.00000
    105       6.3477      0.00000
    106       6.4101      0.00000
    107       6.4661      0.00000
    108       6.6363      0.00000
    109       6.6414      0.00000
    110       6.6661      0.00000
    111       6.8030      0.00000
    112       6.8947      0.00000

 k-point     2 :       0.3333    0.0000    0.0000
  band No.  band energies     occupation 
      1     -20.9217      2.00000
      2     -20.9204      2.00000
      3     -20.9201      2.00000
      4     -20.9190      2.00000
      5     -16.6426      2.00000
      6     -16.6330      2.00000
      7     -16.6065      2.00000
      8     -16.6064      2.00000
      9     -16.5781      2.00000
     10     -16.5723      2.00000
     11     -16.5721      2.00000
     12     -16.5657      2.00000
     13     -16.5001      2.00000
     14     -16.5001      2.00000
     15     -16.4996      2.00000
     16     -16.4995      2.00000
     17     -16.4936      2.00000
     18     -16.4934      2.00000
     19     -16.4927      2.00000
     20     -16.4924      2.00000
     21     -16.4875      2.00000
     22     -16.4872      2.00000
     23     -16.4865      2.00000
     24     -16.4862      2.00000
     25     -14.3676      2.00000
     26     -14.2461      2.00000
     27     -14.1727      2.00000
     28     -14.1698      2.00000
     29     -14.1693      2.00000
     30     -14.1016      2.00000
     31     -14.0090      2.00000
     32     -14.0001      2.00000
     33     -13.9597      2.00000
     34     -13.9002      2.00000
     35     -13.8912      2.00000
     36     -13.8863      2.00000
     37      -8.0705      2.00000
     38      -7.6399      2.00000
     39      -7.5469      2.00000
     40      -7.3561      2.00000
     41      -7.3404      2.00000
     42      -7.3302      2.00000
     43      -7.3293      2.00000
     44      -7.3113      2.00000
     45      -7.3099      2.00000
     46      -7.3085      2.00000
     47      -7.2960      2.00000
     48      -7.2930      2.00000
     49      -7.2872      2.00000
     50      -7.2833      2.00000
     51      -7.2750      2.00000
     52      -7.0189      2.00000
     53      -3.3897      2.00000
     54      -3.3123      2.00000
     55      -3.0070      2.00000
     56      -2.8520      2.00000
     57      -2.7996      2.00000
     58      -2.7537      2.00000
     59      -2.3078      2.00000
     60      -2.1957      2.00000
     61      -2.1058      2.00000
     62      -2.0617      2.00000
     63      -2.0346      2.00000
     64      -2.0191      2.00000
     65      -1.9118      2.00000
     66      -1.8044      2.00000
     67      -1.7383      2.00000
     68      -1.7152      2.00000
     69      -1.5697      2.00000
     70      -1.5599      2.00000
     71      -1.5398      2.00000
     72      -1.5241      2.00000
     73      -1.4378      2.00000
     74      -1.4325      2.00000
     75      -1.3954      2.00000
     76      -1.3553      2.00000
     77      -1.3514      2.00000
     78      -1.3217      2.00000
     79      -1.2787      2.00000
     80      -1.2727      2.00000
     81      -1.2266      2.00000
     82      -1.1825      2.00000
     83      -1.1654      2.00000
     84      -1.1223      2.00000
     85      -0.9427      2.00000
     86      -0.8504      2.00000
     87      -0.6927      2.00000
     88      -0.2771      2.00000
     89       2.9185      0.00000
     90       3.2051      0.00000
     91       3.2768      0.00000
     92       3.4956      0.00000
     93       3.6473      0.00000
     94       3.8493      0.00000
     95       4.7510      0.00000
     96       4.8575      0.00000
     97       4.9586      0.00000
     98       5.0752      0.00000
     99       5.5896      0.00000
    100       5.7856      0.00000
    101       6.0683      0.00000
    102       6.1275      0.00000
    103       6.1653      0.00000
    104       6.2474      0.00000
    105       6.4502      0.00000
    106       6.4655      0.00000
    107       6.5285      0.00000
    108       6.5544      0.00000
    109       6.6925      0.00000
    110       6.7860      0.00000
    111       6.8327      0.00000
    112       6.9309      0.00000

 k-point     3 :       0.0000    0.5000    0.0000
  band No.  band energies     occupation 
      1     -20.9217      2.00000
      2     -20.9217      2.00000
      3     -20.9188      2.00000
      4     -20.9188      2.00000
      5     -16.6227      2.00000
      6     -16.6227      2.00000
      7     -16.6162      2.00000
      8     -16.6162      2.00000
      9     -16.5945      2.00000
     10     -16.5945      2.00000
     11     -16.5542      2.00000
     12     -16.5542      2.00000
     13     -16.5003      2.00000
     14     -16.5003      2.00000
     15     -16.4991      2.00000
     16     -16.4991      2.00000
     17     -16.4931      2.00000
     18     -16.4931      2.00000
     19     -16.4927      2.00000
     20     -16.4927      2.00000
     21     -16.4871      2.00000
     22     -16.4871      2.00000
     23     -16.4864      2.00000
     24     -16.4864      2.00000
     25     -14.3574      2.00000
     26     -14.3574      2.00000
     27     -14.1351      2.00000
     28     -14.1351      2.00000
     29     -14.0711      2.00000
     30     -14.0711      2.00000
     31     -14.0594      2.00000
     32     -14.0594      2.00000
     33     -13.9680      2.00000
     34     -13.9680      2.00000
     35     -13.8407      2.00000
     36     -13.8407      2.00000
     37      -8.0197      2.00000
     38      -8.0197      2.00000
     39      -7.3472      2.00000
     40      -7.3472      2.00000
     41      -7.3339      2.00000
     42      -7.3339      2.00000
     43      -7.3183      2.00000
     44      -7.3183      2.00000
     45      -7.3052      2.00000
     46      -7.3052      2.00000
     47      -7.2949      2.00000
     48      -7.2949      2.00000
     49      -7.2904      2.00000
     50      -7.2904      2.00000
     51      -7.0906      2.00000
     52      -7.0906      2.00000
     53      -3.2313      2.00000
     54      -3.2313      2.00000
     55      -3.2253      2.00000
     56      -3.2253      2.00000
     57      -2.5801      2.00000
     58      -2.5801      2.00000
     59      -2.4813      2.00000
     60      -2.4813      2.00000
     61      -2.0527      2.00000
     62      -2.0527      2.00000
     63      -1.9106      2.00000
     64      -1.9106      2.00000
     65      -1.8518      2.00000
     66      -1.8518      2.00000
     67      -1.5799      2.00000
     68      -1.5799      2.00000
     69      -1.5780      2.00000
     70      -1.5780      2.00000
     71      -1.4902      2.00000
     72      -1.4902      2.00000
     73      -1.4573      2.00000
     74      -1.4573      2.00000
     75      -1.3958      2.00000
     76      -1.3958      2.00000
     77      -1.3413      2.00000
     78      -1.3413      2.00000
     79      -1.2804      2.00000
     80      -1.2804      2.00000
     81      -1.1900      2.00000
     82      -1.1900      2.00000
     83      -1.1698      2.00000
     84      -1.1698      2.00000
     85      -0.9567      2.00000
     86      -0.9567      2.00000
     87      -0.2495      2.00000
     88      -0.2495      2.00000
     89       2.6732      0.00000
     90       2.6732      0.00000
     91       2.8570      0.00000
     92       2.8570      0.00000
     93       4.2450      0.00000
     94       4.2450      0.00000
     95       4.7893      0.00000
     96       4.7893      0.00000
     97       5.4623      0.00000
     98       5.4623      0.00000
     99       5.7388      0.00000
    100       5.7388      0.00000
    101       5.7434      0.00000
    102       5.7434      0.00000
    103       6.1267      0.00000
    104       6.1267      0.00000
[...]
     60      -2.4772      2.00000
     61      -2.2654      2.00000
     62      -2.2654      2.00000
     63      -2.1009      2.00000
     64      -2.1009      2.00000
     65      -1.7705      2.00000
     66      -1.7705      2.00000
     67      -1.7375      2.00000
     68      -1.7375      2.00000
     69      -1.6332      2.00000
     70      -1.6332      2.00000
     71      -1.5546      2.00000
     72      -1.5546      2.00000
     73      -1.4246      2.00000
     74      -1.4246      2.00000
     75      -1.3889      2.00000
     76      -1.3889      2.00000
     77      -1.3163      2.00000
     78      -1.3163      2.00000
     79      -1.2689      2.00000
     80      -1.2689      2.00000
     81      -1.1988      2.00000
     82      -1.1988      2.00000
     83      -1.1667      2.00000
     84      -1.1667      2.00000
     85      -1.0208      2.00000
     86      -1.0208      2.00000
     87      -0.8032      2.00000
     88      -0.8032      2.00000
     89       3.5221      0.00000
     90       3.5221      0.00000
     91       3.5572      0.00000
     92       3.5572      0.00000
     93       4.3744      0.00000
     94       4.3744      0.00000
     95       4.6480      0.00000
     96       4.6480      0.00000
     97       4.8965      0.00000
     98       4.8965      0.00000
     99       4.9532      0.00000
    100       4.9532      0.00000
    101       5.8994      0.00000
    102       5.8994      0.00000
    103       6.2056      0.00000
    104       6.2056      0.00000
    105       6.2747      0.00000
    106       6.2747      0.00000
    107       6.6244      0.00000
    108       6.6244      0.00000
    109       6.7074      0.00000
    110       6.7074      0.00000
    111       6.7990      0.00000
    112       6.7990      0.00000

 k-point     8 :       0.3333    0.5000    0.3333
  band No.  band energies     occupation 
      1     -20.9207      2.00000
      2     -20.9207      2.00000
      3     -20.9198      2.00000
      4     -20.9198      2.00000
      5     -16.6181      2.00000
      6     -16.6181      2.00000
      7     -16.6096      2.00000
      8     -16.6096      2.00000
      9     -16.5880      2.00000
     10     -16.5880      2.00000
     11     -16.5739      2.00000
     12     -16.5739      2.00000
     13     -16.4999      2.00000
     14     -16.4999      2.00000
     15     -16.4996      2.00000
     16     -16.4996      2.00000
     17     -16.4930      2.00000
     18     -16.4930      2.00000
     19     -16.4929      2.00000
     20     -16.4929      2.00000
     21     -16.4869      2.00000
     22     -16.4869      2.00000
     23     -16.4868      2.00000
     24     -16.4868      2.00000
     25     -14.2820      2.00000
     26     -14.2820      2.00000
     27     -14.2199      2.00000
     28     -14.2199      2.00000
     29     -14.0690      2.00000
     30     -14.0690      2.00000
     31     -14.0169      2.00000
     32     -14.0169      2.00000
     33     -13.9445      2.00000
     34     -13.9445      2.00000
     35     -13.9098      2.00000
     36     -13.9098      2.00000
     37      -7.7075      2.00000
     38      -7.7075      2.00000
     39      -7.4861      2.00000
     40      -7.4861      2.00000
     41      -7.3329      2.00000
     42      -7.3329      2.00000
     43      -7.3177      2.00000
     44      -7.3177      2.00000
     45      -7.3050      2.00000
     46      -7.3050      2.00000
     47      -7.3005      2.00000
     48      -7.3005      2.00000
     49      -7.2933      2.00000
     50      -7.2933      2.00000
     51      -7.2784      2.00000
     52      -7.2784      2.00000
     53      -3.1594      2.00000
     54      -3.1594      2.00000
     55      -2.8357      2.00000
     56      -2.8357      2.00000
     57      -2.6325      2.00000
     58      -2.6325      2.00000
     59      -2.4984      2.00000
     60      -2.4984      2.00000
     61      -2.2073      2.00000
     62      -2.2073      2.00000
     63      -2.0735      2.00000
     64      -2.0735      2.00000
     65      -1.7741      2.00000
     66      -1.7741      2.00000
     67      -1.7075      2.00000
     68      -1.7075      2.00000
     69      -1.5932      2.00000
     70      -1.5932      2.00000
     71      -1.5149      2.00000
     72      -1.5149      2.00000
     73      -1.4509      2.00000
     74      -1.4509      2.00000
     75      -1.3920      2.00000
     76      -1.3920      2.00000
     77      -1.3483      2.00000
     78      -1.3483      2.00000
     79      -1.2732      2.00000
     80      -1.2732      2.00000
     81      -1.2238      2.00000
     82      -1.2238      2.00000
     83      -1.1829      2.00000
     84      -1.1829      2.00000
     85      -0.9317      2.00000
     86      -0.9317      2.00000
     87      -0.7014      2.00000
     88      -0.7014      2.00000
     89       3.0040      0.00000
     90       3.0040      0.00000
     91       3.7646      0.00000
     92       3.7646      0.00000
     93       4.4635      0.00000
     94       4.4635      0.00000
     95       4.5801      0.00000
     96       4.5801      0.00000
     97       4.7777      0.00000
     98       4.7777      0.00000
     99       5.4824      0.00000
    100       5.4824      0.00000
    101       6.1125      0.00000
    102       6.1125      0.00000
    103       6.3072      0.00000
    104       6.3072      0.00000
    105       6.4487      0.00000
    106       6.4487      0.00000
    107       6.6432      0.00000
    108       6.6432      0.00000
    109       6.7147      0.00000
    110       6.7147      0.00000
    111       6.8052      0.00000
    112       6.8052      0.00000


--------------------------------------------------------------------------------------------------------


 soft charge-density along one line, spin component           1
         0         1         2         3         4         5         6         7         8         9
 total charge-density along one line

 pseudopotential strength for first ion, spin component:           1
 18.023  -4.718   0.000  -0.000  -0.001  -0.000   0.000   0.002
 -4.718   1.244  -0.000   0.000   0.000   0.000  -0.000  -0.000
  0.000  -0.000   2.287  -0.000  -0.000  -2.740   0.000   0.000
 -0.000   0.000  -0.000   2.287  -0.001   0.000  -2.740   0.001
 -0.001   0.000  -0.000  -0.001   2.286   0.000   0.001  -2.739
 -0.000   0.000  -2.740   0.000   0.000   3.252  -0.000  -0.000
  0.000  -0.000   0.000  -2.740   0.001  -0.000   3.252  -0.001
  0.002  -0.000   0.000   0.001  -2.739  -0.000  -0.001   3.251
 -0.000   0.000  -0.000   0.000  -0.000   0.000  -0.000   0.000
 -0.000   0.000   0.001  -0.000   0.000  -0.002  -0.000  -0.000
  0.000  -0.000  -0.000  -0.002   0.001   0.000   0.002  -0.001
 -0.001   0.000   0.000  -0.001   0.001  -0.000   0.001  -0.001
 -0.001   0.000  -0.000  -0.000  -0.001   0.000   0.000   0.002
 total augmentation occupancy for first ion, spin component:           1
  1.910  -0.142  -0.000  -0.000  -0.000   0.000  -0.000  -0.001   0.000   0.000  -0.000  -0.001  -0.000
 -0.142   0.114   0.000  -0.001  -0.004  -0.000  -0.000   0.002   0.000   0.000   0.001   0.003   0.002
 -0.000   0.000   2.017   0.000   0.000   0.003   0.000   0.000   0.000   0.003   0.000   0.000  -0.000
 -0.000  -0.001   0.000   2.016  -0.002   0.000   0.003  -0.001   0.000   0.000  -0.005  -0.001  -0.000
 -0.000  -0.004   0.000  -0.002   2.016   0.000  -0.001   0.003  -0.000   0.000   0.001   0.002  -0.003
  0.000  -0.000   0.003   0.000   0.000   0.007   0.000   0.000  -0.001  -0.002   0.000   0.000   0.000
 -0.000  -0.000   0.000   0.003  -0.001   0.000   0.008   0.001   0.000   0.000   0.003  -0.000   0.000
 -0.001   0.002   0.000  -0.001   0.003   0.000   0.001   0.008   0.000   0.000  -0.001  -0.001   0.002
  0.000   0.000   0.000   0.000  -0.000  -0.001   0.000   0.000   0.005   0.001  -0.000   0.000   0.000
  0.000   0.000   0.003   0.000   0.000  -0.002   0.000   0.000   0.001   0.005   0.000   0.000   0.000
 -0.000   0.001   0.000  -0.005   0.001   0.000   0.003  -0.001  -0.000   0.000   0.005  -0.002  -0.001
 -0.001   0.003   0.000  -0.001   0.002   0.000  -0.000  -0.001   0.000   0.000  -0.002   0.004   0.001
 -0.000   0.002  -0.000  -0.000  -0.003   0.000   0.000   0.002   0.000   0.000  -0.001   0.001   0.004


------------------------ aborting loop because EDIFF is reached ----------------------------------------





 total charge     

# of ion       s       p       d       tot
------------------------------------------
    1        1.785   4.719   0.017   6.521
    2        1.785   4.719   0.017   6.521
    3        1.785   4.719   0.017   6.521
    4        1.785   4.719   0.017   6.521
    5        1.552   0.410   9.831  11.794
    6        1.552   0.410   9.831  11.794
    7        1.552   0.410   9.831  11.794
    8        1.552   0.410   9.831  11.794
    9        1.615   3.286   0.006   4.907
   10        1.615   3.286   0.006   4.907
   11        1.615   3.286   0.006   4.907
   12        1.615   3.286   0.006   4.907
   13        1.614   3.267   0.005   4.886
   14        1.613   3.290   0.005   4.907
   15        1.613   3.290   0.005   4.907
   16        1.614   3.267   0.005   4.886
   17        1.614   3.267   0.005   4.886
   18        1.613   3.290   0.005   4.907
   19        1.614   3.267   0.005   4.886
   20        1.613   3.290   0.005   4.907
--------------------------------------------------
tot         32.714  59.888  39.462 132.064

    CHARGE:  cpu time    0.1390: real time    0.1390
    FORLOC:  cpu time    0.0039: real time    0.0039
    FORNL :  cpu time    0.6132: real time    0.6132
    STRESS:  cpu time   13.7304: real time   13.7311
    FORCOR:  cpu time    0.1031: real time    0.1031
    FORHAR:  cpu time    0.0108: real time    0.0108
    MIXING:  cpu time    0.0012: real time    0.0012
    OFIELD:  cpu time    0.0000: real time    0.0000

  FORCE on cell =-STRESS in cart. coord.  units (eV):
  Direction    XX          YY          ZZ          XY          YZ          ZX
  --------------------------------------------------------------------------------------
  Alpha Z   439.30910   439.30910   439.30910
  Ewald   -3094.56764 -2919.78352 -3131.89645     0.00000     0.00000    -0.00000
  Hartree  1210.77505  1324.53373  1180.41272    -0.00000    -0.00000    -0.00000
  E(xc)    -738.51081  -738.39727  -738.47035     0.00000     0.00000    -0.03694
  Local   -1373.19354 -1661.74955 -1305.27102     0.00000    -0.00000    -0.00000
  n-local   897.26218   899.83117   897.08815    -0.00001    -0.00000     0.15429
  augment   406.51504   406.55736   406.26794    -0.00000    -0.00002    -0.00000
  Kinetic  2247.60710  2249.13679  2248.72979     0.00001     0.00001    -1.63843
  Fock        0.00000     0.00000     0.00000     0.00000     0.00000     0.00000
  -------------------------------------------------------------------------------------
  Total      -4.80352    -0.56219    -3.83012     0.00000     0.00000     0.00000
  in kB      -9.37050    -1.09670    -7.47165     0.00000     0.00000     0.00000
  external pressure =       -5.98 kB  Pullay stress =        0.00 kB


 VOLUME and BASIS-vectors are now :
 -----------------------------------------------------------------------------
  energy-cutoff  :      300.00
  volume of cell :      821.31
      direct lattice vectors                 reciprocal lattice vectors
     8.588417950  0.000000000  0.000000000     0.116435880  0.000000000  0.000000000
     0.000000000 11.606223735  0.000000000     0.000000000  0.086160669  0.000000000
     0.000000000  0.000000000  8.239540165     0.000000000  0.000000000  0.121365996

  length of vectors
     8.588417950 11.606223735  8.239540165     0.116435880  0.086160669  0.121365996


 FORCES acting on ions
    electron-ion (+dipol)            ewald-force                    non-local-force                 convergence-correction
 -----------------------------------------------------------------------------------------------
   0.300E+02 0.148E-12 -.119E+02   -.298E+02 0.107E-13 0.119E+02   -.142E+00 0.331E-23 -.455E-02   0.316E-04 -.530E-13 -.422E-04
   -.300E+02 0.103E-11 -.119E+02   0.298E+02 -.711E-14 0.119E+02   0.142E+00 0.000E+00 -.455E-02   -.316E-04 0.707E-13 -.422E-04
   0.300E+02 0.211E-11 0.119E+02   -.298E+02 0.000E+00 -.119E+02   -.142E+00 0.000E+00 0.455E-02   0.316E-04 -.392E-13 0.422E-04
   -.300E+02 -.162E-11 0.119E+02   0.298E+02 -.711E-14 -.119E+02   0.142E+00 0.000E+00 0.455E-02   -.316E-04 0.786E-13 0.422E-04
   -.462E-10 -.290E-12 0.467E-10   0.391E-13 0.462E-13 -.568E-13   0.000E+00 0.000E+00 0.918E-23   0.226E-12 -.211E-12 0.180E-13
   -.457E-10 -.398E-12 0.307E-10   0.391E-13 0.515E-13 0.284E-13   0.000E+00 0.000E+00 -.839E-23   0.170E-12 -.180E-12 0.239E-13
   -.474E-10 -.450E-11 0.282E-10   0.284E-13 -.782E-13 0.142E-13   0.000E+00 0.000E+00 -.119E-22   0.160E-12 0.160E-12 0.407E-13
   -.464E-10 0.171E-11 0.467E-10   0.568E-13 -.568E-13 -.426E-13   0.000E+00 0.000E+00 0.900E-23   0.253E-12 0.139E-12 0.158E-13
   0.548E+01 -.174E-11 0.418E+02   -.548E+01 0.284E-13 -.422E+02   -.713E-02 -.529E-22 0.331E+00   0.141E-04 0.133E-13 0.342E-04
   -.548E+01 0.403E-11 0.418E+02   0.548E+01 0.142E-13 -.422E+02   0.713E-02 0.000E+00 0.331E+00   -.141E-04 -.699E-13 0.342E-04
   0.548E+01 0.986E-13 -.418E+02   -.548E+01 0.284E-13 0.422E+02   -.713E-02 0.000E+00 -.331E+00   0.141E-04 0.301E-13 -.342E-04
   -.548E+01 -.133E-11 -.418E+02   0.548E+01 0.284E-13 0.422E+02   0.713E-02 0.529E-22 -.331E+00   -.141E-04 -.601E-13 -.342E-04
   -.158E+02 0.173E+02 0.216E+02   0.159E+02 -.175E+02 -.217E+02   -.119E+00 0.154E+00 0.150E+00   0.444E-05 -.255E-04 0.236E-05
   0.158E+02 -.173E+02 0.216E+02   -.159E+02 0.175E+02 -.217E+02   0.119E+00 -.154E+00 0.150E+00   -.444E-05 0.255E-04 0.236E-05
   -.158E+02 -.173E+02 -.216E+02   0.159E+02 0.175E+02 0.217E+02   -.119E+00 -.154E+00 -.150E+00   0.444E-05 0.255E-04 -.236E-05
   0.158E+02 0.173E+02 -.216E+02   -.159E+02 -.175E+02 0.217E+02   0.119E+00 0.154E+00 -.150E+00   -.444E-05 -.255E-04 -.236E-05
   -.158E+02 -.173E+02 0.216E+02   0.159E+02 0.175E+02 -.217E+02   -.119E+00 -.154E+00 0.150E+00   0.444E-05 0.255E-04 0.236E-05
   0.158E+02 0.173E+02 0.216E+02   -.159E+02 -.175E+02 -.217E+02   0.119E+00 0.154E+00 0.150E+00   -.444E-05 -.255E-04 0.236E-05
   0.158E+02 -.173E+02 -.216E+02   -.159E+02 0.175E+02 0.217E+02   0.119E+00 -.154E+00 -.150E+00   -.444E-05 0.255E-04 -.236E-05
   -.158E+02 0.173E+02 -.216E+02   0.159E+02 -.175E+02 0.217E+02   -.119E+00 0.154E+00 -.150E+00   0.444E-05 -.255E-04 -.236E-05
 -----------------------------------------------------------------------------------------------
   -.526E-09 -.276E-11 0.613E-09   0.142E-13 -.355E-13 0.213E-13   0.000E+00 0.000E+00 -.111E-15   0.916E-12 -.126E-12 0.182E-12


 POSITION                                       TOTAL-FORCE (eV/Angst)
 -----------------------------------------------------------------------------------
      0.50001      2.90156      3.96781        -0.000003      0.000000      0.002127
      3.79420      8.70467      8.08758         0.000003      0.000000      0.002127
      4.79422      2.90156      0.15196        -0.000003     -0.000000     -0.002127
      8.08841      8.70467      4.27173         0.000003      0.000000     -0.002127
      0.00000      0.00000      0.00000         0.000000      0.000000      0.000000
      4.29421      0.00000      4.11977         0.000000      0.000000      0.000000
      4.29421      5.80311      4.11977         0.000000      0.000000      0.000000
      0.00000      5.80311      0.00000         0.000000      0.000000      0.000000
      4.43848      8.70467      3.47570         0.014407      0.000000     -0.009685
      8.44415      2.90156      7.59547        -0.014407      0.000000     -0.009685
      0.14427      8.70467      0.64407         0.014407      0.000000      0.009685
      4.14994      2.90156      4.76384        -0.014407      0.000000      0.009685
      2.46945      5.35724      1.72775         0.002839      0.006076     -0.001613
      1.82476      6.24899      5.84752        -0.002839     -0.006076     -0.001613
      6.76366      0.44588      2.39202         0.002839     -0.006076      0.001613
      6.11897     11.16035      6.51179        -0.002839      0.006076      0.001613
      2.46945      0.44588      1.72775         0.002839     -0.006076     -0.001613
      1.82476     11.16035      5.84752        -0.002839      0.006076     -0.001613
      6.11897      6.24899      6.51179        -0.002839     -0.006076      0.001613
      6.76366      5.35724      2.39202         0.002839      0.006076      0.001613
 -----------------------------------------------------------------------------------
    total drift:                               -0.000000     -0.000000      0.000000


--------------------------------------------------------------------------------------------------------



  FREE ENERGIE OF THE ION-ELECTRON SYSTEM (eV)
  ---------------------------------------------------
  free  energy   TOTEN  =      -714.85768978 eV

  energy  without entropy=     -714.85768978  energy(sigma->0) =     -714.85768978



--------------------------------------------------------------------------------------------------------


    POTLOK:  cpu time    1.1993: real time    1.1994


--------------------------------------------------------------------------------------------------------


 stress matrix after NEB project (eV)
     -4.80352      0.00000      0.00000
      0.00000     -0.56219      0.00000
     -0.00000      0.00000     -3.83012
  FORCES: max atom, RMS     0.017360    0.008956
  FORCE total and by dimension    0.040052    0.014407
  Stress total and by dimension    6.169252    4.803515
     LOOP+:  cpu time  127.2686: real time  127.7958
    4ORBIT:  cpu time    0.0000: real time    0.0000



 total charge     

# of ion       s       p       d       tot
------------------------------------------
    1        1.785   4.719   0.017   6.521
    2        1.785   4.719   0.017   6.521
    3        1.785   4.719   0.017   6.521
    4        1.785   4.719   0.017   6.521
    5        1.552   0.410   9.831  11.794
    6        1.552   0.410   9.831  11.794
    7        1.552   0.410   9.831  11.794
    8        1.552   0.410   9.831  11.794
    9        1.615   3.286   0.006   4.907
   10        1.615   3.286   0.006   4.907
   11        1.615   3.286   0.006   4.907
   12        1.615   3.286   0.006   4.907
   13        1.614   3.267   0.005   4.886
   14        1.613   3.290   0.005   4.907
   15        1.613   3.290   0.005   4.907
   16        1.614   3.267   0.005   4.886
   17        1.614   3.267   0.005   4.886
   18        1.613   3.290   0.005   4.907
   19        1.614   3.267   0.005   4.886
   20        1.613   3.290   0.005   4.907
--------------------------------------------------
tot         32.714  59.888  39.462 132.064


 total amount of memory used by VASP MPI-rank0    43662. kBytes
=======================================================================

   base      :      30000. kBytes
   nonlr-proj:       3253. kBytes
   fftplans  :       4446. kBytes
   grid      :       3667. kBytes
   one-center:         46. kBytes
   wavefun   :       2250. kBytes

  
  
 General timing and accounting informations for this job:
 ========================================================
  
                  Total CPU time used (sec):      133.774
                            User time (sec):      132.934
                          System time (sec):        0.840
                         Elapsed time (sec):      134.480
  
                   Maximum memory used (kb):       82620.
                   Average memory used (kb):           0.
  
                          Minor page faults:        20268
                          Major page faults:            1
                 Voluntary context switches:         1622
