<?xml version="1.0" encoding="ISO-8859-1"?>
<modeling>
 <generator>
  <i name="program" type="string">vasp </i>
  <i name="version" type="string">5.4.4.18Apr17-6-g9f103f2a35  </i>
  <i name="subversion" type="string">(build Jun 29 2021 12:14:42) complex            parallel </i>
  <i name="platform" type="string">tx2_gcc-7.3_libsci-18.07_cray-fftw-3.3.8 </i>
  <i name="date" type="string">2021 09 21 </i>
  <i name="time" type="string">08:32:49 </i>
 </generator>
 <incar>
  <i type="string" name="SYSTEM"> CsPbBr3 cubic bulk</i>
  <i type="string" name="PREC">accurate</i>
  <i type="string" name="ALGO"> Normal   ! Electronic minimisation algo</i>
  <i type="logical" name="ADDGRID"> T  </i>
  <i type="int" name="NELM">   200</i>
  <i type="int" name="IBRION">     2</i>
  <i name="EDIFF">      0.00000100</i>
  <i name="EDIFFG">     -0.01000000</i>
  <i type="int" name="NSW">     0</i>
  <i type="int" name="ISIF">     3</i>
  <i type="int" name="ISYM">     2</i>
  <i name="ENCUT">    300.00000000</i>
  <i name="POTIM">      0.50000000</i>
  <i type="string" name="LREAL"> AUTO</i>
  <i type="int" name="ISMEAR">     0</i>
  <i name="SIGMA">      0.01000000</i>
  <i name="PSTRESS">      0.00000000</i>
  <i type="logical" name="LWAVE"> F  </i>
  <i type="logical" name="LCHARG"> F  </i>
  <i type="logical" name="LVHAR"> T  </i>
  <i type="int" name="LORBIT">    10</i>
  <i type="logical" name="LASPH"> T  </i>
  <v type="int" name="KPOINT_BSE">    -1     0     0     0</v>
  <i type="int" name="NELM">   200</i>
  <i type="string" name="METAGGA"> SCAN       ! PBE exchange-correlation</i>
  <i type="logical" name="LASPH"> T  </i>
 </incar>
 <structure name="primitive_cell" >
  <crystal>
   <varray name="basis" >
    <v>       8.58841795       0.00000000       0.00000000 </v>
    <v>       0.00000000      11.60622374       0.00000000 </v>
    <v>       0.00000000       0.00000000       8.23954016 </v>
   </varray>
   <i name="volume">    821.30995017 </i>
   <varray name="rec_basis" >
    <v>       0.11643588       0.00000000       0.00000000 </v>
    <v>       0.00000000       0.08616067       0.00000000 </v>
    <v>       0.00000000       0.00000000       0.12136600 </v>
   </varray>
  </crystal>
  <varray name="positions" >
   <v>       0.05821920       0.25000000       0.48155770 </v>
   <v>      -0.01679788       0.25000000      -0.07816846 </v>
   <v>      -0.21246730       0.03841699       0.29031013 </v>
   <v>      -0.21246730       0.46158301       0.29031013 </v>
   <v>       0.48320212       0.25000000      -0.42183154 </v>
   <v>       0.28753270       0.46158301       0.20968987 </v>
   <v>       0.28753270       0.03841699       0.20968987 </v>
   <v>       0.21246730      -0.46158301      -0.29031013 </v>
   <v>       0.21246730      -0.03841699      -0.29031013 </v>
   <v>      -0.50000000       0.00000000      -0.50000000 </v>
   <v>      -0.50000000      -0.50000000      -0.50000000 </v>
   <v>       0.00000000       0.00000000       0.00000000 </v>
   <v>       0.00000000      -0.50000000       0.00000000 </v>
   <v>      -0.28753270      -0.03841699      -0.20968987 </v>
   <v>      -0.28753270      -0.46158301      -0.20968987 </v>
   <v>      -0.44178080       0.25000000       0.01844230 </v>
   <v>      -0.05821920      -0.25000000      -0.48155770 </v>
   <v>       0.01679788      -0.25000000       0.07816846 </v>
   <v>      -0.48320212      -0.25000000       0.42183154 </v>
   <v>       0.44178080      -0.25000000      -0.01844230 </v>
  </varray>
 </structure>
 <varray name="primitive_index" >
  <v type="int" >        1 </v>
  <v type="int" >       10 </v>
  <v type="int" >       15 </v>
  <v type="int" >       20 </v>
  <v type="int" >       12 </v>
  <v type="int" >       13 </v>
  <v type="int" >       17 </v>
  <v type="int" >       14 </v>
  <v type="int" >       18 </v>
  <v type="int" >        6 </v>
  <v type="int" >        7 </v>
  <v type="int" >        5 </v>
  <v type="int" >        8 </v>
  <v type="int" >       16 </v>
  <v type="int" >       19 </v>
  <v type="int" >        3 </v>
  <v type="int" >        4 </v>
  <v type="int" >       11 </v>
  <v type="int" >        9 </v>
  <v type="int" >        2 </v>
 </varray>
 <kpoints>
  <generation param="Gamma">
   <v type="int" name="divisions">       3        2        3 </v>
   <v name="usershift">      0.00000000       0.00000000       0.00000000 </v>
   <v name="genvec1">      0.33333333       0.00000000       0.00000000 </v>
   <v name="genvec2">      0.00000000       0.50000000       0.00000000 </v>
   <v name="genvec3">      0.00000000       0.00000000       0.33333333 </v>
   <v name="shift">      0.00000000       0.00000000       0.00000000 </v>
  </generation>
  <varray name="kpointlist" >
   <v>       0.00000000       0.00000000       0.00000000 </v>
   <v>       0.33333333       0.00000000       0.00000000 </v>
   <v>       0.00000000       0.50000000       0.00000000 </v>
   <v>       0.33333333       0.50000000       0.00000000 </v>
   <v>       0.00000000       0.00000000       0.33333333 </v>
   <v>       0.33333333       0.00000000       0.33333333 </v>
   <v>       0.00000000       0.50000000       0.33333333 </v>
   <v>       0.33333333       0.50000000       0.33333333 </v>
  </varray>
  <varray name="weights" >
   <v>       0.05555556 </v>
   <v>       0.11111111 </v>
   <v>       0.05555556 </v>
   <v>       0.11111111 </v>
   <v>       0.11111111 </v>
   <v>       0.22222222 </v>
   <v>       0.11111111 </v>
   <v>       0.22222222 </v>
  </varray>
 </kpoints>
 <parameters>
  <separator name="general" >
   <i type="string" name="SYSTEM">CsPbBr3 cubic bulk</i>
   <i type="logical" name="LCOMPAT"> F  </i>
  </separator>
  <separator name="electronic" >
   <i type="string" name="PREC">accura</i>
   <i name="ENMAX">    300.00000000</i>
   <i name="ENAUG">    503.85200000</i>
   <i name="EDIFF">      0.00000100</i>
   <i type="int" name="IALGO">    38</i>
   <i type="int" name="IWAVPR">    10</i>
   <i type="int" name="NBANDS">   112</i>
   <i name="NELECT">    176.00000000</i>
   <i type="int" name="TURBO">     0</i>
   <i type="int" name="IRESTART">     0</i>
   <i type="int" name="NREBOOT">     0</i>
   <i type="int" name="NMIN">     0</i>
   <i name="EREF">      0.00000000</i>
   <separator name="electronic smearing" >
    <i type="int" name="ISMEAR">     0</i>
    <i name="SIGMA">      0.01000000</i>
    <i name="KSPACING">      0.50000000</i>
    <i type="logical" name="KGAMMA"> T  </i>
   </separator>
   <separator name="electronic projectors" >
    <i type="logical" name="LREAL"> T  </i>
    <v name="ROPT">     -0.00025000     -0.00025000     -0.00025000</v>
    <i type="int" name="LMAXPAW">  -100</i>
    <i type="int" name="LMAXMIX">     2</i>
    <i type="logical" name="NLSPLINE"> F  </i>
   </separator>
   <separator name="electronic startup" >
    <i type="int" name="ISTART">     0</i>
    <i type="int" name="ICHARG">     2</i>
    <i type="int" name="INIWAV">     1</i>
   </separator>
   <separator name="electronic spin" >
    <i type="int" name="ISPIN">     1</i>
    <i type="logical" name="LNONCOLLINEAR"> F  </i>
    <v name="MAGMOM">      1.00000000      1.00000000      1.00000000      1.00000000      1.00000000      1.00000000      1.00000000      1.00000000      1.00000000      1.00000000      1.00000000      1.00000000      1.00000000      1.00000000      1.00000000      1.00000000      1.00000000      1.00000000      1.00000000      1.00000000
</v>
    <i name="NUPDOWN">     -1.00000000</i>
    <i type="logical" name="LSORBIT"> F  </i>
    <v name="SAXIS">      0.00000000      0.00000000      1.00000000</v>
    <i type="logical" name="LSPIRAL"> F  </i>
    <v name="QSPIRAL">      0.00000000      0.00000000      0.00000000</v>
    <i type="logical" name="LZEROZ"> F  </i>
   </separator>
   <separator name="electronic exchange-correlation" >
    <i type="logical" name="LASPH"> T  </i>
    <i type="logical" name="LMETAGGA"> F  </i>
   </separator>
   <separator name="electronic convergence" >
    <i type="int" name="NELM">   200</i>
    <i type="int" name="NELMDL">    -5</i>
    <i type="int" name="NELMIN">     2</i>
    <i name="ENINI">    300.00000000</i>
    <separator name="electronic convergence detail" >
     <i type="logical" name="LDIAG"> T  </i>
     <i type="logical" name="LSUBROT"> F  </i>
     <i name="WEIMIN">      0.00000000</i>
     <i name="EBREAK">      0.00000000</i>
     <i name="DEPER">      0.30000000</i>
     <i type="int" name="NRMM">     4</i>
     <i name="TIME">      0.40000000</i>
    </separator>
   </separator>
   <separator name="electronic mixer" >
    <i name="AMIX">      0.40000000</i>
    <i name="BMIX">      1.00000000</i>
    <i name="AMIN">      0.10000000</i>
    <i name="AMIX_MAG">      1.60000000</i>
    <i name="BMIX_MAG">      1.00000000</i>
    <separator name="electronic mixer details" >
     <i type="int" name="IMIX">     4</i>
     <i type="logical" name="MIXFIRST"> F  </i>
     <i type="int" name="MAXMIX">   -45</i>
     <i name="WC">    100.00000000</i>
     <i type="int" name="INIMIX">     1</i>
     <i type="int" name="MIXPRE">     1</i>
     <i type="int" name="MREMOVE">     5</i>
    </separator>
   </separator>
   <separator name="electronic dipolcorrection" >
    <i type="logical" name="LDIPOL"> F  </i>
    <i type="logical" name="LMONO"> F  </i>
    <i type="int" name="IDIPOL">     0</i>
    <i name="EPSILON">      1.00000000</i>
    <v name="DIPOL">   -100.00000000   -100.00000000   -100.00000000</v>
    <i name="EFIELD">      0.00000000</i>
   </separator>
  </separator>
  <separator name="grids" >
   <i type="int" name="NGX">    50</i>
   <i type="int" name="NGY">    70</i>
   <i type="int" name="NGZ">    48</i>
   <i type="int" name="NGXF">   100</i>
   <i type="int" name="NGYF">   140</i>
   <i type="int" name="NGZF">    96</i>
   <i type="logical" name="ADDGRID"> T  </i>
  </separator>
  <separator name="ionic" >
   <i type="int" name="NSW">     0</i>
   <i type="int" name="IBRION">    -1</i>
   <i type="int" name="MDALGO">     0</i>
   <i type="int" name="ISIF">     3</i>
   <i name="PSTRESS">      0.00000000</i>
   <i name="EDIFFG">     -0.01000000</i>
   <i type="int" name="NFREE">     1</i>
   <i name="POTIM">      0.50000000</i>
   <i name="SMASS">     -3.00000000</i>
   <i name="SCALEE">      1.00000000</i>
  </separator>
  <separator name="ionic md" >
   <i name="TEBEG">      0.00010000</i>
   <i name="TEEND">      0.00010000</i>
   <i type="int" name="NBLOCK">     1</i>
   <i type="int" name="KBLOCK">     1</i>
   <i type="int" name="NPACO">   256</i>
   <i name="APACO">     16.00000000</i>
  </separator>
  <separator name="symmetry" >
   <i type="int" name="ISYM">     2</i>
   <i name="SYMPREC">      0.00001000</i>
  </separator>
  <separator name="dos" >
   <i type="int" name="LORBIT">    10</i>
   <v name="RWIGS">     -1.00000000     -1.00000000     -1.00000000</v>
   <i type="int" name="NEDOS">   301</i>
   <i name="EMIN">     10.00000000</i>
   <i name="EMAX">    -10.00000000</i>
   <i name="EFERMI">      0.00000000</i>
  </separator>
  <separator name="writing" >
   <i type="int" name="NWRITE">     2</i>
   <i type="logical" name="LWAVE"> F  </i>
   <i type="logical" name="LDOWNSAMPLE"> F  </i>
   <i type="logical" name="LCHARG"> F  </i>
   <i type="logical" name="LPARD"> F  </i>
   <i type="logical" name="LVTOT"> F  </i>
   <i type="logical" name="LVHAR"> T  </i>
   <i type="logical" name="LELF"> F  </i>
   <i type="logical" name="LOPTICS"> F  </i>
   <v name="STM">      0.00000000      0.00000000      0.00000000      0.00000000      0.00000000      0.00000000      0.00000000</v>
  </separator>
  <separator name="performance" >
   <i type="int" name="NPAR">     8</i>
   <i type="int" name="NSIM">     4</i>
   <i type="int" name="NBLK">    -1</i>
   <i type="logical" name="LPLANE"> T  </i>
   <i type="logical" name="LSCALAPACK"> T  </i>
   <i type="logical" name="LSCAAWARE"> F  </i>
   <i type="logical" name="LSCALU"> F  </i>
   <i type="logical" name="LASYNC"> F  </i>
   <i type="logical" name="LORBITALREAL"> F  </i>
  </separator>
  <separator name="miscellaneous" >
   <i type="int" name="IDIOT">     3</i>
   <i type="int" name="ISPECIAL">     0</i>
   <i type="logical" name="LMUSIC"> F  </i>
   <v name="POMASS">    132.90000000    207.20000000     79.90400000</v>
   <v name="DARWINR">      0.00000000      0.00000000      0.00000000</v>
   <v name="DARWINV">      1.00000000      1.00000000      1.00000000</v>
   <i type="logical" name="LCORR"> T  </i>
  </separator>
  <i type="logical" name="GGA_COMPAT"> T  </i>
  <i type="logical" name="LBERRY"> F  </i>
  <i type="int" name="ICORELEVEL">     0</i>
  <i type="logical" name="LDAU"> F  </i>
  <i type="int" name="I_CONSTRAINED_M">     0</i>
  <separator name="electronic exchange-correlation" >
   <i type="string" name="GGA">--</i>
   <i type="int" name="VOSKOWN">     0</i>
   <i type="logical" name="LHFCALC"> F  </i>
   <i type="string" name="PRECFOCK"></i>
   <i type="logical" name="LSYMGRAD"> F  </i>
   <i type="logical" name="LHFONE"> F  </i>
   <i type="logical" name="LRHFCALC"> F  </i>
   <i type="logical" name="LTHOMAS"> F  </i>
   <i type="logical" name="LMODELHF"> F  </i>
   <i name="ENCUT4O">     -1.00000000</i>
   <i type="int" name="EXXOEP">     0</i>
   <i type="int" name="FOURORBIT">     0</i>
   <i name="AEXX">      0.00000000</i>
   <i name="HFALPHA">      0.00000000</i>
   <i name="MCALPHA">      0.00000000</i>
   <i name="ALDAX">      1.00000000</i>
   <i name="AGGAX">      1.00000000</i>
   <i name="ALDAC">      1.00000000</i>
   <i name="AGGAC">      1.00000000</i>
   <i type="int" name="NKREDX">     1</i>
   <i type="int" name="NKREDY">     1</i>
   <i type="int" name="NKREDZ">     1</i>
   <i type="logical" name="SHIFTRED"> F  </i>
   <i type="logical" name="ODDONLY"> F  </i>
   <i type="logical" name="EVENONLY"> F  </i>
   <i type="int" name="LMAXFOCK">     0</i>
   <i type="int" name="NMAXFOCKAE">     0</i>
   <i type="logical" name="LFOCKAEDFT"> F  </i>
   <i name="HFSCREEN">      0.00000000</i>
   <i name="HFSCREENC">      0.00000000</i>
   <i type="int" name="NBANDSGWLOW">     0</i>
  </separator>
  <separator name="vdW DFT" >
   <i type="logical" name="LUSE_VDW"> F  </i>
   <i name="Zab_VDW">     -0.84910000</i>
   <i name="PARAM1">      0.12340000</i>
   <i name="PARAM2">      1.00000000</i>
   <i name="PARAM3">      0.00000000</i>
  </separator>
  <separator name="model GW" >
   <i type="int" name="MODEL_GW">     0</i>
   <i name="MODEL_EPS0">     24.63929850</i>
   <i name="MODEL_ALPHA">      1.00000000</i>
  </separator>
  <separator name="linear response parameters" >
   <i type="logical" name="LEPSILON"> F  </i>
   <i type="logical" name="LRPA"> F  </i>
   <i type="logical" name="LNABLA"> F  </i>
   <i type="logical" name="LVEL"> F  </i>
   <i type="int" name="KINTER">     0</i>
   <i name="CSHIFT">      0.10000000</i>
   <i name="OMEGAMAX">     -1.00000000</i>
   <i name="DEG_THRESHOLD">      0.00200000</i>
   <i name="RTIME">     -0.10000000</i>
   <i name="WPLASMAI">      0.00000000</i>
   <v name="DFIELD">      0.00000000      0.00000000      0.00000000</v>
   <v name="WPLASMA">      0.00000000      0.00000000      0.00000000      0.00000000      0.00000000      0.00000000      0.00000000      0.00000000      0.00000000</v>
  </separator>
  <separator name="orbital magnetization" >
   <i type="logical" name="NUCIND"> F  </i>
   <v name="MAGPOS">      0.00000000      0.00000000      0.00000000</v>
   <i type="logical" name="LNICSALL"> T  </i>
   <i type="logical" name="ORBITALMAG"> F  </i>
   <i type="logical" name="LMAGBLOCH"> F  </i>
   <i type="logical" name="LCHIMAG"> F  </i>
   <i type="logical" name="LGAUGE"> T  </i>
   <i type="int" name="MAGATOM">     0</i>
   <v name="MAGDIPOL">      0.00000000      0.00000000      0.00000000</v>
   <v name="AVECCONST">      0.00000000      0.00000000      0.00000000</v>
  </separator>
  <separator name="response functions" >
   <i type="logical" name="LADDER"> F  </i>
   <i type="logical" name="LRPAFORCE"> F  </i>
   <i type="logical" name="LFXC"> F  </i>
   <i type="logical" name="LHARTREE"> T  </i>
   <i type="int" name="IBSE">     0</i>
   <v type="int" name="KPOINT">    -1     0     0     0</v>
   <i type="logical" name="LTCTE"> F  </i>
   <i type="logical" name="LTETE"> F  </i>
   <i type="logical" name="LTRIPLET"> F  </i>
   <i type="logical" name="LFXCEPS"> F  </i>
   <i type="logical" name="LFXHEG"> F  </i>
   <i type="int" name="NATURALO">     2</i>
   <i type="logical" name="L2ORDER"> F  </i>
   <i type="logical" name="LMP2LT"> F  </i>
   <i type="logical" name="LUSEW"> F  </i>
   <i name="ENCUTGW">     -2.00000000</i>
   <i name="ENCUTGWSOFT">     -2.00000000</i>
   <i name="ENCUTLF">     -1.00000000</i>
   <i type="int" name="LMAXMP2">    -1</i>
   <i name="SCISSOR">      0.00000000</i>
   <i type="int" name="NOMEGA">     0</i>
   <i type="int" name="NOMEGAR">     0</i>
   <i type="int" name="NBANDSGW">    -1</i>
   <i type="int" name="NBANDSO">    -1</i>
   <i type="int" name="NBANDSV">    -1</i>
   <i type="int" name="NELM">   200</i>
   <i type="int" name="NELMHF">     1</i>
   <i type="int" name="DIM">     3</i>
   <i type="int" name="ANTIRES">     0</i>
   <i name="OMEGAMAX">    -30.00000000</i>
   <i name="OMEGAMIN">    -30.00000000</i>
   <i name="OMEGATL">   -200.00000000</i>
   <i type="int" name="OMEGAGRID">   140</i>
   <i name="CSHIFT">     -0.10000000</i>
   <i type="logical" name="SELFENERGY"> F  </i>
   <i type="logical" name="LSPECTRAL"> F  </i>
   <i type="logical" name="LSPECTRALGW"> F  </i>
   <i type="logical" name="LSINGLES"> F  </i>
   <i type="logical" name="LFERMIGW"> F  </i>
   <i type="logical" name="ODDONLYGW"> F  </i>
   <i type="logical" name="EVENONLYGW"> F  </i>
   <i type="int" name="NKREDLFX">     1</i>
   <i type="int" name="NKREDLFY">     1</i>
   <i type="int" name="NKREDLFZ">     1</i>
   <i type="int" name="MAXMEM">  2800</i>
   <i type="int" name="TELESCOPE">     0</i>
   <i type="int" name="TAUPAR">     1</i>
   <i type="int" name="OMEGAPAR">    -1</i>
   <i name="LAMBDA">      1.00000000</i>
  </separator>
  <separator name="External order field" >
   <i name="OFIELD_KAPPA">      0.00000000</i>
   <v name="OFIELD_K">      0.00000000      0.00000000      0.00000000</v>
   <i name="OFIELD_Q6_NEAR">      0.00000000</i>
   <i name="OFIELD_Q6_FAR">      0.00000000</i>
   <i name="OFIELD_A">      0.00000000</i>
  </separator>
 </parameters>
 <atominfo>
  <atoms>      20 </atoms>
  <types>       3 </types>
  <array name="atoms" >
   <dimension dim="1">ion</dimension>
   <field type="string">element</field>
   <field type="int">atomtype</field>
   <set>
    <rc><c>Cs</c><c>   1</c></rc>
    <rc><c>Cs</c><c>   1</c></rc>
    <rc><c>Cs</c><c>   1</c></rc>
    <rc><c>Cs</c><c>   1</c></rc>
    <rc><c>Pb</c><c>   2</c></rc>
    <rc><c>Pb</c><c>   2</c></rc>
    <rc><c>Pb</c><c>   2</c></rc>
    <rc><c>Pb</c><c>   2</c></rc>
    <rc><c>Br</c><c>   3</c></rc>
    <rc><c>Br</c><c>   3</c></rc>
    <rc><c>Br</c><c>   3</c></rc>
    <rc><c>Br</c><c>   3</c></rc>
    <rc><c>Br</c><c>   3</c></rc>
    <rc><c>Br</c><c>   3</c></rc>
    <rc><c>Br</c><c>   3</c></rc>
    <rc><c>Br</c><c>   3</c></rc>
    <rc><c>Br</c><c>   3</c></rc>
    <rc><c>Br</c><c>   3</c></rc>
    <rc><c>Br</c><c>   3</c></rc>
    <rc><c>Br</c><c>   3</c></rc>
   </set>
  </array>
  <array name="atomtypes" >
   <dimension dim="1">type</dimension>
   <field type="int">atomspertype</field>
   <field type="string">element</field>
   <field>mass</field>
   <field>valence</field>
   <field type="string">pseudopotential</field>
   <set>
    <rc><c>   4</c><c>Cs</c><c>    132.90000000</c><c>      9.00000000</c><c>  PAW_PBE Cs_sv 08Apr2002               </c></rc>
    <rc><c>   4</c><c>Pb</c><c>    207.20000000</c><c>     14.00000000</c><c>  PAW_PBE Pb_d 06Sep2000                </c></rc>
    <rc><c>  12</c><c>Br</c><c>     79.90400000</c><c>      7.00000000</c><c>  PAW_PBE Br 06Sep2000                  </c></rc>
   </set>
  </array>
 </atominfo>
 <structure name="initialpos" >
  <crystal>
   <varray name="basis" >
    <v>       8.58841795       0.00000000       0.00000000 </v>
    <v>       0.00000000      11.60622374       0.00000000 </v>
    <v>       0.00000000       0.00000000       8.23954016 </v>
   </varray>
   <i name="volume">    821.30995017 </i>
   <varray name="rec_basis" >
    <v>       0.11643588       0.00000000       0.00000000 </v>
    <v>       0.00000000       0.08616067       0.00000000 </v>
    <v>       0.00000000       0.00000000       0.12136600 </v>
   </varray>
  </crystal>
  <varray name="positions" >
   <v>       0.05821920       0.25000000       0.48155770 </v>
   <v>       0.44178080       0.75000000       0.98155770 </v>
   <v>       0.55821920       0.25000000       0.01844230 </v>
   <v>       0.94178080       0.75000000       0.51844230 </v>
   <v>       0.00000000       0.00000000       0.00000000 </v>
   <v>       0.50000000       0.00000000       0.50000000 </v>
   <v>       0.50000000       0.50000000       0.50000000 </v>
   <v>       0.00000000       0.50000000       0.00000000 </v>
   <v>       0.51679788       0.75000000       0.42183154 </v>
   <v>       0.98320212       0.25000000       0.92183154 </v>
   <v>       0.01679788       0.75000000       0.07816846 </v>
   <v>       0.48320212       0.25000000       0.57816846 </v>
   <v>       0.28753270       0.46158301       0.20968987 </v>
   <v>       0.21246730       0.53841699       0.70968987 </v>
   <v>       0.78753270       0.03841699       0.29031013 </v>
   <v>       0.71246730       0.96158301       0.79031013 </v>
   <v>       0.28753270       0.03841699       0.20968987 </v>
   <v>       0.21246730       0.96158301       0.70968987 </v>
   <v>       0.71246730       0.53841699       0.79031013 </v>
   <v>       0.78753270       0.46158301       0.29031013 </v>
  </varray>
 </structure>
 <calculation>
  <scstep>
   <time name="dav">    4.37    4.37</time>
   <time name="total">    5.60    5.62</time>
   <energy>
    <i name="alphaZ">    439.30909846 </i>
    <i name="ewald">  -9146.22394814 </i>
    <i name="hartreedc">  -3703.35755929 </i>
    <i name="XCdc">    461.52108201 </i>
    <i name="pawpsdc">  10816.98087266 </i>
    <i name="pawaedc"> -11353.96092700 </i>
    <i name="eentropy">     -0.00000000 </i>
    <i name="bandstr">   -153.13741352 </i>
    <i name="atom">  13290.28009929 </i>
    <i name="e_fr_energy">    651.41130445 </i>
    <i name="e_wo_entrp">    651.41130445 </i>
    <i name="e_0_energy">    651.41130445 </i>
   </energy>
  </scstep>
  <scstep>
   <time name="dav">    4.89    4.90</time>
   <time name="total">    4.89    4.90</time>
   <energy>
    <i name="e_fr_energy">   -577.42538149 </i>
    <i name="e_wo_entrp">   -577.42538149 </i>
    <i name="e_0_energy">   -577.42538149 </i>
   </energy>
  </scstep>
  <scstep>
   <time name="dav">    5.20    5.25</time>
   <time name="total">    5.20    5.25</time>
   <energy>
    <i name="e_fr_energy">   -748.78807265 </i>
    <i name="e_wo_entrp">   -748.78807265 </i>
    <i name="e_0_energy">   -748.78807265 </i>
   </energy>
  </scstep>
  <scstep>
   <time name="dav">    4.87    4.88</time>
   <time name="total">    4.87    4.88</time>
   <energy>
    <i name="e_fr_energy">   -754.54288015 </i>
    <i name="e_wo_entrp">   -754.54288015 </i>
    <i name="e_0_energy">   -754.54288015 </i>
   </energy>
  </scstep>
  <scstep>
   <time name="dav">    5.17    5.20</time>
   <time name="total">    6.12    6.15</time>
   <energy>
    <i name="e_fr_energy">   -754.81122790 </i>
    <i name="e_wo_entrp">   -754.81122790 </i>
    <i name="e_0_energy">   -754.81122790 </i>
   </energy>
  </scstep>
  <scstep>
   <time name="dav">    5.06    5.06</time>
   <time name="total">    7.22    7.27</time>
   <energy>
    <i name="e_fr_energy">   -714.94836759 </i>
    <i name="e_wo_entrp">   -714.94836759 </i>
    <i name="e_0_energy">   -714.94836759 </i>
   </energy>
  </scstep>
  <scstep>
   <time name="dav">    4.96    4.96</time>
   <time name="total">    7.13    7.14</time>
   <energy>
    <i name="e_fr_energy">   -714.71378705 </i>
    <i name="e_wo_entrp">   -714.71378705 </i>
    <i name="e_0_energy">   -714.71378705 </i>
   </energy>
  </scstep>
  <scstep>
   <time name="dav">    4.77    4.77</time>
   <time name="total">    6.91    6.93</time>
   <energy>
    <i name="e_fr_energy">   -714.81163088 </i>
    <i name="e_wo_entrp">   -714.81163088 </i>
    <i name="e_0_energy">   -714.81163088 </i>
   </energy>
  </scstep>
  <scstep>
   <time name="dav">    4.54    4.54</time>
   <time name="total">    6.70    6.72</time>
   <energy>
    <i name="e_fr_energy">   -714.85497803 </i>
    <i name="e_wo_entrp">   -714.85497803 </i>
    <i name="e_0_energy">   -714.85497803 </i>
   </energy>
  </scstep>
  <scstep>
   <time name="dav">    5.38    5.38</time>
   <time name="total">    7.52    7.54</time>
   <energy>
    <i name="e_fr_energy">   -714.85593033 </i>
    <i name="e_wo_entrp">   -714.85593033 </i>
    <i name="e_0_energy">   -714.85593033 </i>
   </energy>
  </scstep>
  <scstep>
   <time name="dav">    4.56    4.56</time>
   <time name="total">    6.73    6.73</time>
   <energy>
    <i name="e_fr_energy">   -714.85765238 </i>
    <i name="e_wo_entrp">   -714.85765238 </i>
    <i name="e_0_energy">   -714.85765238 </i>
   </energy>
  </scstep>
  <scstep>
   <time name="dav">    4.82    4.82</time>
   <time name="total">    6.98    7.01</time>
   <energy>
    <i name="e_fr_energy">   -714.85767307 </i>
    <i name="e_wo_entrp">   -714.85767307 </i>
    <i name="e_0_energy">   -714.85767307 </i>
   </energy>
  </scstep>
  <scstep>
   <time name="dav">    4.77    4.77</time>
   <time name="total">    6.90    6.96</time>
   <energy>
    <i name="e_fr_energy">   -714.85767723 </i>
    <i name="e_wo_entrp">   -714.85767723 </i>
    <i name="e_0_energy">   -714.85767723 </i>
   </energy>
  </scstep>
  <scstep>
   <time name="dav">    4.11    4.11</time>
   <time name="total">    6.25    6.29</time>
   <energy>
    <i name="e_fr_energy">   -714.85769134 </i>
    <i name="e_wo_entrp">   -714.85769134 </i>
    <i name="e_0_energy">   -714.85769134 </i>
   </energy>
  </scstep>
  <scstep>
   <time name="dav">    3.50    3.50</time>
   <time name="total">    5.67    5.68</time>
   <energy>
    <i name="e_fr_energy">   -714.85769332 </i>
    <i name="e_wo_entrp">   -714.85769332 </i>
    <i name="e_0_energy">   -714.85769332 </i>
   </energy>
  </scstep>
  <scstep>
   <time name="dav">    3.48    3.48</time>
   <time name="total">    5.66    5.66</time>
   <energy>
    <i name="e_fr_energy">   -714.85769136 </i>
    <i name="e_wo_entrp">   -714.85769136 </i>
    <i name="e_0_energy">   -714.85769136 </i>
   </energy>
  </scstep>
  <scstep>
   <time name="dav">    3.30    3.31</time>
   <time name="total">    5.44    5.49</time>
   <energy>
    <i name="e_fr_energy">   -714.85768994 </i>
    <i name="e_wo_entrp">   -714.85768994 </i>
    <i name="e_0_energy">   -714.85768994 </i>
   </energy>
  </scstep>
  <scstep>
   <time name="dav">    3.31    3.31</time>
   <time name="total">    4.54    4.58</time>
   <energy>
    <i name="alphaZ">    439.30909846 </i>
    <i name="ewald">  -9146.22394814 </i>
    <i name="hartreedc">  -3715.72274729 </i>
    <i name="XCdc">    480.93591027 </i>
    <i name="pawpsdc">  11492.60948158 </i>
    <i name="pawaedc"> -12028.18781603 </i>
    <i name="eentropy">     -0.00000000 </i>
    <i name="bandstr">  -1527.85776793 </i>
    <i name="atom">  13290.28009929 </i>
    <i name="e_fr_energy">   -714.85768978 </i>
    <i name="e_wo_entrp">   -714.85768978 </i>
    <i name="e_0_energy">   -714.85768978 </i>
   </energy>
  </scstep>
  <structure>
   <crystal>
    <varray name="basis" >
     <v>       8.58841795       0.00000000       0.00000000 </v>
     <v>       0.00000000      11.60622374       0.00000000 </v>
     <v>       0.00000000       0.00000000       8.23954016 </v>
    </varray>
    <i name="volume">    821.30995017 </i>
    <varray name="rec_basis" >
     <v>       0.11643588       0.00000000       0.00000000 </v>
     <v>       0.00000000       0.08616067       0.00000000 </v>
     <v>       0.00000000       0.00000000       0.12136600 </v>
    </varray>
   </crystal>
   <varray name="positions" >
    <v>       0.05821920       0.25000000       0.48155770 </v>
    <v>       0.44178080       0.75000000       0.98155770 </v>
    <v>       0.55821920       0.25000000       0.01844230 </v>
    <v>       0.94178080       0.75000000       0.51844230 </v>
    <v>       0.00000000       0.00000000       0.00000000 </v>
    <v>       0.50000000       0.00000000       0.50000000 </v>
    <v>       0.50000000       0.50000000       0.50000000 </v>
    <v>       0.00000000       0.50000000       0.00000000 </v>
    <v>       0.51679788       0.75000000       0.42183154 </v>
    <v>       0.98320212       0.25000000       0.92183154 </v>
    <v>       0.01679788       0.75000000       0.07816846 </v>
    <v>       0.48320212       0.25000000       0.57816846 </v>
    <v>       0.28753270       0.46158301       0.20968987 </v>
    <v>       0.21246730       0.53841699       0.70968987 </v>
    <v>       0.78753270       0.03841699       0.29031013 </v>
    <v>       0.71246730       0.96158301       0.79031013 </v>
    <v>       0.28753270       0.03841699       0.20968987 </v>
    <v>       0.21246730       0.96158301       0.70968987 </v>
    <v>       0.71246730       0.53841699       0.79031013 </v>
    <v>       0.78753270       0.46158301       0.29031013 </v>
   </varray>
  </structure>
  <varray name="forces" >
   <v>      -0.00000265       0.00000000       0.00212704 </v>
   <v>       0.00000265       0.00000000       0.00212704 </v>
   <v>      -0.00000265      -0.00000000      -0.00212704 </v>
   <v>       0.00000265       0.00000000      -0.00212704 </v>
   <v>       0.00000000       0.00000000       0.00000000 </v>
   <v>       0.00000000       0.00000000       0.00000000 </v>
   <v>       0.00000000       0.00000000       0.00000000 </v>
   <v>       0.00000000       0.00000000       0.00000000 </v>
   <v>       0.01440666       0.00000000      -0.00968509 </v>
   <v>      -0.01440666       0.00000000      -0.00968509 </v>
   <v>       0.01440666       0.00000000       0.00968509 </v>
   <v>      -0.01440666       0.00000000       0.00968509 </v>
   <v>       0.00283891       0.00607592      -0.00161333 </v>
   <v>      -0.00283891      -0.00607592      -0.00161333 </v>
   <v>       0.00283891      -0.00607592       0.00161333 </v>
   <v>      -0.00283891       0.00607592       0.00161333 </v>
   <v>       0.00283891      -0.00607592      -0.00161333 </v>
   <v>      -0.00283891       0.00607592      -0.00161333 </v>
   <v>      -0.00283891      -0.00607592       0.00161333 </v>
   <v>       0.00283891       0.00607592       0.00161333 </v>
  </varray>
  <varray name="stress" >
   <v>      -9.37049838       0.00000000       0.00000000 </v>
   <v>       0.00000000      -1.09669943       0.00000000 </v>
   <v>      -0.00000000       0.00000000      -7.47164773 </v>
  </varray>
  <energy>
   <i name="e_fr_energy">   -714.85768978 </i>
   <i name="e_wo_entrp">   -714.85768978 </i>
   <i name="e_0_energy">     -0.00000000 </i>
  </energy>
  <time name="totalsc">  127.27  127.80</time>
  <eigenvalues>
   <array>
    <dimension dim="1">band</dimension>
    <dimension dim="2">kpoint</dimension>
    <dimension dim="3">spin</dimension>
    <field>eigene</field>
    <field>occ</field>
    <set>
     <set comment="spin 1">
      <set comment="kpoint 1">
       <r>  -20.9225    1.0000 </r>
       <r>  -20.9209    1.0000 </r>
       <r>  -20.9193    1.0000 </r>
       <r>  -20.9183    1.0000 </r>
       <r>  -16.6476    1.0000 </r>
       <r>  -16.6282    1.0000 </r>
       <r>  -16.6229    1.0000 </r>
       <r>  -16.6226    1.0000 </r>
       <r>  -16.5842    1.0000 </r>
       <r>  -16.5596    1.0000 </r>
       <r>  -16.5544    1.0000 </r>
       <r>  -16.5543    1.0000 </r>
       <r>  -16.5003    1.0000 </r>
       <r>  -16.5002    1.0000 </r>
       <r>  -16.4992    1.0000 </r>
       <r>  -16.4991    1.0000 </r>
       <r>  -16.4937    1.0000 </r>
       <r>  -16.4933    1.0000 </r>
       <r>  -16.4928    1.0000 </r>
       <r>  -16.4922    1.0000 </r>
       <r>  -16.4877    1.0000 </r>
       <r>  -16.4869    1.0000 </r>
       <r>  -16.4869    1.0000 </r>
       <r>  -16.4860    1.0000 </r>
       <r>  -14.4129    1.0000 </r>
       <r>  -14.2021    1.0000 </r>
       <r>  -14.1745    1.0000 </r>
       <r>  -14.1688    1.0000 </r>
       <r>  -14.1025    1.0000 </r>
       <r>  -14.0769    1.0000 </r>
       <r>  -14.0655    1.0000 </r>
       <r>  -14.0626    1.0000 </r>
       <r>  -14.0545    1.0000 </r>
       <r>  -13.8644    1.0000 </r>
       <r>  -13.8453    1.0000 </r>
       <r>  -13.8364    1.0000 </r>
       <r>   -8.2612    1.0000 </r>
       <r>   -7.7373    1.0000 </r>
       <r>   -7.3732    1.0000 </r>
       <r>   -7.3549    1.0000 </r>
       <r>   -7.3518    1.0000 </r>
       <r>   -7.3406    1.0000 </r>
       <r>   -7.3340    1.0000 </r>
       <r>   -7.3255    1.0000 </r>
       <r>   -7.3113    1.0000 </r>
       <r>   -7.3030    1.0000 </r>
       <r>   -7.3005    1.0000 </r>
       <r>   -7.2979    1.0000 </r>
       <r>   -7.2850    1.0000 </r>
       <r>   -7.2810    1.0000 </r>
       <r>   -7.2773    1.0000 </r>
       <r>   -6.7199    1.0000 </r>
       <r>   -3.4201    1.0000 </r>
       <r>   -3.2922    1.0000 </r>
       <r>   -3.2809    1.0000 </r>
       <r>   -3.2762    1.0000 </r>
       <r>   -3.1697    1.0000 </r>
       <r>   -3.1330    1.0000 </r>
       <r>   -2.1806    1.0000 </r>
       <r>   -1.9694    1.0000 </r>
       <r>   -1.9684    1.0000 </r>
       <r>   -1.9683    1.0000 </r>
       <r>   -1.9083    1.0000 </r>
       <r>   -1.9074    1.0000 </r>
       <r>   -1.7641    1.0000 </r>
       <r>   -1.6102    1.0000 </r>
       <r>   -1.5892    1.0000 </r>
       <r>   -1.5755    1.0000 </r>
       <r>   -1.5654    1.0000 </r>
       <r>   -1.5226    1.0000 </r>
       <r>   -1.4980    1.0000 </r>
       <r>   -1.4816    1.0000 </r>
       <r>   -1.4750    1.0000 </r>
       <r>   -1.4547    1.0000 </r>
       <r>   -1.4451    1.0000 </r>
       <r>   -1.4229    1.0000 </r>
       <r>   -1.4159    1.0000 </r>
       <r>   -1.3239    1.0000 </r>
       <r>   -1.2565    1.0000 </r>
       <r>   -1.2263    1.0000 </r>
       <r>   -1.2207    1.0000 </r>
       <r>   -1.1217    1.0000 </r>
       <r>   -1.1188    1.0000 </r>
       <r>   -1.0926    1.0000 </r>
       <r>   -0.9359    1.0000 </r>
       <r>   -0.7901    1.0000 </r>
       <r>   -0.4095    1.0000 </r>
       <r>    0.2298    1.0000 </r>
       <r>    2.4745    0.0000 </r>
       <r>    2.6514    0.0000 </r>
       <r>    2.7637    0.0000 </r>
       <r>    2.8194    0.0000 </r>
       <r>    3.0764    0.0000 </r>
       <r>    3.4599    0.0000 </r>
       <r>    4.7459    0.0000 </r>
       <r>    5.4437    0.0000 </r>
       <r>    5.5739    0.0000 </r>
       <r>    5.7708    0.0000 </r>
       <r>    5.8190    0.0000 </r>
       <r>    5.9590    0.0000 </r>
       <r>    5.9926    0.0000 </r>
       <r>    6.0360    0.0000 </r>
       <r>    6.1894    0.0000 </r>
       <r>    6.2044    0.0000 </r>
       <r>    6.3477    0.0000 </r>
       <r>    6.4101    0.0000 </r>
       <r>    6.4661    0.0000 </r>
       <r>    6.6363    0.0000 </r>
       <r>    6.6414    0.0000 </r>
       <r>    6.6661    0.0000 </r>
       <r>    6.8030    0.0000 </r>
       <r>    6.8947    0.0000 </r>
      </set>
      <set comment="kpoint 2">
       <r>  -20.9217    1.0000 </r>
       <r>  -20.9204    1.0000 </r>
       <r>  -20.9201    1.0000 </r>
       <r>  -20.9190    1.0000 </r>
       <r>  -16.6426    1.0000 </r>
       <r>  -16.6330    1.0000 </r>
       <r>  -16.6065    1.0000 </r>
       <r>  -16.6064    1.0000 </r>
       <r>  -16.5781    1.0000 </r>
       <r>  -16.5723    1.0000 </r>
       <r>  -16.5721    1.0000 </r>
       <r>  -16.5657    1.0000 </r>
       <r>  -16.5001    1.0000 </r>
       <r>  -16.5001    1.0000 </r>
       <r>  -16.4996    1.0000 </r>
       <r>  -16.4995    1.0000 </r>
       <r>  -16.4936    1.0000 </r>
       <r>  -16.4934    1.0000 </r>
       <r>  -16.4927    1.0000 </r>
       <r>  -16.4924    1.0000 </r>
       <r>  -16.4875    1.0000 </r>
       <r>  -16.4872    1.0000 </r>
       <r>  -16.4865    1.0000 </r>
       <r>  -16.4862    1.0000 </r>
       <r>  -14.3676    1.0000 </r>
       <r>  -14.2461    1.0000 </r>
       <r>  -14.1727    1.0000 </r>
       <r>  -14.1698    1.0000 </r>
       <r>  -14.1693    1.0000 </r>
       <r>  -14.1016    1.0000 </r>
       <r>  -14.0090    1.0000 </r>
       <r>  -14.0001    1.0000 </r>
       <r>  -13.9597    1.0000 </r>
       <r>  -13.9002    1.0000 </r>
       <r>  -13.8912    1.0000 </r>
       <r>  -13.8863    1.0000 </r>
       <r>   -8.0705    1.0000 </r>
       <r>   -7.6399    1.0000 </r>
       <r>   -7.5469    1.0000 </r>
       <r>   -7.3561    1.0000 </r>
       <r>   -7.3404    1.0000 </r>
       <r>   -7.3302    1.0000 </r>
       <r>   -7.3293    1.0000 </r>
       <r>   -7.3113    1.0000 </r>
       <r>   -7.3099    1.0000 </r>
       <r>   -7.3085    1.0000 </r>
       <r>   -7.2960    1.0000 </r>
       <r>   -7.2930    1.0000 </r>
       <r>   -7.2872    1.0000 </r>
       <r>   -7.2833    1.0000 </r>
       <r>   -7.2750    1.0000 </r>
       <r>   -7.0189    1.0000 </r>
       <r>   -3.3897    1.0000 </r>
       <r>   -3.3123    1.0000 </r>
       <r>   -3.0070    1.0000 </r>
       <r>   -2.8520    1.0000 </r>
       <r>   -2.7996    1.0000 </r>
       <r>   -2.7537    1.0000 </r>
       <r>   -2.3078    1.0000 </r>
       <r>   -2.1957    1.0000 </r>
       <r>   -2.1058    1.0000 </r>
       <r>   -2.0617    1.0000 </r>
       <r>   -2.0346    1.0000 </r>
       <r>   -2.0191    1.0000 </r>
       <r>   -1.9118    1.0000 </r>
       <r>   -1.8044    1.0000 </r>
       <r>   -1.7383    1.0000 </r>
       <r>   -1.7152    1.0000 </r>
       <r>   -1.5697    1.0000 </r>
       <r>   -1.5599    1.0000 </r>
       <r>   -1.5398    1.0000 </r>
       <r>   -1.5241    1.0000 </r>
       <r>   -1.4378    1.0000 </r>
       <r>   -1.4325    1.0000 </r>
       <r>   -1.3954    1.0000 </r>
       <r>   -1.3553    1.0000 </r>
       <r>   -1.3514    1.0000 </r>
       <r>   -1.3217    1.0000 </r>
       <r>   -1.2787    1.0000 </r>
       <r>   -1.2727    1.0000 </r>
       <r>   -1.2266    1.0000 </r>
       <r>   -1.1825    1.0000 </r>
       <r>   -1.1654    1.0000 </r>
       <r>   -1.1223    1.0000 </r>
       <r>   -0.9427    1.0000 </r>
       <r>   -0.8504    1.0000 </r>
       <r>   -0.6927    1.0000 </r>
       <r>   -0.2771    1.0000 </r>
       <r>    2.9185    0.0000 </r>
       <r>    3.2051    0.0000 </r>
       <r>    3.2768    0.0000 </r>
       <r>    3.4956    0.0000 </r>
       <r>    3.6473    0.0000 </r>
       <r>    3.8493    0.0000 </r>
       <r>    4.7510    0.0000 </r>
       <r>    4.8575    0.0000 </r>
       <r>    4.9586    0.0000 </r>
       <r>    5.0752    0.0000 </r>
       <r>    5.5896    0.0000 </r>
       <r>    5.7856    0.0000 </r>
       <r>    6.0683    0.0000 </r>
       <r>    6.1275    0.0000 </r>
       <r>    6.1653    0.0000 </r>
       <r>    6.2474    0.0000 </r>
       <r>    6.4502    0.0000 </r>
       <r>    6.4655    0.0000 </r>
       <r>    6.5285    0.0000 </r>
       <r>    6.5544    0.0000 </r>
       <r>    6.6925    0.0000 </r>
       <r>    6.7860    0.0000 </r>
       <r>    6.8327    0.0000 </r>
       <r>    6.9309    0.0000 </r>
      </set>
      <set comment="kpoint 3">
       <r>  -20.9217    1.0000 </r>
       <r>  -20.9217    1.0000 </r>
       <r>  -20.9188    1.0000 </r>
       <r>  -20.9188    1.0000 </r>
       <r>  -16.6227    1.0000 </r>
       <r>  -16.6227    1.0000 </r>
       <r>  -16.6162    1.0000 </r>
       <r>  -16.6162    1.0000 </r>
       <r>  -16.5945    1.0000 </r>
       <r>  -16.5945    1.0000 </r>
       <r>  -16.5542    1.0000 </r>
       <r>  -16.5542    1.0000 </r>
       <r>  -16.5003    1.0000 </r>
       <r>  -16.5003    1.0000 </r>
       <r>  -16.4991    1.0000 </r>
       <r>  -16.4991    1.0000 </r>
       <r>  -16.4931    1.0000 </r>
       <r>  -16.4931    1.0000 </r>
       <r>  -16.4927    1.0000 </r>
       <r>  -16.4927    1.0000 </r>
       <r>  -16.4871    1.0000 </r>
       <r>  -16.4871    1.0000 </r>
       <r>  -16.4864    1.0000 </r>
       <r>  -16.4864    1.0000 </r>
       <r>  -14.3574    1.0000 </r>
       <r>  -14.3574    1.0000 </r>
       <r>  -14.1351    1.0000 </r>
       <r>  -14.1351    1.0000 </r>
       <r>  -14.0711    1.0000 </r>
       <r>  -14.0711    1.0000 </r>
       <r>  -14.0594    1.0000 </r>
       <r>  -14.0594    1.0000 </r>
       <r>  -13.9680    1.0000 </r>
       <r>  -13.9680    1.0000 </r>
       <r>  -13.8407    1.0000 </r>
       <r>  -13.8407    1.0000 </r>
       <r>   -8.0197    1.0000 </r>
       <r>   -8.0197    1.0000 </r>
       <r>   -7.3472    1.0000 </r>
       <r>   -7.3472    1.0000 </r>
       <r>   -7.3339    1.0000 </r>
       <r>   -7.3339    1.0000 </r>
       <r>   -7.3183    1.0000 </r>
       <r>   -7.3183    1.0000 </r>
       <r>   -7.3052    1.0000 </r>
       <r>   -7.3052    1.0000 </r>
       <r>   -7.2949    1.0000 </r>
       <r>   -7.2949    1.0000 </r>
       <r>   -7.2904    1.0000 </r>
       <r>   -7.2904    1.0000 </r>
       <r>   -7.0906    1.0000 </r>
       <r>   -7.0906    1.0000 </r>
       <r>   -3.2313    1.0000 </r>
       <r>   -3.2313    1.0000 </r>
       <r>   -3.2253    1.0000 </r>
       <r>   -3.2253    1.0000 </r>
       <r>   -2.5801    1.0000 </r>
       <r>   -2.5801    1.0000 </r>
       <r>   -2.4813    1.0000 </r>
       <r>   -2.4813    1.0000 </r>
       <r>   -2.0527    1.0000 </r>
       <r>   -2.0527    1.0000 </r>
       <r>   -1.9106    1.0000 </r>
       <r>   -1.9106    1.0000 </r>
       <r>   -1.8518    1.0000 </r>
       <r>   -1.8518    1.0000 </r>
       <r>   -1.5799    1.0000 </r>
       <r>   -1.5799    1.0000 </r>
       <r>   -1.5780    1.0000 </r>
       <r>   -1.5780    1.0000 </r>
       <r>   -1.4902    1.0000 </r>
       <r>   -1.4902    1.0000 </r>
       <r>   -1.4573    1.0000 </r>
       <r>   -1.4573    1.0000 </r>
       <r>   -1.3958    1.0000 </r>
       <r>   -1.3958    1.0000 </r>
       <r>   -1.3413    1.0000 </r>
       <r>   -1.3413    1.0000 </r>
       <r>   -1.2804    1.0000 </r>
       <r>   -1.2804    1.0000 </r>
       <r>   -1.1900    1.0000 </r>
       <r>   -1.1900    1.0000 </r>
       <r>   -1.1698    1.0000 </r>
       <r>   -1.1698    1.0000 </r>
       <r>   -0.9567    1.0000 </r>
       <r>   -0.9567    1.0000 </r>
       <r>   -0.2495    1.0000 </r>
       <r>   -0.2495    1.0000 </r>
       <r>    2.6732    0.0000 </r>
       <r>    2.6732    0.0000 </r>
       <r>    2.8570    0.0000 </r>
       <r>    2.8570    0.0000 </r>
       <r>    4.2450    0.0000 </r>
       <r>    4.2450    0.0000 </r>
       <r>    4.7893    0.0000 </r>
       <r>    4.7893    0.0000 </r>
       <r>    5.4623    0.0000 </r>
       <r>    5.4623    0.0000 </r>
       <r>    5.7388    0.0000 </r>
       <r>    5.7388    0.0000 </r>
       <r>    5.7434    0.0000 </r>
       <r>    5.7434    0.0000 </r>
       <r>    6.1267    0.0000 </r>
       <r>    6.1267    0.0000 </r>
       <r>    6.2934    0.0000 </r>
       <r>    6.2934    0.0000 </r>
       <r>    6.5037    0.0000 </r>
       <r>    6.5037    0.0000 </r>
       <r>    6.7647    0.0000 </r>
       <r>    6.7650    0.0000 </r>
       <r>    6.8619    0.0000 </r>
       <r>    6.8694    0.0000 </r>
      </set>
      <set comment="kpoint 4">
       <r>  -20.9210    1.0000 </r>
       <r>  -20.9210    1.0000 </r>
       <r>  -20.9195    1.0000 </r>
       <r>  -20.9195    1.0000 </r>
       <r>  -16.6107    1.0000 </r>
       <r>  -16.6107    1.0000 </r>
       <r>  -16.6064    1.0000 </r>
       <r>  -16.6064    1.0000 </r>
       <r>  -16.5999    1.0000 </r>
       <r>  -16.5999    1.0000 </r>
       <r>  -16.5723    1.0000 </r>
       <r>  -16.5723    1.0000 </r>
       <r>  -16.5000    1.0000 </r>
       <r>  -16.5000    1.0000 </r>
       <r>  -16.4995    1.0000 </r>
       <r>  -16.4995    1.0000 </r>
       <r>  -16.4932    1.0000 </r>
       <r>  -16.4932    1.0000 </r>
       <r>  -16.4928    1.0000 </r>
       <r>  -16.4928    1.0000 </r>
       <r>  -16.4871    1.0000 </r>
       <r>  -16.4871    1.0000 </r>
       <r>  -16.4867    1.0000 </r>
       <r>  -16.4867    1.0000 </r>
       <r>  -14.3190    1.0000 </r>
       <r>  -14.3190    1.0000 </r>
       <r>  -14.2220    1.0000 </r>
       <r>  -14.2220    1.0000 </r>
       <r>  -14.0157    1.0000 </r>
       <r>  -14.0157    1.0000 </r>
       <r>  -14.0058    1.0000 </r>
       <r>  -14.0058    1.0000 </r>
       <r>  -13.9772    1.0000 </r>
       <r>  -13.9772    1.0000 </r>
       <r>  -13.8956    1.0000 </r>
       <r>  -13.8956    1.0000 </r>
       <r>   -7.8274    1.0000 </r>
       <r>   -7.8274    1.0000 </r>
       <r>   -7.4023    1.0000 </r>
       <r>   -7.4023    1.0000 </r>
       <r>   -7.3345    1.0000 </r>
       <r>   -7.3345    1.0000 </r>
       <r>   -7.3326    1.0000 </r>
       <r>   -7.3326    1.0000 </r>
       <r>   -7.3115    1.0000 </r>
       <r>   -7.3115    1.0000 </r>
       <r>   -7.2968    1.0000 </r>
       <r>   -7.2968    1.0000 </r>
       <r>   -7.2949    1.0000 </r>
       <r>   -7.2949    1.0000 </r>
       <r>   -7.2646    1.0000 </r>
       <r>   -7.2646    1.0000 </r>
       <r>   -2.9373    1.0000 </r>
       <r>   -2.9373    1.0000 </r>
       <r>   -2.8783    1.0000 </r>
       <r>   -2.8783    1.0000 </r>
       <r>   -2.5764    1.0000 </r>
       <r>   -2.5764    1.0000 </r>
       <r>   -2.4603    1.0000 </r>
       <r>   -2.4603    1.0000 </r>
       <r>   -2.2184    1.0000 </r>
       <r>   -2.2184    1.0000 </r>
       <r>   -2.1134    1.0000 </r>
       <r>   -2.1134    1.0000 </r>
       <r>   -1.8082    1.0000 </r>
       <r>   -1.8082    1.0000 </r>
       <r>   -1.7225    1.0000 </r>
       <r>   -1.7225    1.0000 </r>
       <r>   -1.6074    1.0000 </r>
       <r>   -1.6074    1.0000 </r>
       <r>   -1.6031    1.0000 </r>
       <r>   -1.6031    1.0000 </r>
       <r>   -1.5030    1.0000 </r>
       <r>   -1.5030    1.0000 </r>
       <r>   -1.5005    1.0000 </r>
       <r>   -1.5005    1.0000 </r>
       <r>   -1.2579    1.0000 </r>
       <r>   -1.2579    1.0000 </r>
       <r>   -1.2409    1.0000 </r>
       <r>   -1.2409    1.0000 </r>
       <r>   -1.1980    1.0000 </r>
       <r>   -1.1980    1.0000 </r>
       <r>   -1.1709    1.0000 </r>
       <r>   -1.1709    1.0000 </r>
       <r>   -0.9479    1.0000 </r>
       <r>   -0.9479    1.0000 </r>
       <r>   -0.7292    1.0000 </r>
       <r>   -0.7292    1.0000 </r>
       <r>    3.4402    0.0000 </r>
       <r>    3.4402    0.0000 </r>
       <r>    3.6493    0.0000 </r>
       <r>    3.6493    0.0000 </r>
       <r>    4.3721    0.0000 </r>
       <r>    4.3721    0.0000 </r>
       <r>    4.6566    0.0000 </r>
       <r>    4.6566    0.0000 </r>
       <r>    4.9233    0.0000 </r>
       <r>    4.9233    0.0000 </r>
       <r>    4.9498    0.0000 </r>
       <r>    4.9498    0.0000 </r>
       <r>    5.9203    0.0000 </r>
       <r>    5.9203    0.0000 </r>
       <r>    6.3030    0.0000 </r>
       <r>    6.3030    0.0000 </r>
       <r>    6.3468    0.0000 </r>
       <r>    6.3468    0.0000 </r>
       <r>    6.4663    0.0000 </r>
       <r>    6.4663    0.0000 </r>
       <r>    6.5988    0.0000 </r>
       <r>    6.5988    0.0000 </r>
       <r>    6.7874    0.0000 </r>
       <r>    6.7879    0.0000 </r>
      </set>
      <set comment="kpoint 5">
       <r>  -20.9218    1.0000 </r>
       <r>  -20.9206    1.0000 </r>
       <r>  -20.9198    1.0000 </r>
       <r>  -20.9189    1.0000 </r>
       <r>  -16.6426    1.0000 </r>
       <r>  -16.6330    1.0000 </r>
       <r>  -16.6066    1.0000 </r>
       <r>  -16.6064    1.0000 </r>
       <r>  -16.5779    1.0000 </r>
       <r>  -16.5723    1.0000 </r>
       <r>  -16.5722    1.0000 </r>
       <r>  -16.5658    1.0000 </r>
       <r>  -16.5001    1.0000 </r>
       <r>  -16.5000    1.0000 </r>
       <r>  -16.4995    1.0000 </r>
       <r>  -16.4993    1.0000 </r>
       <r>  -16.4936    1.0000 </r>
       <r>  -16.4934    1.0000 </r>
       <r>  -16.4926    1.0000 </r>
       <r>  -16.4925    1.0000 </r>
       <r>  -16.4875    1.0000 </r>
       <r>  -16.4871    1.0000 </r>
       <r>  -16.4866    1.0000 </r>
       <r>  -16.4862    1.0000 </r>
       <r>  -14.3668    1.0000 </r>
       <r>  -14.2428    1.0000 </r>
       <r>  -14.1726    1.0000 </r>
       <r>  -14.1705    1.0000 </r>
       <r>  -14.1672    1.0000 </r>
       <r>  -14.0934    1.0000 </r>
       <r>  -14.0198    1.0000 </r>
       <r>  -14.0084    1.0000 </r>
       <r>  -13.9533    1.0000 </r>
       <r>  -13.9037    1.0000 </r>
       <r>  -13.8940    1.0000 </r>
       <r>  -13.8842    1.0000 </r>
       <r>   -8.0690    1.0000 </r>
       <r>   -7.6328    1.0000 </r>
       <r>   -7.5387    1.0000 </r>
       <r>   -7.3435    1.0000 </r>
       <r>   -7.3345    1.0000 </r>
       <r>   -7.3341    1.0000 </r>
       <r>   -7.3216    1.0000 </r>
       <r>   -7.3167    1.0000 </r>
       <r>   -7.3164    1.0000 </r>
       <r>   -7.3052    1.0000 </r>
       <r>   -7.2993    1.0000 </r>
       <r>   -7.2919    1.0000 </r>
       <r>   -7.2849    1.0000 </r>
       <r>   -7.2820    1.0000 </r>
       <r>   -7.2789    1.0000 </r>
       <r>   -7.0252    1.0000 </r>
       <r>   -3.3892    1.0000 </r>
       <r>   -3.3099    1.0000 </r>
       <r>   -3.0061    1.0000 </r>
       <r>   -2.8674    1.0000 </r>
       <r>   -2.8238    1.0000 </r>
       <r>   -2.7108    1.0000 </r>
       <r>   -2.3707    1.0000 </r>
       <r>   -2.1782    1.0000 </r>
       <r>   -2.1240    1.0000 </r>
       <r>   -2.0748    1.0000 </r>
       <r>   -2.0566    1.0000 </r>
       <r>   -1.9512    1.0000 </r>
       <r>   -1.9369    1.0000 </r>
       <r>   -1.7953    1.0000 </r>
       <r>   -1.7412    1.0000 </r>
       <r>   -1.7144    1.0000 </r>
       <r>   -1.5770    1.0000 </r>
       <r>   -1.4732    1.0000 </r>
       <r>   -1.4706    1.0000 </r>
       <r>   -1.4658    1.0000 </r>
       <r>   -1.4406    1.0000 </r>
       <r>   -1.4174    1.0000 </r>
       <r>   -1.4067    1.0000 </r>
       <r>   -1.3724    1.0000 </r>
       <r>   -1.3639    1.0000 </r>
       <r>   -1.3527    1.0000 </r>
       <r>   -1.3038    1.0000 </r>
       <r>   -1.2599    1.0000 </r>
       <r>   -1.2483    1.0000 </r>
       <r>   -1.2040    1.0000 </r>
       <r>   -1.1417    1.0000 </r>
       <r>   -1.1339    1.0000 </r>
       <r>   -1.0206    1.0000 </r>
       <r>   -0.8913    1.0000 </r>
       <r>   -0.7035    1.0000 </r>
       <r>   -0.3109    1.0000 </r>
       <r>    2.9108    0.0000 </r>
       <r>    3.1853    0.0000 </r>
       <r>    3.3710    0.0000 </r>
       <r>    3.3836    0.0000 </r>
       <r>    3.7544    0.0000 </r>
       <r>    3.7678    0.0000 </r>
       <r>    4.7842    0.0000 </r>
       <r>    4.7882    0.0000 </r>
       <r>    5.0023    0.0000 </r>
       <r>    5.1455    0.0000 </r>
       <r>    5.5084    0.0000 </r>
       <r>    5.7778    0.0000 </r>
       <r>    5.9185    0.0000 </r>
       <r>    6.0981    0.0000 </r>
       <r>    6.1346    0.0000 </r>
       <r>    6.2847    0.0000 </r>
       <r>    6.3260    0.0000 </r>
       <r>    6.4990    0.0000 </r>
       <r>    6.5488    0.0000 </r>
       <r>    6.6428    0.0000 </r>
       <r>    6.7400    0.0000 </r>
       <r>    6.8271    0.0000 </r>
       <r>    6.9483    0.0000 </r>
       <r>    6.9491    0.0000 </r>
      </set>
      <set comment="kpoint 6">
       <r>  -20.9213    1.0000 </r>
       <r>  -20.9205    1.0000 </r>
       <r>  -20.9198    1.0000 </r>
       <r>  -20.9192    1.0000 </r>
       <r>  -16.6439    1.0000 </r>
       <r>  -16.6383    1.0000 </r>
       <r>  -16.6055    1.0000 </r>
       <r>  -16.5944    1.0000 </r>
       <r>  -16.5914    1.0000 </r>
       <r>  -16.5780    1.0000 </r>
       <r>  -16.5672    1.0000 </r>
       <r>  -16.5582    1.0000 </r>
       <r>  -16.4999    1.0000 </r>
       <r>  -16.4998    1.0000 </r>
       <r>  -16.4996    1.0000 </r>
       <r>  -16.4995    1.0000 </r>
       <r>  -16.4935    1.0000 </r>
       <r>  -16.4934    1.0000 </r>
       <r>  -16.4926    1.0000 </r>
       <r>  -16.4924    1.0000 </r>
       <r>  -16.4874    1.0000 </r>
       <r>  -16.4872    1.0000 </r>
       <r>  -16.4864    1.0000 </r>
       <r>  -16.4862    1.0000 </r>
       <r>  -14.3248    1.0000 </r>
       <r>  -14.2476    1.0000 </r>
       <r>  -14.1726    1.0000 </r>
       <r>  -14.1713    1.0000 </r>
       <r>  -14.1313    1.0000 </r>
       <r>  -14.0708    1.0000 </r>
       <r>  -14.0668    1.0000 </r>
       <r>  -14.0279    1.0000 </r>
       <r>  -13.9955    1.0000 </r>
       <r>  -13.9430    1.0000 </r>
       <r>  -13.8839    1.0000 </r>
       <r>  -13.8516    1.0000 </r>
       <r>   -7.9547    1.0000 </r>
       <r>   -7.7375    1.0000 </r>
       <r>   -7.4237    1.0000 </r>
       <r>   -7.3324    1.0000 </r>
       <r>   -7.3300    1.0000 </r>
       <r>   -7.3249    1.0000 </r>
       <r>   -7.3149    1.0000 </r>
       <r>   -7.3123    1.0000 </r>
       <r>   -7.3112    1.0000 </r>
       <r>   -7.3084    1.0000 </r>
       <r>   -7.2963    1.0000 </r>
       <r>   -7.2959    1.0000 </r>
       <r>   -7.2882    1.0000 </r>
       <r>   -7.2866    1.0000 </r>
       <r>   -7.2636    1.0000 </r>
       <r>   -7.1299    1.0000 </r>
       <r>   -3.3786    1.0000 </r>
       <r>   -3.3387    1.0000 </r>
       <r>   -3.2296    1.0000 </r>
       <r>   -3.0771    1.0000 </r>
       <r>   -2.8756    1.0000 </r>
       <r>   -2.7088    1.0000 </r>
       <r>   -2.2759    1.0000 </r>
       <r>   -2.1492    1.0000 </r>
       <r>   -2.1454    1.0000 </r>
       <r>   -2.1251    1.0000 </r>
       <r>   -2.0542    1.0000 </r>
       <r>   -1.8408    1.0000 </r>
       <r>   -1.7683    1.0000 </r>
       <r>   -1.7626    1.0000 </r>
       <r>   -1.6304    1.0000 </r>
       <r>   -1.6054    1.0000 </r>
       <r>   -1.5855    1.0000 </r>
       <r>   -1.5250    1.0000 </r>
       <r>   -1.5082    1.0000 </r>
       <r>   -1.4665    1.0000 </r>
       <r>   -1.4516    1.0000 </r>
       <r>   -1.4327    1.0000 </r>
       <r>   -1.4046    1.0000 </r>
       <r>   -1.3998    1.0000 </r>
       <r>   -1.3604    1.0000 </r>
       <r>   -1.3569    1.0000 </r>
       <r>   -1.3297    1.0000 </r>
       <r>   -1.3243    1.0000 </r>
       <r>   -1.2692    1.0000 </r>
       <r>   -1.2507    1.0000 </r>
       <r>   -1.1935    1.0000 </r>
       <r>   -1.1545    1.0000 </r>
       <r>   -0.9485    1.0000 </r>
       <r>   -0.8284    1.0000 </r>
       <r>   -0.5442    1.0000 </r>
       <r>   -0.2513    1.0000 </r>
       <r>    2.8122    0.0000 </r>
       <r>    2.9912    0.0000 </r>
       <r>    3.1433    0.0000 </r>
       <r>    3.2095    0.0000 </r>
       <r>    3.6095    0.0000 </r>
       <r>    3.9569    0.0000 </r>
       <r>    4.5820    0.0000 </r>
       <r>    4.9589    0.0000 </r>
       <r>    5.3130    0.0000 </r>
       <r>    5.6821    0.0000 </r>
       <r>    5.7506    0.0000 </r>
       <r>    5.8852    0.0000 </r>
       <r>    6.0561    0.0000 </r>
       <r>    6.1665    0.0000 </r>
       <r>    6.2557    0.0000 </r>
       <r>    6.3866    0.0000 </r>
       <r>    6.3929    0.0000 </r>
       <r>    6.5607    0.0000 </r>
       <r>    6.6184    0.0000 </r>
       <r>    6.6797    0.0000 </r>
       <r>    6.7166    0.0000 </r>
       <r>    6.8262    0.0000 </r>
       <r>    6.8448    0.0000 </r>
       <r>    7.0806    0.0000 </r>
      </set>
      <set comment="kpoint 7">
       <r>  -20.9211    1.0000 </r>
       <r>  -20.9211    1.0000 </r>
       <r>  -20.9194    1.0000 </r>
       <r>  -20.9194    1.0000 </r>
       <r>  -16.6106    1.0000 </r>
       <r>  -16.6106    1.0000 </r>
       <r>  -16.6065    1.0000 </r>
       <r>  -16.6065    1.0000 </r>
       <r>  -16.5998    1.0000 </r>
       <r>  -16.5998    1.0000 </r>
       <r>  -16.5723    1.0000 </r>
       <r>  -16.5723    1.0000 </r>
       <r>  -16.5000    1.0000 </r>
       <r>  -16.5000    1.0000 </r>
       <r>  -16.4994    1.0000 </r>
       <r>  -16.4994    1.0000 </r>
       <r>  -16.4931    1.0000 </r>
       <r>  -16.4931    1.0000 </r>
       <r>  -16.4929    1.0000 </r>
       <r>  -16.4929    1.0000 </r>
       <r>  -16.4870    1.0000 </r>
       <r>  -16.4870    1.0000 </r>
       <r>  -16.4867    1.0000 </r>
       <r>  -16.4867    1.0000 </r>
       <r>  -14.3183    1.0000 </r>
       <r>  -14.3183    1.0000 </r>
       <r>  -14.2194    1.0000 </r>
       <r>  -14.2194    1.0000 </r>
       <r>  -14.0176    1.0000 </r>
       <r>  -14.0176    1.0000 </r>
       <r>  -14.0067    1.0000 </r>
       <r>  -14.0067    1.0000 </r>
       <r>  -13.9763    1.0000 </r>
       <r>  -13.9763    1.0000 </r>
       <r>  -13.8985    1.0000 </r>
       <r>  -13.8985    1.0000 </r>
       <r>   -7.8247    1.0000 </r>
       <r>   -7.8247    1.0000 </r>
       <r>   -7.3839    1.0000 </r>
       <r>   -7.3839    1.0000 </r>
       <r>   -7.3442    1.0000 </r>
       <r>   -7.3442    1.0000 </r>
       <r>   -7.3221    1.0000 </r>
       <r>   -7.3221    1.0000 </r>
       <r>   -7.3081    1.0000 </r>
       <r>   -7.3081    1.0000 </r>
       <r>   -7.3012    1.0000 </r>
       <r>   -7.3012    1.0000 </r>
       <r>   -7.2871    1.0000 </r>
       <r>   -7.2871    1.0000 </r>
       <r>   -7.2820    1.0000 </r>
       <r>   -7.2820    1.0000 </r>
       <r>   -2.9442    1.0000 </r>
       <r>   -2.9442    1.0000 </r>
       <r>   -2.8643    1.0000 </r>
       <r>   -2.8643    1.0000 </r>
       <r>   -2.5923    1.0000 </r>
       <r>   -2.5923    1.0000 </r>
       <r>   -2.4772    1.0000 </r>
       <r>   -2.4772    1.0000 </r>
       <r>   -2.2654    1.0000 </r>
       <r>   -2.2654    1.0000 </r>
       <r>   -2.1009    1.0000 </r>
       <r>   -2.1009    1.0000 </r>
       <r>   -1.7705    1.0000 </r>
       <r>   -1.7705    1.0000 </r>
       <r>   -1.7375    1.0000 </r>
       <r>   -1.7375    1.0000 </r>
       <r>   -1.6332    1.0000 </r>
       <r>   -1.6332    1.0000 </r>
       <r>   -1.5546    1.0000 </r>
       <r>   -1.5546    1.0000 </r>
       <r>   -1.4246    1.0000 </r>
       <r>   -1.4246    1.0000 </r>
       <r>   -1.3889    1.0000 </r>
       <r>   -1.3889    1.0000 </r>
       <r>   -1.3163    1.0000 </r>
       <r>   -1.3163    1.0000 </r>
       <r>   -1.2689    1.0000 </r>
       <r>   -1.2689    1.0000 </r>
       <r>   -1.1988    1.0000 </r>
       <r>   -1.1988    1.0000 </r>
       <r>   -1.1667    1.0000 </r>
       <r>   -1.1667    1.0000 </r>
       <r>   -1.0208    1.0000 </r>
       <r>   -1.0208    1.0000 </r>
       <r>   -0.8032    1.0000 </r>
       <r>   -0.8032    1.0000 </r>
       <r>    3.5221    0.0000 </r>
       <r>    3.5221    0.0000 </r>
       <r>    3.5572    0.0000 </r>
       <r>    3.5572    0.0000 </r>
       <r>    4.3744    0.0000 </r>
       <r>    4.3744    0.0000 </r>
       <r>    4.6480    0.0000 </r>
       <r>    4.6480    0.0000 </r>
       <r>    4.8965    0.0000 </r>
       <r>    4.8965    0.0000 </r>
       <r>    4.9532    0.0000 </r>
       <r>    4.9532    0.0000 </r>
       <r>    5.8994    0.0000 </r>
       <r>    5.8994    0.0000 </r>
       <r>    6.2056    0.0000 </r>
       <r>    6.2056    0.0000 </r>
       <r>    6.2747    0.0000 </r>
       <r>    6.2747    0.0000 </r>
       <r>    6.6244    0.0000 </r>
       <r>    6.6244    0.0000 </r>
       <r>    6.7074    0.0000 </r>
       <r>    6.7074    0.0000 </r>
       <r>    6.7990    0.0000 </r>
       <r>    6.7990    0.0000 </r>
      </set>
      <set comment="kpoint 8">
       <r>  -20.9207    1.0000 </r>
       <r>  -20.9207    1.0000 </r>
       <r>  -20.9198    1.0000 </r>
       <r>  -20.9198    1.0000 </r>
       <r>  -16.6181    1.0000 </r>
       <r>  -16.6181    1.0000 </r>
       <r>  -16.6096    1.0000 </r>
       <r>  -16.6096    1.0000 </r>
       <r>  -16.5880    1.0000 </r>
       <r>  -16.5880    1.0000 </r>
       <r>  -16.5739    1.0000 </r>
       <r>  -16.5739    1.0000 </r>
       <r>  -16.4999    1.0000 </r>
       <r>  -16.4999    1.0000 </r>
       <r>  -16.4996    1.0000 </r>
       <r>  -16.4996    1.0000 </r>
       <r>  -16.4930    1.0000 </r>
       <r>  -16.4930    1.0000 </r>
       <r>  -16.4929    1.0000 </r>
       <r>  -16.4929    1.0000 </r>
       <r>  -16.4869    1.0000 </r>
       <r>  -16.4869    1.0000 </r>
       <r>  -16.4868    1.0000 </r>
       <r>  -16.4868    1.0000 </r>
       <r>  -14.2820    1.0000 </r>
       <r>  -14.2820    1.0000 </r>
       <r>  -14.2199    1.0000 </r>
       <r>  -14.2199    1.0000 </r>
       <r>  -14.0690    1.0000 </r>
       <r>  -14.0690    1.0000 </r>
       <r>  -14.0169    1.0000 </r>
       <r>  -14.0169    1.0000 </r>
       <r>  -13.9445    1.0000 </r>
       <r>  -13.9445    1.0000 </r>
       <r>  -13.9098    1.0000 </r>
       <r>  -13.9098    1.0000 </r>
       <r>   -7.7075    1.0000 </r>
       <r>   -7.7075    1.0000 </r>
       <r>   -7.4861    1.0000 </r>
       <r>   -7.4861    1.0000 </r>
       <r>   -7.3329    1.0000 </r>
       <r>   -7.3329    1.0000 </r>
       <r>   -7.3177    1.0000 </r>
       <r>   -7.3177    1.0000 </r>
       <r>   -7.3050    1.0000 </r>
       <r>   -7.3050    1.0000 </r>
       <r>   -7.3005    1.0000 </r>
       <r>   -7.3005    1.0000 </r>
       <r>   -7.2933    1.0000 </r>
       <r>   -7.2933    1.0000 </r>
       <r>   -7.2784    1.0000 </r>
       <r>   -7.2784    1.0000 </r>
       <r>   -3.1594    1.0000 </r>
       <r>   -3.1594    1.0000 </r>
       <r>   -2.8357    1.0000 </r>
       <r>   -2.8357    1.0000 </r>
       <r>   -2.6325    1.0000 </r>
       <r>   -2.6325    1.0000 </r>
       <r>   -2.4984    1.0000 </r>
       <r>   -2.4984    1.0000 </r>
       <r>   -2.2073    1.0000 </r>
       <r>   -2.2073    1.0000 </r>
       <r>   -2.0735    1.0000 </r>
       <r>   -2.0735    1.0000 </r>
       <r>   -1.7741    1.0000 </r>
       <r>   -1.7741    1.0000 </r>
       <r>   -1.7075    1.0000 </r>
       <r>   -1.7075    1.0000 </r>
       <r>   -1.5932    1.0000 </r>
       <r>   -1.5932    1.0000 </r>
       <r>   -1.5149    1.0000 </r>
       <r>   -1.5149    1.0000 </r>
       <r>   -1.4509    1.0000 </r>
       <r>   -1.4509    1.0000 </r>
       <r>   -1.3920    1.0000 </r>
       <r>   -1.3920    1.0000 </r>
       <r>   -1.3483    1.0000 </r>
       <r>   -1.3483    1.0000 </r>
       <r>   -1.2732    1.0000 </r>
       <r>   -1.2732    1.0000 </r>
       <r>   -1.2238    1.0000 </r>
       <r>   -1.2238    1.0000 </r>
       <r>   -1.1829    1.0000 </r>
       <r>   -1.1829    1.0000 </r>
       <r>   -0.9317    1.0000 </r>
       <r>   -0.9317    1.0000 </r>
       <r>   -0.7014    1.0000 </r>
       <r>   -0.7014    1.0000 </r>
       <r>    3.0040    0.0000 </r>
       <r>    3.0040    0.0000 </r>
       <r>    3.7646    0.0000 </r>
       <r>    3.7646    0.0000 </r>
       <r>    4.4635    0.0000 </r>
       <r>    4.4635    0.0000 </r>
       <r>    4.5801    0.0000 </r>
       <r>    4.5801    0.0000 </r>
       <r>    4.7777    0.0000 </r>
       <r>    4.7777    0.0000 </r>
       <r>    5.4824    0.0000 </r>
       <r>    5.4824    0.0000 </r>
       <r>    6.1125    0.0000 </r>
       <r>    6.1125    0.0000 </r>
       <r>    6.3072    0.0000 </r>
       <r>    6.3072    0.0000 </r>
       <r>    6.4487    0.0000 </r>
       <r>    6.4487    0.0000 </r>
       <r>    6.6432    0.0000 </r>
       <r>    6.6432    0.0000 </r>
       <r>    6.7147    0.0000 </r>
       <r>    6.7147    0.0000 </r>
       <r>    6.8052    0.0000 </r>
       <r>    6.8052    0.0000 </r>
      </set>
     </set>
    </set>
   </array>
  </eigenvalues>
  <separator name="orbital magnetization" >
   <v name="MAGDIPOLOUT">      0.00000000      0.00000000      0.00000000</v>
  </separator>
  <dos>
   <i name="efermi">      0.29219409 </i>
   <total>
    <array>
     <dimension dim="1">gridpoints</dimension>
     <dimension dim="2">spin</dimension>
     <field>energy</field>
     <field>total</field>
     <field>integrated</field>
     <set>
      <set comment="spin 1">
       <r>   -22.3227     0.0000     0.0000 </r>
       <r>   -22.2200     0.0000     0.0000 </r>
       <r>   -22.1173     0.0000     0.0000 </r>
       <r>   -22.0147     0.0000     0.0000 </r>
       <r>   -21.9120     0.0000     0.0000 </r>
       <r>   -21.8093     0.0000     0.0000 </r>
       <r>   -21.7066     0.0000     0.0000 </r>
       <r>   -21.6039     0.0000     0.0000 </r>
       <r>   -21.5013     0.0000     0.0000 </r>
       <r>   -21.3986     0.0000     0.0000 </r>
       <r>   -21.2959     0.0000     0.0000 </r>
       <r>   -21.1932     0.0000     0.0000 </r>
       <r>   -21.0906     0.0000     0.0000 </r>
       <r>   -20.9879     0.0000     0.0000 </r>
       <r>   -20.8852    77.9132     8.0000 </r>
       <r>   -20.7825     0.0000     8.0000 </r>
       <r>   -20.6798     0.0000     8.0000 </r>
       <r>   -20.5772     0.0000     8.0000 </r>
       <r>   -20.4745     0.0000     8.0000 </r>
       <r>   -20.3718     0.0000     8.0000 </r>
       <r>   -20.2691     0.0000     8.0000 </r>
       <r>   -20.1664     0.0000     8.0000 </r>
       <r>   -20.0638     0.0000     8.0000 </r>
       <r>   -19.9611     0.0000     8.0000 </r>
       <r>   -19.8584     0.0000     8.0000 </r>
       <r>   -19.7557     0.0000     8.0000 </r>
       <r>   -19.6531     0.0000     8.0000 </r>
       <r>   -19.5504     0.0000     8.0000 </r>
       <r>   -19.4477     0.0000     8.0000 </r>
       <r>   -19.3450     0.0000     8.0000 </r>
       <r>   -19.2423     0.0000     8.0000 </r>
       <r>   -19.1397     0.0000     8.0000 </r>
       <r>   -19.0370     0.0000     8.0000 </r>
       <r>   -18.9343     0.0000     8.0000 </r>
       <r>   -18.8316     0.0000     8.0000 </r>
       <r>   -18.7290     0.0000     8.0000 </r>
       <r>   -18.6263     0.0000     8.0000 </r>
       <r>   -18.5236     0.0000     8.0000 </r>
       <r>   -18.4209     0.0000     8.0000 </r>
       <r>   -18.3182     0.0000     8.0000 </r>
       <r>   -18.2156     0.0000     8.0000 </r>
       <r>   -18.1129     0.0000     8.0000 </r>
       <r>   -18.0102     0.0000     8.0000 </r>
       <r>   -17.9075     0.0000     8.0000 </r>
       <r>   -17.8048     0.0000     8.0000 </r>
       <r>   -17.7022     0.0000     8.0000 </r>
       <r>   -17.5995     0.0000     8.0000 </r>
       <r>   -17.4968     0.0000     8.0000 </r>
       <r>   -17.3941     0.0000     8.0000 </r>
       <r>   -17.2915     0.0000     8.0000 </r>
       <r>   -17.1888     0.0000     8.0000 </r>
       <r>   -17.0861     0.0000     8.0000 </r>
       <r>   -16.9834     0.0000     8.0000 </r>
       <r>   -16.8807     0.0000     8.0000 </r>
       <r>   -16.7781     0.0000     8.0000 </r>
       <r>   -16.6754     0.0001     8.0000 </r>
       <r>   -16.5727   124.1677    20.7493 </r>
       <r>   -16.4700   233.0043    47.9245 </r>
       <r>   -16.3674     0.0000    48.0000 </r>
       <r>   -16.2647     0.0000    48.0000 </r>
       <r>   -16.1620     0.0000    48.0000 </r>
       <r>   -16.0593     0.0000    48.0000 </r>
       <r>   -15.9566     0.0000    48.0000 </r>
       <r>   -15.8540     0.0000    48.0000 </r>
       <r>   -15.7513     0.0000    48.0000 </r>
       <r>   -15.6486     0.0000    48.0000 </r>
       <r>   -15.5459     0.0000    48.0000 </r>
       <r>   -15.4432     0.0000    48.0000 </r>
       <r>   -15.3406     0.0000    48.0000 </r>
       <r>   -15.2379     0.0000    48.0000 </r>
       <r>   -15.1352     0.0000    48.0000 </r>
       <r>   -15.0325     0.0000    48.0000 </r>
       <r>   -14.9299     0.0000    48.0000 </r>
       <r>   -14.8272     0.0000    48.0000 </r>
       <r>   -14.7245     0.0000    48.0000 </r>
       <r>   -14.6218     0.0000    48.0000 </r>
       <r>   -14.5191     0.0000    48.0000 </r>
       <r>   -14.4165     0.3304    48.0339 </r>
       <r>   -14.3138    17.0905    49.8659 </r>
       <r>   -14.2111    33.0196    53.5015 </r>
       <r>   -14.1084    30.9088    56.9514 </r>
       <r>   -14.0058    56.9031    63.2872 </r>
       <r>   -13.9031    39.3118    68.5920 </r>
       <r>   -13.8004     9.7392    72.0000 </r>
       <r>   -13.6977     0.0000    72.0000 </r>
       <r>   -13.5950     0.0000    72.0000 </r>
       <r>   -13.4924     0.0000    72.0000 </r>
       <r>   -13.3897     0.0000    72.0000 </r>
       <r>   -13.2870     0.0000    72.0000 </r>
       <r>   -13.1843     0.0000    72.0000 </r>
       <r>   -13.0816     0.0000    72.0000 </r>
       <r>   -12.9790     0.0000    72.0000 </r>
       <r>   -12.8763     0.0000    72.0000 </r>
       <r>   -12.7736     0.0000    72.0000 </r>
       <r>   -12.6709     0.0000    72.0000 </r>
       <r>   -12.5683     0.0000    72.0000 </r>
       <r>   -12.4656     0.0000    72.0000 </r>
       <r>   -12.3629     0.0000    72.0000 </r>
       <r>   -12.2602     0.0000    72.0000 </r>
       <r>   -12.1575     0.0000    72.0000 </r>
       <r>   -12.0549     0.0000    72.0000 </r>
       <r>   -11.9522     0.0000    72.0000 </r>
       <r>   -11.8495     0.0000    72.0000 </r>
       <r>   -11.7468     0.0000    72.0000 </r>
       <r>   -11.6442     0.0000    72.0000 </r>
       <r>   -11.5415     0.0000    72.0000 </r>
       <r>   -11.4388     0.0000    72.0000 </r>
       <r>   -11.3361     0.0000    72.0000 </r>
       <r>   -11.2334     0.0000    72.0000 </r>
       <r>   -11.1308     0.0000    72.0000 </r>
       <r>   -11.0281     0.0000    72.0000 </r>
       <r>   -10.9254     0.0000    72.0000 </r>
       <r>   -10.8227     0.0000    72.0000 </r>
       <r>   -10.7200     0.0000    72.0000 </r>
       <r>   -10.6174     0.0000    72.0000 </r>
       <r>   -10.5147     0.0000    72.0000 </r>
       <r>   -10.4120     0.0000    72.0000 </r>
       <r>   -10.3093     0.0000    72.0000 </r>
       <r>   -10.2067     0.0000    72.0000 </r>
       <r>   -10.1040     0.0000    72.0000 </r>
       <r>   -10.0013     0.0000    72.0000 </r>
       <r>    -9.8986     0.0000    72.0000 </r>
       <r>    -9.7959     0.0000    72.0000 </r>
       <r>    -9.6933     0.0000    72.0000 </r>
       <r>    -9.5906     0.0000    72.0000 </r>
       <r>    -9.4879     0.0000    72.0000 </r>
       <r>    -9.3852     0.0000    72.0000 </r>
       <r>    -9.2826     0.0000    72.0000 </r>
       <r>    -9.1799     0.0000    72.0000 </r>
       <r>    -9.0772     0.0000    72.0000 </r>
       <r>    -8.9745     0.0000    72.0000 </r>
       <r>    -8.8718     0.0000    72.0000 </r>
       <r>    -8.7692     0.0000    72.0000 </r>
       <r>    -8.6665     0.0000    72.0000 </r>
       <r>    -8.5638     0.0000    72.0000 </r>
       <r>    -8.4611     0.0000    72.0000 </r>
       <r>    -8.3584     0.0000    72.0000 </r>
       <r>    -8.2558     0.8404    72.0863 </r>
       <r>    -8.1531     0.0000    72.1111 </r>
       <r>    -8.0504     4.3144    72.5541 </r>
       <r>    -7.9477     5.7949    73.1506 </r>
       <r>    -7.8451     0.0361    73.2259 </r>
       <r>    -7.7424     1.3103    74.2457 </r>
       <r>    -7.6397    10.1125    75.7050 </r>
       <r>    -7.5370     3.2717    76.3359 </r>
       <r>    -7.4343     8.9458    77.3630 </r>
       <r>    -7.3317    48.0398    82.7104 </r>
       <r>    -7.2290   129.8490   102.7778 </r>
       <r>    -7.1263     3.0131   103.0872 </r>
       <r>    -7.0236     3.9777   103.6306 </r>
       <r>    -6.9210     0.0000   103.8889 </r>
       <r>    -6.8183     0.0000   103.8889 </r>
       <r>    -6.7156     0.7908   103.9701 </r>
       <r>    -6.6129     0.0000   104.0000 </r>
       <r>    -6.5102     0.0000   104.0000 </r>
       <r>    -6.4076     0.0000   104.0000 </r>
       <r>    -6.3049     0.0000   104.0000 </r>
       <r>    -6.2022     0.0000   104.0000 </r>
       <r>    -6.0995     0.0000   104.0000 </r>
       <r>    -5.9968     0.0000   104.0000 </r>
       <r>    -5.8942     0.0000   104.0000 </r>
       <r>    -5.7915     0.0000   104.0000 </r>
       <r>    -5.6888     0.0000   104.0000 </r>
       <r>    -5.5861     0.0000   104.0000 </r>
       <r>    -5.4835     0.0000   104.0000 </r>
       <r>    -5.3808     0.0000   104.0000 </r>
       <r>    -5.2781     0.0000   104.0000 </r>
       <r>    -5.1754     0.0000   104.0000 </r>
       <r>    -5.0727     0.0000   104.0000 </r>
       <r>    -4.9701     0.0000   104.0000 </r>
       <r>    -4.8674     0.0000   104.0000 </r>
       <r>    -4.7647     0.0000   104.0000 </r>
       <r>    -4.6620     0.0000   104.0000 </r>
       <r>    -4.5594     0.0000   104.0000 </r>
       <r>    -4.4567     0.0000   104.0000 </r>
       <r>    -4.3540     0.0000   104.0000 </r>
       <r>    -4.2513     0.0000   104.0000 </r>
       <r>    -4.1486     0.0000   104.0000 </r>
       <r>    -4.0460     0.0000   104.0000 </r>
       <r>    -3.9433     0.0000   104.0000 </r>
       <r>    -3.8406     0.0000   104.0000 </r>
       <r>    -3.7379     0.0000   104.0000 </r>
       <r>    -3.6352     0.0000   104.0000 </r>
       <r>    -3.5326     0.0000   104.0000 </r>
       <r>    -3.4299     0.0899   104.0092 </r>
       <r>    -3.3272    12.8137   105.4268 </r>
       <r>    -3.2245     9.5230   106.8667 </r>
       <r>    -3.1219    10.7589   108.2158 </r>
       <r>    -3.0192     4.4900   108.6832 </r>
       <r>    -2.9165     8.6498   109.9993 </r>
       <r>    -2.8138    28.0035   112.8753 </r>
       <r>    -2.7111     4.8065   113.6046 </r>
       <r>    -2.6085     8.7025   114.8936 </r>
       <r>    -2.5058     7.7635   116.1305 </r>
       <r>    -2.4031    10.8206   118.0000 </r>
       <r>    -2.3004     4.0105   118.4118 </r>
       <r>    -2.1978    21.7121   120.6739 </r>
       <r>    -2.0951    24.9445   123.7835 </r>
       <r>    -1.9924    15.1510   126.5557 </r>
       <r>    -1.8897    14.0497   127.9983 </r>
       <r>    -1.7870    15.2161   129.5624 </r>
       <r>    -1.6844    31.3752   134.5551 </r>
       <r>    -1.5817    37.3075   138.3862 </r>
       <r>    -1.4790    40.7634   143.8522 </r>
       <r>    -1.3763    63.2508   151.7168 </r>
       <r>    -1.2736    44.4147   157.7828 </r>
       <r>    -1.1710    56.1891   165.6586 </r>
       <r>    -1.0683     9.7388   168.0000 </r>
       <r>    -0.9656     6.7797   168.6961 </r>
       <r>    -0.8629    14.1480   171.2306 </r>
       <r>    -0.7603     9.7392   172.4444 </r>
       <r>    -0.6576    17.3140   174.2222 </r>
       <r>    -0.5549     0.2842   174.2514 </r>
       <r>    -0.4522     0.0000   174.6667 </r>
       <r>    -0.3495     1.0821   174.7778 </r>
       <r>    -0.2469     8.8999   175.6916 </r>
       <r>    -0.1442     0.0000   175.8889 </r>
       <r>    -0.0415     0.0000   175.8889 </r>
       <r>     0.0612     0.0000   175.8889 </r>
       <r>     0.1638     0.0000   175.8889 </r>
       <r>     0.2665     1.0821   176.0000 </r>
       <r>     0.3692     0.0000   176.0000 </r>
       <r>     0.4719     0.0000   176.0000 </r>
       <r>     0.5746     0.0000   176.0000 </r>
       <r>     0.6772     0.0000   176.0000 </r>
       <r>     0.7799     0.0000   176.0000 </r>
       <r>     0.8826     0.0000   176.0000 </r>
       <r>     0.9853     0.0000   176.0000 </r>
       <r>     1.0880     0.0000   176.0000 </r>
       <r>     1.1906     0.0000   176.0000 </r>
       <r>     1.2933     0.0000   176.0000 </r>
       <r>     1.3960     0.0000   176.0000 </r>
       <r>     1.4987     0.0000   176.0000 </r>
       <r>     1.6013     0.0000   176.0000 </r>
       <r>     1.7040     0.0000   176.0000 </r>
       <r>     1.8067     0.0000   176.0000 </r>
       <r>     1.9094     0.0000   176.0000 </r>
       <r>     2.0121     0.0000   176.0000 </r>
       <r>     2.1147     0.0000   176.0000 </r>
       <r>     2.2174     0.0000   176.0000 </r>
       <r>     2.3201     0.0000   176.0000 </r>
       <r>     2.4228     0.0000   176.0000 </r>
       <r>     2.5254     1.0821   176.1111 </r>
       <r>     2.6281     0.0005   176.1112 </r>
       <r>     2.7308     3.2458   176.4444 </r>
       <r>     2.8335     6.4630   177.1081 </r>
       <r>     2.9362     6.4782   177.7764 </r>
       <r>     3.0388    12.9855   179.1111 </r>
       <r>     3.1415     2.8155   179.4002 </r>
       <r>     3.2442     8.6570   180.5556 </r>
       <r>     3.3469     2.1649   180.7778 </r>
       <r>     3.4496     8.3340   181.6336 </r>
       <r>     3.5522     7.5314   182.5511 </r>
       <r>     3.6549     9.5850   183.8731 </r>
       <r>     3.7576     2.9941   184.3074 </r>
       <r>     3.8603     2.0331   185.5421 </r>
       <r>     3.9629     3.4748   185.9123 </r>
       <r>     4.0656     0.0000   186.0000 </r>
       <r>     4.1683     0.0000   186.0000 </r>
       <r>     4.2710     2.1640   186.2222 </r>
       <r>     4.3737     4.5154   186.6859 </r>
       <r>     4.4763     8.3602   187.9695 </r>
       <r>     4.5790     5.2651   188.5406 </r>
       <r>     4.6817     8.6562   190.2221 </r>
       <r>     4.7844    12.6676   191.5229 </r>
       <r>     4.8870     2.5528   192.3732 </r>
       <r>     4.9897    19.5590   194.7861 </r>
       <r>     5.0924     2.1478   195.2205 </r>
       <r>     5.1951     2.1643   195.4444 </r>
       <r>     5.2978     0.0670   195.4513 </r>
       <r>     5.4004     0.0000   195.8889 </r>
       <r>     5.5031    12.3825   197.1603 </r>
       <r>     5.6058     3.2224   197.6642 </r>
       <r>     5.7085     4.3281   198.1111 </r>
       <r>     5.8112    14.2104   199.5702 </r>
       <r>     5.9138     9.8956   200.6827 </r>
       <r>     6.0165     2.1670   201.4447 </r>
       <r>     6.1192    16.4090   203.2404 </r>
       <r>     6.2219    12.9313   205.3278 </r>
       <r>     6.3245    28.9820   208.3092 </r>
       <r>     6.4272    10.8238   210.0003 </r>
       <r>     6.5299    15.3309   212.4632 </r>
       <r>     6.6326    20.0130   214.8327 </r>
       <r>     6.7353    25.4029   218.7194 </r>
       <r>     6.8379    31.2553   222.0981 </r>
       <r>     6.9406     5.7761   223.1487 </r>
       <r>     7.0433     0.0000   223.5556 </r>
       <r>     7.1460     4.3285   224.0000 </r>
       <r>     7.2486     0.0000   224.0000 </r>
       <r>     7.3513     0.0000   224.0000 </r>
       <r>     7.4540     0.0000   224.0000 </r>
       <r>     7.5567     0.0000   224.0000 </r>
       <r>     7.6594     0.0000   224.0000 </r>
       <r>     7.7620     0.0000   224.0000 </r>
       <r>     7.8647     0.0000   224.0000 </r>
       <r>     7.9674     0.0000   224.0000 </r>
       <r>     8.0701     0.0000   224.0000 </r>
       <r>     8.1728     0.0000   224.0000 </r>
       <r>     8.2754     0.0000   224.0000 </r>
       <r>     8.3781     0.0000   224.0000 </r>
       <r>     8.4808     0.0000   224.0000 </r>
      </set>
     </set>
    </array>
   </total>
   <partial>
    <array>
     <dimension dim="1">gridpoints</dimension>
     <dimension dim="2">spin</dimension>
     <dimension dim="3">ion</dimension>
     <field>energy</field>
     <field>  s  </field>
     <field>  p  </field>
     <field>  d  </field>
     <set>
      <set comment="ion 1">
       <set comment="spin 1">
        <r>   -22.3227     0.0000     0.0000     0.0000 </r>
[...]
        <r>  0.0000  0.0002  0.0003 </r>
        <r>  0.0011  0.0487  0.0004 </r>
        <r>  0.0007  0.0442  0.0007 </r>
        <r>  0.0025  0.1336  0.0012 </r>
        <r>  0.0022  0.1277  0.0014 </r>
        <r>  0.0002  0.0035  0.0017 </r>
        <r>  0.0004  0.0064  0.0008 </r>
        <r>  0.0002  0.0035  0.0016 </r>
        <r>  0.0005  0.0067  0.0008 </r>
        <r>  0.0101  0.0269  0.0053 </r>
        <r>  0.0003  0.0090  0.0005 </r>
        <r>  0.0001  0.0034  0.0002 </r>
        <r>  0.0034  0.0097  0.0020 </r>
        <r>  0.0038  0.0103  0.0017 </r>
        <r>  0.0001  0.0029  0.0002 </r>
        <r>  0.0097  0.0263  0.0056 </r>
        <r>  0.0004  0.0095  0.0005 </r>
       </set>
       <set comment="band 93">
        <r>  0.0000  0.0001  0.0002 </r>
        <r>  0.0004  0.0001  0.0006 </r>
        <r>  0.0000  0.0000  0.0004 </r>
        <r>  0.0000  0.0005  0.0015 </r>
        <r>  0.0019  0.0861  0.0013 </r>
        <r>  0.0019  0.0747  0.0016 </r>
        <r>  0.0019  0.0857  0.0013 </r>
        <r>  0.0020  0.0752  0.0016 </r>
        <r>  0.0112  0.0021  0.0050 </r>
        <r>  0.0001  0.0627  0.0007 </r>
        <r>  0.0109  0.0018  0.0050 </r>
        <r>  0.0001  0.0626  0.0008 </r>
        <r>  0.0001  0.0070  0.0012 </r>
        <r>  0.0000  0.0013  0.0017 </r>
        <r>  0.0000  0.0013  0.0019 </r>
        <r>  0.0009  0.0027  0.0008 </r>
        <r>  0.0002  0.0071  0.0013 </r>
        <r>  0.0000  0.0013  0.0017 </r>
        <r>  0.0009  0.0026  0.0007 </r>
        <r>  0.0000  0.0013  0.0019 </r>
       </set>
       <set comment="band 94">
        <r>  0.0000  0.0005  0.0015 </r>
        <r>  0.0000  0.0000  0.0004 </r>
        <r>  0.0004  0.0001  0.0006 </r>
        <r>  0.0000  0.0001  0.0002 </r>
        <r>  0.0020  0.0752  0.0016 </r>
        <r>  0.0019  0.0857  0.0013 </r>
        <r>  0.0019  0.0747  0.0016 </r>
        <r>  0.0019  0.0861  0.0013 </r>
        <r>  0.0001  0.0626  0.0008 </r>
        <r>  0.0109  0.0018  0.0050 </r>
        <r>  0.0001  0.0627  0.0007 </r>
        <r>  0.0112  0.0021  0.0050 </r>
        <r>  0.0009  0.0027  0.0008 </r>
        <r>  0.0000  0.0013  0.0019 </r>
        <r>  0.0000  0.0013  0.0017 </r>
        <r>  0.0001  0.0070  0.0012 </r>
        <r>  0.0009  0.0026  0.0007 </r>
        <r>  0.0000  0.0013  0.0019 </r>
        <r>  0.0002  0.0071  0.0013 </r>
        <r>  0.0000  0.0013  0.0017 </r>
       </set>
       <set comment="band 95">
        <r>  0.0000  0.0001  0.0006 </r>
        <r>  0.0002  0.0010  0.0008 </r>
        <r>  0.0000  0.0002  0.0004 </r>
        <r>  0.0002  0.0006  0.0004 </r>
        <r>  0.0025  0.0817  0.0011 </r>
        <r>  0.0031  0.0745  0.0012 </r>
        <r>  0.0023  0.0858  0.0012 </r>
        <r>  0.0033  0.0752  0.0011 </r>
        <r>  0.0103  0.0005  0.0043 </r>
        <r>  0.0001  0.0525  0.0006 </r>
        <r>  0.0100  0.0006  0.0042 </r>
        <r>  0.0001  0.0536  0.0004 </r>
        <r>  0.0012  0.0096  0.0014 </r>
        <r>  0.0001  0.0020  0.0008 </r>
        <r>  0.0003  0.0058  0.0010 </r>
        <r>  0.0003  0.0095  0.0024 </r>
        <r>  0.0012  0.0089  0.0014 </r>
        <r>  0.0001  0.0019  0.0008 </r>
        <r>  0.0003  0.0102  0.0025 </r>
        <r>  0.0003  0.0060  0.0010 </r>
       </set>
       <set comment="band 96">
        <r>  0.0002  0.0006  0.0004 </r>
        <r>  0.0000  0.0002  0.0004 </r>
        <r>  0.0002  0.0010  0.0008 </r>
        <r>  0.0000  0.0001  0.0006 </r>
        <r>  0.0033  0.0752  0.0011 </r>
        <r>  0.0023  0.0858  0.0012 </r>
        <r>  0.0031  0.0745  0.0012 </r>
        <r>  0.0025  0.0817  0.0011 </r>
        <r>  0.0001  0.0536  0.0004 </r>
        <r>  0.0100  0.0006  0.0042 </r>
        <r>  0.0001  0.0525  0.0006 </r>
        <r>  0.0103  0.0005  0.0043 </r>
        <r>  0.0003  0.0095  0.0024 </r>
        <r>  0.0003  0.0058  0.0010 </r>
        <r>  0.0001  0.0020  0.0008 </r>
        <r>  0.0012  0.0096  0.0014 </r>
        <r>  0.0003  0.0102  0.0025 </r>
        <r>  0.0003  0.0060  0.0010 </r>
        <r>  0.0012  0.0089  0.0014 </r>
        <r>  0.0001  0.0019  0.0008 </r>
       </set>
       <set comment="band 97">
        <r>  0.0000  0.0000  0.0013 </r>
        <r>  0.0002  0.0004  0.0009 </r>
        <r>  0.0000  0.0001  0.0023 </r>
        <r>  0.0004  0.0004  0.0004 </r>
        <r>  0.0029  0.1092  0.0010 </r>
        <r>  0.0028  0.1025  0.0009 </r>
        <r>  0.0019  0.0480  0.0007 </r>
        <r>  0.0014  0.0517  0.0009 </r>
        <r>  0.0025  0.0055  0.0009 </r>
        <r>  0.0001  0.0105  0.0035 </r>
        <r>  0.0033  0.0050  0.0011 </r>
        <r>  0.0001  0.0097  0.0035 </r>
        <r>  0.0014  0.0217  0.0012 </r>
        <r>  0.0000  0.0007  0.0010 </r>
        <r>  0.0002  0.0033  0.0018 </r>
        <r>  0.0043  0.0467  0.0012 </r>
        <r>  0.0035  0.0463  0.0019 </r>
        <r>  0.0001  0.0021  0.0019 </r>
        <r>  0.0022  0.0220  0.0006 </r>
        <r>  0.0001  0.0019  0.0009 </r>
       </set>
       <set comment="band 98">
        <r>  0.0004  0.0004  0.0004 </r>
        <r>  0.0000  0.0001  0.0023 </r>
        <r>  0.0002  0.0004  0.0009 </r>
        <r>  0.0000  0.0000  0.0013 </r>
        <r>  0.0014  0.0517  0.0009 </r>
        <r>  0.0019  0.0480  0.0007 </r>
        <r>  0.0028  0.1025  0.0009 </r>
        <r>  0.0029  0.1092  0.0010 </r>
        <r>  0.0001  0.0097  0.0035 </r>
        <r>  0.0033  0.0050  0.0011 </r>
        <r>  0.0001  0.0105  0.0035 </r>
        <r>  0.0025  0.0055  0.0009 </r>
        <r>  0.0043  0.0467  0.0012 </r>
        <r>  0.0002  0.0033  0.0018 </r>
        <r>  0.0000  0.0007  0.0010 </r>
        <r>  0.0014  0.0217  0.0012 </r>
        <r>  0.0022  0.0220  0.0006 </r>
        <r>  0.0001  0.0019  0.0009 </r>
        <r>  0.0035  0.0463  0.0019 </r>
        <r>  0.0001  0.0021  0.0019 </r>
       </set>
       <set comment="band 99">
        <r>  0.0000  0.0001  0.0009 </r>
        <r>  0.0000  0.0001  0.0013 </r>
        <r>  0.0000  0.0002  0.0012 </r>
        <r>  0.0000  0.0000  0.0018 </r>
        <r>  0.0000  0.0130  0.0005 </r>
        <r>  0.0000  0.0133  0.0005 </r>
        <r>  0.0000  0.1493  0.0003 </r>
        <r>  0.0000  0.1429  0.0003 </r>
        <r>  0.0001  0.0009  0.0029 </r>
        <r>  0.0001  0.0031  0.0013 </r>
        <r>  0.0000  0.0014  0.0030 </r>
        <r>  0.0002  0.0020  0.0013 </r>
        <r>  0.0000  0.0014  0.0041 </r>
        <r>  0.0000  0.0958  0.0015 </r>
        <r>  0.0000  0.0089  0.0005 </r>
        <r>  0.0000  0.0005  0.0003 </r>
        <r>  0.0000  0.0005  0.0004 </r>
        <r>  0.0001  0.0089  0.0002 </r>
        <r>  0.0000  0.0014  0.0040 </r>
        <r>  0.0000  0.0959  0.0018 </r>
       </set>
       <set comment="band 100">
        <r>  0.0000  0.0000  0.0018 </r>
        <r>  0.0000  0.0002  0.0012 </r>
        <r>  0.0000  0.0001  0.0013 </r>
        <r>  0.0000  0.0001  0.0009 </r>
        <r>  0.0000  0.1429  0.0003 </r>
        <r>  0.0000  0.1493  0.0003 </r>
        <r>  0.0000  0.0133  0.0005 </r>
        <r>  0.0000  0.0130  0.0005 </r>
        <r>  0.0002  0.0020  0.0013 </r>
        <r>  0.0000  0.0014  0.0030 </r>
        <r>  0.0001  0.0031  0.0013 </r>
        <r>  0.0001  0.0009  0.0029 </r>
        <r>  0.0000  0.0005  0.0003 </r>
        <r>  0.0000  0.0089  0.0005 </r>
        <r>  0.0000  0.0958  0.0015 </r>
        <r>  0.0000  0.0014  0.0041 </r>
        <r>  0.0000  0.0014  0.0040 </r>
        <r>  0.0000  0.0959  0.0018 </r>
        <r>  0.0000  0.0005  0.0004 </r>
        <r>  0.0001  0.0089  0.0002 </r>
       </set>
       <set comment="band 101">
        <r>  0.0132  0.0029  0.0098 </r>
        <r>  0.0000  0.0018  0.0162 </r>
        <r>  0.0121  0.0027  0.0057 </r>
        <r>  0.0000  0.0026  0.0087 </r>
        <r>  0.0002  0.0042  0.0002 </r>
        <r>  0.0003  0.0083  0.0002 </r>
        <r>  0.0003  0.0087  0.0002 </r>
        <r>  0.0002  0.0042  0.0002 </r>
        <r>  0.0000  0.0059  0.0003 </r>
        <r>  0.0015  0.0060  0.0019 </r>
        <r>  0.0000  0.0041  0.0002 </r>
        <r>  0.0011  0.0042  0.0022 </r>
        <r>  0.0027  0.0029  0.0025 </r>
        <r>  0.0030  0.0026  0.0021 </r>
        <r>  0.0055  0.0043  0.0019 </r>
        <r>  0.0012  0.0049  0.0012 </r>
        <r>  0.0026  0.0030  0.0024 </r>
        <r>  0.0025  0.0023  0.0020 </r>
        <r>  0.0013  0.0048  0.0013 </r>
        <r>  0.0060  0.0045  0.0020 </r>
       </set>
       <set comment="band 102">
        <r>  0.0000  0.0026  0.0087 </r>
        <r>  0.0121  0.0027  0.0057 </r>
        <r>  0.0000  0.0018  0.0162 </r>
        <r>  0.0132  0.0029  0.0098 </r>
        <r>  0.0002  0.0042  0.0002 </r>
        <r>  0.0003  0.0087  0.0002 </r>
        <r>  0.0003  0.0083  0.0002 </r>
        <r>  0.0002  0.0042  0.0002 </r>
        <r>  0.0011  0.0042  0.0022 </r>
        <r>  0.0000  0.0041  0.0002 </r>
        <r>  0.0015  0.0060  0.0019 </r>
        <r>  0.0000  0.0059  0.0003 </r>
        <r>  0.0012  0.0049  0.0012 </r>
        <r>  0.0055  0.0043  0.0019 </r>
        <r>  0.0030  0.0026  0.0021 </r>
        <r>  0.0027  0.0029  0.0025 </r>
        <r>  0.0013  0.0048  0.0013 </r>
        <r>  0.0060  0.0045  0.0020 </r>
        <r>  0.0026  0.0030  0.0024 </r>
        <r>  0.0025  0.0023  0.0020 </r>
       </set>
       <set comment="band 103">
        <r>  0.0003  0.0005  0.0084 </r>
        <r>  0.0031  0.0022  0.0585 </r>
        <r>  0.0002  0.0001  0.0060 </r>
        <r>  0.0049  0.0019  0.0202 </r>
        <r>  0.0000  0.0131  0.0003 </r>
        <r>  0.0001  0.0028  0.0004 </r>
        <r>  0.0000  0.0044  0.0005 </r>
        <r>  0.0000  0.0069  0.0008 </r>
        <r>  0.0004  0.0103  0.0057 </r>
        <r>  0.0001  0.0026  0.0012 </r>
        <r>  0.0026  0.0038  0.0062 </r>
        <r>  0.0000  0.0019  0.0006 </r>
        <r>  0.0002  0.0041  0.0013 </r>
        <r>  0.0003  0.0015  0.0021 </r>
        <r>  0.0014  0.0012  0.0015 </r>
        <r>  0.0002  0.0055  0.0019 </r>
        <r>  0.0004  0.0051  0.0015 </r>
        <r>  0.0007  0.0018  0.0022 </r>
        <r>  0.0001  0.0045  0.0018 </r>
        <r>  0.0009  0.0009  0.0013 </r>
       </set>
       <set comment="band 104">
        <r>  0.0049  0.0019  0.0202 </r>
        <r>  0.0002  0.0001  0.0060 </r>
        <r>  0.0031  0.0022  0.0585 </r>
        <r>  0.0003  0.0005  0.0084 </r>
        <r>  0.0000  0.0069  0.0008 </r>
        <r>  0.0000  0.0044  0.0005 </r>
        <r>  0.0001  0.0028  0.0004 </r>
        <r>  0.0000  0.0131  0.0003 </r>
        <r>  0.0000  0.0019  0.0006 </r>
        <r>  0.0026  0.0038  0.0062 </r>
        <r>  0.0001  0.0026  0.0012 </r>
        <r>  0.0004  0.0103  0.0057 </r>
        <r>  0.0002  0.0055  0.0019 </r>
        <r>  0.0014  0.0012  0.0015 </r>
        <r>  0.0003  0.0015  0.0021 </r>
        <r>  0.0002  0.0041  0.0013 </r>
        <r>  0.0001  0.0045  0.0018 </r>
        <r>  0.0009  0.0009  0.0013 </r>
        <r>  0.0004  0.0051  0.0015 </r>
        <r>  0.0007  0.0018  0.0022 </r>
       </set>
       <set comment="band 105">
        <r>  0.0000  0.0002  0.0178 </r>
        <r>  0.0024  0.0026  0.0171 </r>
        <r>  0.0000  0.0014  0.0171 </r>
        <r>  0.0006  0.0015  0.0618 </r>
        <r>  0.0001  0.0019  0.0010 </r>
        <r>  0.0000  0.0053  0.0010 </r>
        <r>  0.0000  0.0073  0.0009 </r>
        <r>  0.0001  0.0024  0.0008 </r>
        <r>  0.0027  0.0041  0.0059 </r>
        <r>  0.0000  0.0013  0.0007 </r>
        <r>  0.0001  0.0082  0.0037 </r>
        <r>  0.0001  0.0011  0.0012 </r>
        <r>  0.0018  0.0007  0.0019 </r>
        <r>  0.0010  0.0024  0.0025 </r>
        <r>  0.0010  0.0017  0.0019 </r>
        <r>  0.0001  0.0054  0.0022 </r>
        <r>  0.0014  0.0016  0.0018 </r>
        <r>  0.0004  0.0027  0.0026 </r>
        <r>  0.0005  0.0045  0.0023 </r>
        <r>  0.0016  0.0015  0.0017 </r>
       </set>
       <set comment="band 106">
        <r>  0.0006  0.0015  0.0618 </r>
        <r>  0.0000  0.0014  0.0171 </r>
        <r>  0.0024  0.0026  0.0171 </r>
        <r>  0.0000  0.0002  0.0178 </r>
        <r>  0.0001  0.0024  0.0008 </r>
        <r>  0.0000  0.0073  0.0009 </r>
        <r>  0.0000  0.0053  0.0010 </r>
        <r>  0.0001  0.0019  0.0010 </r>
        <r>  0.0001  0.0011  0.0012 </r>
        <r>  0.0001  0.0082  0.0037 </r>
        <r>  0.0000  0.0013  0.0007 </r>
        <r>  0.0027  0.0041  0.0059 </r>
        <r>  0.0001  0.0054  0.0022 </r>
        <r>  0.0010  0.0017  0.0019 </r>
        <r>  0.0010  0.0024  0.0025 </r>
        <r>  0.0018  0.0007  0.0019 </r>
        <r>  0.0005  0.0045  0.0023 </r>
        <r>  0.0016  0.0015  0.0017 </r>
        <r>  0.0014  0.0016  0.0018 </r>
        <r>  0.0004  0.0027  0.0026 </r>
       </set>
       <set comment="band 107">
        <r>  0.0001  0.0013  0.0330 </r>
        <r>  0.0025  0.0025  0.0204 </r>
        <r>  0.0003  0.0011  0.0078 </r>
        <r>  0.0006  0.0037  0.0565 </r>
        <r>  0.0001  0.0029  0.0008 </r>
        <r>  0.0000  0.0029  0.0012 </r>
        <r>  0.0001  0.0041  0.0007 </r>
        <r>  0.0001  0.0061  0.0007 </r>
        <r>  0.0016  0.0043  0.0016 </r>
        <r>  0.0002  0.0025  0.0008 </r>
        <r>  0.0013  0.0092  0.0023 </r>
        <r>  0.0002  0.0008  0.0011 </r>
        <r>  0.0001  0.0007  0.0016 </r>
        <r>  0.0013  0.0058  0.0056 </r>
        <r>  0.0006  0.0019  0.0027 </r>
        <r>  0.0001  0.0046  0.0027 </r>
        <r>  0.0001  0.0013  0.0010 </r>
        <r>  0.0012  0.0035  0.0045 </r>
        <r>  0.0001  0.0040  0.0033 </r>
        <r>  0.0007  0.0043  0.0038 </r>
       </set>
       <set comment="band 108">
        <r>  0.0006  0.0037  0.0565 </r>
        <r>  0.0003  0.0011  0.0078 </r>
        <r>  0.0025  0.0025  0.0204 </r>
        <r>  0.0001  0.0013  0.0330 </r>
        <r>  0.0001  0.0061  0.0007 </r>
        <r>  0.0001  0.0041  0.0007 </r>
        <r>  0.0000  0.0029  0.0012 </r>
        <r>  0.0001  0.0029  0.0008 </r>
        <r>  0.0002  0.0008  0.0011 </r>
        <r>  0.0013  0.0092  0.0023 </r>
        <r>  0.0002  0.0025  0.0008 </r>
        <r>  0.0016  0.0043  0.0016 </r>
        <r>  0.0001  0.0046  0.0027 </r>
        <r>  0.0006  0.0019  0.0027 </r>
        <r>  0.0013  0.0058  0.0056 </r>
        <r>  0.0001  0.0007  0.0016 </r>
        <r>  0.0001  0.0040  0.0033 </r>
        <r>  0.0007  0.0043  0.0038 </r>
        <r>  0.0001  0.0013  0.0010 </r>
        <r>  0.0012  0.0035  0.0045 </r>
       </set>
       <set comment="band 109">
        <r>  0.0001  0.0005  0.0230 </r>
        <r>  0.0007  0.0018  0.0349 </r>
        <r>  0.0000  0.0009  0.0386 </r>
        <r>  0.0033  0.0057  0.0163 </r>
        <r>  0.0000  0.0070  0.0008 </r>
        <r>  0.0000  0.0040  0.0015 </r>
        <r>  0.0000  0.0056  0.0010 </r>
        <r>  0.0000  0.0066  0.0007 </r>
        <r>  0.0017  0.0027  0.0031 </r>
        <r>  0.0000  0.0051  0.0015 </r>
        <r>  0.0006  0.0062  0.0036 </r>
        <r>  0.0000  0.0041  0.0020 </r>
        <r>  0.0016  0.0022  0.0018 </r>
        <r>  0.0002  0.0030  0.0025 </r>
        <r>  0.0006  0.0008  0.0011 </r>
        <r>  0.0028  0.0034  0.0055 </r>
        <r>  0.0009  0.0012  0.0017 </r>
        <r>  0.0004  0.0024  0.0029 </r>
        <r>  0.0035  0.0044  0.0057 </r>
        <r>  0.0004  0.0014  0.0007 </r>
       </set>
       <set comment="band 110">
        <r>  0.0033  0.0057  0.0163 </r>
        <r>  0.0000  0.0009  0.0386 </r>
        <r>  0.0007  0.0018  0.0349 </r>
        <r>  0.0001  0.0005  0.0230 </r>
        <r>  0.0000  0.0066  0.0007 </r>
        <r>  0.0000  0.0056  0.0010 </r>
        <r>  0.0000  0.0040  0.0015 </r>
        <r>  0.0000  0.0070  0.0008 </r>
        <r>  0.0000  0.0041  0.0020 </r>
        <r>  0.0006  0.0062  0.0036 </r>
        <r>  0.0000  0.0051  0.0015 </r>
        <r>  0.0017  0.0027  0.0031 </r>
        <r>  0.0028  0.0034  0.0055 </r>
        <r>  0.0006  0.0008  0.0011 </r>
        <r>  0.0002  0.0030  0.0025 </r>
        <r>  0.0016  0.0022  0.0018 </r>
        <r>  0.0035  0.0044  0.0057 </r>
        <r>  0.0004  0.0014  0.0007 </r>
        <r>  0.0009  0.0012  0.0017 </r>
        <r>  0.0004  0.0024  0.0029 </r>
       </set>
       <set comment="band 111">
        <r>  0.0017  0.0017  0.0244 </r>
        <r>  0.0019  0.0037  0.0346 </r>
        <r>  0.0014  0.0031  0.0287 </r>
        <r>  0.0022  0.0019  0.0251 </r>
        <r>  0.0000  0.0031  0.0009 </r>
        <r>  0.0003  0.0048  0.0003 </r>
        <r>  0.0000  0.0049  0.0003 </r>
        <r>  0.0000  0.0035  0.0005 </r>
        <r>  0.0002  0.0075  0.0010 </r>
        <r>  0.0002  0.0029  0.0019 </r>
        <r>  0.0002  0.0037  0.0019 </r>
        <r>  0.0002  0.0059  0.0009 </r>
        <r>  0.0012  0.0036  0.0027 </r>
        <r>  0.0005  0.0047  0.0038 </r>
        <r>  0.0019  0.0037  0.0022 </r>
        <r>  0.0014  0.0024  0.0027 </r>
        <r>  0.0015  0.0020  0.0026 </r>
        <r>  0.0020  0.0044  0.0028 </r>
        <r>  0.0012  0.0040  0.0027 </r>
        <r>  0.0003  0.0040  0.0032 </r>
       </set>
       <set comment="band 112">
        <r>  0.0022  0.0019  0.0251 </r>
        <r>  0.0014  0.0031  0.0285 </r>
        <r>  0.0018  0.0037  0.0346 </r>
        <r>  0.0017  0.0017  0.0244 </r>
        <r>  0.0000  0.0035  0.0005 </r>
        <r>  0.0000  0.0049  0.0003 </r>
        <r>  0.0003  0.0048  0.0003 </r>
        <r>  0.0000  0.0031  0.0009 </r>
        <r>  0.0002  0.0059  0.0009 </r>
        <r>  0.0002  0.0037  0.0019 </r>
        <r>  0.0002  0.0030  0.0019 </r>
        <r>  0.0002  0.0075  0.0010 </r>
        <r>  0.0014  0.0024  0.0027 </r>
        <r>  0.0019  0.0037  0.0022 </r>
        <r>  0.0005  0.0047  0.0038 </r>
        <r>  0.0012  0.0036  0.0027 </r>
        <r>  0.0012  0.0040  0.0027 </r>
        <r>  0.0003  0.0040  0.0032 </r>
        <r>  0.0015  0.0020  0.0026 </r>
        <r>  0.0020  0.0044  0.0028 </r>
       </set>
      </set>
     </set>
    </set>
   </array>
  </projected>
 </calculation>
 <structure name="finalpos" >
  <crystal>
   <varray name="basis" >
    <v>       8.58841795       0.00000000       0.00000000 </v>
    <v>       0.00000000      11.60622374       0.00000000 </v>
    <v>       0.00000000       0.00000000       8.23954016 </v>
   </varray>
   <i name="volume">    821.30995017 </i>
   <varray name="rec_basis" >
    <v>       0.11643588       0.00000000       0.00000000 </v>
    <v>       0.00000000       0.08616067       0.00000000 </v>
    <v>       0.00000000       0.00000000       0.12136600 </v>
   </varray>
  </crystal>
  <varray name="positions" >
   <v>       0.05821920       0.25000000       0.48155770 </v>
   <v>       0.44178080       0.75000000       0.98155770 </v>
   <v>       0.55821920       0.25000000       0.01844230 </v>
   <v>       0.94178080       0.75000000       0.51844230 </v>
   <v>       0.00000000       0.00000000       0.00000000 </v>
   <v>       0.50000000       0.00000000       0.50000000 </v>
   <v>       0.50000000       0.50000000       0.50000000 </v>
   <v>       0.00000000       0.50000000       0.00000000 </v>
   <v>       0.51679788       0.75000000       0.42183154 </v>
   <v>       0.98320212       0.25000000       0.92183154 </v>
   <v>       0.01679788       0.75000000       0.07816846 </v>
   <v>       0.48320212       0.25000000       0.57816846 </v>
   <v>       0.28753270       0.46158301       0.20968987 </v>
   <v>       0.21246730       0.53841699       0.70968987 </v>
   <v>       0.78753270       0.03841699       0.29031013 </v>
   <v>       0.71246730       0.96158301       0.79031013 </v>
   <v>       0.28753270       0.03841699       0.20968987 </v>
   <v>       0.21246730       0.96158301       0.70968987 </v>
   <v>       0.71246730       0.53841699       0.79031013 </v>
   <v>       0.78753270       0.46158301       0.29031013 </v>
  </varray>
 </structure>
</modeling>
