CsPbBr3 cubic bulk                      
           1
     8.588418    0.000000    0.000000
     0.000000   11.606224    0.000000
     0.000000    0.000000    8.239540
   Cs   Pb   Br
   4   4  12
Direct configuration=     1
   0.05821920  0.25000000  0.48155770
   0.44178080  0.75000000  0.98155770
   0.55821920  0.25000000  0.01844230
   0.94178080  0.75000000  0.51844230
   0.00000000  0.00000000  0.00000000
   0.50000000  0.00000000  0.50000000
   0.50000000  0.50000000  0.50000000
   0.00000000  0.50000000  0.00000000
   0.51679788  0.75000000  0.42183154
   0.98320212  0.25000000  0.92183154
   0.01679788  0.75000000  0.07816846
   0.48320212  0.25000000  0.57816846
   0.28753270  0.46158301  0.20968987
   0.21246730  0.53841699  0.70968987
   0.78753270  0.03841699  0.29031013
   0.71246730  0.96158301  0.79031013
   0.28753270  0.03841699  0.20968987
   0.21246730  0.96158301  0.70968987
   0.71246730  0.53841699  0.79031013
   0.78753270  0.46158301  0.29031013
