  40  40   1   0
  0.4040437E+02  0.1173535E-08  0.1173535E-08  0.1173535E-08  0.5000000E-15
   1.0000000000000000E-004
  CAR 
 CsPbBr3 cubic bulk                      
      8.15251861    -22.45032155  301      1.03735827      1.00000000
    -22.450  0.0000E+00  0.0000E+00
    -22.348  0.0000E+00  0.0000E+00
    -22.246  0.0000E+00  0.0000E+00
    -22.144  0.0000E+00  0.0000E+00
    -22.042  0.0000E+00  0.0000E+00
    -21.940  0.0000E+00  0.0000E+00
    -21.838  0.0000E+00  0.0000E+00
    -21.736  0.0000E+00  0.0000E+00
    -21.634  0.0000E+00  0.0000E+00
    -21.532  0.0000E+00  0.0000E+00
    -21.430  0.0000E+00  0.0000E+00
    -21.328  0.0000E+00  0.0000E+00
    -21.226  0.0000E+00  0.0000E+00
    -21.124  0.0000E+00  0.0000E+00
    -21.022  0.1568E+03  0.1600E+02
    -20.920  0.0000E+00  0.1600E+02
    -20.818  0.0000E+00  0.1600E+02
    -20.716  0.0000E+00  0.1600E+02
    -20.614  0.0000E+00  0.1600E+02
    -20.512  0.0000E+00  0.1600E+02
    -20.410  0.0000E+00  0.1600E+02
    -20.308  0.0000E+00  0.1600E+02
    -20.206  0.0000E+00  0.1600E+02
    -20.104  0.0000E+00  0.1600E+02
    -20.002  0.0000E+00  0.1600E+02
    -19.900  0.0000E+00  0.1600E+02
    -19.798  0.0000E+00  0.1600E+02
    -19.696  0.0000E+00  0.1600E+02
    -19.594  0.0000E+00  0.1600E+02
    -19.492  0.0000E+00  0.1600E+02
    -19.390  0.0000E+00  0.1600E+02
    -19.288  0.0000E+00  0.1600E+02
    -19.186  0.0000E+00  0.1600E+02
    -19.084  0.0000E+00  0.1600E+02
    -18.982  0.0000E+00  0.1600E+02
    -18.880  0.0000E+00  0.1600E+02
    -18.778  0.0000E+00  0.1600E+02
    -18.676  0.0000E+00  0.1600E+02
    -18.574  0.0000E+00  0.1600E+02
    -18.472  0.0000E+00  0.1600E+02
    -18.370  0.0000E+00  0.1600E+02
    -18.268  0.0000E+00  0.1600E+02
    -18.166  0.0000E+00  0.1600E+02
    -18.064  0.0000E+00  0.1600E+02
    -17.962  0.0000E+00  0.1600E+02
    -17.860  0.0000E+00  0.1600E+02
    -17.758  0.0000E+00  0.1600E+02
    -17.656  0.0000E+00  0.1600E+02
    -17.554  0.0000E+00  0.1600E+02
    -17.452  0.0000E+00  0.1600E+02
    -17.350  0.0000E+00  0.1600E+02
    -17.248  0.0000E+00  0.1600E+02
    -17.146  0.0000E+00  0.1600E+02
    -17.044  0.0000E+00  0.1600E+02
    -16.942  0.0000E+00  0.1600E+02
    -16.840  0.0000E+00  0.1600E+02
    -16.738  0.0000E+00  0.1600E+02
    -16.636  0.0000E+00  0.1600E+02
    -16.534  0.0000E+00  0.1600E+02
    -16.432  0.0000E+00  0.1600E+02
    -16.330  0.4456E-02  0.1600E+02
    -16.228  0.2130E+03  0.3772E+02
    -16.126  0.5636E+02  0.4800E+02
    -16.024  0.4705E+03  0.9600E+02
    -15.922  0.0000E+00  0.9600E+02
    -15.820  0.0000E+00  0.9600E+02
    -15.718  0.0000E+00  0.9600E+02
    -15.616  0.0000E+00  0.9600E+02
    -15.514  0.0000E+00  0.9600E+02
    -15.412  0.0000E+00  0.9600E+02
    -15.310  0.0000E+00  0.9600E+02
    -15.208  0.0000E+00  0.9600E+02
    -15.106  0.0000E+00  0.9600E+02
    -15.004  0.0000E+00  0.9600E+02
    -14.902  0.0000E+00  0.9600E+02
    -14.800  0.0000E+00  0.9600E+02
    -14.698  0.0000E+00  0.9600E+02
    -14.596  0.0000E+00  0.9600E+02
    -14.494  0.0000E+00  0.9600E+02
    -14.392  0.9311E+00  0.9609E+02
    -14.290  0.1470E+02  0.9775E+02
    -14.188  0.4894E+02  0.1027E+03
    -14.086  0.4568E+02  0.1074E+03
    -13.984  0.9636E+02  0.1193E+03
    -13.882  0.2205E+02  0.1237E+03
    -13.780  0.1002E+03  0.1340E+03
    -13.678  0.5882E+02  0.1412E+03
    -13.575  0.2696E+02  0.1440E+03
    -13.473  0.0000E+00  0.1440E+03
    -13.371  0.0000E+00  0.1440E+03
    -13.269  0.0000E+00  0.1440E+03
    -13.167  0.0000E+00  0.1440E+03
    -13.065  0.0000E+00  0.1440E+03
    -12.963  0.0000E+00  0.1440E+03
    -12.861  0.0000E+00  0.1440E+03
    -12.759  0.0000E+00  0.1440E+03
    -12.657  0.0000E+00  0.1440E+03
    -12.555  0.0000E+00  0.1440E+03
    -12.453  0.0000E+00  0.1440E+03
    -12.351  0.0000E+00  0.1440E+03
    -12.249  0.0000E+00  0.1440E+03
    -12.147  0.0000E+00  0.1440E+03
    -12.045  0.0000E+00  0.1440E+03
    -11.943  0.0000E+00  0.1440E+03
    -11.841  0.0000E+00  0.1440E+03
    -11.739  0.0000E+00  0.1440E+03
    -11.637  0.0000E+00  0.1440E+03
    -11.535  0.0000E+00  0.1440E+03
    -11.433  0.0000E+00  0.1440E+03
    -11.331  0.0000E+00  0.1440E+03
    -11.229  0.0000E+00  0.1440E+03
    -11.127  0.0000E+00  0.1440E+03
    -11.025  0.0000E+00  0.1440E+03
    -10.923  0.0000E+00  0.1440E+03
    -10.821  0.0000E+00  0.1440E+03
    -10.719  0.0000E+00  0.1440E+03
    -10.617  0.0000E+00  0.1440E+03
    -10.515  0.0000E+00  0.1440E+03
    -10.413  0.0000E+00  0.1440E+03
    -10.311  0.0000E+00  0.1440E+03
    -10.209  0.0000E+00  0.1440E+03
    -10.107  0.0000E+00  0.1440E+03
    -10.005  0.0000E+00  0.1440E+03
     -9.903  0.0000E+00  0.1440E+03
     -9.801  0.0000E+00  0.1440E+03
     -9.699  0.0000E+00  0.1440E+03
     -9.597  0.0000E+00  0.1440E+03
     -9.495  0.0000E+00  0.1440E+03
     -9.393  0.0000E+00  0.1440E+03
     -9.291  0.0000E+00  0.1440E+03
     -9.189  0.0000E+00  0.1440E+03
     -9.087  0.0000E+00  0.1440E+03
     -8.985  0.0000E+00  0.1440E+03
     -8.883  0.0000E+00  0.1440E+03
     -8.781  0.0000E+00  0.1440E+03
     -8.679  0.0000E+00  0.1440E+03
     -8.577  0.0000E+00  0.1440E+03
     -8.475  0.0000E+00  0.1440E+03
     -8.373  0.0000E+00  0.1440E+03
     -8.271  0.4770E-01  0.1440E+03
     -8.169  0.0000E+00  0.1442E+03
     -8.067  0.0000E+00  0.1442E+03
     -7.965  0.1423E+02  0.1457E+03
     -7.863  0.0000E+00  0.1458E+03
     -7.761  0.7485E-08  0.1458E+03
     -7.659  0.3201E+02  0.1490E+03
     -7.557  0.2451E+01  0.1495E+03
     -7.455  0.2517E+01  0.1498E+03
     -7.353  0.4556E+03  0.2007E+03
     -7.251  0.0000E+00  0.2025E+03
     -7.149  0.0000E+00  0.2025E+03
     -7.047  0.2807E+02  0.2054E+03
     -6.945  0.7352E+01  0.2062E+03
     -6.843  0.0000E+00  0.2062E+03
     -6.741  0.3513E-12  0.2063E+03
     -6.639  0.1470E+02  0.2077E+03
     -6.537  0.0000E+00  0.2078E+03
     -6.435  0.0000E+00  0.2078E+03
     -6.333  0.0000E+00  0.2078E+03
     -6.231  0.7806E-01  0.2078E+03
     -6.129  0.0000E+00  0.2080E+03
     -6.027  0.0000E+00  0.2080E+03
     -5.925  0.0000E+00  0.2080E+03
     -5.823  0.0000E+00  0.2080E+03
     -5.721  0.0000E+00  0.2080E+03
     -5.619  0.0000E+00  0.2080E+03
     -5.517  0.0000E+00  0.2080E+03
     -5.415  0.0000E+00  0.2080E+03
     -5.313  0.0000E+00  0.2080E+03
     -5.211  0.0000E+00  0.2080E+03
     -5.109  0.0000E+00  0.2080E+03
     -5.007  0.0000E+00  0.2080E+03
     -4.905  0.0000E+00  0.2080E+03
     -4.803  0.0000E+00  0.2080E+03
     -4.701  0.0000E+00  0.2080E+03
     -4.599  0.0000E+00  0.2080E+03
     -4.497  0.0000E+00  0.2080E+03
     -4.395  0.0000E+00  0.2080E+03
     -4.293  0.0000E+00  0.2080E+03
     -4.191  0.0000E+00  0.2080E+03
     -4.089  0.0000E+00  0.2080E+03
     -3.987  0.0000E+00  0.2080E+03
     -3.885  0.0000E+00  0.2080E+03
     -3.783  0.0000E+00  0.2080E+03
     -3.681  0.0000E+00  0.2080E+03
     -3.579  0.0000E+00  0.2080E+03
     -3.477  0.8179E-07  0.2080E+03
     -3.375  0.1718E+02  0.2098E+03
     -3.273  0.5167E+02  0.2170E+03
     -3.171  0.2207E+02  0.2195E+03
     -3.069  0.0000E+00  0.2200E+03
     -2.967  0.0000E+00  0.2200E+03
     -2.865  0.0000E+00  0.2200E+03
     -2.762  0.0000E+00  0.2200E+03
     -2.660  0.4145E+00  0.2200E+03
     -2.558  0.3698E+02  0.2268E+03
     -2.456  0.3845E+02  0.2309E+03
     -2.354  0.2941E+02  0.2345E+03
     -2.252  0.4419E+02  0.2390E+03
     -2.150  0.3022E+02  0.2441E+03
     -2.048  0.5748E+01  0.2453E+03
     -1.946  0.5291E+02  0.2526E+03
     -1.844  0.1115E+02  0.2541E+03
     -1.742  0.3921E+02  0.2597E+03
     -1.640  0.8183E+01  0.2606E+03
     -1.538  0.1137E+03  0.2734E+03
     -1.436  0.1712E+02  0.2760E+03
     -1.334  0.1050E+03  0.2885E+03
     -1.232  0.1205E+03  0.3045E+03
     -1.130  0.5405E+02  0.3105E+03
     -1.028  0.6276E+02  0.3207E+03
     -0.926  0.7697E+02  0.3356E+03
     -0.824  0.3921E+02  0.3398E+03
     -0.722  0.2941E+02  0.3427E+03
     -0.620  0.0000E+00  0.3428E+03
     -0.518  0.8205E-01  0.3428E+03
     -0.416  0.2389E+01  0.3435E+03
     -0.314  0.1824E+02  0.3454E+03
     -0.212  0.9819E+01  0.3465E+03
     -0.110  0.2939E+02  0.3495E+03
     -0.008  0.0000E+00  0.3495E+03
      0.094  0.0000E+00  0.3495E+03
      0.196  0.1450E-06  0.3495E+03
      0.298  0.7352E+01  0.3502E+03
      0.400  0.5466E+01  0.3508E+03
      0.502  0.0000E+00  0.3518E+03
      0.604  0.0000E+00  0.3518E+03
      0.706  0.0000E+00  0.3518E+03
      0.808  0.0000E+00  0.3518E+03
      0.910  0.4238E-11  0.3518E+03
      1.012  0.2451E+01  0.3520E+03
      1.114  0.0000E+00  0.3520E+03
      1.216  0.0000E+00  0.3520E+03
      1.318  0.0000E+00  0.3520E+03
      1.420  0.0000E+00  0.3520E+03
      1.522  0.0000E+00  0.3520E+03
      1.624  0.0000E+00  0.3520E+03
      1.726  0.0000E+00  0.3520E+03
      1.828  0.0000E+00  0.3520E+03
      1.930  0.0000E+00  0.3520E+03
      2.032  0.0000E+00  0.3520E+03
      2.134  0.0000E+00  0.3520E+03
      2.236  0.0000E+00  0.3520E+03
      2.338  0.0000E+00  0.3520E+03
      2.440  0.0000E+00  0.3520E+03
      2.542  0.0000E+00  0.3520E+03
      2.644  0.0000E+00  0.3520E+03
      2.746  0.0000E+00  0.3520E+03
      2.848  0.6830E+01  0.3527E+03
      2.950  0.0000E+00  0.3528E+03
      3.052  0.1152E-05  0.3528E+03
      3.154  0.2941E+02  0.3558E+03
      3.256  0.0000E+00  0.3558E+03
      3.358  0.4354E+02  0.3602E+03
      3.460  0.0000E+00  0.3602E+03
      3.562  0.4330E+01  0.3607E+03
      3.664  0.0000E+00  0.3632E+03
      3.766  0.1081E-05  0.3633E+03
      3.868  0.7352E+01  0.3640E+03
      3.970  0.0000E+00  0.3640E+03
      4.072  0.0000E+00  0.3640E+03
      4.174  0.0000E+00  0.3640E+03
      4.276  0.0000E+00  0.3640E+03
      4.378  0.0000E+00  0.3640E+03
      4.480  0.0000E+00  0.3640E+03
      4.582  0.1120E+02  0.3651E+03
      4.684  0.4902E+01  0.3658E+03
      4.786  0.2941E+02  0.3687E+03
      4.888  0.3041E+02  0.3719E+03
      4.990  0.1949E+02  0.3757E+03
      5.092  0.4217E+02  0.3801E+03
      5.194  0.5162E+02  0.3860E+03
      5.296  0.1961E+02  0.3882E+03
      5.398  0.0000E+00  0.3882E+03
      5.500  0.2961E-08  0.3883E+03
      5.602  0.1580E+02  0.3899E+03
      5.704  0.2451E+01  0.3902E+03
      5.806  0.2941E+02  0.3932E+03
      5.908  0.1040E-03  0.3933E+03
      6.010  0.2138E+02  0.3954E+03
      6.112  0.3534E+02  0.3991E+03
      6.214  0.2539E+01  0.3998E+03
      6.316  0.1614E+02  0.4036E+03
      6.418  0.5842E+02  0.4100E+03
      6.520  0.4876E+02  0.4185E+03
      6.622  0.7040E+02  0.4262E+03
      6.724  0.3859E+02  0.4307E+03
      6.826  0.4901E+01  0.4320E+03
      6.928  0.0000E+00  0.4320E+03
      7.030  0.0000E+00  0.4320E+03
      7.132  0.0000E+00  0.4320E+03
      7.234  0.0000E+00  0.4320E+03
      7.336  0.0000E+00  0.4320E+03
      7.438  0.0000E+00  0.4320E+03
      7.540  0.0000E+00  0.4320E+03
      7.642  0.0000E+00  0.4320E+03
      7.744  0.0000E+00  0.4320E+03
      7.846  0.0000E+00  0.4320E+03
      7.948  0.0000E+00  0.4320E+03
      8.051  0.0000E+00  0.4320E+03
      8.153  0.0000E+00  0.4320E+03
      8.15251861    -22.45032155  301      1.03735827      1.00000000
    -22.450  0.0000E+00  0.0000E+00  0.0000E+00
    -22.348  0.0000E+00  0.0000E+00  0.0000E+00
    -22.246  0.0000E+00  0.0000E+00  0.0000E+00
    -22.144  0.0000E+00  0.0000E+00  0.0000E+00
    -22.042  0.0000E+00  0.0000E+00  0.0000E+00
    -21.940  0.0000E+00  0.0000E+00  0.0000E+00
    -21.838  0.0000E+00  0.0000E+00  0.0000E+00
    -21.736  0.0000E+00  0.0000E+00  0.0000E+00
    -21.634  0.0000E+00  0.0000E+00  0.0000E+00
    -21.532  0.0000E+00  0.0000E+00  0.0000E+00
    -21.430  0.0000E+00  0.0000E+00  0.0000E+00
    -21.328  0.0000E+00  0.0000E+00  0.0000E+00
    -21.226  0.0000E+00  0.0000E+00  0.0000E+00
    -21.124  0.0000E+00  0.0000E+00  0.0000E+00
    -21.022  0.1740E+02  0.7756E-07  0.3764E-06
    -20.920  0.0000E+00  0.0000E+00  0.0000E+00
    -20.818  0.0000E+00  0.0000E+00  0.0000E+00
    -20.716  0.0000E+00  0.0000E+00  0.0000E+00
    -20.614  0.0000E+00  0.0000E+00  0.0000E+00
    -20.512  0.0000E+00  0.0000E+00  0.0000E+00
    -20.410  0.0000E+00  0.0000E+00  0.0000E+00
    -20.308  0.0000E+00  0.0000E+00  0.0000E+00
    -20.206  0.0000E+00  0.0000E+00  0.0000E+00
    -20.104  0.0000E+00  0.0000E+00  0.0000E+00
    -20.002  0.0000E+00  0.0000E+00  0.0000E+00
    -19.900  0.0000E+00  0.0000E+00  0.0000E+00
    -19.798  0.0000E+00  0.0000E+00  0.0000E+00
    -19.696  0.0000E+00  0.0000E+00  0.0000E+00
    -19.594  0.0000E+00  0.0000E+00  0.0000E+00
    -19.492  0.0000E+00  0.0000E+00  0.0000E+00
    -19.390  0.0000E+00  0.0000E+00  0.0000E+00
    -19.288  0.0000E+00  0.0000E+00  0.0000E+00
    -19.186  0.0000E+00  0.0000E+00  0.0000E+00
    -19.084  0.0000E+00  0.0000E+00  0.0000E+00
    -18.982  0.0000E+00  0.0000E+00  0.0000E+00
    -18.880  0.0000E+00  0.0000E+00  0.0000E+00
    -18.778  0.0000E+00  0.0000E+00  0.0000E+00
    -18.676  0.0000E+00  0.0000E+00  0.0000E+00
    -18.574  0.0000E+00  0.0000E+00  0.0000E+00
    -18.472  0.0000E+00  0.0000E+00  0.0000E+00
    -18.370  0.0000E+00  0.0000E+00  0.0000E+00
    -18.268  0.0000E+00  0.0000E+00  0.0000E+00
    -18.166  0.0000E+00  0.0000E+00  0.0000E+00
    -18.064  0.0000E+00  0.0000E+00  0.0000E+00
    -17.962  0.0000E+00  0.0000E+00  0.0000E+00
    -17.860  0.0000E+00  0.0000E+00  0.0000E+00
    -17.758  0.0000E+00  0.0000E+00  0.0000E+00
    -17.656  0.0000E+00  0.0000E+00  0.0000E+00
    -17.554  0.0000E+00  0.0000E+00  0.0000E+00
    -17.452  0.0000E+00  0.0000E+00  0.0000E+00
    -17.350  0.0000E+00  0.0000E+00  0.0000E+00
    -17.248  0.0000E+00  0.0000E+00  0.0000E+00
    -17.146  0.0000E+00  0.0000E+00  0.0000E+00
    -17.044  0.0000E+00  0.0000E+00  0.0000E+00
    -16.942  0.0000E+00  0.0000E+00  0.0000E+00
    -16.840  0.0000E+00  0.0000E+00  0.0000E+00
    -16.738  0.0000E+00  0.0000E+00  0.0000E+00
    -16.636  0.0000E+00  0.0000E+00  0.0000E+00
    -16.534  0.0000E+00  0.0000E+00  0.0000E+00
    -16.432  0.0000E+00  0.0000E+00  0.0000E+00
    -16.330  0.2791E-10  0.8845E-10  0.2283E-09
    -16.228  0.1794E-04  0.3358E-04  0.9620E-05
    -16.126  0.2556E-13  0.6299E-05  0.5521E-06
    -16.024  0.2727E-04  0.2093E-04  0.2113E-05
    -15.922  0.0000E+00  0.0000E+00  0.0000E+00
    -15.820  0.0000E+00  0.0000E+00  0.0000E+00
    -15.718  0.0000E+00  0.0000E+00  0.0000E+00
    -15.616  0.0000E+00  0.0000E+00  0.0000E+00
    -15.514  0.0000E+00  0.0000E+00  0.0000E+00
    -15.412  0.0000E+00  0.0000E+00  0.0000E+00
    -15.310  0.0000E+00  0.0000E+00  0.0000E+00
    -15.208  0.0000E+00  0.0000E+00  0.0000E+00
    -15.106  0.0000E+00  0.0000E+00  0.0000E+00
    -15.004  0.0000E+00  0.0000E+00  0.0000E+00
    -14.902  0.0000E+00  0.0000E+00  0.0000E+00
    -14.800  0.0000E+00  0.0000E+00  0.0000E+00
    -14.698  0.0000E+00  0.0000E+00  0.0000E+00
    -14.596  0.0000E+00  0.0000E+00  0.0000E+00
    -14.494  0.0000E+00  0.0000E+00  0.0000E+00
    -14.392  0.8944E-04  0.8604E-20  0.1223E-07
    -14.290  0.9160E-03  0.3327E-03  0.1777E-05
    -14.188  0.1658E-02  0.1686E-02  0.3666E-04
    -14.086  0.3354E-05  0.2473E-02  0.5376E-04
    -13.984  0.9080E-03  0.2171E-02  0.1446E-03
    -13.882  0.2047E-16  0.7249E-04  0.9474E-04
    -13.780  0.1310E-03  0.1428E-02  0.1829E-03
    -13.678  0.1525E-03  0.2006E-03  0.9345E-04
    -13.575  0.5004E-04  0.1159E-03  0.3236E-04
    -13.473  0.0000E+00  0.0000E+00  0.0000E+00
    -13.371  0.0000E+00  0.0000E+00  0.0000E+00
    -13.269  0.0000E+00  0.0000E+00  0.0000E+00
    -13.167  0.0000E+00  0.0000E+00  0.0000E+00
    -13.065  0.0000E+00  0.0000E+00  0.0000E+00
    -12.963  0.0000E+00  0.0000E+00  0.0000E+00
    -12.861  0.0000E+00  0.0000E+00  0.0000E+00
    -12.759  0.0000E+00  0.0000E+00  0.0000E+00
    -12.657  0.0000E+00  0.0000E+00  0.0000E+00
    -12.555  0.0000E+00  0.0000E+00  0.0000E+00
    -12.453  0.0000E+00  0.0000E+00  0.0000E+00
    -12.351  0.0000E+00  0.0000E+00  0.0000E+00
    -12.249  0.0000E+00  0.0000E+00  0.0000E+00
    -12.147  0.0000E+00  0.0000E+00  0.0000E+00
    -12.045  0.0000E+00  0.0000E+00  0.0000E+00
    -11.943  0.0000E+00  0.0000E+00  0.0000E+00
    -11.841  0.0000E+00  0.0000E+00  0.0000E+00
    -11.739  0.0000E+00  0.0000E+00  0.0000E+00
    -11.637  0.0000E+00  0.0000E+00  0.0000E+00
    -11.535  0.0000E+00  0.0000E+00  0.0000E+00
    -11.433  0.0000E+00  0.0000E+00  0.0000E+00
    -11.331  0.0000E+00  0.0000E+00  0.0000E+00
    -11.229  0.0000E+00  0.0000E+00  0.0000E+00
    -11.127  0.0000E+00  0.0000E+00  0.0000E+00
    -11.025  0.0000E+00  0.0000E+00  0.0000E+00
    -10.923  0.0000E+00  0.0000E+00  0.0000E+00
    -10.821  0.0000E+00  0.0000E+00  0.0000E+00
    -10.719  0.0000E+00  0.0000E+00  0.0000E+00
    -10.617  0.0000E+00  0.0000E+00  0.0000E+00
    -10.515  0.0000E+00  0.0000E+00  0.0000E+00
    -10.413  0.0000E+00  0.0000E+00  0.0000E+00
    -10.311  0.0000E+00  0.0000E+00  0.0000E+00
    -10.209  0.0000E+00  0.0000E+00  0.0000E+00
    -10.107  0.0000E+00  0.0000E+00  0.0000E+00
    -10.005  0.0000E+00  0.0000E+00  0.0000E+00
     -9.903  0.0000E+00  0.0000E+00  0.0000E+00
     -9.801  0.0000E+00  0.0000E+00  0.0000E+00
     -9.699  0.0000E+00  0.0000E+00  0.0000E+00
     -9.597  0.0000E+00  0.0000E+00  0.0000E+00
     -9.495  0.0000E+00  0.0000E+00  0.0000E+00
     -9.393  0.0000E+00  0.0000E+00  0.0000E+00
     -9.291  0.0000E+00  0.0000E+00  0.0000E+00
     -9.189  0.0000E+00  0.0000E+00  0.0000E+00
     -9.087  0.0000E+00  0.0000E+00  0.0000E+00
     -8.985  0.0000E+00  0.0000E+00  0.0000E+00
     -8.883  0.0000E+00  0.0000E+00  0.0000E+00
     -8.781  0.0000E+00  0.0000E+00  0.0000E+00
     -8.679  0.0000E+00  0.0000E+00  0.0000E+00
     -8.577  0.0000E+00  0.0000E+00  0.0000E+00
     -8.475  0.0000E+00  0.0000E+00  0.0000E+00
     -8.373  0.0000E+00  0.0000E+00  0.0000E+00
     -8.271  0.3235E-20  0.3919E-20  0.3695E-20
     -8.169  0.0000E+00  0.0000E+00  0.0000E+00
     -8.067  0.0000E+00  0.0000E+00  0.0000E+00
     -7.965  0.3897E-18  0.1183E-02  0.3450E-05
     -7.863  0.0000E+00  0.0000E+00  0.0000E+00
     -7.761  0.1092E-28  0.5435E-11  0.3726E-14
     -7.659  0.5436E-19  0.1761E-01  0.1840E-04
     -7.557  0.4838E-20  0.1194E-16  0.1874E-05
     -7.455  0.3039E-06  0.2010E+00  0.3635E-06
     -7.353  0.2291E-04  0.4201E+02  0.4417E-04
     -7.251  0.0000E+00  0.0000E+00  0.0000E+00
     -7.149  0.0000E+00  0.0000E+00  0.0000E+00
     -7.047  0.3201E-04  0.5195E-02  0.2336E-04
     -6.945  0.2024E-19  0.2535E-03  0.3747E-05
     -6.843  0.0000E+00  0.0000E+00  0.0000E+00
     -6.741  0.6079E-18  0.5624E-17  0.4864E-19
     -6.639  0.2483E-04  0.6011E-03  0.4563E-05
     -6.537  0.0000E+00  0.0000E+00  0.0000E+00
     -6.435  0.0000E+00  0.0000E+00  0.0000E+00
     -6.333  0.0000E+00  0.0000E+00  0.0000E+00
     -6.231  0.1611E-06  0.6480E-19  0.3846E-08
     -6.129  0.0000E+00  0.0000E+00  0.0000E+00
     -6.027  0.0000E+00  0.0000E+00  0.0000E+00
     -5.925  0.0000E+00  0.0000E+00  0.0000E+00
     -5.823  0.0000E+00  0.0000E+00  0.0000E+00
     -5.721  0.0000E+00  0.0000E+00  0.0000E+00
     -5.619  0.0000E+00  0.0000E+00  0.0000E+00
     -5.517  0.0000E+00  0.0000E+00  0.0000E+00
     -5.415  0.0000E+00  0.0000E+00  0.0000E+00
     -5.313  0.0000E+00  0.0000E+00  0.0000E+00
     -5.211  0.0000E+00  0.0000E+00  0.0000E+00
     -5.109  0.0000E+00  0.0000E+00  0.0000E+00
     -5.007  0.0000E+00  0.0000E+00  0.0000E+00
     -4.905  0.0000E+00  0.0000E+00  0.0000E+00
     -4.803  0.0000E+00  0.0000E+00  0.0000E+00
     -4.701  0.0000E+00  0.0000E+00  0.0000E+00
     -4.599  0.0000E+00  0.0000E+00  0.0000E+00
     -4.497  0.0000E+00  0.0000E+00  0.0000E+00
     -4.395  0.0000E+00  0.0000E+00  0.0000E+00
     -4.293  0.0000E+00  0.0000E+00  0.0000E+00
     -4.191  0.0000E+00  0.0000E+00  0.0000E+00
     -4.089  0.0000E+00  0.0000E+00  0.0000E+00
     -3.987  0.0000E+00  0.0000E+00  0.0000E+00
     -3.885  0.0000E+00  0.0000E+00  0.0000E+00
     -3.783  0.0000E+00  0.0000E+00  0.0000E+00
     -3.681  0.0000E+00  0.0000E+00  0.0000E+00
     -3.579  0.0000E+00  0.0000E+00  0.0000E+00
     -3.477  0.8532E-28  0.7160E-10  0.5649E-13
     -3.375  0.4577E-08  0.1094E-01  0.2274E-03
     -3.273  0.1185E-16  0.7646E-02  0.1709E-02
     -3.171  0.1585E-17  0.1194E-03  0.5906E-03
     -3.069  0.0000E+00  0.0000E+00  0.0000E+00
     -2.967  0.0000E+00  0.0000E+00  0.0000E+00
     -2.865  0.0000E+00  0.0000E+00  0.0000E+00
     -2.762  0.0000E+00  0.0000E+00  0.0000E+00
     -2.660  0.2220E-06  0.2932E-03  0.1054E-05
     -2.558  0.5226E-04  0.1662E-01  0.5138E-03
     -2.456  0.7104E-03  0.7010E-02  0.1076E-02
     -2.354  0.6646E-04  0.7675E-02  0.1503E-02
     -2.252  0.5095E-02  0.5385E-02  0.1799E-02
     -2.150  0.4937E-02  0.5372E-02  0.2449E-02
     -2.048  0.1231E-02  0.9207E-02  0.3637E-03
     -1.946  0.1719E-01  0.3138E-01  0.2824E-02
     -1.844  0.3132E-02  0.9876E-02  0.2493E-03
     -1.742  0.8210E-04  0.8388E-01  0.3319E-02
     -1.640  0.3820E-05  0.1133E-01  0.1058E-02
     -1.538  0.2156E-02  0.1091E+00  0.1423E-01
     -1.436  0.7359E-06  0.5987E-02  0.3840E-02
     -1.334  0.2229E-03  0.2295E-01  0.1357E-01
     -1.232  0.6239E-03  0.5981E-01  0.1024E-01
     -1.130  0.1895E-02  0.2762E-01  0.4031E-02
     -1.028  0.2053E-02  0.8398E-02  0.7233E-02
     -0.926  0.1045E-02  0.1230E-01  0.6509E-02
     -0.824  0.5431E-03  0.3741E-02  0.1895E-02
     -0.722  0.1007E-03  0.2175E-02  0.1876E-02
     -0.620  0.0000E+00  0.0000E+00  0.0000E+00
     -0.518  0.5027E-20  0.5898E-05  0.3550E-06
     -0.416  0.1706E-16  0.1707E-04  0.1591E-04
     -0.314  0.1042E-13  0.2123E-02  0.1353E-03
     -0.212  0.8287E-05  0.6679E-03  0.7469E-04
     -0.110  0.2989E-16  0.1688E-02  0.1812E-03
     -0.008  0.0000E+00  0.0000E+00  0.0000E+00
      0.094  0.0000E+00  0.0000E+00  0.0000E+00
      0.196  0.3253E-24  0.2591E-23  0.8931E-11
      0.298  0.7803E-16  0.4576E-04  0.4521E-03
      0.400  0.9776E-17  0.3330E-05  0.1147E-03
      0.502  0.0000E+00  0.0000E+00  0.0000E+00
      0.604  0.0000E+00  0.0000E+00  0.0000E+00
      0.706  0.0000E+00  0.0000E+00  0.0000E+00
      0.808  0.0000E+00  0.0000E+00  0.0000E+00
      0.910  0.2860E-28  0.3135E-29  0.2593E-27
      1.012  0.1654E-16  0.1813E-17  0.1499E-15
      1.114  0.0000E+00  0.0000E+00  0.0000E+00
      1.216  0.0000E+00  0.0000E+00  0.0000E+00
      1.318  0.0000E+00  0.0000E+00  0.0000E+00
      1.420  0.0000E+00  0.0000E+00  0.0000E+00
      1.522  0.0000E+00  0.0000E+00  0.0000E+00
      1.624  0.0000E+00  0.0000E+00  0.0000E+00
      1.726  0.0000E+00  0.0000E+00  0.0000E+00
      1.828  0.0000E+00  0.0000E+00  0.0000E+00
      1.930  0.0000E+00  0.0000E+00  0.0000E+00
      2.032  0.0000E+00  0.0000E+00  0.0000E+00
      2.134  0.0000E+00  0.0000E+00  0.0000E+00
      2.236  0.0000E+00  0.0000E+00  0.0000E+00
      2.338  0.0000E+00  0.0000E+00  0.0000E+00
      2.440  0.0000E+00  0.0000E+00  0.0000E+00
      2.542  0.0000E+00  0.0000E+00  0.0000E+00
      2.644  0.0000E+00  0.0000E+00  0.0000E+00
      2.746  0.0000E+00  0.0000E+00  0.0000E+00
      2.848  0.2195E-16  0.3608E-06  0.2430E-02
      2.950  0.0000E+00  0.0000E+00  0.0000E+00
      3.052  0.1031E-10  0.1650E-10  0.2156E-09
      3.154  0.1788E-03  0.4236E-03  0.5281E-02
      3.256  0.0000E+00  0.0000E+00  0.0000E+00
      3.358  0.3311E-03  0.1056E-02  0.3323E-02
      3.460  0.0000E+00  0.0000E+00  0.0000E+00
      3.562  0.3674E-04  0.1444E-03  0.7092E-04
      3.664  0.0000E+00  0.0000E+00  0.0000E+00
      3.766  0.2356E-10  0.1274E-13  0.4121E-12
      3.868  0.1027E-03  0.2389E-03  0.2058E-04
      3.970  0.0000E+00  0.0000E+00  0.0000E+00
      4.072  0.0000E+00  0.0000E+00  0.0000E+00
      4.174  0.0000E+00  0.0000E+00  0.0000E+00
      4.276  0.0000E+00  0.0000E+00  0.0000E+00
      4.378  0.0000E+00  0.0000E+00  0.0000E+00
      4.480  0.0000E+00  0.0000E+00  0.0000E+00
      4.582  0.1239E-01  0.5274E-06  0.1096E-01
      4.684  0.1928E-07  0.4276E-10  0.6279E-02
      4.786  0.4239E-03  0.3790E-03  0.1414E-01
      4.888  0.3538E-04  0.7953E-02  0.2632E-01
      4.990  0.3048E-02  0.3796E-02  0.1004E-01
      5.092  0.5468E-02  0.1100E-01  0.1228E-01
      5.194  0.8402E-01  0.2718E-01  0.7713E-02
      5.296  0.7864E-02  0.5879E-02  0.4467E-02
      5.398  0.0000E+00  0.0000E+00  0.0000E+00
      5.500  0.5142E-12  0.1268E-12  0.3619E-10
      5.602  0.1207E-01  0.2882E-02  0.3740E-01
      5.704  0.2517E-04  0.1182E-14  0.3654E-01
      5.806  0.1168E+00  0.2933E-01  0.5623E-01
      5.908  0.3634E-07  0.3837E-07  0.1543E-05
      6.010  0.1285E-01  0.1447E-01  0.2914E+00
      6.112  0.1075E+00  0.7767E-02  0.2673E+00
      6.214  0.1998E-01  0.6016E-05  0.6205E-03
      6.316  0.8972E-07  0.3019E-04  0.3486E-02
      6.418  0.4242E-01  0.3088E-01  0.6817E+00
      6.520  0.1357E+00  0.1824E-01  0.3981E+00
      6.622  0.4061E-01  0.7600E-01  0.6351E+00
      6.724  0.6940E-01  0.4065E-01  0.3873E+00
      6.826  0.1864E-06  0.1443E-03  0.9236E-01
      6.928  0.0000E+00  0.0000E+00  0.0000E+00
      7.030  0.0000E+00  0.0000E+00  0.0000E+00
      7.132  0.0000E+00  0.0000E+00  0.0000E+00
      7.234  0.0000E+00  0.0000E+00  0.0000E+00
      7.336  0.0000E+00  0.0000E+00  0.0000E+00
      7.438  0.0000E+00  0.0000E+00  0.0000E+00
      7.540  0.0000E+00  0.0000E+00  0.0000E+00
      7.642  0.0000E+00  0.0000E+00  0.0000E+00
      7.744  0.0000E+00  0.0000E+00  0.0000E+00
      7.846  0.0000E+00  0.0000E+00  0.0000E+00
      7.948  0.0000E+00  0.0000E+00  0.0000E+00
      8.051  0.0000E+00  0.0000E+00  0.0000E+00
      8.153  0.0000E+00  0.0000E+00  0.0000E+00
      8.15251861    -22.45032155  301      1.03735827      1.00000000
    -22.450  0.0000E+00  0.0000E+00  0.0000E+00
    -22.348  0.0000E+00  0.0000E+00  0.0000E+00
    -22.246  0.0000E+00  0.0000E+00  0.0000E+00
    -22.144  0.0000E+00  0.0000E+00  0.0000E+00
    -22.042  0.0000E+00  0.0000E+00  0.0000E+00
    -21.940  0.0000E+00  0.0000E+00  0.0000E+00
    -21.838  0.0000E+00  0.0000E+00  0.0000E+00
    -21.736  0.0000E+00  0.0000E+00  0.0000E+00
    -21.634  0.0000E+00  0.0000E+00  0.0000E+00
    -21.532  0.0000E+00  0.0000E+00  0.0000E+00
    -21.430  0.0000E+00  0.0000E+00  0.0000E+00
    -21.328  0.0000E+00  0.0000E+00  0.0000E+00
    -21.226  0.0000E+00  0.0000E+00  0.0000E+00
    -21.124  0.0000E+00  0.0000E+00  0.0000E+00
    -21.022  0.1740E+02  0.7756E-07  0.3764E-06
    -20.920  0.0000E+00  0.0000E+00  0.0000E+00
    -20.818  0.0000E+00  0.0000E+00  0.0000E+00
    -20.716  0.0000E+00  0.0000E+00  0.0000E+00
    -20.614  0.0000E+00  0.0000E+00  0.0000E+00
    -20.512  0.0000E+00  0.0000E+00  0.0000E+00
    -20.410  0.0000E+00  0.0000E+00  0.0000E+00
    -20.308  0.0000E+00  0.0000E+00  0.0000E+00
    -20.206  0.0000E+00  0.0000E+00  0.0000E+00
    -20.104  0.0000E+00  0.0000E+00  0.0000E+00
    -20.002  0.0000E+00  0.0000E+00  0.0000E+00
    -19.900  0.0000E+00  0.0000E+00  0.0000E+00
    -19.798  0.0000E+00  0.0000E+00  0.0000E+00
    -19.696  0.0000E+00  0.0000E+00  0.0000E+00
    -19.594  0.0000E+00  0.0000E+00  0.0000E+00
    -19.492  0.0000E+00  0.0000E+00  0.0000E+00
    -19.390  0.0000E+00  0.0000E+00  0.0000E+00
    -19.288  0.0000E+00  0.0000E+00  0.0000E+00
    -19.186  0.0000E+00  0.0000E+00  0.0000E+00
    -19.084  0.0000E+00  0.0000E+00  0.0000E+00
    -18.982  0.0000E+00  0.0000E+00  0.0000E+00
    -18.880  0.0000E+00  0.0000E+00  0.0000E+00
    -18.778  0.0000E+00  0.0000E+00  0.0000E+00
    -18.676  0.0000E+00  0.0000E+00  0.0000E+00
    -18.574  0.0000E+00  0.0000E+00  0.0000E+00
    -18.472  0.0000E+00  0.0000E+00  0.0000E+00
    -18.370  0.0000E+00  0.0000E+00  0.0000E+00
    -18.268  0.0000E+00  0.0000E+00  0.0000E+00
    -18.166  0.0000E+00  0.0000E+00  0.0000E+00
    -18.064  0.0000E+00  0.0000E+00  0.0000E+00
    -17.962  0.0000E+00  0.0000E+00  0.0000E+00
    -17.860  0.0000E+00  0.0000E+00  0.0000E+00
    -17.758  0.0000E+00  0.0000E+00  0.0000E+00
    -17.656  0.0000E+00  0.0000E+00  0.0000E+00
    -17.554  0.0000E+00  0.0000E+00  0.0000E+00
    -17.452  0.0000E+00  0.0000E+00  0.0000E+00
    -17.350  0.0000E+00  0.0000E+00  0.0000E+00
    -17.248  0.0000E+00  0.0000E+00  0.0000E+00
    -17.146  0.0000E+00  0.0000E+00  0.0000E+00
    -17.044  0.0000E+00  0.0000E+00  0.0000E+00
    -16.942  0.0000E+00  0.0000E+00  0.0000E+00
    -16.840  0.0000E+00  0.0000E+00  0.0000E+00
    -16.738  0.0000E+00  0.0000E+00  0.0000E+00
    -16.636  0.0000E+00  0.0000E+00  0.0000E+00
    -16.534  0.0000E+00  0.0000E+00  0.0000E+00
    -16.432  0.0000E+00  0.0000E+00  0.0000E+00
    -16.330  0.2791E-10  0.8845E-10  0.2283E-09
    -16.228  0.1794E-04  0.3358E-04  0.9620E-05
    -16.126  0.2557E-13  0.6299E-05  0.5521E-06
    -16.024  0.2727E-04  0.2093E-04  0.2113E-05
    -15.922  0.0000E+00  0.0000E+00  0.0000E+00
    -15.820  0.0000E+00  0.0000E+00  0.0000E+00
    -15.718  0.0000E+00  0.0000E+00  0.0000E+00
    -15.616  0.0000E+00  0.0000E+00  0.0000E+00
    -15.514  0.0000E+00  0.0000E+00  0.0000E+00
    -15.412  0.0000E+00  0.0000E+00  0.0000E+00
    -15.310  0.0000E+00  0.0000E+00  0.0000E+00
    -15.208  0.0000E+00  0.0000E+00  0.0000E+00
    -15.106  0.0000E+00  0.0000E+00  0.0000E+00
    -15.004  0.0000E+00  0.0000E+00  0.0000E+00
    -14.902  0.0000E+00  0.0000E+00  0.0000E+00
    -14.800  0.0000E+00  0.0000E+00  0.0000E+00
    -14.698  0.0000E+00  0.0000E+00  0.0000E+00
    -14.596  0.0000E+00  0.0000E+00  0.0000E+00
    -14.494  0.0000E+00  0.0000E+00  0.0000E+00
    -14.392  0.8944E-04  0.1077E-19  0.1223E-07
    -14.290  0.9160E-03  0.3327E-03  0.1777E-05
    -14.188  0.1658E-02  0.1686E-02  0.3666E-04
    -14.086  0.3354E-05  0.2473E-02  0.5376E-04
    -13.984  0.9080E-03  0.2171E-02  0.1446E-03
    -13.882  0.3218E-16  0.7249E-04  0.9474E-04
    -13.780  0.1310E-03  0.1428E-02  0.1829E-03
    -13.678  0.1525E-03  0.2006E-03  0.9345E-04
    -13.575  0.5004E-04  0.1159E-03  0.3236E-04
    -13.473  0.0000E+00  0.0000E+00  0.0000E+00
    -13.371  0.0000E+00  0.0000E+00  0.0000E+00