PROCAR new format
# of k-points:    6         # of bands:  216         # of ions:   40

 k-point     1 :    0.00000000 0.00000000 0.00000000     weight = 0.12500000

band     1 # energy  -21.05928336 # occ.  2.00000000

ion      s      p      d    tot
    1  0.111  0.000  0.000  0.111
    2  0.111  0.000  0.000  0.111
    3  0.111  0.000  0.000  0.111
    4  0.111  0.000  0.000  0.111
    5  0.111  0.000  0.000  0.111
    6  0.111  0.000  0.000  0.111
    7  0.111  0.000  0.000  0.111
    8  0.111  0.000  0.000  0.111
    9  0.000  0.000  0.000  0.000
   10  0.000  0.000  0.000  0.000
   11  0.000  0.000  0.000  0.000
   12  0.000  0.000  0.000  0.000
   13  0.000  0.000  0.000  0.000
   14  0.000  0.000  0.000  0.000
   15  0.000  0.000  0.000  0.000
   16  0.000  0.000  0.000  0.000
   17  0.000  0.000  0.000  0.000
   18  0.000  0.000  0.000  0.000
   19  0.000  0.000  0.000  0.000
   20  0.000  0.000  0.000  0.000
   21  0.000  0.000  0.000  0.000
   22  0.000  0.000  0.000  0.000
   23  0.000  0.000  0.000  0.000
   24  0.000  0.000  0.000  0.000
   25  0.000  0.000  0.000  0.000
   26  0.000  0.000  0.000  0.000
   27  0.000  0.000  0.000  0.000
   28  0.000  0.000  0.000  0.000
   29  0.000  0.000  0.000  0.000
   30  0.000  0.000  0.000  0.000
   31  0.000  0.000  0.000  0.000
   32  0.000  0.000  0.000  0.000
   33  0.000  0.000  0.000  0.000
   34  0.000  0.000  0.000  0.000
   35  0.000  0.000  0.000  0.000
   36  0.000  0.000  0.000  0.000
   37  0.000  0.000  0.000  0.000
   38  0.000  0.000  0.000  0.000
   39  0.000  0.000  0.000  0.000
   40  0.000  0.000  0.000  0.000
tot    0.887  0.000  0.000  0.887

band     2 # energy  -21.05823479 # occ.  2.00000000

ion      s      p      d    tot
    1  0.048  0.000  0.000  0.048
    2  0.048  0.000  0.000  0.048
    3  0.174  0.000  0.000  0.174
    4  0.174  0.000  0.000  0.174
    5  0.174  0.000  0.000  0.174
    6  0.174  0.000  0.000  0.174
    7  0.048  0.000  0.000  0.048
    8  0.048  0.000  0.000  0.048
    9  0.000  0.000  0.000  0.000
   10  0.000  0.000  0.000  0.000
   11  0.000  0.000  0.000  0.000
   12  0.000  0.000  0.000  0.000
   13  0.000  0.000  0.000  0.000
   14  0.000  0.000  0.000  0.000
   15  0.000  0.000  0.000  0.000
   16  0.000  0.000  0.000  0.000
   17  0.000  0.000  0.000  0.000
   18  0.000  0.000  0.000  0.000
   19  0.000  0.000  0.000  0.000
   20  0.000  0.000  0.000  0.000
   21  0.000  0.000  0.000  0.000
   22  0.000  0.000  0.000  0.000
   23  0.000  0.000  0.000  0.000
   24  0.000  0.000  0.000  0.000
   25  0.000  0.000  0.000  0.000
   26  0.000  0.000  0.000  0.000
   27  0.000  0.000  0.000  0.000
   28  0.000  0.000  0.000  0.000
   29  0.000  0.000  0.000  0.000
   30  0.000  0.000  0.000  0.000
   31  0.000  0.000  0.000  0.000
   32  0.000  0.000  0.000  0.000
   33  0.000  0.000  0.000  0.000
   34  0.000  0.000  0.000  0.000
   35  0.000  0.000  0.000  0.000
   36  0.000  0.000  0.000  0.000
   37  0.000  0.000  0.000  0.000
   38  0.000  0.000  0.000  0.000
   39  0.000  0.000  0.000  0.000
   40  0.000  0.000  0.000  0.000
tot    0.887  0.000  0.000  0.887

band     3 # energy  -21.05823479 # occ.  2.00000000

ion      s      p      d    tot
    1  0.174  0.000  0.000  0.174
    2  0.174  0.000  0.000  0.174
    3  0.048  0.000  0.000  0.048
    4  0.048  0.000  0.000  0.048
    5  0.048  0.000  0.000  0.048
    6  0.048  0.000  0.000  0.048
    7  0.174  0.000  0.000  0.174
    8  0.174  0.000  0.000  0.174
    9  0.000  0.000  0.000  0.000
   10  0.000  0.000  0.000  0.000
   11  0.000  0.000  0.000  0.000
   12  0.000  0.000  0.000  0.000
   13  0.000  0.000  0.000  0.000
   14  0.000  0.000  0.000  0.000
   15  0.000  0.000  0.000  0.000
   16  0.000  0.000  0.000  0.000
   17  0.000  0.000  0.000  0.000
   18  0.000  0.000  0.000  0.000
   19  0.000  0.000  0.000  0.000
   20  0.000  0.000  0.000  0.000
   21  0.000  0.000  0.000  0.000
   22  0.000  0.000  0.000  0.000
   23  0.000  0.000  0.000  0.000
   24  0.000  0.000  0.000  0.000
   25  0.000  0.000  0.000  0.000
   26  0.000  0.000  0.000  0.000
   27  0.000  0.000  0.000  0.000
   28  0.000  0.000  0.000  0.000
   29  0.000  0.000  0.000  0.000
   30  0.000  0.000  0.000  0.000
   31  0.000  0.000  0.000  0.000
   32  0.000  0.000  0.000  0.000
   33  0.000  0.000  0.000  0.000
   34  0.000  0.000  0.000  0.000
   35  0.000  0.000  0.000  0.000
   36  0.000  0.000  0.000  0.000
   37  0.000  0.000  0.000  0.000
   38  0.000  0.000  0.000  0.000
   39  0.000  0.000  0.000  0.000
   40  0.000  0.000  0.000  0.000
tot    0.887  0.000  0.000  0.887

band     4 # energy  -21.05810682 # occ.  2.00000000

ion      s      p      d    tot
    1  0.111  0.000  0.000  0.111
    2  0.111  0.000  0.000  0.111
    3  0.111  0.000  0.000  0.111
    4  0.111  0.000  0.000  0.111
    5  0.111  0.000  0.000  0.111
    6  0.111  0.000  0.000  0.111
    7  0.111  0.000  0.000  0.111
    8  0.111  0.000  0.000  0.111
    9  0.000  0.000  0.000  0.000
   10  0.000  0.000  0.000  0.000
   11  0.000  0.000  0.000  0.000
   12  0.000  0.000  0.000  0.000
   13  0.000  0.000  0.000  0.000
   14  0.000  0.000  0.000  0.000
   15  0.000  0.000  0.000  0.000
   16  0.000  0.000  0.000  0.000
   17  0.000  0.000  0.000  0.000
   18  0.000  0.000  0.000  0.000
   19  0.000  0.000  0.000  0.000
   20  0.000  0.000  0.000  0.000
   21  0.000  0.000  0.000  0.000
   22  0.000  0.000  0.000  0.000
   23  0.000  0.000  0.000  0.000
   24  0.000  0.000  0.000  0.000
   25  0.000  0.000  0.000  0.000
   26  0.000  0.000  0.000  0.000
   27  0.000  0.000  0.000  0.000
   28  0.000  0.000  0.000  0.000
   29  0.000  0.000  0.000  0.000
   30  0.000  0.000  0.000  0.000
   31  0.000  0.000  0.000  0.000
   32  0.000  0.000  0.000  0.000
   33  0.000  0.000  0.000  0.000
   34  0.000  0.000  0.000  0.000
   35  0.000  0.000  0.000  0.000
   36  0.000  0.000  0.000  0.000
   37  0.000  0.000  0.000  0.000
   38  0.000  0.000  0.000  0.000
   39  0.000  0.000  0.000  0.000
   40  0.000  0.000  0.000  0.000
tot    0.887  0.000  0.000  0.887

band     5 # energy  -21.05733744 # occ.  2.00000000

ion      s      p      d    tot
    1  0.111  0.000  0.000  0.111
    2  0.111  0.000  0.000  0.111
    3  0.111  0.000  0.000  0.111
    4  0.111  0.000  0.000  0.111
    5  0.111  0.000  0.000  0.111
    6  0.111  0.000  0.000  0.111
    7  0.111  0.000  0.000  0.111
    8  0.111  0.000  0.000  0.111
    9  0.000  0.000  0.000  0.000
   10  0.000  0.000  0.000  0.000
   11  0.000  0.000  0.000  0.000
   12  0.000  0.000  0.000  0.000
   13  0.000  0.000  0.000  0.000
   14  0.000  0.000  0.000  0.000
   15  0.000  0.000  0.000  0.000
   16  0.000  0.000  0.000  0.000
   17  0.000  0.000  0.000  0.000
   18  0.000  0.000  0.000  0.000
   19  0.000  0.000  0.000  0.000
   20  0.000  0.000  0.000  0.000
   21  0.000  0.000  0.000  0.000
   22  0.000  0.000  0.000  0.000
   23  0.000  0.000  0.000  0.000
   24  0.000  0.000  0.000  0.000
   25  0.000  0.000  0.000  0.000
   26  0.000  0.000  0.000  0.000
   27  0.000  0.000  0.000  0.000
   28  0.000  0.000  0.000  0.000
   29  0.000  0.000  0.000  0.000
   30  0.000  0.000  0.000  0.000
   31  0.000  0.000  0.000  0.000
   32  0.000  0.000  0.000  0.000
   33  0.000  0.000  0.000  0.000
   34  0.000  0.000  0.000  0.000
   35  0.000  0.000  0.000  0.000
   36  0.000  0.000  0.000  0.000
   37  0.000  0.000  0.000  0.000
   38  0.000  0.000  0.000  0.000
   39  0.000  0.000  0.000  0.000
   40  0.000  0.000  0.000  0.000
tot    0.888  0.000  0.000  0.888

band     6 # energy  -21.05721170 # occ.  2.00000000

ion      s      p      d    tot
    1  0.015  0.000  0.000  0.015
    2  0.015  0.000  0.000  0.015
    3  0.207  0.000  0.000  0.207
    4  0.207  0.000  0.000  0.207
    5  0.207  0.000  0.000  0.207
    6  0.207  0.000  0.000  0.207
    7  0.015  0.000  0.000  0.015
    8  0.015  0.000  0.000  0.015
    9  0.000  0.000  0.000  0.000
   10  0.000  0.000  0.000  0.000
   11  0.000  0.000  0.000  0.000
   12  0.000  0.000  0.000  0.000
   13  0.000  0.000  0.000  0.000
   14  0.000  0.000  0.000  0.000
   15  0.000  0.000  0.000  0.000
   16  0.000  0.000  0.000  0.000
   17  0.000  0.000  0.000  0.000
   18  0.000  0.000  0.000  0.000
   19  0.000  0.000  0.000  0.000
   20  0.000  0.000  0.000  0.000
   21  0.000  0.000  0.000  0.000
   22  0.000  0.000  0.000  0.000
   23  0.000  0.000  0.000  0.000
   24  0.000  0.000  0.000  0.000
   25  0.000  0.000  0.000  0.000
   26  0.000  0.000  0.000  0.000
   27  0.000  0.000  0.000  0.000
   28  0.000  0.000  0.000  0.000
   29  0.000  0.000  0.000  0.000
   30  0.000  0.000  0.000  0.000
   31  0.000  0.000  0.000  0.000
   32  0.000  0.000  0.000  0.000
   33  0.000  0.000  0.000  0.000
   34  0.000  0.000  0.000  0.000
   35  0.000  0.000  0.000  0.000
   36  0.000  0.000  0.000  0.000
   37  0.000  0.000  0.000  0.000
   38  0.000  0.000  0.000  0.000
   39  0.000  0.000  0.000  0.000
   40  0.000  0.000  0.000  0.000
tot    0.888  0.000  0.000  0.888

band     7 # energy  -21.05721170 # occ.  2.00000000

ion      s      p      d    tot
    1  0.207  0.000  0.000  0.207
    2  0.207  0.000  0.000  0.207
    3  0.015  0.000  0.000  0.015
    4  0.015  0.000  0.000  0.015
    5  0.015  0.000  0.000  0.015
    6  0.015  0.000  0.000  0.015
    7  0.207  0.000  0.000  0.207
    8  0.207  0.000  0.000  0.207
    9  0.000  0.000  0.000  0.000
   10  0.000  0.000  0.000  0.000
   11  0.000  0.000  0.000  0.000
   12  0.000  0.000  0.000  0.000
   13  0.000  0.000  0.000  0.000
   14  0.000  0.000  0.000  0.000
   15  0.000  0.000  0.000  0.000
   16  0.000  0.000  0.000  0.000
   17  0.000  0.000  0.000  0.000
   18  0.000  0.000  0.000  0.000
   19  0.000  0.000  0.000  0.000
   20  0.000  0.000  0.000  0.000
   21  0.000  0.000  0.000  0.000
   22  0.000  0.000  0.000  0.000
   23  0.000  0.000  0.000  0.000
   24  0.000  0.000  0.000  0.000
   25  0.000  0.000  0.000  0.000
   26  0.000  0.000  0.000  0.000
   27  0.000  0.000  0.000  0.000
   28  0.000  0.000  0.000  0.000
   29  0.000  0.000  0.000  0.000
   30  0.000  0.000  0.000  0.000
   31  0.000  0.000  0.000  0.000
   32  0.000  0.000  0.000  0.000
   33  0.000  0.000  0.000  0.000
   34  0.000  0.000  0.000  0.000
   35  0.000  0.000  0.000  0.000
   36  0.000  0.000  0.000  0.000
   37  0.000  0.000  0.000  0.000
   38  0.000  0.000  0.000  0.000
   39  0.000  0.000  0.000  0.000
   40  0.000  0.000  0.000  0.000
tot    0.888  0.000  0.000  0.888

band     8 # energy  -21.05594717 # occ.  2.00000000

ion      s      p      d    tot
    1  0.111  0.000  0.000  0.111
    2  0.111  0.000  0.000  0.111
    3  0.111  0.000  0.000  0.111
    4  0.111  0.000  0.000  0.111
    5  0.111  0.000  0.000  0.111
    6  0.111  0.000  0.000  0.111
    7  0.111  0.000  0.000  0.111
    8  0.111  0.000  0.000  0.111
    9  0.000  0.000  0.000  0.000
   10  0.000  0.000  0.000  0.000
   11  0.000  0.000  0.000  0.000
   12  0.000  0.000  0.000  0.000
   13  0.000  0.000  0.000  0.000
   14  0.000  0.000  0.000  0.000
   15  0.000  0.000  0.000  0.000
   16  0.000  0.000  0.000  0.000
   17  0.000  0.000  0.000  0.000
   18  0.000  0.000  0.000  0.000
   19  0.000  0.000  0.000  0.000
   20  0.000  0.000  0.000  0.000
   21  0.000  0.000  0.000  0.000
   22  0.000  0.000  0.000  0.000
   23  0.000  0.000  0.000  0.000
   24  0.000  0.000  0.000  0.000
   25  0.000  0.000  0.000  0.000
   26  0.000  0.000  0.000  0.000
   27  0.000  0.000  0.000  0.000
   28  0.000  0.000  0.000  0.000
   29  0.000  0.000  0.000  0.000
   30  0.000  0.000  0.000  0.000
   31  0.000  0.000  0.000  0.000
   32  0.000  0.000  0.000  0.000
   33  0.000  0.000  0.000  0.000
   34  0.000  0.000  0.000  0.000
   35  0.000  0.000  0.000  0.000
   36  0.000  0.000  0.000  0.000
   37  0.000  0.000  0.000  0.000
   38  0.000  0.000  0.000  0.000
   39  0.000  0.000  0.000  0.000
   40  0.000  0.000  0.000  0.000
tot    0.888  0.000  0.000  0.888

band     9 # energy  -16.30643624 # occ.  2.00000000

ion      s      p      d    tot
    1  0.000  0.000  0.000  0.000
    2  0.000  0.000  0.000  0.000
    3  0.000  0.000  0.000  0.000
    4  0.000  0.000  0.000  0.000
    5  0.000  0.000  0.000  0.000
    6  0.000  0.000  0.000  0.000
    7  0.000  0.000  0.000  0.000
    8  0.000  0.000  0.000  0.000
    9  0.000  0.000  0.113  0.113
   10  0.000  0.000  0.113  0.113
   11  0.000  0.000  0.113  0.113
   12  0.000  0.000  0.113  0.113
   13  0.000  0.000  0.113  0.113
   14  0.000  0.000  0.113  0.113
   15  0.000  0.000  0.113  0.113
   16  0.000  0.000  0.113  0.113
   17  0.001  0.000  0.000  0.001
   18  0.001  0.000  0.000  0.001
   19  0.001  0.000  0.000  0.001
   20  0.001  0.000  0.000  0.001
   21  0.001  0.000  0.000  0.001
   22  0.001  0.000  0.000  0.001
   23  0.001  0.000  0.000  0.001
   24  0.001  0.000  0.000  0.001
   25  0.005  0.000  0.000  0.005
   26  0.005  0.000  0.000  0.005
   27  0.005  0.000  0.000  0.005
   28  0.005  0.000  0.000  0.005
   29  0.005  0.000  0.000  0.005
   30  0.005  0.000  0.000  0.005
   31  0.005  0.000  0.000  0.005
   32  0.005  0.000  0.000  0.005
   33  0.001  0.000  0.000  0.001
   34  0.001  0.000  0.000  0.001
   35  0.001  0.000  0.000  0.001
   36  0.001  0.000  0.000  0.001
   37  0.001  0.000  0.000  0.001
   38  0.001  0.000  0.000  0.001
   39  0.001  0.000  0.000  0.001
   40  0.001  0.000  0.000  0.001
tot    0.053  0.000  0.903  0.956

band    10 # energy  -16.30463812 # occ.  2.00000000

ion      s      p      d    tot
    1  0.000  0.000  0.000  0.000
    2  0.000  0.000  0.000  0.000
    3  0.000  0.000  0.000  0.000
    4  0.000  0.000  0.000  0.000
    5  0.000  0.000  0.000  0.000
    6  0.000  0.000  0.000  0.000
    7  0.000  0.000  0.000  0.000
    8  0.000  0.000  0.000  0.000
    9  0.000  0.000  0.072  0.072
   10  0.000  0.000  0.072  0.072
   11  0.000  0.000  0.154  0.154
   12  0.000  0.000  0.154  0.154
   13  0.000  0.000  0.154  0.154
   14  0.000  0.000  0.154  0.154
   15  0.000  0.000  0.072  0.072
   16  0.000  0.000  0.072  0.072
   17  0.002  0.000  0.000  0.002
   18  0.002  0.000  0.000  0.002
   19  0.002  0.000  0.000  0.002
   20  0.002  0.000  0.000  0.002
   21  0.002  0.000  0.000  0.002
   22  0.002  0.000  0.000  0.002
   23  0.002  0.000  0.000  0.002
   24  0.002  0.000  0.000  0.002
   25  0.001  0.000  0.000  0.001
   26  0.001  0.000  0.000  0.001
   27  0.006  0.000  0.000  0.006
   28  0.006  0.000  0.000  0.006
   29  0.006  0.000  0.000  0.006
   30  0.006  0.000  0.000  0.006
   31  0.001  0.000  0.000  0.001
   32  0.001  0.000  0.000  0.001
   33  0.001  0.000  0.000  0.001
   34  0.001  0.000  0.000  0.001
   35  0.001  0.000  0.000  0.001
   36  0.001  0.000  0.000  0.001
   37  0.001  0.000  0.000  0.001
   38  0.001  0.000  0.000  0.001
   39  0.001  0.000  0.000  0.001
   40  0.001  0.000  0.000  0.001
tot    0.052  0.000  0.904  0.956

band    11 # energy  -16.30463812 # occ.  2.00000000

ion      s      p      d    tot
    1  0.000  0.000  0.000  0.000
    2  0.000  0.000  0.000  0.000
    3  0.000  0.000  0.000  0.000
    4  0.000  0.000  0.000  0.000
    5  0.000  0.000  0.000  0.000
    6  0.000  0.000  0.000  0.000
    7  0.000  0.000  0.000  0.000
    8  0.000  0.000  0.000  0.000
    9  0.000  0.000  0.154  0.154
   10  0.000  0.000  0.154  0.154
   11  0.000  0.000  0.072  0.072
   12  0.000  0.000  0.072  0.072
   13  0.000  0.000  0.072  0.072
   14  0.000  0.000  0.072  0.072
   15  0.000  0.000  0.154  0.154
   16  0.000  0.000  0.154  0.154
   17  0.001  0.000  0.000  0.001
   18  0.001  0.000  0.000  0.001
   19  0.001  0.000  0.000  0.001
   20  0.001  0.000  0.000  0.001
   21  0.001  0.000  0.000  0.001
   22  0.001  0.000  0.000  0.001
   23  0.001  0.000  0.000  0.001
   24  0.001  0.000  0.000  0.001
   25  0.006  0.000  0.000  0.006
   26  0.006  0.000  0.000  0.006
   27  0.001  0.000  0.000  0.001
   28  0.001  0.000  0.000  0.001
   29  0.001  0.000  0.000  0.001
   30  0.001  0.000  0.000  0.001
   31  0.006  0.000  0.000  0.006
   32  0.006  0.000  0.000  0.006
   33  0.002  0.000  0.000  0.002
   34  0.002  0.000  0.000  0.002
   35  0.002  0.000  0.000  0.002
   36  0.002  0.000  0.000  0.002
   37  0.002  0.000  0.000  0.002
   38  0.002  0.000  0.000  0.002
   39  0.002  0.000  0.000  0.002
   40  0.002  0.000  0.000  0.002
tot    0.052  0.000  0.904  0.956

band    12 # energy  -16.29871669 # occ.  2.00000000

ion      s      p      d    tot
    1  0.000  0.000  0.000  0.000
    2  0.000  0.000  0.000  0.000
    3  0.000  0.000  0.000  0.000
    4  0.000  0.000  0.000  0.000
    5  0.000  0.000  0.000  0.000
    6  0.000  0.000  0.000  0.000
    7  0.000  0.000  0.000  0.000
    8  0.000  0.000  0.000  0.000
    9  0.000  0.000  0.113  0.113
   10  0.000  0.000  0.113  0.113
   11  0.000  0.000  0.113  0.113
   12  0.000  0.000  0.113  0.113
   13  0.000  0.000  0.113  0.113
   14  0.000  0.000  0.113  0.113
   15  0.000  0.000  0.113  0.113
   16  0.000  0.000  0.113  0.113
   17  0.003  0.000  0.000  0.003
   18  0.003  0.000  0.000  0.003
   19  0.003  0.000  0.000  0.003
   20  0.003  0.000  0.000  0.003
   21  0.003  0.000  0.000  0.003
   22  0.003  0.000  0.000  0.003
   23  0.003  0.000  0.000  0.003
   24  0.003  0.000  0.000  0.003
   25  0.000  0.000  0.000  0.000
   26  0.000  0.000  0.000  0.000
   27  0.000  0.000  0.000  0.000
   28  0.000  0.000  0.000  0.000
   29  0.000  0.000  0.000  0.000
   30  0.000  0.000  0.000  0.000
   31  0.000  0.000  0.000  0.000
   32  0.000  0.000  0.000  0.000
   33  0.003  0.000  0.000  0.003
   34  0.003  0.000  0.000  0.003
   35  0.003  0.000  0.000  0.003
   36  0.003  0.000  0.000  0.003
   37  0.003  0.000  0.000  0.003
   38  0.003  0.000  0.000  0.003
   39  0.003  0.000  0.000  0.003
   40  0.003  0.000  0.000  0.003
tot    0.051  0.000  0.905  0.956

band    13 # energy  -16.29865699 # occ.  2.00000000

ion      s      p      d    tot
    1  0.000  0.000  0.000  0.000
    2  0.000  0.000  0.000  0.000
    3  0.000  0.000  0.000  0.000
    4  0.000  0.000  0.000  0.000
    5  0.000  0.000  0.000  0.000
    6  0.000  0.000  0.000  0.000
    7  0.000  0.000  0.000  0.000
    8  0.000  0.000  0.000  0.000
    9  0.000  0.000  0.113  0.113
   10  0.000  0.000  0.113  0.113
   11  0.000  0.000  0.113  0.113
   12  0.000  0.000  0.113  0.113
   13  0.000  0.000  0.113  0.113
   14  0.000  0.000  0.113  0.113
   15  0.000  0.000  0.113  0.113
   16  0.000  0.000  0.113  0.113
   17  0.003  0.000  0.000  0.003
   18  0.003  0.000  0.000  0.003
   19  0.003  0.000  0.000  0.003
   20  0.003  0.000  0.000  0.003
   21  0.003  0.000  0.000  0.003
   22  0.003  0.000  0.000  0.003
   23  0.003  0.000  0.000  0.003
   24  0.003  0.000  0.000  0.003
   25  0.000  0.000  0.000  0.000
   26  0.000  0.000  0.000  0.000
   27  0.000  0.000  0.000  0.000
   28  0.000  0.000  0.000  0.000
   29  0.000  0.000  0.000  0.000
   30  0.000  0.000  0.000  0.000
   31  0.000  0.000  0.000  0.000
   32  0.000  0.000  0.000  0.000
   33  0.003  0.000  0.000  0.003
   34  0.003  0.000  0.000  0.003
   35  0.003  0.000  0.000  0.003
   36  0.003  0.000  0.000  0.003
   37  0.003  0.000  0.000  0.003
   38  0.003  0.000  0.000  0.003
   39  0.003  0.000  0.000  0.003
   40  0.003  0.000  0.000  0.003
tot    0.051  0.000  0.906  0.957

band    14 # energy  -16.27249281 # occ.  2.00000000

ion      s      p      d    tot
    1  0.000  0.000  0.000  0.000
    2  0.000  0.000  0.000  0.000
    3  0.000  0.000  0.000  0.000
    4  0.000  0.000  0.000  0.000
    5  0.000  0.000  0.000  0.000
    6  0.000  0.000  0.000  0.000
    7  0.000  0.000  0.000  0.000
    8  0.000  0.000  0.000  0.000
    9  0.000  0.000  0.115  0.115
   10  0.000  0.000  0.115  0.115
   11  0.000  0.000  0.115  0.115
   12  0.000  0.000  0.115  0.115
   13  0.000  0.000  0.115  0.115
   14  0.000  0.000  0.115  0.115
   15  0.000  0.000  0.115  0.115
   16  0.000  0.000  0.115  0.115
   17  0.000  0.000  0.000  0.000
   18  0.000  0.000  0.000  0.000
   19  0.000  0.000  0.000  0.000
   20  0.000  0.000  0.000  0.000
   21  0.000  0.000  0.000  0.000
   22  0.000  0.000  0.000  0.000
   23  0.000  0.000  0.000  0.000
   24  0.000  0.000  0.000  0.000
   25  0.005  0.000  0.000  0.005
   26  0.005  0.000  0.000  0.005
   27  0.005  0.000  0.000  0.005
   28  0.005  0.000  0.000  0.005
   29  0.005  0.000  0.000  0.005
   30  0.005  0.000  0.000  0.005
   31  0.005  0.000  0.000  0.005
   32  0.005  0.000  0.000  0.005
   33  0.000  0.000  0.000  0.000
   34  0.000  0.000  0.000  0.000
   35  0.000  0.000  0.000  0.000
   36  0.000  0.000  0.000  0.000
   37  0.000  0.000  0.000  0.000
   38  0.000  0.000  0.000  0.000
   39  0.000  0.000  0.000  0.000
   40  0.000  0.000  0.000  0.000
tot    0.042  0.001  0.917  0.960

band    15 # energy  -16.26459627 # occ.  2.00000000

ion      s      p      d    tot
    1  0.000  0.000  0.000  0.000
    2  0.000  0.000  0.000  0.000
    3  0.000  0.000  0.000  0.000
    4  0.000  0.000  0.000  0.000
    5  0.000  0.000  0.000  0.000
    6  0.000  0.000  0.000  0.000
    7  0.000  0.000  0.000  0.000
    8  0.000  0.000  0.000  0.000
    9  0.000  0.000  0.065  0.065
   10  0.000  0.000  0.065  0.065
   11  0.000  0.000  0.165  0.165
   12  0.000  0.000  0.165  0.165
   13  0.000  0.000  0.165  0.165
   14  0.000  0.000  0.165  0.165
   15  0.000  0.000  0.065  0.065
   16  0.000  0.000  0.065  0.065
   17  0.002  0.000  0.000  0.002
   18  0.002  0.000  0.000  0.002
   19  0.002  0.000  0.000  0.002
   20  0.002  0.000  0.000  0.002
   21  0.002  0.000  0.000  0.002
   22  0.002  0.000  0.000  0.002
   23  0.002  0.000  0.000  0.002
   24  0.002  0.000  0.000  0.002
   25  0.000  0.000  0.000  0.000
   26  0.000  0.000  0.000  0.000
   27  0.000  0.000  0.000  0.000
   28  0.000  0.000  0.000  0.000
   29  0.000  0.000  0.000  0.000
   30  0.000  0.000  0.000  0.000
   31  0.000  0.000  0.000  0.000
   32  0.000  0.000  0.000  0.000
   33  0.003  0.000  0.000  0.003
   34  0.003  0.000  0.000  0.003
   35  0.003  0.000  0.000  0.003
   36  0.003  0.000  0.000  0.003
   37  0.003  0.000  0.000  0.003
   38  0.003  0.000  0.000  0.003
   39  0.003  0.000  0.000  0.003
   40  0.003  0.000  0.000  0.003
tot    0.039  0.001  0.921  0.960

band    16 # energy  -16.26459627 # occ.  2.00000000

ion      s      p      d    tot
    1  0.000  0.000  0.000  0.000
    2  0.000  0.000  0.000  0.000
    3  0.000  0.000  0.000  0.000
    4  0.000  0.000  0.000  0.000
    5  0.000  0.000  0.000  0.000
    6  0.000  0.000  0.000  0.000
    7  0.000  0.000  0.000  0.000
    8  0.000  0.000  0.000  0.000
    9  0.000  0.000  0.165  0.165
   10  0.000  0.000  0.165  0.165
   11  0.000  0.000  0.065  0.065
   12  0.000  0.000  0.065  0.065
   13  0.000  0.000  0.065  0.065
   14  0.000  0.000  0.065  0.065
   15  0.000  0.000  0.165  0.165
   16  0.000  0.000  0.165  0.165
   17  0.003  0.000  0.000  0.003
   18  0.003  0.000  0.000  0.003
   19  0.003  0.000  0.000  0.003
   20  0.003  0.000  0.000  0.003
   21  0.003  0.000  0.000  0.003
   22  0.003  0.000  0.000  0.003
   23  0.003  0.000  0.000  0.003
   24  0.003  0.000  0.000  0.003
   25  0.000  0.000  0.000  0.000
   26  0.000  0.000  0.000  0.000
   27  0.000  0.000  0.000  0.000
   28  0.000  0.000  0.000  0.000
   29  0.000  0.000  0.000  0.000
   30  0.000  0.000  0.000  0.000
   31  0.000  0.000  0.000  0.000
   32  0.000  0.000  0.000  0.000
   33  0.002  0.000  0.000  0.002
   34  0.002  0.000  0.000  0.002
   35  0.002  0.000  0.000  0.002
   36  0.002  0.000  0.000  0.002
   37  0.002  0.000  0.000  0.002
   38  0.002  0.000  0.000  0.002
   39  0.002  0.000  0.000  0.002
   40  0.002  0.000  0.000  0.002
tot    0.039  0.001  0.921  0.960

band    17 # energy  -16.22735334 # occ.  2.00000000

ion      s      p      d    tot
    1  0.000  0.000  0.000  0.000
    2  0.000  0.000  0.000  0.000
    3  0.000  0.000  0.000  0.000
    4  0.000  0.000  0.000  0.000
    5  0.000  0.000  0.000  0.000
    6  0.000  0.000  0.000  0.000
    7  0.000  0.000  0.000  0.000
    8  0.000  0.000  0.000  0.000
    9  0.000  0.000  0.118  0.118
   10  0.000  0.000  0.118  0.118
   11  0.000  0.000  0.118  0.118
   12  0.000  0.000  0.118  0.118
   13  0.000  0.000  0.118  0.118
   14  0.000  0.000  0.118  0.118
   15  0.000  0.000  0.118  0.118
   16  0.000  0.000  0.118  0.118
   17  0.001  0.000  0.000  0.001
   18  0.001  0.000  0.000  0.001
   19  0.001  0.000  0.000  0.001
   20  0.001  0.000  0.000  0.001
   21  0.001  0.000  0.000  0.001
   22  0.001  0.000  0.000  0.001
   23  0.001  0.000  0.000  0.001
   24  0.001  0.000  0.000  0.001
   25  0.000  0.000  0.000  0.000
   26  0.000  0.000  0.000  0.000
   27  0.000  0.000  0.000  0.000
   28  0.000  0.000  0.000  0.000
   29  0.000  0.000  0.000  0.000
   30  0.000  0.000  0.000  0.000
   31  0.000  0.000  0.000  0.000
   32  0.000  0.000  0.000  0.000
   33  0.001  0.000  0.000  0.001
   34  0.001  0.000  0.000  0.001
   35  0.001  0.000  0.000  0.001
   36  0.001  0.000  0.000  0.001
   37  0.001  0.000  0.000  0.001
   38  0.001  0.000  0.000  0.001
   39  0.001  0.000  0.000  0.001
   40  0.001  0.000  0.000  0.001
tot    0.023  0.002  0.941  0.966

band    18 # energy  -16.22662559 # occ.  2.00000000

ion      s      p      d    tot
    1  0.000  0.000  0.000  0.000
    2  0.000  0.000  0.000  0.000
    3  0.000  0.000  0.000  0.000
    4  0.000  0.000  0.000  0.000
    5  0.000  0.000  0.000  0.000
    6  0.000  0.000  0.000  0.000
    7  0.000  0.000  0.000  0.000
    8  0.000  0.000  0.000  0.000
    9  0.000  0.000  0.062  0.062
   10  0.000  0.000  0.062  0.062
   11  0.000  0.000  0.173  0.173
   12  0.000  0.000  0.173  0.173
   13  0.000  0.000  0.173  0.173
   14  0.000  0.000  0.173  0.173
   15  0.000  0.000  0.062  0.062
   16  0.000  0.000  0.062  0.062
   17  0.001  0.000  0.000  0.001
   18  0.001  0.000  0.000  0.001
   19  0.001  0.000  0.000  0.001
   20  0.001  0.000  0.000  0.001
   21  0.001  0.000  0.000  0.001
   22  0.001  0.000  0.000  0.001
   23  0.001  0.000  0.000  0.001
   24  0.001  0.000  0.000  0.001
   25  0.002  0.000  0.000  0.002
   26  0.002  0.000  0.000  0.002
   27  0.000  0.000  0.000  0.000
   28  0.000  0.000  0.000  0.000
   29  0.000  0.000  0.000  0.000
   30  0.000  0.000  0.000  0.000
   31  0.002  0.000  0.000  0.002
   32  0.002  0.000  0.000  0.002
   33  0.001  0.000  0.000  0.001
   34  0.001  0.000  0.000  0.001
   35  0.001  0.000  0.000  0.001
   36  0.001  0.000  0.000  0.001
   37  0.001  0.000  0.000  0.001
   38  0.001  0.000  0.000  0.001
   39  0.001  0.000  0.000  0.001
   40  0.001  0.000  0.000  0.001
tot    0.024  0.002  0.940  0.965

band    19 # energy  -16.22662559 # occ.  2.00000000

ion      s      p      d    tot
    1  0.000  0.000  0.000  0.000
    2  0.000  0.000  0.000  0.000
    3  0.000  0.000  0.000  0.000
    4  0.000  0.000  0.000  0.000
    5  0.000  0.000  0.000  0.000
    6  0.000  0.000  0.000  0.000
    7  0.000  0.000  0.000  0.000
    8  0.000  0.000  0.000  0.000
    9  0.000  0.000  0.173  0.173
   10  0.000  0.000  0.173  0.173
   11  0.000  0.000  0.062  0.062
   12  0.000  0.000  0.062  0.062
   13  0.000  0.000  0.062  0.062
   14  0.000  0.000  0.062  0.062
   15  0.000  0.000  0.173  0.173
   16  0.000  0.000  0.173  0.173
   17  0.001  0.000  0.000  0.001
   18  0.001  0.000  0.000  0.001
   19  0.001  0.000  0.000  0.001
   20  0.001  0.000  0.000  0.001
   21  0.001  0.000  0.000  0.001
   22  0.001  0.000  0.000  0.001
   23  0.001  0.000  0.000  0.001
   24  0.001  0.000  0.000  0.001
   25  0.000  0.000  0.000  0.000
   26  0.000  0.000  0.000  0.000
   27  0.002  0.000  0.000  0.002
   28  0.002  0.000  0.000  0.002
   29  0.002  0.000  0.000  0.002
   30  0.002  0.000  0.000  0.002
   31  0.000  0.000  0.000  0.000
   32  0.000  0.000  0.000  0.000
   33  0.001  0.000  0.000  0.001
   34  0.001  0.000  0.000  0.001
   35  0.001  0.000  0.000  0.001
   36  0.001  0.000  0.000  0.001
   37  0.001  0.000  0.000  0.001
   38  0.001  0.000  0.000  0.001
   39  0.001  0.000  0.000  0.001
   40  0.001  0.000  0.000  0.001
tot    0.024  0.002  0.940  0.965

band    20 # energy  -16.18077442 # occ.  2.00000000

ion      s      p      d    tot
    1  0.000  0.000  0.000  0.000
    2  0.000  0.000  0.000  0.000
    3  0.000  0.000  0.000  0.000
    4  0.000  0.000  0.000  0.000
    5  0.000  0.000  0.000  0.000
    6  0.000  0.000  0.000  0.000
    7  0.000  0.000  0.000  0.000
    8  0.000  0.000  0.000  0.000
    9  0.000  0.000  0.121  0.121
   10  0.000  0.000  0.121  0.121
   11  0.000  0.000  0.121  0.121
   12  0.000  0.000  0.121  0.121
   13  0.000  0.000  0.121  0.121
   14  0.000  0.000  0.121  0.121
   15  0.000  0.000  0.121  0.121
   16  0.000  0.000  0.121  0.121
   17  0.000  0.000  0.000  0.000
   18  0.000  0.000  0.000  0.000
   19  0.000  0.000  0.000  0.000
   20  0.000  0.000  0.000  0.000
   21  0.000  0.000  0.000  0.000
   22  0.000  0.000  0.000  0.000
   23  0.000  0.000  0.000  0.000
   24  0.000  0.000  0.000  0.000
   25  0.000  0.000  0.000  0.000
   26  0.000  0.000  0.000  0.000
   27  0.000  0.000  0.000  0.000
   28  0.000  0.000  0.000  0.000
   29  0.000  0.000  0.000  0.000
   30  0.000  0.000  0.000  0.000
   31  0.000  0.000  0.000  0.000
   32  0.000  0.000  0.000  0.000
   33  0.000  0.000  0.000  0.000
   34  0.000  0.000  0.000  0.000
   35  0.000  0.000  0.000  0.000
   36  0.000  0.000  0.000  0.000
   37  0.000  0.000  0.000  0.000
   38  0.000  0.000  0.000  0.000
   39  0.000  0.000  0.000  0.000
   40  0.000  0.000  0.000  0.000
tot    0.000  0.003  0.970  0.973

band    21 # energy  -16.18039325 # occ.  2.00000000

ion      s      p      d    tot
    1  0.000  0.000  0.000  0.000
    2  0.000  0.000  0.000  0.000
    3  0.000  0.000  0.000  0.000