<?xml version="1.0" encoding="ISO-8859-1"?>
<modeling>
 <generator>
  <i name="program" type="string">vasp </i>
  <i name="version" type="string">5.4.4.18Apr17-6-g9f103f2a35  </i>
  <i name="subversion" type="string">(build Jun 22 2020 09:27:21) complex            parallel </i>
  <i name="platform" type="string">tx2_gcc-7.3_libsci-18.07_cray-fftw-3.3.8 </i>
  <i name="date" type="string">2021 09 22 </i>
  <i name="time" type="string">08:31:18 </i>
 </generator>
 <incar>
  <i type="string" name="SYSTEM"> CsPbBr3 cubic bulk</i>
  <i type="string" name="PREC">accurate</i>
  <i type="string" name="ALGO"> Normal   ! Electronic minimisation algo</i>
  <i type="logical" name="ADDGRID"> T  </i>
  <i type="int" name="NELM">   200</i>
  <i type="int" name="IBRION">     2</i>
  <i name="EDIFF">      0.00000100</i>
  <i name="EDIFFG">     -0.01000000</i>
  <i type="int" name="NSW">     0</i>
  <i type="int" name="ISIF">     3</i>
  <i type="int" name="ISYM">     2</i>
  <i name="ENCUT">    300.00000000</i>
  <i name="POTIM">      0.50000000</i>
  <i type="string" name="LREAL"> AUTO</i>
  <i type="int" name="ISMEAR">     0</i>
  <i name="SIGMA">      0.01000000</i>
  <i name="PSTRESS">      0.00000000</i>
  <i type="logical" name="LWAVE"> F  </i>
  <i type="logical" name="LCHARG"> T  </i>
  <i type="logical" name="LVHAR"> T  </i>
  <i type="int" name="LORBIT">    10</i>
  <i type="logical" name="LASPH"> T  </i>
  <v type="int" name="KPOINT_BSE">    -1     0     0     0</v>
  <i type="int" name="NELM">   200</i>
  <i type="string" name="METAGGA"> SCAN       ! PBE exchange-correlation</i>
  <i type="logical" name="LASPH"> T  </i>
 </incar>
 <structure name="primitive_cell" >
  <crystal>
   <varray name="basis" >
    <v>       5.86767600       5.86767600       0.00000000 </v>
    <v>       5.86767600      -0.00000000      -5.86767600 </v>
    <v>       0.00000000       5.86767600      -5.86767600 </v>
   </varray>
   <i name="volume">    404.04372918 </i>
   <varray name="rec_basis" >
    <v>       0.08521261       0.08521261       0.08521261 </v>
    <v>       0.08521261      -0.08521261      -0.08521261 </v>
    <v>      -0.08521261       0.08521261      -0.08521261 </v>
   </varray>
  </crystal>
  <varray name="positions" >
   <v>      -0.25000000      -0.25000000      -0.25000000 </v>
   <v>      -0.22750000       0.27250000      -0.27250000 </v>
   <v>       0.22750000      -0.27250000       0.27250000 </v>
   <v>       0.27250000       0.22750000      -0.22750000 </v>
   <v>      -0.27250000      -0.22750000       0.22750000 </v>
   <v>       0.25000000      -0.25000000      -0.25000000 </v>
   <v>      -0.25000000       0.25000000       0.25000000 </v>
   <v>       0.00000000       0.00000000       0.00000000 </v>
   <v>      -0.50000000      -0.50000000      -0.50000000 </v>
   <v>       0.25000000       0.25000000       0.25000000 </v>
  </varray>
 </structure>
 <varray name="primitive_index" >
  <v type="int" >        1 </v>
  <v type="int" >       18 </v>
  <v type="int" >       22 </v>
  <v type="int" >       33 </v>
  <v type="int" >       35 </v>
  <v type="int" >       25 </v>
  <v type="int" >       27 </v>
  <v type="int" >        9 </v>
  <v type="int" >       10 </v>
  <v type="int" >        2 </v>
 </varray>
 <kpoints>
  <generation param="Gamma">
   <v type="int" name="divisions">       2        2        2 </v>
   <v name="usershift">      0.00000000       0.00000000       0.00000000 </v>
   <v name="genvec1">      0.50000000       0.00000000       0.00000000 </v>
   <v name="genvec2">      0.00000000       0.50000000       0.00000000 </v>
   <v name="genvec3">      0.00000000       0.00000000       0.50000000 </v>
   <v name="shift">      0.00000000       0.00000000       0.00000000 </v>
  </generation>
  <varray name="kpointlist" >
   <v>       0.00000000       0.00000000       0.00000000 </v>
   <v>       0.50000000       0.00000000       0.00000000 </v>
   <v>       0.50000000       0.50000000       0.00000000 </v>
   <v>       0.00000000       0.00000000       0.50000000 </v>
   <v>       0.50000000       0.00000000       0.50000000 </v>
   <v>       0.50000000       0.50000000       0.50000000 </v>
  </varray>
  <varray name="weights" >
   <v>       0.12500000 </v>
   <v>       0.25000000 </v>
   <v>       0.12500000 </v>
   <v>       0.12500000 </v>
   <v>       0.25000000 </v>
   <v>       0.12500000 </v>
  </varray>
 </kpoints>
 <parameters>
  <separator name="general" >
   <i type="string" name="SYSTEM">CsPbBr3 cubic bulk</i>
   <i type="logical" name="LCOMPAT"> F  </i>
  </separator>
  <separator name="electronic" >
   <i type="string" name="PREC">accura</i>
   <i name="ENMAX">    300.00000000</i>
   <i name="ENAUG">    503.85200000</i>
   <i name="EDIFF">      0.00000100</i>
   <i type="int" name="IALGO">    38</i>
   <i type="int" name="IWAVPR">    10</i>
   <i type="int" name="NBANDS">   216</i>
   <i name="NELECT">    352.00000000</i>
   <i type="int" name="TURBO">     0</i>
   <i type="int" name="IRESTART">     0</i>
   <i type="int" name="NREBOOT">     0</i>
   <i type="int" name="NMIN">     0</i>
   <i name="EREF">      0.00000000</i>
   <separator name="electronic smearing" >
    <i type="int" name="ISMEAR">     0</i>
    <i name="SIGMA">      0.01000000</i>
    <i name="KSPACING">      0.50000000</i>
    <i type="logical" name="KGAMMA"> T  </i>
   </separator>
   <separator name="electronic projectors" >
    <i type="logical" name="LREAL"> T  </i>
    <v name="ROPT">     -0.00025000     -0.00025000     -0.00025000</v>
    <i type="int" name="LMAXPAW">  -100</i>
    <i type="int" name="LMAXMIX">     2</i>
    <i type="logical" name="NLSPLINE"> F  </i>
   </separator>
   <separator name="electronic startup" >
    <i type="int" name="ISTART">     0</i>
    <i type="int" name="ICHARG">     2</i>
    <i type="int" name="INIWAV">     1</i>
   </separator>
   <separator name="electronic spin" >
    <i type="int" name="ISPIN">     1</i>
    <i type="logical" name="LNONCOLLINEAR"> F  </i>
    <v name="MAGMOM">      1.00000000      1.00000000      1.00000000      1.00000000      1.00000000      1.00000000      1.00000000      1.00000000      1.00000000      1.00000000      1.00000000      1.00000000      1.00000000      1.00000000      1.00000000      1.00000000      1.00000000      1.00000000      1.00000000      1.00000000
      1.00000000      1.00000000      1.00000000      1.00000000      1.00000000      1.00000000      1.00000000      1.00000000      1.00000000      1.00000000      1.00000000      1.00000000      1.00000000      1.00000000      1.00000000      1.00000000      1.00000000      1.00000000      1.00000000      1.00000000
</v>
    <i name="NUPDOWN">     -1.00000000</i>
    <i type="logical" name="LSORBIT"> F  </i>
    <v name="SAXIS">      0.00000000      0.00000000      1.00000000</v>
    <i type="logical" name="LSPIRAL"> F  </i>
    <v name="QSPIRAL">      0.00000000      0.00000000      0.00000000</v>
    <i type="logical" name="LZEROZ"> F  </i>
   </separator>
   <separator name="electronic exchange-correlation" >
    <i type="logical" name="LASPH"> T  </i>
    <i type="logical" name="LMETAGGA"> F  </i>
   </separator>
   <separator name="electronic convergence" >
    <i type="int" name="NELM">   200</i>
    <i type="int" name="NELMDL">    -5</i>
    <i type="int" name="NELMIN">     2</i>
    <i name="ENINI">    300.00000000</i>
    <separator name="electronic convergence detail" >
     <i type="logical" name="LDIAG"> T  </i>
     <i type="logical" name="LSUBROT"> F  </i>
     <i name="WEIMIN">      0.00000000</i>
     <i name="EBREAK">      0.00000000</i>
     <i name="DEPER">      0.30000000</i>
     <i type="int" name="NRMM">     4</i>
     <i name="TIME">      0.40000000</i>
    </separator>
   </separator>
   <separator name="electronic mixer" >
    <i name="AMIX">      0.40000000</i>
    <i name="BMIX">      1.00000000</i>
    <i name="AMIN">      0.10000000</i>
    <i name="AMIX_MAG">      1.60000000</i>
    <i name="BMIX_MAG">      1.00000000</i>
    <separator name="electronic mixer details" >
     <i type="int" name="IMIX">     4</i>
     <i type="logical" name="MIXFIRST"> F  </i>
     <i type="int" name="MAXMIX">   -45</i>
     <i name="WC">    100.00000000</i>
     <i type="int" name="INIMIX">     1</i>
     <i type="int" name="MIXPRE">     1</i>
     <i type="int" name="MREMOVE">     5</i>
    </separator>
   </separator>
   <separator name="electronic dipolcorrection" >
    <i type="logical" name="LDIPOL"> F  </i>
    <i type="logical" name="LMONO"> F  </i>
    <i type="int" name="IDIPOL">     0</i>
    <i name="EPSILON">      1.00000000</i>
    <v name="DIPOL">   -100.00000000   -100.00000000   -100.00000000</v>
    <i name="EFIELD">      0.00000000</i>
   </separator>
  </separator>
  <separator name="grids" >
   <i type="int" name="NGX">    70</i>
   <i type="int" name="NGY">    70</i>
   <i type="int" name="NGZ">    70</i>
   <i type="int" name="NGXF">   140</i>
   <i type="int" name="NGYF">   140</i>
   <i type="int" name="NGZF">   140</i>
   <i type="logical" name="ADDGRID"> T  </i>
  </separator>
  <separator name="ionic" >
   <i type="int" name="NSW">     0</i>
   <i type="int" name="IBRION">    -1</i>
   <i type="int" name="MDALGO">     0</i>
   <i type="int" name="ISIF">     3</i>
   <i name="PSTRESS">      0.00000000</i>
   <i name="EDIFFG">     -0.01000000</i>
   <i type="int" name="NFREE">     1</i>
   <i name="POTIM">      0.50000000</i>
   <i name="SMASS">     -3.00000000</i>
   <i name="SCALEE">      1.00000000</i>
  </separator>
  <separator name="ionic md" >
   <i name="TEBEG">      0.00010000</i>
   <i name="TEEND">      0.00010000</i>
   <i type="int" name="NBLOCK">     1</i>
   <i type="int" name="KBLOCK">     1</i>
   <i type="int" name="NPACO">   256</i>
   <i name="APACO">     16.00000000</i>
  </separator>
  <separator name="symmetry" >
   <i type="int" name="ISYM">     2</i>
   <i name="SYMPREC">      0.00001000</i>
  </separator>
  <separator name="dos" >
   <i type="int" name="LORBIT">    10</i>
   <v name="RWIGS">     -1.00000000     -1.00000000     -1.00000000</v>
   <i type="int" name="NEDOS">   301</i>
   <i name="EMIN">     10.00000000</i>
   <i name="EMAX">    -10.00000000</i>
   <i name="EFERMI">      0.00000000</i>
  </separator>
  <separator name="writing" >
   <i type="int" name="NWRITE">     2</i>
   <i type="logical" name="LWAVE"> F  </i>
   <i type="logical" name="LDOWNSAMPLE"> F  </i>
   <i type="logical" name="LCHARG"> T  </i>
   <i type="logical" name="LPARD"> F  </i>
   <i type="logical" name="LVTOT"> F  </i>
   <i type="logical" name="LVHAR"> T  </i>
   <i type="logical" name="LELF"> F  </i>
   <i type="logical" name="LOPTICS"> F  </i>
   <v name="STM">      0.00000000      0.00000000      0.00000000      0.00000000      0.00000000      0.00000000      0.00000000</v>
  </separator>
  <separator name="performance" >
   <i type="int" name="NPAR">     8</i>
   <i type="int" name="NSIM">     4</i>
   <i type="int" name="NBLK">    -1</i>
   <i type="logical" name="LPLANE"> T  </i>
   <i type="logical" name="LSCALAPACK"> T  </i>
   <i type="logical" name="LSCAAWARE"> F  </i>
   <i type="logical" name="LSCALU"> F  </i>
   <i type="logical" name="LASYNC"> F  </i>
   <i type="logical" name="LORBITALREAL"> F  </i>
  </separator>
  <separator name="miscellaneous" >
   <i type="int" name="IDIOT">     3</i>
   <i type="int" name="ISPECIAL">     0</i>
   <i type="logical" name="LMUSIC"> F  </i>
   <v name="POMASS">    132.90000000    207.20000000     79.90400000</v>
   <v name="DARWINR">      0.00000000      0.00000000      0.00000000</v>
   <v name="DARWINV">      1.00000000      1.00000000      1.00000000</v>
   <i type="logical" name="LCORR"> T  </i>
  </separator>
  <i type="logical" name="GGA_COMPAT"> T  </i>
  <i type="logical" name="LBERRY"> F  </i>
  <i type="int" name="ICORELEVEL">     0</i>
  <i type="logical" name="LDAU"> F  </i>
  <i type="int" name="I_CONSTRAINED_M">     0</i>
  <separator name="electronic exchange-correlation" >
   <i type="string" name="GGA">--</i>
   <i type="int" name="VOSKOWN">     0</i>
   <i type="logical" name="LHFCALC"> F  </i>
   <i type="string" name="PRECFOCK"></i>
   <i type="logical" name="LSYMGRAD"> F  </i>
   <i type="logical" name="LHFONE"> F  </i>
   <i type="logical" name="LRHFCALC"> F  </i>
   <i type="logical" name="LTHOMAS"> F  </i>
   <i type="logical" name="LMODELHF"> F  </i>
   <i name="ENCUT4O">     -1.00000000</i>
   <i type="int" name="EXXOEP">     0</i>
   <i type="int" name="FOURORBIT">     0</i>
   <i name="AEXX">      0.00000000</i>
   <i name="HFALPHA">      0.00000000</i>
   <i name="MCALPHA">      0.00000000</i>
   <i name="ALDAX">      1.00000000</i>
   <i name="AGGAX">      1.00000000</i>
   <i name="ALDAC">      1.00000000</i>
   <i name="AGGAC">      1.00000000</i>
   <i type="int" name="NKREDX">     1</i>
   <i type="int" name="NKREDY">     1</i>
   <i type="int" name="NKREDZ">     1</i>
   <i type="logical" name="SHIFTRED"> F  </i>
   <i type="logical" name="ODDONLY"> F  </i>
   <i type="logical" name="EVENONLY"> F  </i>
   <i type="int" name="LMAXFOCK">     0</i>
   <i type="int" name="NMAXFOCKAE">     0</i>
   <i type="logical" name="LFOCKAEDFT"> F  </i>
   <i name="HFSCREEN">      0.00000000</i>
   <i name="HFSCREENC">      0.00000000</i>
   <i type="int" name="NBANDSGWLOW">     0</i>
  </separator>
  <separator name="vdW DFT" >
   <i type="logical" name="LUSE_VDW"> F  </i>
   <i name="Zab_VDW">     -0.84910000</i>
   <i name="PARAM1">      0.12340000</i>
   <i name="PARAM2">      1.00000000</i>
   <i name="PARAM3">      0.00000000</i>
  </separator>
  <separator name="model GW" >
   <i type="int" name="MODEL_GW">     0</i>
   <i name="MODEL_EPS0">     24.24262375</i>
   <i name="MODEL_ALPHA">      1.00000000</i>
  </separator>
  <separator name="linear response parameters" >
   <i type="logical" name="LEPSILON"> F  </i>
   <i type="logical" name="LRPA"> F  </i>
   <i type="logical" name="LNABLA"> F  </i>
   <i type="logical" name="LVEL"> F  </i>
   <i type="int" name="KINTER">     0</i>
   <i name="CSHIFT">      0.10000000</i>
   <i name="OMEGAMAX">     -1.00000000</i>
   <i name="DEG_THRESHOLD">      0.00200000</i>
   <i name="RTIME">     -0.10000000</i>
   <i name="WPLASMAI">      0.00000000</i>
   <v name="DFIELD">      0.00000000      0.00000000      0.00000000</v>
   <v name="WPLASMA">      0.00000000      0.00000000      0.00000000      0.00000000      0.00000000      0.00000000      0.00000000      0.00000000      0.00000000</v>
  </separator>
  <separator name="orbital magnetization" >
   <i type="logical" name="NUCIND"> F  </i>
   <v name="MAGPOS">      0.00000000      0.00000000      0.00000000</v>
   <i type="logical" name="LNICSALL"> T  </i>
   <i type="logical" name="ORBITALMAG"> F  </i>
   <i type="logical" name="LMAGBLOCH"> F  </i>
   <i type="logical" name="LCHIMAG"> F  </i>
   <i type="logical" name="LGAUGE"> T  </i>
   <i type="int" name="MAGATOM">     0</i>
   <v name="MAGDIPOL">      0.00000000      0.00000000      0.00000000</v>
   <v name="AVECCONST">      0.00000000      0.00000000      0.00000000</v>
  </separator>
  <separator name="response functions" >
   <i type="logical" name="LADDER"> F  </i>
   <i type="logical" name="LRPAFORCE"> F  </i>
   <i type="logical" name="LFXC"> F  </i>
   <i type="logical" name="LHARTREE"> T  </i>
   <i type="int" name="IBSE">     0</i>
   <v type="int" name="KPOINT">    -1     0     0     0</v>
   <i type="logical" name="LTCTE"> F  </i>
   <i type="logical" name="LTETE"> F  </i>
   <i type="logical" name="LTRIPLET"> F  </i>
   <i type="logical" name="LFXCEPS"> F  </i>
   <i type="logical" name="LFXHEG"> F  </i>
   <i type="int" name="NATURALO">     2</i>
   <i type="logical" name="L2ORDER"> F  </i>
   <i type="logical" name="LMP2LT"> F  </i>
   <i type="logical" name="LUSEW"> F  </i>
   <i name="ENCUTGW">     -2.00000000</i>
   <i name="ENCUTGWSOFT">     -2.00000000</i>
   <i name="ENCUTLF">     -1.00000000</i>
   <i type="int" name="LMAXMP2">    -1</i>
   <i name="SCISSOR">      0.00000000</i>
   <i type="int" name="NOMEGA">     0</i>
   <i type="int" name="NOMEGAR">     0</i>
   <i type="int" name="NBANDSGW">    -1</i>
   <i type="int" name="NBANDSO">    -1</i>
   <i type="int" name="NBANDSV">    -1</i>
   <i type="int" name="NELM">   200</i>
   <i type="int" name="NELMHF">     1</i>
   <i type="int" name="DIM">     3</i>
   <i type="int" name="ANTIRES">     0</i>
   <i name="OMEGAMAX">    -30.00000000</i>
   <i name="OMEGAMIN">    -30.00000000</i>
   <i name="OMEGATL">   -200.00000000</i>
   <i type="int" name="OMEGAGRID">   140</i>
   <i name="CSHIFT">     -0.10000000</i>
   <i type="logical" name="SELFENERGY"> F  </i>
   <i type="logical" name="LSPECTRAL"> F  </i>
   <i type="logical" name="LSPECTRALGW"> F  </i>
   <i type="logical" name="LSINGLES"> F  </i>
   <i type="logical" name="LFERMIGW"> F  </i>
   <i type="logical" name="ODDONLYGW"> F  </i>
   <i type="logical" name="EVENONLYGW"> F  </i>
   <i type="int" name="NKREDLFX">     1</i>
   <i type="int" name="NKREDLFY">     1</i>
   <i type="int" name="NKREDLFZ">     1</i>
   <i type="int" name="MAXMEM">  2800</i>
   <i type="int" name="TELESCOPE">     0</i>
   <i type="int" name="TAUPAR">     1</i>
   <i type="int" name="OMEGAPAR">    -1</i>
   <i name="LAMBDA">      1.00000000</i>
  </separator>
  <separator name="External order field" >
   <i name="OFIELD_KAPPA">      0.00000000</i>
   <v name="OFIELD_K">      0.00000000      0.00000000      0.00000000</v>
   <i name="OFIELD_Q6_NEAR">      0.00000000</i>
   <i name="OFIELD_Q6_FAR">      0.00000000</i>
   <i name="OFIELD_A">      0.00000000</i>
  </separator>
 </parameters>
 <atominfo>
  <atoms>      40 </atoms>
  <types>       3 </types>
  <array name="atoms" >
   <dimension dim="1">ion</dimension>
   <field type="string">element</field>
   <field type="int">atomtype</field>
   <set>
    <rc><c>Cs</c><c>   1</c></rc>
    <rc><c>Cs</c><c>   1</c></rc>
    <rc><c>Cs</c><c>   1</c></rc>
    <rc><c>Cs</c><c>   1</c></rc>
    <rc><c>Cs</c><c>   1</c></rc>
    <rc><c>Cs</c><c>   1</c></rc>
    <rc><c>Cs</c><c>   1</c></rc>
    <rc><c>Cs</c><c>   1</c></rc>
    <rc><c>Pb</c><c>   2</c></rc>
    <rc><c>Pb</c><c>   2</c></rc>
    <rc><c>Pb</c><c>   2</c></rc>
    <rc><c>Pb</c><c>   2</c></rc>
    <rc><c>Pb</c><c>   2</c></rc>
    <rc><c>Pb</c><c>   2</c></rc>
    <rc><c>Pb</c><c>   2</c></rc>
    <rc><c>Pb</c><c>   2</c></rc>
    <rc><c>Br</c><c>   3</c></rc>
    <rc><c>Br</c><c>   3</c></rc>
    <rc><c>Br</c><c>   3</c></rc>
    <rc><c>Br</c><c>   3</c></rc>
    <rc><c>Br</c><c>   3</c></rc>
    <rc><c>Br</c><c>   3</c></rc>
    <rc><c>Br</c><c>   3</c></rc>
    <rc><c>Br</c><c>   3</c></rc>
    <rc><c>Br</c><c>   3</c></rc>
    <rc><c>Br</c><c>   3</c></rc>
    <rc><c>Br</c><c>   3</c></rc>
    <rc><c>Br</c><c>   3</c></rc>
    <rc><c>Br</c><c>   3</c></rc>
    <rc><c>Br</c><c>   3</c></rc>
    <rc><c>Br</c><c>   3</c></rc>
    <rc><c>Br</c><c>   3</c></rc>
    <rc><c>Br</c><c>   3</c></rc>
    <rc><c>Br</c><c>   3</c></rc>
    <rc><c>Br</c><c>   3</c></rc>
    <rc><c>Br</c><c>   3</c></rc>
    <rc><c>Br</c><c>   3</c></rc>
    <rc><c>Br</c><c>   3</c></rc>
    <rc><c>Br</c><c>   3</c></rc>
    <rc><c>Br</c><c>   3</c></rc>
   </set>
  </array>
  <array name="atomtypes" >
   <dimension dim="1">type</dimension>
   <field type="int">atomspertype</field>
   <field type="string">element</field>
   <field>mass</field>
   <field>valence</field>
   <field type="string">pseudopotential</field>
   <set>
    <rc><c>   8</c><c>Cs</c><c>    132.90000000</c><c>      9.00000000</c><c>  PAW_PBE Cs_sv 08Apr2002               </c></rc>
    <rc><c>   8</c><c>Pb</c><c>    207.20000000</c><c>     14.00000000</c><c>  PAW_PBE Pb_d 06Sep2000                </c></rc>
    <rc><c>  24</c><c>Br</c><c>     79.90400000</c><c>      7.00000000</c><c>  PAW_PBE Br 06Sep2000                  </c></rc>
   </set>
  </array>
 </atominfo>
 <structure name="initialpos" >
  <crystal>
   <varray name="basis" >
    <v>      11.73535200       0.00000000       0.00000000 </v>
    <v>       0.00000000      11.73535200       0.00000000 </v>
    <v>       0.00000000       0.00000000      11.73535200 </v>
   </varray>
   <i name="volume">   1616.17491673 </i>
   <varray name="rec_basis" >
    <v>       0.08521261       0.00000000       0.00000000 </v>
    <v>       0.00000000       0.08521261       0.00000000 </v>
    <v>       0.00000000       0.00000000       0.08521261 </v>
   </varray>
  </crystal>
  <varray name="positions" >
   <v>       0.25000000       0.25000000       0.25000000 </v>
   <v>       0.25000000       0.25000000       0.75000000 </v>
   <v>       0.25000000       0.75000000       0.25000000 </v>
   <v>       0.25000000       0.75000000       0.75000000 </v>
   <v>       0.75000000       0.25000000       0.25000000 </v>
   <v>       0.75000000       0.25000000       0.75000000 </v>
   <v>       0.75000000       0.75000000       0.25000000 </v>
   <v>       0.75000000       0.75000000       0.75000000 </v>
   <v>       0.00000000       0.00000000       0.00000000 </v>
   <v>       0.00000000       0.00000000       0.50000000 </v>
   <v>       0.00000000       0.50000000       0.00000000 </v>
   <v>       0.00000000       0.50000000       0.50000000 </v>
   <v>       0.50000000       0.00000000       0.00000000 </v>
   <v>       0.50000000       0.00000000       0.50000000 </v>
   <v>       0.50000000       0.50000000       0.00000000 </v>
   <v>       0.50000000       0.50000000       0.50000000 </v>
   <v>       0.97750000       0.25000000       0.00000000 </v>
   <v>       0.02250000       0.25000000       0.50000000 </v>
   <v>       0.02250000       0.75000000       0.00000000 </v>
   <v>       0.97750000       0.75000000       0.50000000 </v>
   <v>       0.52250000       0.25000000       0.00000000 </v>
   <v>       0.47750000       0.25000000       0.50000000 </v>
   <v>       0.47750000       0.75000000       0.00000000 </v>
   <v>       0.52250000       0.75000000       0.50000000 </v>
   <v>       0.00000000       0.00000000       0.25000000 </v>
   <v>       0.00000000       0.00000000       0.75000000 </v>
   <v>       0.00000000       0.50000000       0.25000000 </v>
   <v>       0.00000000       0.50000000       0.75000000 </v>
   <v>       0.50000000       0.00000000       0.25000000 </v>
   <v>       0.50000000       0.00000000       0.75000000 </v>
   <v>       0.50000000       0.50000000       0.25000000 </v>
   <v>       0.50000000       0.50000000       0.75000000 </v>
   <v>       0.25000000       0.02250000       0.00000000 </v>
   <v>       0.25000000       0.97750000       0.50000000 </v>
   <v>       0.25000000       0.47750000       0.00000000 </v>
   <v>       0.25000000       0.52250000       0.50000000 </v>
   <v>       0.75000000       0.97750000       0.00000000 </v>
   <v>       0.75000000       0.02250000       0.50000000 </v>
   <v>       0.75000000       0.52250000       0.00000000 </v>
   <v>       0.75000000       0.47750000       0.50000000 </v>
  </varray>
 </structure>
 <calculation>
  <scstep>
   <time name="dav">   12.75   12.75</time>
   <time name="total">   14.21   14.23</time>
   <energy>
    <i name="alphaZ">    892.99476195 </i>
    <i name="ewald"> -18221.72712373 </i>
    <i name="hartreedc">  -7527.27689363 </i>
    <i name="XCdc">    924.67921344 </i>
    <i name="pawpsdc">  21633.96174531 </i>
    <i name="pawaedc"> -22707.92185401 </i>
    <i name="eentropy">     -0.00214917 </i>
    <i name="bandstr">   -233.03411367 </i>
    <i name="atom">  26580.56019858 </i>
    <i name="e_fr_energy">   1342.23378508 </i>
    <i name="e_wo_entrp">   1342.23593425 </i>
    <i name="e_0_energy">   1342.23485966 </i>
   </energy>
  </scstep>
  <scstep>
   <time name="dav">   14.05   14.10</time>
   <time name="total">   14.05   14.10</time>
   <energy>
    <i name="e_fr_energy">  -1130.47790151 </i>
    <i name="e_wo_entrp">  -1130.47790151 </i>
    <i name="e_0_energy">  -1130.47790151 </i>
   </energy>
  </scstep>
  <scstep>
   <time name="dav">   15.15   15.16</time>
   <time name="total">   15.15   15.16</time>
   <energy>
    <i name="e_fr_energy">  -1495.59525104 </i>
    <i name="e_wo_entrp">  -1495.59525104 </i>
    <i name="e_0_energy">  -1495.59525104 </i>
   </energy>
  </scstep>
  <scstep>
   <time name="dav">   13.93   13.95</time>
   <time name="total">   13.93   13.95</time>
   <energy>
    <i name="e_fr_energy">  -1507.32687146 </i>
    <i name="e_wo_entrp">  -1507.32687146 </i>
    <i name="e_0_energy">  -1507.32687146 </i>
   </energy>
  </scstep>
  <scstep>
   <time name="dav">   14.88   14.91</time>
   <time name="total">   17.94   17.98</time>
   <energy>
    <i name="e_fr_energy">  -1507.87629894 </i>
    <i name="e_wo_entrp">  -1507.87629894 </i>
    <i name="e_0_energy">  -1507.87629894 </i>
   </energy>
  </scstep>
  <scstep>
   <time name="dav">   14.50   14.50</time>
   <time name="total">   19.05   19.09</time>
   <energy>
    <i name="e_fr_energy">  -1429.30158017 </i>
    <i name="e_wo_entrp">  -1429.30158017 </i>
    <i name="e_0_energy">  -1429.30158017 </i>
   </energy>
  </scstep>
  <scstep>
   <time name="dav">   14.34   14.34</time>
   <time name="total">   18.90   18.93</time>
   <energy>
    <i name="e_fr_energy">  -1428.80687826 </i>
    <i name="e_wo_entrp">  -1428.80687826 </i>
    <i name="e_0_energy">  -1428.80687826 </i>
   </energy>
  </scstep>
  <scstep>
   <time name="dav">   14.06   14.06</time>
   <time name="total">   18.64   18.66</time>
   <energy>
    <i name="e_fr_energy">  -1428.98247408 </i>
    <i name="e_wo_entrp">  -1428.98247408 </i>
    <i name="e_0_energy">  -1428.98247408 </i>
   </energy>
  </scstep>
  <scstep>
   <time name="dav">   13.19   13.19</time>
   <time name="total">   17.77   17.79</time>
   <energy>
    <i name="e_fr_energy">  -1429.06289567 </i>
    <i name="e_wo_entrp">  -1429.06289567 </i>
    <i name="e_0_energy">  -1429.06289567 </i>
   </energy>
  </scstep>
  <scstep>
   <time name="dav">   15.45   15.45</time>
   <time name="total">   20.03   20.05</time>
   <energy>
    <i name="e_fr_energy">  -1429.06391626 </i>
    <i name="e_wo_entrp">  -1429.06391626 </i>
    <i name="e_0_energy">  -1429.06391626 </i>
   </energy>
  </scstep>
  <scstep>
   <time name="dav">   13.60   13.60</time>
   <time name="total">   18.15   18.19</time>
   <energy>
    <i name="e_fr_energy">  -1429.06674543 </i>
    <i name="e_wo_entrp">  -1429.06674543 </i>
    <i name="e_0_energy">  -1429.06674543 </i>
   </energy>
  </scstep>
  <scstep>
   <time name="dav">   13.44   13.44</time>
   <time name="total">   18.06   18.07</time>
   <energy>
    <i name="e_fr_energy">  -1429.06755053 </i>
    <i name="e_wo_entrp">  -1429.06755053 </i>
    <i name="e_0_energy">  -1429.06755053 </i>
   </energy>
  </scstep>
  <scstep>
   <time name="dav">   14.58   14.58</time>
   <time name="total">   19.14   19.19</time>
   <energy>
    <i name="e_fr_energy">  -1429.06759297 </i>
    <i name="e_wo_entrp">  -1429.06759297 </i>
    <i name="e_0_energy">  -1429.06759297 </i>
   </energy>
  </scstep>
  <scstep>
   <time name="dav">   13.18   13.18</time>
   <time name="total">   17.74   17.78</time>
   <energy>
    <i name="e_fr_energy">  -1429.06761532 </i>
    <i name="e_wo_entrp">  -1429.06761532 </i>
    <i name="e_0_energy">  -1429.06761532 </i>
   </energy>
  </scstep>
  <scstep>
   <time name="dav">   10.12   10.12</time>
   <time name="total">   14.71   14.73</time>
   <energy>
    <i name="e_fr_energy">  -1429.06760417 </i>
    <i name="e_wo_entrp">  -1429.06760417 </i>
    <i name="e_0_energy">  -1429.06760417 </i>
   </energy>
  </scstep>
  <scstep>
   <time name="dav">    9.98    9.98</time>
   <time name="total">   14.60   14.60</time>
   <energy>
    <i name="e_fr_energy">  -1429.06759816 </i>
    <i name="e_wo_entrp">  -1429.06759816 </i>
    <i name="e_0_energy">  -1429.06759816 </i>
   </energy>
  </scstep>
  <scstep>
   <time name="dav">    9.87    9.87</time>
   <time name="total">   14.50   14.50</time>
   <energy>
    <i name="e_fr_energy">  -1429.06759341 </i>
    <i name="e_wo_entrp">  -1429.06759341 </i>
    <i name="e_0_energy">  -1429.06759341 </i>
   </energy>
  </scstep>
  <scstep>
   <time name="dav">    9.90    9.90</time>
   <time name="total">   14.47   14.51</time>
   <energy>
    <i name="e_fr_energy">  -1429.06759162 </i>
    <i name="e_wo_entrp">  -1429.06759162 </i>
    <i name="e_0_energy">  -1429.06759162 </i>
   </energy>
  </scstep>
  <scstep>
   <time name="dav">    9.88    9.88</time>
   <time name="total">   11.33   11.38</time>
   <energy>
    <i name="alphaZ">    892.99476195 </i>
    <i name="ewald"> -18221.72712373 </i>
    <i name="hartreedc">  -7568.23078920 </i>
    <i name="XCdc">    964.24331847 </i>
    <i name="pawpsdc">  23309.96248572 </i>
    <i name="pawaedc"> -24384.38914250 </i>
    <i name="eentropy">     -0.00000000 </i>
    <i name="bandstr">  -3002.48130161 </i>
    <i name="atom">  26580.56019858 </i>
    <i name="e_fr_energy">  -1429.06759234 </i>
    <i name="e_wo_entrp">  -1429.06759234 </i>
    <i name="e_0_energy">  -1429.06759234 </i>
   </energy>
  </scstep>
  <structure>
   <crystal>
    <varray name="basis" >
     <v>      11.73535200       0.00000000       0.00000000 </v>
     <v>       0.00000000      11.73535200       0.00000000 </v>
     <v>       0.00000000       0.00000000      11.73535200 </v>
    </varray>
    <i name="volume">   1616.17491673 </i>
    <varray name="rec_basis" >
     <v>       0.08521261       0.00000000       0.00000000 </v>
     <v>       0.00000000       0.08521261       0.00000000 </v>
     <v>       0.00000000       0.00000000       0.08521261 </v>
    </varray>
   </crystal>
   <varray name="positions" >
    <v>       0.25000000       0.25000000       0.25000000 </v>
    <v>       0.25000000       0.25000000       0.75000000 </v>
    <v>       0.25000000       0.75000000       0.25000000 </v>
    <v>       0.25000000       0.75000000       0.75000000 </v>
    <v>       0.75000000       0.25000000       0.25000000 </v>
    <v>       0.75000000       0.25000000       0.75000000 </v>
    <v>       0.75000000       0.75000000       0.25000000 </v>
    <v>       0.75000000       0.75000000       0.75000000 </v>
    <v>       0.00000000       0.00000000       0.00000000 </v>
    <v>       0.00000000       0.00000000       0.50000000 </v>
    <v>       0.00000000       0.50000000       0.00000000 </v>
    <v>       0.00000000       0.50000000       0.50000000 </v>
    <v>       0.50000000       0.00000000       0.00000000 </v>
    <v>       0.50000000       0.00000000       0.50000000 </v>
    <v>       0.50000000       0.50000000       0.00000000 </v>
    <v>       0.50000000       0.50000000       0.50000000 </v>
    <v>       0.97750000       0.25000000       0.00000000 </v>
    <v>       0.02250000       0.25000000       0.50000000 </v>
    <v>       0.02250000       0.75000000       0.00000000 </v>
    <v>       0.97750000       0.75000000       0.50000000 </v>
    <v>       0.52250000       0.25000000       0.00000000 </v>
    <v>       0.47750000       0.25000000       0.50000000 </v>
    <v>       0.47750000       0.75000000       0.00000000 </v>
    <v>       0.52250000       0.75000000       0.50000000 </v>
    <v>       0.00000000       0.00000000       0.25000000 </v>
    <v>       0.00000000       0.00000000       0.75000000 </v>
    <v>       0.00000000       0.50000000       0.25000000 </v>
    <v>       0.00000000       0.50000000       0.75000000 </v>
    <v>       0.50000000       0.00000000       0.25000000 </v>
    <v>       0.50000000       0.00000000       0.75000000 </v>
    <v>       0.50000000       0.50000000       0.25000000 </v>
    <v>       0.50000000       0.50000000       0.75000000 </v>
    <v>       0.25000000       0.02250000       0.00000000 </v>
    <v>       0.25000000       0.97750000       0.50000000 </v>
    <v>       0.25000000       0.47750000       0.00000000 </v>
    <v>       0.25000000       0.52250000       0.50000000 </v>
    <v>       0.75000000       0.97750000       0.00000000 </v>
    <v>       0.75000000       0.02250000       0.50000000 </v>
    <v>       0.75000000       0.52250000       0.00000000 </v>
    <v>       0.75000000       0.47750000       0.50000000 </v>
   </varray>
  </structure>
  <varray name="forces" >
   <v>       0.00000000      -0.00000000       0.00000000 </v>
   <v>       0.00000000      -0.00000000       0.00000000 </v>
   <v>       0.00000000      -0.00000000       0.00000000 </v>
   <v>       0.00000000      -0.00000000       0.00000000 </v>
   <v>       0.00000000      -0.00000000       0.00000000 </v>
   <v>       0.00000000      -0.00000000       0.00000000 </v>
   <v>       0.00000000      -0.00000000       0.00000000 </v>
   <v>       0.00000000      -0.00000000       0.00000000 </v>
   <v>       0.00000000      -0.00000000       0.00000000 </v>
   <v>       0.00000000      -0.00000000       0.00000000 </v>
   <v>       0.00000000      -0.00000000       0.00000000 </v>
   <v>       0.00000000      -0.00000000       0.00000000 </v>
   <v>       0.00000000      -0.00000000       0.00000000 </v>
   <v>       0.00000000      -0.00000000       0.00000000 </v>
   <v>       0.00000000      -0.00000000       0.00000000 </v>
   <v>       0.00000000      -0.00000000       0.00000000 </v>
   <v>      -0.06445515      -0.00000000       0.00000000 </v>
   <v>       0.06445515      -0.00000000      -0.00000000 </v>
   <v>       0.06445515      -0.00000000      -0.00000000 </v>
   <v>      -0.06445515      -0.00000000      -0.00000000 </v>
   <v>       0.06445515      -0.00000000       0.00000000 </v>
   <v>      -0.06445515      -0.00000000      -0.00000000 </v>
   <v>      -0.06445515      -0.00000000       0.00000000 </v>
   <v>       0.06445515      -0.00000000      -0.00000000 </v>
   <v>       0.00000000      -0.00000000       0.00000000 </v>
   <v>       0.00000000      -0.00000000       0.00000000 </v>
   <v>       0.00000000      -0.00000000       0.00000000 </v>
   <v>       0.00000000      -0.00000000       0.00000000 </v>
   <v>       0.00000000      -0.00000000       0.00000000 </v>
   <v>       0.00000000      -0.00000000       0.00000000 </v>
   <v>       0.00000000      -0.00000000       0.00000000 </v>
   <v>       0.00000000      -0.00000000       0.00000000 </v>
   <v>       0.00000000       0.06445515      -0.00000000 </v>
   <v>       0.00000000      -0.06445515       0.00000000 </v>
   <v>       0.00000000      -0.06445515       0.00000000 </v>
   <v>       0.00000000       0.06445515      -0.00000000 </v>
   <v>       0.00000000      -0.06445515       0.00000000 </v>
   <v>       0.00000000       0.06445515      -0.00000000 </v>
   <v>       0.00000000       0.06445515      -0.00000000 </v>
   <v>       0.00000000      -0.06445515      -0.00000000 </v>
  </varray>
  <varray name="stress" >
   <v>       2.90428351       0.00000000       0.00000000 </v>
   <v>       0.00000000       2.90428351       0.00000000 </v>
   <v>      -0.00000000      -0.00000000       5.15272563 </v>
  </varray>
  <energy>
   <i name="e_fr_energy">  -1429.06759234 </i>
   <i name="e_wo_entrp">  -1429.06759234 </i>
   <i name="e_0_energy">     -0.00000000 </i>
  </energy>
  <time name="totalsc">  361.96  363.03</time>
  <eigenvalues>
   <array>
    <dimension dim="1">band</dimension>
    <dimension dim="2">kpoint</dimension>
    <dimension dim="3">spin</dimension>
    <field>eigene</field>
    <field>occ</field>
    <set>
     <set comment="spin 1">
      <set comment="kpoint 1">
       <r>  -21.0593    1.0000 </r>
       <r>  -21.0582    1.0000 </r>
       <r>  -21.0582    1.0000 </r>
       <r>  -21.0581    1.0000 </r>
       <r>  -21.0573    1.0000 </r>
       <r>  -21.0572    1.0000 </r>
       <r>  -21.0572    1.0000 </r>
       <r>  -21.0559    1.0000 </r>
       <r>  -16.3064    1.0000 </r>
       <r>  -16.3046    1.0000 </r>
       <r>  -16.3046    1.0000 </r>
       <r>  -16.2987    1.0000 </r>
       <r>  -16.2987    1.0000 </r>
       <r>  -16.2725    1.0000 </r>
       <r>  -16.2646    1.0000 </r>
       <r>  -16.2646    1.0000 </r>
       <r>  -16.2274    1.0000 </r>
       <r>  -16.2266    1.0000 </r>
       <r>  -16.2266    1.0000 </r>
       <r>  -16.1808    1.0000 </r>
       <r>  -16.1804    1.0000 </r>
       <r>  -16.1804    1.0000 </r>
       <r>  -16.1780    1.0000 </r>
       <r>  -16.1776    1.0000 </r>
       <r>  -16.0842    1.0000 </r>
       <r>  -16.0839    1.0000 </r>
       <r>  -16.0835    1.0000 </r>
       <r>  -16.0835    1.0000 </r>
       <r>  -16.0833    1.0000 </r>
       <r>  -16.0833    1.0000 </r>
       <r>  -16.0831    1.0000 </r>
       <r>  -16.0831    1.0000 </r>
       <r>  -16.0831    1.0000 </r>
       <r>  -16.0831    1.0000 </r>
       <r>  -16.0825    1.0000 </r>
       <r>  -16.0825    1.0000 </r>
       <r>  -16.0825    1.0000 </r>
       <r>  -16.0825    1.0000 </r>
       <r>  -16.0823    1.0000 </r>
       <r>  -16.0823    1.0000 </r>
       <r>  -16.0823    1.0000 </r>
       <r>  -16.0823    1.0000 </r>
       <r>  -16.0820    1.0000 </r>
       <r>  -16.0819    1.0000 </r>
       <r>  -16.0812    1.0000 </r>
       <r>  -16.0812    1.0000 </r>
       <r>  -16.0811    1.0000 </r>
       <r>  -16.0811    1.0000 </r>
       <r>  -14.3894    1.0000 </r>
       <r>  -14.1651    1.0000 </r>
       <r>  -14.1651    1.0000 </r>
       <r>  -14.1559    1.0000 </r>
       <r>  -14.0078    1.0000 </r>
       <r>  -14.0078    1.0000 </r>
       <r>  -14.0067    1.0000 </r>
       <r>  -14.0034    1.0000 </r>
       <r>  -13.9912    1.0000 </r>
       <r>  -13.9912    1.0000 </r>
       <r>  -13.9886    1.0000 </r>
       <r>  -13.9886    1.0000 </r>
       <r>  -13.9876    1.0000 </r>
       <r>  -13.9876    1.0000 </r>
       <r>  -13.9843    1.0000 </r>
       <r>  -13.9843    1.0000 </r>
       <r>  -13.9150    1.0000 </r>
       <r>  -13.9024    1.0000 </r>
       <r>  -13.9024    1.0000 </r>
       <r>  -13.6365    1.0000 </r>
       <r>  -13.6356    1.0000 </r>
       <r>  -13.6333    1.0000 </r>
       <r>  -13.6332    1.0000 </r>
       <r>  -13.6332    1.0000 </r>
       <r>   -8.2564    1.0000 </r>
       <r>   -7.6595    1.0000 </r>
       <r>   -7.6595    1.0000 </r>
       <r>   -7.6231    1.0000 </r>
       <r>   -7.4516    1.0000 </r>
       <r>   -7.4516    1.0000 </r>
       <r>   -7.4398    1.0000 </r>
       <r>   -7.4258    1.0000 </r>
       <r>   -7.4258    1.0000 </r>
       <r>   -7.4239    1.0000 </r>
       <r>   -7.4239    1.0000 </r>
       <r>   -7.4150    1.0000 </r>
       <r>   -7.4150    1.0000 </r>
       <r>   -7.4138    1.0000 </r>
       <r>   -7.4138    1.0000 </r>
       <r>   -7.4102    1.0000 </r>
       <r>   -7.4035    1.0000 </r>
       <r>   -7.4035    1.0000 </r>
       <r>   -7.4010    1.0000 </r>
       <r>   -7.4010    1.0000 </r>
       <r>   -7.3970    1.0000 </r>
       <r>   -7.3970    1.0000 </r>
       <r>   -7.3963    1.0000 </r>
       <r>   -7.3963    1.0000 </r>
       <r>   -7.3935    1.0000 </r>
       <r>   -7.3935    1.0000 </r>
       <r>   -7.3932    1.0000 </r>
       <r>   -7.3871    1.0000 </r>
       <r>   -7.0098    1.0000 </r>
       <r>   -6.9759    1.0000 </r>
       <r>   -6.9759    1.0000 </r>
       <r>   -6.2177    1.0000 </r>
       <r>   -3.4384    1.0000 </r>
       <r>   -3.4011    1.0000 </r>
       <r>   -3.4011    1.0000 </r>
       <r>   -3.3467    1.0000 </r>
       <r>   -3.3467    1.0000 </r>
       <r>   -3.3069    1.0000 </r>
       <r>   -3.3069    1.0000 </r>
       <r>   -3.3064    1.0000 </r>
       <r>   -3.3064    1.0000 </r>
       <r>   -3.2012    1.0000 </r>
       <r>   -3.1515    1.0000 </r>
       <r>   -3.1515    1.0000 </r>
       <r>   -2.1453    1.0000 </r>
       <r>   -2.1453    1.0000 </r>
       <r>   -2.1354    1.0000 </r>
       <r>   -1.9510    1.0000 </r>
       <r>   -1.9510    1.0000 </r>
       <r>   -1.9377    1.0000 </r>
       <r>   -1.8833    1.0000 </r>
       <r>   -1.8833    1.0000 </r>
       <r>   -1.8697    1.0000 </r>
       <r>   -1.5884    1.0000 </r>
       <r>   -1.5884    1.0000 </r>
       <r>   -1.5523    1.0000 </r>
       <r>   -1.5523    1.0000 </r>
       <r>   -1.5236    1.0000 </r>
       <r>   -1.5236    1.0000 </r>
       <r>   -1.4774    1.0000 </r>
       <r>   -1.4774    1.0000 </r>
       <r>   -1.4688    1.0000 </r>
       <r>   -1.4688    1.0000 </r>
       <r>   -1.4295    1.0000 </r>
       <r>   -1.4295    1.0000 </r>
       <r>   -1.3901    1.0000 </r>
       <r>   -1.3901    1.0000 </r>
       <r>   -1.3839    1.0000 </r>
       <r>   -1.3839    1.0000 </r>
       <r>   -1.3755    1.0000 </r>
       <r>   -1.3755    1.0000 </r>
       <r>   -1.3645    1.0000 </r>
       <r>   -1.3472    1.0000 </r>
       <r>   -1.3472    1.0000 </r>
       <r>   -1.3403    1.0000 </r>
       <r>   -1.3356    1.0000 </r>
       <r>   -1.3274    1.0000 </r>
       <r>   -1.3053    1.0000 </r>
       <r>   -1.3053    1.0000 </r>
       <r>   -1.2619    1.0000 </r>
       <r>   -1.2619    1.0000 </r>
       <r>   -1.2581    1.0000 </r>
       <r>   -1.2387    1.0000 </r>
       <r>   -1.2387    1.0000 </r>
       <r>   -1.2371    1.0000 </r>
       <r>   -1.2371    1.0000 </r>
       <r>   -1.2099    1.0000 </r>
       <r>   -1.2099    1.0000 </r>
       <r>   -1.1274    1.0000 </r>
       <r>   -1.1216    1.0000 </r>
       <r>   -1.1216    1.0000 </r>
       <r>   -0.7991    1.0000 </r>
       <r>   -0.7767    1.0000 </r>
       <r>   -0.7735    1.0000 </r>
       <r>   -0.7735    1.0000 </r>
       <r>   -0.7680    1.0000 </r>
       <r>   -0.7680    1.0000 </r>
       <r>   -0.5033    1.0000 </r>
       <r>   -0.5033    1.0000 </r>
       <r>   -0.4301    1.0000 </r>
       <r>    0.2332    1.0000 </r>
       <r>    0.2572    1.0000 </r>
       <r>    0.2572    1.0000 </r>
       <r>    0.9590    1.0000 </r>
       <r>    2.8302    0.0000 </r>
       <r>    2.8391    0.0000 </r>
       <r>    2.8391    0.0000 </r>
       <r>    3.3277    0.0000 </r>
       <r>    3.3277    0.0000 </r>
       <r>    3.3399    0.0000 </r>
       <r>    3.3399    0.0000 </r>
       <r>    3.3495    0.0000 </r>
       <r>    3.3495    0.0000 </r>
       <r>    3.8009    0.0000 </r>
       <r>    3.8118    0.0000 </r>
       <r>    3.8118    0.0000 </r>
       <r>    4.5748    0.0000 </r>
       <r>    5.5427    0.0000 </r>
       <r>    5.6371    0.0000 </r>
       <r>    5.9645    0.0000 </r>
       <r>    6.0457    0.0000 </r>
       <r>    6.0457    0.0000 </r>
       <r>    6.1180    0.0000 </r>
       <r>    6.1180    0.0000 </r>
       <r>    6.1917    0.0000 </r>
       <r>    6.2289    0.0000 </r>
       <r>    6.4225    0.0000 </r>
       <r>    6.4225    0.0000 </r>
       <r>    6.4688    0.0000 </r>
       <r>    6.5137    0.0000 </r>
       <r>    6.5520    0.0000 </r>
       <r>    6.5520    0.0000 </r>
       <r>    6.5868    0.0000 </r>
       <r>    6.5889    0.0000 </r>
       <r>    6.5907    0.0000 </r>
       <r>    6.5985    0.0000 </r>
       <r>    6.6032    0.0000 </r>
       <r>    6.6594    0.0000 </r>
       <r>    6.6630    0.0000 </r>
       <r>    6.6644    0.0000 </r>
       <r>    6.6807    0.0000 </r>
       <r>    6.7431    0.0000 </r>
       <r>    6.7516    0.0000 </r>
       <r>    6.7615    0.0000 </r>
      </set>
      <set comment="kpoint 2">
       <r>  -21.0589    1.0000 </r>
       <r>  -21.0589    1.0000 </r>
       <r>  -21.0576    1.0000 </r>
       <r>  -21.0576    1.0000 </r>
       <r>  -21.0575    1.0000 </r>
       <r>  -21.0575    1.0000 </r>
       <r>  -21.0567    1.0000 </r>
       <r>  -21.0567    1.0000 </r>
       <r>  -16.3050    1.0000 </r>
       <r>  -16.3050    1.0000 </r>
       <r>  -16.2839    1.0000 </r>
       <r>  -16.2839    1.0000 </r>
       <r>  -16.2763    1.0000 </r>
       <r>  -16.2763    1.0000 </r>
       <r>  -16.2639    1.0000 </r>
       <r>  -16.2639    1.0000 </r>
       <r>  -16.2228    1.0000 </r>
       <r>  -16.2228    1.0000 </r>
       <r>  -16.2097    1.0000 </r>
       <r>  -16.2097    1.0000 </r>
       <r>  -16.2075    1.0000 </r>
       <r>  -16.2075    1.0000 </r>
       <r>  -16.1802    1.0000 </r>
       <r>  -16.1802    1.0000 </r>
       <r>  -16.0837    1.0000 </r>
       <r>  -16.0837    1.0000 </r>
       <r>  -16.0835    1.0000 </r>
       <r>  -16.0835    1.0000 </r>
       <r>  -16.0835    1.0000 </r>
       <r>  -16.0835    1.0000 </r>
       <r>  -16.0829    1.0000 </r>
       <r>  -16.0829    1.0000 </r>
       <r>  -16.0828    1.0000 </r>
       <r>  -16.0828    1.0000 </r>
       <r>  -16.0826    1.0000 </r>
       <r>  -16.0826    1.0000 </r>
       <r>  -16.0823    1.0000 </r>
       <r>  -16.0823    1.0000 </r>
       <r>  -16.0822    1.0000 </r>
       <r>  -16.0822    1.0000 </r>
       <r>  -16.0822    1.0000 </r>
       <r>  -16.0822    1.0000 </r>
       <r>  -16.0818    1.0000 </r>
       <r>  -16.0818    1.0000 </r>
       <r>  -16.0815    1.0000 </r>
       <r>  -16.0815    1.0000 </r>
       <r>  -16.0814    1.0000 </r>
       <r>  -16.0814    1.0000 </r>
       <r>  -14.3185    1.0000 </r>
       <r>  -14.3185    1.0000 </r>
       <r>  -14.1148    1.0000 </r>
       <r>  -14.1148    1.0000 </r>
       <r>  -14.1072    1.0000 </r>
       <r>  -14.1072    1.0000 </r>
       <r>  -14.0072    1.0000 </r>
       <r>  -14.0072    1.0000 </r>
       <r>  -14.0057    1.0000 </r>
       <r>  -14.0057    1.0000 </r>
       <r>  -13.9886    1.0000 </r>
       <r>  -13.9886    1.0000 </r>
       <r>  -13.9872    1.0000 </r>
       <r>  -13.9872    1.0000 </r>
       <r>  -13.9422    1.0000 </r>
       <r>  -13.9422    1.0000 </r>
       <r>  -13.7706    1.0000 </r>
       <r>  -13.7706    1.0000 </r>
       <r>  -13.7349    1.0000 </r>
       <r>  -13.7349    1.0000 </r>
       <r>  -13.7324    1.0000 </r>
       <r>  -13.7324    1.0000 </r>
       <r>  -13.6345    1.0000 </r>
       <r>  -13.6345    1.0000 </r>
       <r>   -7.9875    1.0000 </r>
       <r>   -7.9875    1.0000 </r>
       <r>   -7.4388    1.0000 </r>
       <r>   -7.4388    1.0000 </r>
       <r>   -7.4277    1.0000 </r>
       <r>   -7.4277    1.0000 </r>
       <r>   -7.4273    1.0000 </r>
       <r>   -7.4273    1.0000 </r>
       <r>   -7.4229    1.0000 </r>
       <r>   -7.4229    1.0000 </r>
       <r>   -7.4146    1.0000 </r>
       <r>   -7.4146    1.0000 </r>
       <r>   -7.4135    1.0000 </r>
       <r>   -7.4135    1.0000 </r>
       <r>   -7.4070    1.0000 </r>
       <r>   -7.4070    1.0000 </r>
       <r>   -7.4065    1.0000 </r>
       <r>   -7.4065    1.0000 </r>
       <r>   -7.4046    1.0000 </r>
       <r>   -7.4046    1.0000 </r>
       <r>   -7.4037    1.0000 </r>
       <r>   -7.4037    1.0000 </r>
       <r>   -7.3984    1.0000 </r>
       <r>   -7.3984    1.0000 </r>
       <r>   -7.3919    1.0000 </r>
       <r>   -7.3919    1.0000 </r>
       <r>   -7.3595    1.0000 </r>
       <r>   -7.3595    1.0000 </r>
       <r>   -7.3417    1.0000 </r>
       <r>   -7.3417    1.0000 </r>
       <r>   -6.6654    1.0000 </r>
       <r>   -6.6654    1.0000 </r>
       <r>   -3.3940    1.0000 </r>
       <r>   -3.3940    1.0000 </r>
       <r>   -3.3543    1.0000 </r>
       <r>   -3.3543    1.0000 </r>
       <r>   -3.2778    1.0000 </r>
       <r>   -3.2778    1.0000 </r>
       <r>   -3.2355    1.0000 </r>
       <r>   -3.2355    1.0000 </r>
       <r>   -2.4613    1.0000 </r>
       <r>   -2.4613    1.0000 </r>
       <r>   -2.4287    1.0000 </r>
       <r>   -2.4287    1.0000 </r>
       <r>   -2.4184    1.0000 </r>
       <r>   -2.4184    1.0000 </r>
       <r>   -2.2813    1.0000 </r>
       <r>   -2.2813    1.0000 </r>
       <r>   -2.0492    1.0000 </r>
       <r>   -2.0492    1.0000 </r>
       <r>   -2.0173    1.0000 </r>
       <r>   -2.0173    1.0000 </r>
       <r>   -2.0059    1.0000 </r>
       <r>   -2.0059    1.0000 </r>
       <r>   -1.8367    1.0000 </r>
       <r>   -1.8367    1.0000 </r>
       <r>   -1.8201    1.0000 </r>
       <r>   -1.8201    1.0000 </r>
       <r>   -1.5557    1.0000 </r>
       <r>   -1.5557    1.0000 </r>
       <r>   -1.5428    1.0000 </r>
       <r>   -1.5428    1.0000 </r>
       <r>   -1.4391    1.0000 </r>
       <r>   -1.4391    1.0000 </r>
       <r>   -1.4205    1.0000 </r>
       <r>   -1.4205    1.0000 </r>
       <r>   -1.3459    1.0000 </r>
       <r>   -1.3459    1.0000 </r>
       <r>   -1.3439    1.0000 </r>
       <r>   -1.3439    1.0000 </r>
       <r>   -1.3378    1.0000 </r>
       <r>   -1.3378    1.0000 </r>
       <r>   -1.3159    1.0000 </r>
       <r>   -1.3159    1.0000 </r>
       <r>   -1.3128    1.0000 </r>
       <r>   -1.3128    1.0000 </r>
       <r>   -1.2791    1.0000 </r>
       <r>   -1.2791    1.0000 </r>
       <r>   -1.2572    1.0000 </r>
       <r>   -1.2572    1.0000 </r>
       <r>   -1.2447    1.0000 </r>
       <r>   -1.2447    1.0000 </r>
       <r>   -1.1876    1.0000 </r>
       <r>   -1.1876    1.0000 </r>
       <r>   -1.1818    1.0000 </r>
       <r>   -1.1818    1.0000 </r>
       <r>   -1.1248    1.0000 </r>
       <r>   -1.1248    1.0000 </r>
       <r>   -1.0262    1.0000 </r>
       <r>   -1.0262    1.0000 </r>
       <r>   -0.9898    1.0000 </r>
       <r>   -0.9898    1.0000 </r>
       <r>   -0.9802    1.0000 </r>
       <r>   -0.9802    1.0000 </r>
       <r>   -0.9717    1.0000 </r>
       <r>   -0.9717    1.0000 </r>
       <r>   -0.7704    1.0000 </r>
       <r>   -0.7704    1.0000 </r>
       <r>   -0.3242    1.0000 </r>
       <r>   -0.3242    1.0000 </r>
       <r>   -0.2707    1.0000 </r>
       <r>   -0.2707    1.0000 </r>
       <r>    0.4105    1.0000 </r>
       <r>    0.4105    1.0000 </r>
       <r>    3.0895    0.0000 </r>
       <r>    3.0895    0.0000 </r>
       <r>    3.0895    0.0000 </r>
       <r>    3.0895    0.0000 </r>
       <r>    3.5690    0.0000 </r>
       <r>    3.5690    0.0000 </r>
       <r>    3.5698    0.0000 </r>
       <r>    3.5698    0.0000 </r>
       <r>    4.5718    0.0000 </r>
       <r>    4.5718    0.0000 </r>
       <r>    5.0376    0.0000 </r>
       <r>    5.0376    0.0000 </r>
       <r>    5.0409    0.0000 </r>
       <r>    5.0409    0.0000 </r>
       <r>    5.1229    0.0000 </r>
       <r>    5.1229    0.0000 </r>
       <r>    5.5459    0.0000 </r>
       <r>    5.5459    0.0000 </r>
       <r>    5.9401    0.0000 </r>
       <r>    5.9401    0.0000 </r>
       <r>    6.0808    0.0000 </r>
       <r>    6.0808    0.0000 </r>
       <r>    6.3133    0.0000 </r>
       <r>    6.3133    0.0000 </r>
       <r>    6.3991    0.0000 </r>
       <r>    6.3992    0.0000 </r>
       <r>    6.4357    0.0000 </r>
       <r>    6.4357    0.0000 </r>
       <r>    6.5161    0.0000 </r>
       <r>    6.5161    0.0000 </r>
       <r>    6.5666    0.0000 </r>
       <r>    6.5674    0.0000 </r>
       <r>    6.5860    0.0000 </r>
       <r>    6.5891    0.0000 </r>
       <r>    6.6215    0.0000 </r>
       <r>    6.6258    0.0000 </r>
       <r>    6.6908    0.0000 </r>
       <r>    6.7026    0.0000 </r>
       <r>    6.7200    0.0000 </r>
       <r>    6.7320    0.0000 </r>
      </set>
      <set comment="kpoint 3">
       <r>  -21.0582    1.0000 </r>
       <r>  -21.0582    1.0000 </r>
       <r>  -21.0582    1.0000 </r>
       <r>  -21.0582    1.0000 </r>
       <r>  -21.0571    1.0000 </r>
       <r>  -21.0571    1.0000 </r>
       <r>  -21.0571    1.0000 </r>
       <r>  -21.0571    1.0000 </r>
       <r>  -16.2892    1.0000 </r>
       <r>  -16.2892    1.0000 </r>
       <r>  -16.2892    1.0000 </r>
       <r>  -16.2892    1.0000 </r>
       <r>  -16.2416    1.0000 </r>
       <r>  -16.2416    1.0000 </r>
       <r>  -16.2416    1.0000 </r>
       <r>  -16.2416    1.0000 </r>
       <r>  -16.2416    1.0000 </r>
       <r>  -16.2416    1.0000 </r>
       <r>  -16.2416    1.0000 </r>
       <r>  -16.2416    1.0000 </r>
       <r>  -16.2039    1.0000 </r>
       <r>  -16.2039    1.0000 </r>
       <r>  -16.2039    1.0000 </r>
       <r>  -16.2039    1.0000 </r>
       <r>  -16.0831    1.0000 </r>
       <r>  -16.0831    1.0000 </r>
       <r>  -16.0831    1.0000 </r>
       <r>  -16.0831    1.0000 </r>
       <r>  -16.0831    1.0000 </r>
       <r>  -16.0831    1.0000 </r>
       <r>  -16.0831    1.0000 </r>
       <r>  -16.0831    1.0000 </r>
       <r>  -16.0829    1.0000 </r>
       <r>  -16.0829    1.0000 </r>
       <r>  -16.0829    1.0000 </r>
       <r>  -16.0829    1.0000 </r>
       <r>  -16.0829    1.0000 </r>
       <r>  -16.0829    1.0000 </r>
       <r>  -16.0829    1.0000 </r>
       <r>  -16.0829    1.0000 </r>
       <r>  -16.0817    1.0000 </r>
       <r>  -16.0817    1.0000 </r>
       <r>  -16.0817    1.0000 </r>
       <r>  -16.0817    1.0000 </r>
       <r>  -16.0816    1.0000 </r>
       <r>  -16.0816    1.0000 </r>
       <r>  -16.0816    1.0000 </r>
       <r>  -16.0816    1.0000 </r>
       <r>  -14.2565    1.0000 </r>
       <r>  -14.2565    1.0000 </r>
       <r>  -14.2565    1.0000 </r>
       <r>  -14.2565    1.0000 </r>
       <r>  -14.0746    1.0000 </r>
       <r>  -14.0746    1.0000 </r>
       <r>  -14.0746    1.0000 </r>
       <r>  -14.0746    1.0000 </r>
       <r>  -14.0064    1.0000 </r>
       <r>  -14.0064    1.0000 </r>
       <r>  -14.0064    1.0000 </r>
       <r>  -14.0064    1.0000 </r>
       <r>  -13.8125    1.0000 </r>
       <r>  -13.8125    1.0000 </r>
       <r>  -13.8125    1.0000 </r>
       <r>  -13.8125    1.0000 </r>
       <r>  -13.8087    1.0000 </r>
       <r>  -13.8087    1.0000 </r>
       <r>  -13.8087    1.0000 </r>
       <r>  -13.8087    1.0000 </r>
       <r>  -13.7111    1.0000 </r>
       <r>  -13.7111    1.0000 </r>
       <r>  -13.7111    1.0000 </r>
       <r>  -13.7111    1.0000 </r>
       <r>   -7.7182    1.0000 </r>
       <r>   -7.7182    1.0000 </r>
       <r>   -7.7182    1.0000 </r>
       <r>   -7.7182    1.0000 </r>
       <r>   -7.4276    1.0000 </r>
       <r>   -7.4276    1.0000 </r>
       <r>   -7.4276    1.0000 </r>
       <r>   -7.4276    1.0000 </r>
       <r>   -7.4170    1.0000 </r>
       <r>   -7.4170    1.0000 </r>
       <r>   -7.4170    1.0000 </r>
       <r>   -7.4170    1.0000 </r>
       <r>   -7.4142    1.0000 </r>
       <r>   -7.4142    1.0000 </r>
       <r>   -7.4142    1.0000 </r>
       <r>   -7.4142    1.0000 </r>
       <r>   -7.4099    1.0000 </r>
       <r>   -7.4099    1.0000 </r>
       <r>   -7.4099    1.0000 </r>
       <r>   -7.4099    1.0000 </r>
       <r>   -7.4015    1.0000 </r>
       <r>   -7.4015    1.0000 </r>
       <r>   -7.4015    1.0000 </r>
       <r>   -7.4015    1.0000 </r>
       <r>   -7.3978    1.0000 </r>
       <r>   -7.3978    1.0000 </r>
       <r>   -7.3978    1.0000 </r>
       <r>   -7.3978    1.0000 </r>
       <r>   -7.0546    1.0000 </r>
       <r>   -7.0546    1.0000 </r>
       <r>   -7.0546    1.0000 </r>
       <r>   -7.0546    1.0000 </r>
       <r>   -3.3383    1.0000 </r>
       <r>   -3.3383    1.0000 </r>
       <r>   -3.3383    1.0000 </r>
       <r>   -3.3383    1.0000 </r>
       <r>   -2.6457    1.0000 </r>
       <r>   -2.6457    1.0000 </r>
       <r>   -2.6457    1.0000 </r>
       <r>   -2.6457    1.0000 </r>
       <r>   -2.5027    1.0000 </r>
       <r>   -2.5027    1.0000 </r>
       <r>   -2.5027    1.0000 </r>
       <r>   -2.5027    1.0000 </r>
       <r>   -2.2705    1.0000 </r>
       <r>   -2.2705    1.0000 </r>
       <r>   -2.2705    1.0000 </r>
       <r>   -2.2705    1.0000 </r>
       <r>   -2.2248    1.0000 </r>
       <r>   -2.2248    1.0000 </r>
       <r>   -2.2248    1.0000 </r>
       <r>   -2.2248    1.0000 </r>
       <r>   -2.0057    1.0000 </r>
       <r>   -2.0057    1.0000 </r>
       <r>   -2.0057    1.0000 </r>
       <r>   -2.0057    1.0000 </r>
       <r>   -1.8016    1.0000 </r>
       <r>   -1.8016    1.0000 </r>
       <r>   -1.8016    1.0000 </r>
       <r>   -1.8016    1.0000 </r>
       <r>   -1.5823    1.0000 </r>
       <r>   -1.5823    1.0000 </r>
       <r>   -1.5823    1.0000 </r>
       <r>   -1.5823    1.0000 </r>
       <r>   -1.5469    1.0000 </r>
       <r>   -1.5469    1.0000 </r>
       <r>   -1.5469    1.0000 </r>
       <r>   -1.5469    1.0000 </r>
       <r>   -1.3628    1.0000 </r>
       <r>   -1.3628    1.0000 </r>
       <r>   -1.3628    1.0000 </r>
       <r>   -1.3628    1.0000 </r>
       <r>   -1.2728    1.0000 </r>
       <r>   -1.2728    1.0000 </r>
       <r>   -1.2728    1.0000 </r>
       <r>   -1.2728    1.0000 </r>
       <r>   -1.2384    1.0000 </r>
       <r>   -1.2384    1.0000 </r>
       <r>   -1.2384    1.0000 </r>
       <r>   -1.2384    1.0000 </r>
       <r>   -1.0880    1.0000 </r>
       <r>   -1.0880    1.0000 </r>
       <r>   -1.0880    1.0000 </r>
       <r>   -1.0880    1.0000 </r>
       <r>   -1.0817    1.0000 </r>
       <r>   -1.0817    1.0000 </r>
       <r>   -1.0817    1.0000 </r>
       <r>   -1.0817    1.0000 </r>
       <r>   -1.0125    1.0000 </r>
       <r>   -1.0125    1.0000 </r>
       <r>   -1.0125    1.0000 </r>
       <r>   -1.0125    1.0000 </r>
       <r>   -0.9466    1.0000 </r>
       <r>   -0.9466    1.0000 </r>
       <r>   -0.9466    1.0000 </r>
       <r>   -0.9466    1.0000 </r>
       <r>   -0.9338    1.0000 </r>
       <r>   -0.9338    1.0000 </r>
       <r>   -0.9338    1.0000 </r>
       <r>   -0.9338    1.0000 </r>
       <r>   -0.1392    1.0000 </r>
       <r>   -0.1392    1.0000 </r>
       <r>   -0.1392    1.0000 </r>
       <r>   -0.1392    1.0000 </r>
       <r>    3.3309    0.0000 </r>
       <r>    3.3309    0.0000 </r>
       <r>    3.3309    0.0000 </r>
       <r>    3.3309    0.0000 </r>
       <r>    4.7119    0.0000 </r>
       <r>    4.7119    0.0000 </r>
       <r>    4.7119    0.0000 </r>
       <r>    4.7119    0.0000 </r>
       <r>    4.8244    0.0000 </r>
       <r>    4.8244    0.0000 </r>
       <r>    4.8244    0.0000 </r>
       <r>    4.8244    0.0000 </r>
       <r>    5.1833    0.0000 </r>
       <r>    5.1833    0.0000 </r>
       <r>    5.1833    0.0000 </r>
       <r>    5.1833    0.0000 </r>
       <r>    5.1869    0.0000 </r>
       <r>    5.1869    0.0000 </r>
       <r>    5.1869    0.0000 </r>
       <r>    5.1869    0.0000 </r>
       <r>    5.7777    0.0000 </r>
       <r>    5.7777    0.0000 </r>
       <r>    5.7777    0.0000 </r>
       <r>    5.7777    0.0000 </r>
       <r>    6.3603    0.0000 </r>
       <r>    6.3603    0.0000 </r>
       <r>    6.3603    0.0000 </r>
       <r>    6.3603    0.0000 </r>
       <r>    6.3736    0.0000 </r>
       <r>    6.3736    0.0000 </r>
       <r>    6.3736    0.0000 </r>
       <r>    6.3736    0.0000 </r>
       <r>    6.4141    0.0000 </r>
       <r>    6.4141    0.0000 </r>
       <r>    6.4141    0.0000 </r>
       <r>    6.4141    0.0000 </r>
       <r>    6.4925    0.0000 </r>
       <r>    6.4925    0.0000 </r>
       <r>    6.4925    0.0000 </r>
       <r>    6.4925    0.0000 </r>
      </set>
      <set comment="kpoint 4">
       <r>  -21.0588    1.0000 </r>
       <r>  -21.0588    1.0000 </r>
       <r>  -21.0575    1.0000 </r>
       <r>  -21.0575    1.0000 </r>
       <r>  -21.0575    1.0000 </r>
       <r>  -21.0575    1.0000 </r>
       <r>  -21.0568    1.0000 </r>
       <r>  -21.0568    1.0000 </r>
       <r>  -16.2989    1.0000 </r>
       <r>  -16.2989    1.0000 </r>
       <r>  -16.2787    1.0000 </r>
       <r>  -16.2787    1.0000 </r>
       <r>  -16.2787    1.0000 </r>
       <r>  -16.2787    1.0000 </r>
       <r>  -16.2675    1.0000 </r>
       <r>  -16.2675    1.0000 </r>
       <r>  -16.2280    1.0000 </r>
       <r>  -16.2280    1.0000 </r>
       <r>  -16.2100    1.0000 </r>
       <r>  -16.2100    1.0000 </r>
       <r>  -16.2100    1.0000 </r>
       <r>  -16.2100    1.0000 </r>
       <r>  -16.1779    1.0000 </r>
       <r>  -16.1779    1.0000 </r>
       <r>  -16.0843    1.0000 </r>
       <r>  -16.0843    1.0000 </r>
       <r>  -16.0830    1.0000 </r>
       <r>  -16.0830    1.0000 </r>
       <r>  -16.0830    1.0000 </r>
       <r>  -16.0830    1.0000 </r>
       <r>  -16.0829    1.0000 </r>
       <r>  -16.0829    1.0000 </r>
       <r>  -16.0829    1.0000 </r>
       <r>  -16.0829    1.0000 </r>
       <r>  -16.0828    1.0000 </r>
       <r>  -16.0828    1.0000 </r>
       <r>  -16.0828    1.0000 </r>
       <r>  -16.0828    1.0000 </r>
       <r>  -16.0822    1.0000 </r>
       <r>  -16.0822    1.0000 </r>
       <r>  -16.0819    1.0000 </r>
       <r>  -16.0819    1.0000 </r>
       <r>  -16.0819    1.0000 </r>
       <r>  -16.0819    1.0000 </r>
       <r>  -16.0816    1.0000 </r>
       <r>  -16.0816    1.0000 </r>
       <r>  -16.0816    1.0000 </r>
       <r>  -16.0816    1.0000 </r>
       <r>  -14.3187    1.0000 </r>
       <r>  -14.3187    1.0000 </r>
       <r>  -14.1181    1.0000 </r>
       <r>  -14.1181    1.0000 </r>
       <r>  -14.1181    1.0000 </r>
       <r>  -14.1181    1.0000 </r>
       <r>  -13.9894    1.0000 </r>
       <r>  -13.9894    1.0000 </r>
       <r>  -13.9894    1.0000 </r>
       <r>  -13.9894    1.0000 </r>
       <r>  -13.9865    1.0000 </r>
       <r>  -13.9865    1.0000 </r>
       <r>  -13.9865    1.0000 </r>
       <r>  -13.9865    1.0000 </r>
       <r>  -13.9578    1.0000 </r>
       <r>  -13.9578    1.0000 </r>
       <r>  -13.7743    1.0000 </r>
       <r>  -13.7743    1.0000 </r>
       <r>  -13.7347    1.0000 </r>
       <r>  -13.7347    1.0000 </r>
       <r>  -13.7347    1.0000 </r>
       <r>  -13.7347    1.0000 </r>
       <r>  -13.6350    1.0000 </r>
       <r>  -13.6350    1.0000 </r>
       <r>   -7.9742    1.0000 </r>
       <r>   -7.9742    1.0000 </r>
       <r>   -7.4386    1.0000 </r>
       <r>   -7.4386    1.0000 </r>
       <r>   -7.4386    1.0000 </r>
       <r>   -7.4386    1.0000 </r>
       <r>   -7.4150    1.0000 </r>
       <r>   -7.4150    1.0000 </r>
       <r>   -7.4150    1.0000 </r>
       <r>   -7.4150    1.0000 </r>
       <r>   -7.4138    1.0000 </r>
       <r>   -7.4138    1.0000 </r>
       <r>   -7.4082    1.0000 </r>
       <r>   -7.4082    1.0000 </r>
       <r>   -7.4082    1.0000 </r>
       <r>   -7.4082    1.0000 </r>
       <r>   -7.4081    1.0000 </r>
       <r>   -7.4081    1.0000 </r>
       <r>   -7.4081    1.0000 </r>
       <r>   -7.4081    1.0000 </r>
       <r>   -7.4060    1.0000 </r>
       <r>   -7.4060    1.0000 </r>
       <r>   -7.4060    1.0000 </r>
       <r>   -7.4060    1.0000 </r>
       <r>   -7.4010    1.0000 </r>
       <r>   -7.4010    1.0000 </r>
       <r>   -7.3501    1.0000 </r>
       <r>   -7.3501    1.0000 </r>
       <r>   -7.3501    1.0000 </r>
       <r>   -7.3501    1.0000 </r>
       <r>   -6.6886    1.0000 </r>
       <r>   -6.6886    1.0000 </r>
       <r>   -3.3554    1.0000 </r>
       <r>   -3.3554    1.0000 </r>
       <r>   -3.3554    1.0000 </r>
       <r>   -3.3554    1.0000 </r>
       <r>   -3.2334    1.0000 </r>
       <r>   -3.2334    1.0000 </r>
       <r>   -3.2334    1.0000 </r>
       <r>   -3.2334    1.0000 </r>
       <r>   -2.4536    1.0000 </r>
       <r>   -2.4536    1.0000 </r>
       <r>   -2.4207    1.0000 </r>
       <r>   -2.4207    1.0000 </r>
       <r>   -2.4207    1.0000 </r>
       <r>   -2.4207    1.0000 </r>
       <r>   -2.2871    1.0000 </r>
       <r>   -2.2871    1.0000 </r>
       <r>   -2.0389    1.0000 </r>
       <r>   -2.0389    1.0000 </r>
       <r>   -2.0266    1.0000 </r>
       <r>   -2.0266    1.0000 </r>
       <r>   -2.0266    1.0000 </r>
       <r>   -2.0266    1.0000 </r>
       <r>   -1.8396    1.0000 </r>
       <r>   -1.8396    1.0000 </r>
       <r>   -1.8396    1.0000 </r>
       <r>   -1.8396    1.0000 </r>
       <r>   -1.5552    1.0000 </r>
       <r>   -1.5552    1.0000 </r>
       <r>   -1.5552    1.0000 </r>
       <r>   -1.5552    1.0000 </r>
       <r>   -1.3950    1.0000 </r>
       <r>   -1.3950    1.0000 </r>
       <r>   -1.3950    1.0000 </r>
       <r>   -1.3950    1.0000 </r>
       <r>   -1.3487    1.0000 </r>
       <r>   -1.3487    1.0000 </r>
       <r>   -1.3487    1.0000 </r>
       <r>   -1.3487    1.0000 </r>
       <r>   -1.3379    1.0000 </r>
       <r>   -1.3379    1.0000 </r>
       <r>   -1.3318    1.0000 </r>
       <r>   -1.3318    1.0000 </r>
       <r>   -1.3318    1.0000 </r>
       <r>   -1.3318    1.0000 </r>
       <r>   -1.3106    1.0000 </r>
       <r>   -1.3106    1.0000 </r>
       <r>   -1.2557    1.0000 </r>
       <r>   -1.2557    1.0000 </r>
       <r>   -1.2557    1.0000 </r>
       <r>   -1.2557    1.0000 </r>
       <r>   -1.1814    1.0000 </r>
       <r>   -1.1814    1.0000 </r>
       <r>   -1.1814    1.0000 </r>
       <r>   -1.1814    1.0000 </r>
       <r>   -1.1054    1.0000 </r>
       <r>   -1.1054    1.0000 </r>
       <r>   -1.0123    1.0000 </r>
       <r>   -1.0123    1.0000 </r>
       <r>   -1.0123    1.0000 </r>
       <r>   -1.0123    1.0000 </r>
       <r>   -0.9835    1.0000 </r>
       <r>   -0.9835    1.0000 </r>
       <r>   -0.9835    1.0000 </r>
       <r>   -0.9835    1.0000 </r>
       <r>   -0.7578    1.0000 </r>
       <r>   -0.7578    1.0000 </r>
       <r>   -0.3253    1.0000 </r>
       <r>   -0.3253    1.0000 </r>
       <r>   -0.3253    1.0000 </r>
       <r>   -0.3253    1.0000 </r>
       <r>    0.3847    1.0000 </r>
       <r>    0.3847    1.0000 </r>
       <r>    3.0983    0.0000 </r>
       <r>    3.0983    0.0000 </r>
       <r>    3.0983    0.0000 </r>
       <r>    3.0983    0.0000 </r>
       <r>    3.5698    0.0000 </r>
       <r>    3.5698    0.0000 </r>
       <r>    3.5698    0.0000 </r>
       <r>    3.5698    0.0000 </r>
       <r>    4.6308    0.0000 </r>
       <r>    4.6308    0.0000 </r>
       <r>    5.0959    0.0000 </r>
       <r>    5.0959    0.0000 </r>
       <r>    5.0959    0.0000 </r>
       <r>    5.0959    0.0000 </r>
       <r>    5.1194    0.0000 </r>
       <r>    5.1194    0.0000 </r>
       <r>    5.5981    0.0000 </r>
       <r>    5.5981    0.0000 </r>
       <r>    5.9379    0.0000 </r>
       <r>    5.9379    0.0000 </r>
       <r>    6.0026    0.0000 </r>
       <r>    6.0026    0.0000 </r>
       <r>    6.3020    0.0000 </r>
       <r>    6.3020    0.0000 </r>
       <r>    6.3020    0.0000 </r>
       <r>    6.3021    0.0000 </r>
       <r>    6.5084    0.0000 </r>
       <r>    6.5084    0.0000 </r>
       <r>    6.5084    0.0000 </r>
       <r>    6.5085    0.0000 </r>
       <r>    6.5977    0.0000 </r>
       <r>    6.5977    0.0000 </r>
       <r>    6.6002    0.0000 </r>
       <r>    6.6038    0.0000 </r>
       <r>    6.6606    0.0000 </r>
       <r>    6.6647    0.0000 </r>
       <r>    6.6734    0.0000 </r>
       <r>    6.6744    0.0000 </r>
       <r>    6.6998    0.0000 </r>
       <r>    6.6999    0.0000 </r>
      </set>
      <set comment="kpoint 5">
       <r>  -21.0582    1.0000 </r>
       <r>  -21.0582    1.0000 </r>
       <r>  -21.0582    1.0000 </r>
       <r>  -21.0582    1.0000 </r>
       <r>  -21.0572    1.0000 </r>
       <r>  -21.0572    1.0000 </r>
       <r>  -21.0572    1.0000 </r>
       <r>  -21.0572    1.0000 </r>
       <r>  -16.2825    1.0000 </r>
       <r>  -16.2825    1.0000 </r>
       <r>  -16.2825    1.0000 </r>
       <r>  -16.2825    1.0000 </r>
       <r>  -16.2460    1.0000 </r>
       <r>  -16.2460    1.0000 </r>
       <r>  -16.2460    1.0000 </r>
       <r>  -16.2460    1.0000 </r>
       <r>  -16.2457    1.0000 </r>
       <r>  -16.2457    1.0000 </r>
       <r>  -16.2457    1.0000 </r>
       <r>  -16.2457    1.0000 </r>
       <r>  -16.2022    1.0000 </r>
       <r>  -16.2022    1.0000 </r>
       <r>  -16.2022    1.0000 </r>
       <r>  -16.2022    1.0000 </r>
       <r>  -16.0836    1.0000 </r>
       <r>  -16.0836    1.0000 </r>
       <r>  -16.0836    1.0000 </r>
       <r>  -16.0836    1.0000 </r>
       <r>  -16.0829    1.0000 </r>
       <r>  -16.0829    1.0000 </r>
       <r>  -16.0829    1.0000 </r>
       <r>  -16.0829    1.0000 </r>
       <r>  -16.0825    1.0000 </r>
       <r>  -16.0825    1.0000 </r>
       <r>  -16.0825    1.0000 </r>
       <r>  -16.0825    1.0000 </r>
       <r>  -16.0823    1.0000 </r>
       <r>  -16.0823    1.0000 </r>
       <r>  -16.0823    1.0000 </r>
       <r>  -16.0823    1.0000 </r>
       <r>  -16.0823    1.0000 </r>
       <r>  -16.0823    1.0000 </r>
       <r>  -16.0823    1.0000 </r>
       <r>  -16.0823    1.0000 </r>
       <r>  -16.0817    1.0000 </r>
       <r>  -16.0817    1.0000 </r>
       <r>  -16.0817    1.0000 </r>
       <r>  -16.0817    1.0000 </r>
       <r>  -14.2572    1.0000 </r>
       <r>  -14.2572    1.0000 </r>
       <r>  -14.2572    1.0000 </r>
       <r>  -14.2572    1.0000 </r>
       <r>  -14.0842    1.0000 </r>
       <r>  -14.0842    1.0000 </r>
       <r>  -14.0842    1.0000 </r>
       <r>  -14.0842    1.0000 </r>
       <r>  -13.9879    1.0000 </r>
       <r>  -13.9879    1.0000 </r>
       <r>  -13.9879    1.0000 </r>
       <r>  -13.9879    1.0000 </r>
       <r>  -13.8173    1.0000 </r>
       <r>  -13.8173    1.0000 </r>
       <r>  -13.8173    1.0000 </r>
       <r>  -13.8173    1.0000 </r>
       <r>  -13.8132    1.0000 </r>
       <r>  -13.8132    1.0000 </r>
       <r>  -13.8132    1.0000 </r>
       <r>  -13.8132    1.0000 </r>
       <r>  -13.7096    1.0000 </r>
       <r>  -13.7096    1.0000 </r>
       <r>  -13.7096    1.0000 </r>
       <r>  -13.7096    1.0000 </r>
       <r>   -7.7046    1.0000 </r>
       <r>   -7.7046    1.0000 </r>
       <r>   -7.7046    1.0000 </r>
       <r>   -7.7046    1.0000 </r>
       <r>   -7.4263    1.0000 </r>
       <r>   -7.4263    1.0000 </r>
       <r>   -7.4263    1.0000 </r>
       <r>   -7.4263    1.0000 </r>
       <r>   -7.4254    1.0000 </r>
       <r>   -7.4254    1.0000 </r>
       <r>   -7.4254    1.0000 </r>
       <r>   -7.4254    1.0000 </r>
       <r>   -7.4148    1.0000 </r>
       <r>   -7.4148    1.0000 </r>
       <r>   -7.4148    1.0000 </r>
       <r>   -7.4148    1.0000 </r>
       <r>   -7.4042    1.0000 </r>
       <r>   -7.4042    1.0000 </r>
       <r>   -7.4042    1.0000 </r>
       <r>   -7.4042    1.0000 </r>
       <r>   -7.4012    1.0000 </r>
       <r>   -7.4012    1.0000 </r>
       <r>   -7.4012    1.0000 </r>
       <r>   -7.4012    1.0000 </r>
       <r>   -7.3982    1.0000 </r>
       <r>   -7.3982    1.0000 </r>
       <r>   -7.3982    1.0000 </r>
       <r>   -7.3982    1.0000 </r>
       <r>   -7.0749    1.0000 </r>
       <r>   -7.0749    1.0000 </r>
       <r>   -7.0749    1.0000 </r>
       <r>   -7.0749    1.0000 </r>
       <r>   -3.2971    1.0000 </r>
       <r>   -3.2971    1.0000 </r>
       <r>   -3.2971    1.0000 </r>
       <r>   -3.2971    1.0000 </r>
       <r>   -2.6445    1.0000 </r>
       <r>   -2.6445    1.0000 </r>
       <r>   -2.6445    1.0000 </r>
       <r>   -2.6445    1.0000 </r>
       <r>   -2.5006    1.0000 </r>
       <r>   -2.5006    1.0000 </r>
       <r>   -2.5006    1.0000 </r>
       <r>   -2.5006    1.0000 </r>
       <r>   -2.2742    1.0000 </r>
       <r>   -2.2742    1.0000 </r>
       <r>   -2.2742    1.0000 </r>
       <r>   -2.2742    1.0000 </r>
       <r>   -2.2353    1.0000 </r>
       <r>   -2.2353    1.0000 </r>
       <r>   -2.2353    1.0000 </r>
       <r>   -2.2353    1.0000 </r>
       <r>   -2.0043    1.0000 </r>
       <r>   -2.0043    1.0000 </r>
       <r>   -2.0043    1.0000 </r>
       <r>   -2.0043    1.0000 </r>
       <r>   -1.7876    1.0000 </r>
       <r>   -1.7876    1.0000 </r>
       <r>   -1.7876    1.0000 </r>
       <r>   -1.7876    1.0000 </r>
       <r>   -1.5966    1.0000 </r>
       <r>   -1.5966    1.0000 </r>
       <r>   -1.5966    1.0000 </r>
       <r>   -1.5966    1.0000 </r>
       <r>   -1.5723    1.0000 </r>
       <r>   -1.5723    1.0000 </r>
       <r>   -1.5723    1.0000 </r>
       <r>   -1.5723    1.0000 </r>
       <r>   -1.3448    1.0000 </r>
       <r>   -1.3448    1.0000 </r>
       <r>   -1.3448    1.0000 </r>
       <r>   -1.3448    1.0000 </r>
       <r>   -1.2576    1.0000 </r>
       <r>   -1.2576    1.0000 </r>
       <r>   -1.2576    1.0000 </r>
       <r>   -1.2576    1.0000 </r>
       <r>   -1.2519    1.0000 </r>
       <r>   -1.2519    1.0000 </r>
       <r>   -1.2519    1.0000 </r>
       <r>   -1.2519    1.0000 </r>
       <r>   -1.1235    1.0000 </r>
       <r>   -1.1235    1.0000 </r>
       <r>   -1.1235    1.0000 </r>
       <r>   -1.1235    1.0000 </r>
       <r>   -1.0403    1.0000 </r>
       <r>   -1.0403    1.0000 </r>
       <r>   -1.0403    1.0000 </r>
       <r>   -1.0403    1.0000 </r>
       <r>   -1.0131    1.0000 </r>
       <r>   -1.0131    1.0000 </r>
       <r>   -1.0131    1.0000 </r>
       <r>   -1.0131    1.0000 </r>
       <r>   -1.0013    1.0000 </r>
       <r>   -1.0013    1.0000 </r>
       <r>   -1.0013    1.0000 </r>
       <r>   -1.0013    1.0000 </r>
       <r>   -0.8808    1.0000 </r>
       <r>   -0.8808    1.0000 </r>
       <r>   -0.8808    1.0000 </r>
       <r>   -0.8808    1.0000 </r>
       <r>   -0.1900    1.0000 </r>
       <r>   -0.1900    1.0000 </r>
       <r>   -0.1900    1.0000 </r>
       <r>   -0.1900    1.0000 </r>
       <r>    3.3328    0.0000 </r>
       <r>    3.3328    0.0000 </r>
       <r>    3.3328    0.0000 </r>
       <r>    3.3328    0.0000 </r>
       <r>    4.7543    0.0000 </r>
       <r>    4.7543    0.0000 </r>
       <r>    4.7543    0.0000 </r>
       <r>    4.7543    0.0000 </r>
       <r>    4.8655    0.0000 </r>
       <r>    4.8655    0.0000 </r>
       <r>    4.8655    0.0000 </r>
       <r>    4.8655    0.0000 </r>
       <r>    5.1781    0.0000 </r>
       <r>    5.1781    0.0000 </r>
       <r>    5.1781    0.0000 </r>
       <r>    5.1781    0.0000 </r>
       <r>    5.2340    0.0000 </r>
       <r>    5.2340    0.0000 </r>
       <r>    5.2340    0.0000 </r>
       <r>    5.2340    0.0000 </r>
       <r>    5.7790    0.0000 </r>
       <r>    5.7790    0.0000 </r>
       <r>    5.7790    0.0000 </r>
       <r>    5.7790    0.0000 </r>
       <r>    6.2346    0.0000 </r>
       <r>    6.2346    0.0000 </r>
       <r>    6.2346    0.0000 </r>
       <r>    6.2346    0.0000 </r>
       <r>    6.4074    0.0000 </r>
       <r>    6.4074    0.0000 </r>
       <r>    6.4074    0.0000 </r>
       <r>    6.4074    0.0000 </r>
       <r>    6.4272    0.0000 </r>
       <r>    6.4272    0.0000 </r>
       <r>    6.4272    0.0000 </r>
       <r>    6.4272    0.0000 </r>
       <r>    6.5105    0.0000 </r>
       <r>    6.5105    0.0000 </r>
       <r>    6.5105    0.0000 </r>
       <r>    6.5105    0.0000 </r>
      </set>
      <set comment="kpoint 6">
       <r>  -21.0577    1.0000 </r>
       <r>  -21.0577    1.0000 </r>
       <r>  -21.0577    1.0000 </r>
       <r>  -21.0577    1.0000 </r>
       <r>  -21.0577    1.0000 </r>
       <r>  -21.0577    1.0000 </r>
       <r>  -21.0577    1.0000 </r>
       <r>  -21.0577    1.0000 </r>
       <r>  -16.2473    1.0000 </r>
       <r>  -16.2473    1.0000 </r>
       <r>  -16.2473    1.0000 </r>
       <r>  -16.2473    1.0000 </r>
       <r>  -16.2473    1.0000 </r>
       <r>  -16.2473    1.0000 </r>
       <r>  -16.2473    1.0000 </r>
       <r>  -16.2473    1.0000 </r>
       <r>  -16.2416    1.0000 </r>
       <r>  -16.2416    1.0000 </r>
       <r>  -16.2416    1.0000 </r>
       <r>  -16.2416    1.0000 </r>
       <r>  -16.2416    1.0000 </r>
       <r>  -16.2416    1.0000 </r>
       <r>  -16.2416    1.0000 </r>
       <r>  -16.2416    1.0000 </r>
       <r>  -16.0831    1.0000 </r>
       <r>  -16.0831    1.0000 </r>
       <r>  -16.0831    1.0000 </r>
       <r>  -16.0831    1.0000 </r>
       <r>  -16.0831    1.0000 </r>
       <r>  -16.0831    1.0000 </r>
       <r>  -16.0831    1.0000 </r>
       <r>  -16.0831    1.0000 </r>
       <r>  -16.0823    1.0000 </r>
       <r>  -16.0823    1.0000 </r>
       <r>  -16.0823    1.0000 </r>
       <r>  -16.0823    1.0000 </r>
       <r>  -16.0823    1.0000 </r>
       <r>  -16.0823    1.0000 </r>
       <r>  -16.0823    1.0000 </r>
       <r>  -16.0823    1.0000 </r>
       <r>  -16.0823    1.0000 </r>
       <r>  -16.0823    1.0000 </r>
       <r>  -16.0823    1.0000 </r>
       <r>  -16.0823    1.0000 </r>
       <r>  -16.0823    1.0000 </r>
       <r>  -16.0823    1.0000 </r>
       <r>  -16.0823    1.0000 </r>
       <r>  -16.0823    1.0000 </r>
       <r>  -14.2062    1.0000 </r>
       <r>  -14.2062    1.0000 </r>
       <r>  -14.2062    1.0000 </r>
       <r>  -14.2062    1.0000 </r>
       <r>  -14.2062    1.0000 </r>
       <r>  -14.2062    1.0000 </r>
       <r>  -14.2062    1.0000 </r>
       <r>  -14.2062    1.0000 </r>
       <r>  -13.8170    1.0000 </r>
       <r>  -13.8170    1.0000 </r>
       <r>  -13.8170    1.0000 </r>
       <r>  -13.8170    1.0000 </r>
       <r>  -13.8170    1.0000 </r>
       <r>  -13.8170    1.0000 </r>
       <r>  -13.8170    1.0000 </r>
       <r>  -13.8170    1.0000 </r>
       <r>  -13.8104    1.0000 </r>
       <r>  -13.8104    1.0000 </r>
       <r>  -13.8104    1.0000 </r>
       <r>  -13.8104    1.0000 </r>
       <r>  -13.8104    1.0000 </r>
       <r>  -13.8104    1.0000 </r>
       <r>  -13.8104    1.0000 </r>
       <r>  -13.8104    1.0000 </r>
       <r>   -7.4422    1.0000 </r>
       <r>   -7.4422    1.0000 </r>
       <r>   -7.4422    1.0000 </r>
       <r>   -7.4422    1.0000 </r>
       <r>   -7.4422    1.0000 </r>
       <r>   -7.4422    1.0000 </r>
       <r>   -7.4422    1.0000 </r>
       <r>   -7.4422    1.0000 </r>
       <r>   -7.4179    1.0000 </r>
       <r>   -7.4179    1.0000 </r>
       <r>   -7.4179    1.0000 </r>
       <r>   -7.4179    1.0000 </r>
       <r>   -7.4179    1.0000 </r>
       <r>   -7.4179    1.0000 </r>
       <r>   -7.4179    1.0000 </r>
       <r>   -7.4179    1.0000 </r>
       <r>   -7.4114    1.0000 </r>
       <r>   -7.4114    1.0000 </r>
       <r>   -7.4114    1.0000 </r>
       <r>   -7.4114    1.0000 </r>
       <r>   -7.4114    1.0000 </r>
       <r>   -7.4114    1.0000 </r>
       <r>   -7.4114    1.0000 </r>
       <r>   -7.4114    1.0000 </r>
       <r>   -7.3929    1.0000 </r>
       <r>   -7.3929    1.0000 </r>
       <r>   -7.3929    1.0000 </r>
       <r>   -7.3929    1.0000 </r>
       <r>   -7.3929    1.0000 </r>
       <r>   -7.3929    1.0000 </r>
       <r>   -7.3929    1.0000 </r>
       <r>   -7.3929    1.0000 </r>
       <r>   -2.5915    1.0000 </r>
       <r>   -2.5915    1.0000 </r>
       <r>   -2.5915    1.0000 </r>
       <r>   -2.5915    1.0000 </r>
       <r>   -2.5915    1.0000 </r>
       <r>   -2.5915    1.0000 </r>
       <r>   -2.5915    1.0000 </r>
       <r>   -2.5915    1.0000 </r>
       <r>   -2.5670    1.0000 </r>
       <r>   -2.5670    1.0000 </r>
       <r>   -2.5670    1.0000 </r>
       <r>   -2.5670    1.0000 </r>
       <r>   -2.5670    1.0000 </r>
       <r>   -2.5670    1.0000 </r>
       <r>   -2.5670    1.0000 </r>
       <r>   -2.5670    1.0000 </r>
       <r>   -2.1651    1.0000 </r>
       <r>   -2.1651    1.0000 </r>
       <r>   -2.1651    1.0000 </r>
       <r>   -2.1651    1.0000 </r>
       <r>   -2.1651    1.0000 </r>
       <r>   -2.1651    1.0000 </r>
       <r>   -2.1651    1.0000 </r>
       <r>   -2.1651    1.0000 </r>
       <r>   -1.6389    1.0000 </r>
       <r>   -1.6389    1.0000 </r>
       <r>   -1.6389    1.0000 </r>
       <r>   -1.6389    1.0000 </r>
       <r>   -1.6389    1.0000 </r>
       <r>   -1.6389    1.0000 </r>
       <r>   -1.6389    1.0000 </r>
       <r>   -1.6389    1.0000 </r>
       <r>   -1.6157    1.0000 </r>
       <r>   -1.6157    1.0000 </r>
       <r>   -1.6157    1.0000 </r>
       <r>   -1.6157    1.0000 </r>
       <r>   -1.6157    1.0000 </r>
       <r>   -1.6157    1.0000 </r>
       <r>   -1.6157    1.0000 </r>
       <r>   -1.6157    1.0000 </r>
[...]
        <r>  0.0014  0.0006  0.0008 </r>
        <r>  0.0015  0.0002  0.0082 </r>
        <r>  0.0009  0.0007  0.0012 </r>
        <r>  0.0142  0.0000  0.0046 </r>
        <r>  0.0138  0.0001  0.0047 </r>
        <r>  0.0010  0.0007  0.0012 </r>
        <r>  0.0002  0.0048  0.0001 </r>
        <r>  0.0000  0.0099  0.0001 </r>
        <r>  0.0001  0.0105  0.0001 </r>
        <r>  0.0006  0.0064  0.0000 </r>
        <r>  0.0004  0.0053  0.0000 </r>
        <r>  0.0001  0.0104  0.0001 </r>
        <r>  0.0001  0.0110  0.0001 </r>
        <r>  0.0006  0.0087  0.0000 </r>
        <r>  0.0002  0.0031  0.0006 </r>
        <r>  0.0005  0.0032  0.0012 </r>
        <r>  0.0004  0.0014  0.0012 </r>
        <r>  0.0006  0.0033  0.0011 </r>
        <r>  0.0010  0.0008  0.0018 </r>
        <r>  0.0003  0.0058  0.0003 </r>
        <r>  0.0001  0.0056  0.0004 </r>
        <r>  0.0010  0.0017  0.0019 </r>
        <r>  0.0002  0.0029  0.0005 </r>
        <r>  0.0004  0.0017  0.0014 </r>
        <r>  0.0011  0.0019  0.0021 </r>
        <r>  0.0003  0.0057  0.0006 </r>
        <r>  0.0009  0.0011  0.0021 </r>
        <r>  0.0002  0.0055  0.0005 </r>
        <r>  0.0002  0.0077  0.0004 </r>
        <r>  0.0014  0.0009  0.0023 </r>
        <r>  0.0000  0.0055  0.0002 </r>
        <r>  0.0002  0.0003  0.0007 </r>
        <r>  0.0003  0.0001  0.0008 </r>
        <r>  0.0001  0.0093  0.0002 </r>
        <r>  0.0012  0.0003  0.0027 </r>
        <r>  0.0000  0.0033  0.0001 </r>
        <r>  0.0000  0.0041  0.0000 </r>
        <r>  0.0020  0.0006  0.0033 </r>
       </set>
       <set comment="band 208">
        <r>  0.0003  0.0007  0.0005 </r>
        <r>  0.0100  0.0000  0.0066 </r>
        <r>  0.0080  0.0001  0.0071 </r>
        <r>  0.0003  0.0007  0.0004 </r>
        <r>  0.0088  0.0000  0.0068 </r>
        <r>  0.0003  0.0007  0.0004 </r>
        <r>  0.0001  0.0007  0.0005 </r>
        <r>  0.0075  0.0001  0.0072 </r>
        <r>  0.0003  0.0092  0.0000 </r>
        <r>  0.0003  0.0086  0.0001 </r>
        <r>  0.0003  0.0068  0.0001 </r>
        <r>  0.0002  0.0094  0.0000 </r>
        <r>  0.0003  0.0077  0.0001 </r>
        <r>  0.0003  0.0095  0.0000 </r>
        <r>  0.0001  0.0090  0.0001 </r>
        <r>  0.0003  0.0070  0.0001 </r>
        <r>  0.0010  0.0002  0.0020 </r>
        <r>  0.0000  0.0061  0.0001 </r>
        <r>  0.0000  0.0056  0.0001 </r>
        <r>  0.0010  0.0001  0.0019 </r>
        <r>  0.0000  0.0049  0.0000 </r>
        <r>  0.0011  0.0002  0.0021 </r>
        <r>  0.0008  0.0001  0.0018 </r>
        <r>  0.0000  0.0062  0.0001 </r>
        <r>  0.0013  0.0001  0.0025 </r>
        <r>  0.0000  0.0074  0.0001 </r>
        <r>  0.0000  0.0062  0.0001 </r>
        <r>  0.0011  0.0003  0.0024 </r>
        <r>  0.0000  0.0073  0.0000 </r>
        <r>  0.0013  0.0000  0.0026 </r>
        <r>  0.0009  0.0003  0.0022 </r>
        <r>  0.0000  0.0058  0.0001 </r>
        <r>  0.0010  0.0003  0.0021 </r>
        <r>  0.0000  0.0067  0.0001 </r>
        <r>  0.0001  0.0046  0.0002 </r>
        <r>  0.0010  0.0003  0.0020 </r>
        <r>  0.0000  0.0061  0.0001 </r>
        <r>  0.0012  0.0003  0.0021 </r>
        <r>  0.0007  0.0006  0.0017 </r>
        <r>  0.0000  0.0057  0.0001 </r>
       </set>
       <set comment="band 209">
        <r>  0.0000  0.0001  0.0132 </r>
        <r>  0.0000  0.0009  0.0118 </r>
        <r>  0.0001  0.0004  0.0094 </r>
        <r>  0.0000  0.0007  0.0365 </r>
        <r>  0.0000  0.0003  0.0087 </r>
        <r>  0.0000  0.0007  0.0177 </r>
        <r>  0.0000  0.0002  0.0229 </r>
        <r>  0.0000  0.0010  0.0225 </r>
        <r>  0.0000  0.0012  0.0002 </r>
        <r>  0.0000  0.0015  0.0003 </r>
        <r>  0.0000  0.0036  0.0003 </r>
        <r>  0.0000  0.0025  0.0004 </r>
        <r>  0.0000  0.0035  0.0003 </r>
        <r>  0.0000  0.0024  0.0003 </r>
        <r>  0.0000  0.0013  0.0004 </r>
        <r>  0.0000  0.0016  0.0002 </r>
        <r>  0.0000  0.0003  0.0004 </r>
        <r>  0.0001  0.0005  0.0008 </r>
        <r>  0.0004  0.0009  0.0008 </r>
        <r>  0.0012  0.0007  0.0025 </r>
        <r>  0.0008  0.0006  0.0017 </r>
        <r>  0.0002  0.0007  0.0005 </r>
        <r>  0.0008  0.0007  0.0020 </r>
        <r>  0.0003  0.0007  0.0008 </r>
        <r>  0.0001  0.0003  0.0008 </r>
        <r>  0.0000  0.0007  0.0015 </r>
        <r>  0.0000  0.0002  0.0009 </r>
        <r>  0.0000  0.0018  0.0010 </r>
        <r>  0.0000  0.0006  0.0005 </r>
        <r>  0.0000  0.0014  0.0009 </r>
        <r>  0.0001  0.0003  0.0007 </r>
        <r>  0.0000  0.0006  0.0027 </r>
        <r>  0.0000  0.0002  0.0006 </r>
        <r>  0.0002  0.0004  0.0010 </r>
        <r>  0.0006  0.0007  0.0016 </r>
        <r>  0.0005  0.0007  0.0013 </r>
        <r>  0.0004  0.0006  0.0009 </r>
        <r>  0.0005  0.0005  0.0015 </r>
        <r>  0.0006  0.0006  0.0017 </r>
        <r>  0.0001  0.0005  0.0006 </r>
       </set>
       <set comment="band 210">
        <r>  0.0000  0.0007  0.0226 </r>
        <r>  0.0000  0.0007  0.0133 </r>
        <r>  0.0000  0.0004  0.0329 </r>
        <r>  0.0000  0.0004  0.0139 </r>
        <r>  0.0001  0.0002  0.0055 </r>
        <r>  0.0000  0.0004  0.0330 </r>
        <r>  0.0000  0.0007  0.0086 </r>
        <r>  0.0000  0.0008  0.0133 </r>
        <r>  0.0000  0.0019  0.0005 </r>
        <r>  0.0000  0.0042  0.0003 </r>
        <r>  0.0000  0.0006  0.0002 </r>
        <r>  0.0000  0.0016  0.0000 </r>
        <r>  0.0000  0.0004  0.0003 </r>
        <r>  0.0000  0.0019  0.0004 </r>
        <r>  0.0000  0.0020  0.0004 </r>
        <r>  0.0000  0.0049  0.0002 </r>
        <r>  0.0002  0.0003  0.0012 </r>
        <r>  0.0002  0.0003  0.0005 </r>
        <r>  0.0001  0.0005  0.0006 </r>
        <r>  0.0004  0.0001  0.0009 </r>
        <r>  0.0001  0.0009  0.0006 </r>
        <r>  0.0012  0.0008  0.0026 </r>
        <r>  0.0003  0.0009  0.0010 </r>
        <r>  0.0011  0.0008  0.0021 </r>
        <r>  0.0000  0.0010  0.0009 </r>
        <r>  0.0000  0.0012  0.0008 </r>
        <r>  0.0001  0.0005  0.0004 </r>
        <r>  0.0001  0.0003  0.0005 </r>
        <r>  0.0000  0.0004  0.0021 </r>
        <r>  0.0000  0.0003  0.0031 </r>
        <r>  0.0000  0.0008  0.0009 </r>
        <r>  0.0000  0.0012  0.0004 </r>
        <r>  0.0002  0.0012  0.0007 </r>
        <r>  0.0014  0.0009  0.0032 </r>
        <r>  0.0003  0.0002  0.0012 </r>
        <r>  0.0001  0.0003  0.0003 </r>
        <r>  0.0005  0.0005  0.0015 </r>
        <r>  0.0004  0.0011  0.0013 </r>
        <r>  0.0001  0.0002  0.0006 </r>
        <r>  0.0001  0.0003  0.0005 </r>
       </set>
       <set comment="band 211">
        <r>  0.0000  0.0008  0.0072 </r>
        <r>  0.0000  0.0006  0.0212 </r>
        <r>  0.0000  0.0002  0.0277 </r>
        <r>  0.0000  0.0003  0.0051 </r>
        <r>  0.0001  0.0003  0.0234 </r>
        <r>  0.0000  0.0004  0.0329 </r>
        <r>  0.0000  0.0009  0.0165 </r>
        <r>  0.0000  0.0007  0.0092 </r>
        <r>  0.0000  0.0011  0.0002 </r>
        <r>  0.0000  0.0018  0.0002 </r>
        <r>  0.0000  0.0044  0.0002 </r>
        <r>  0.0000  0.0018  0.0004 </r>
        <r>  0.0000  0.0036  0.0002 </r>
        <r>  0.0000  0.0022  0.0004 </r>
        <r>  0.0000  0.0012  0.0004 </r>
        <r>  0.0000  0.0014  0.0002 </r>
        <r>  0.0006  0.0008  0.0014 </r>
        <r>  0.0006  0.0006  0.0015 </r>
        <r>  0.0001  0.0004  0.0006 </r>
        <r>  0.0002  0.0003  0.0007 </r>
        <r>  0.0006  0.0007  0.0019 </r>
        <r>  0.0001  0.0008  0.0008 </r>
        <r>  0.0003  0.0008  0.0008 </r>
        <r>  0.0008  0.0005  0.0017 </r>
        <r>  0.0000  0.0001  0.0010 </r>
        <r>  0.0001  0.0008  0.0013 </r>
        <r>  0.0000  0.0015  0.0003 </r>
        <r>  0.0000  0.0004  0.0013 </r>
        <r>  0.0001  0.0013  0.0004 </r>
        <r>  0.0000  0.0007  0.0014 </r>
        <r>  0.0000  0.0001  0.0031 </r>
        <r>  0.0000  0.0008  0.0002 </r>
        <r>  0.0000  0.0007  0.0004 </r>
        <r>  0.0004  0.0004  0.0014 </r>
        <r>  0.0005  0.0006  0.0014 </r>
        <r>  0.0001  0.0005  0.0007 </r>
        <r>  0.0009  0.0003  0.0020 </r>
        <r>  0.0001  0.0010  0.0005 </r>
        <r>  0.0009  0.0007  0.0018 </r>
        <r>  0.0004  0.0008  0.0012 </r>
       </set>
       <set comment="band 212">
        <r>  0.0000  0.0007  0.0243 </r>
        <r>  0.0000  0.0010  0.0087 </r>
        <r>  0.0001  0.0005  0.0186 </r>
        <r>  0.0000  0.0002  0.0363 </r>
        <r>  0.0000  0.0005  0.0123 </r>
        <r>  0.0000  0.0002  0.0158 </r>
        <r>  0.0000  0.0004  0.0165 </r>
        <r>  0.0000  0.0006  0.0106 </r>
        <r>  0.0000  0.0032  0.0004 </r>
        <r>  0.0000  0.0017  0.0004 </r>
        <r>  0.0000  0.0032  0.0003 </r>
        <r>  0.0000  0.0014  0.0003 </r>
        <r>  0.0000  0.0024  0.0003 </r>
        <r>  0.0000  0.0016  0.0003 </r>
        <r>  0.0000  0.0036  0.0001 </r>
        <r>  0.0000  0.0011  0.0004 </r>
        <r>  0.0001  0.0006  0.0007 </r>
        <r>  0.0004  0.0001  0.0011 </r>
        <r>  0.0014  0.0005  0.0028 </r>
        <r>  0.0001  0.0008  0.0006 </r>
        <r>  0.0005  0.0007  0.0012 </r>
        <r>  0.0005  0.0007  0.0012 </r>
        <r>  0.0002  0.0004  0.0007 </r>
        <r>  0.0001  0.0002  0.0013 </r>
        <r>  0.0000  0.0005  0.0021 </r>
        <r>  0.0000  0.0010  0.0008 </r>
        <r>  0.0000  0.0009  0.0005 </r>
        <r>  0.0001  0.0004  0.0015 </r>
        <r>  0.0001  0.0010  0.0012 </r>
        <r>  0.0001  0.0004  0.0015 </r>
        <r>  0.0000  0.0007  0.0009 </r>
        <r>  0.0002  0.0010  0.0007 </r>
        <r>  0.0016  0.0006  0.0035 </r>
        <r>  0.0003  0.0014  0.0005 </r>
        <r>  0.0004  0.0004  0.0008 </r>
        <r>  0.0001  0.0006  0.0011 </r>
        <r>  0.0000  0.0006  0.0006 </r>
        <r>  0.0001  0.0003  0.0010 </r>
        <r>  0.0004  0.0005  0.0009 </r>
        <r>  0.0003  0.0004  0.0010 </r>
       </set>
       <set comment="band 213">
        <r>  0.0000  0.0003  0.0139 </r>
        <r>  0.0000  0.0005  0.0198 </r>
        <r>  0.0000  0.0004  0.0181 </r>
        <r>  0.0000  0.0009  0.0156 </r>
        <r>  0.0000  0.0005  0.0135 </r>
        <r>  0.0000  0.0008  0.0159 </r>
        <r>  0.0000  0.0002  0.0191 </r>
        <r>  0.0000  0.0004  0.0278 </r>
        <r>  0.0000  0.0048  0.0002 </r>
        <r>  0.0000  0.0018  0.0003 </r>
        <r>  0.0000  0.0024  0.0003 </r>
        <r>  0.0000  0.0013  0.0003 </r>
        <r>  0.0000  0.0022  0.0002 </r>
        <r>  0.0000  0.0008  0.0002 </r>
        <r>  0.0000  0.0034  0.0004 </r>
        <r>  0.0000  0.0020  0.0005 </r>
        <r>  0.0005  0.0008  0.0010 </r>
        <r>  0.0005  0.0006  0.0013 </r>
        <r>  0.0009  0.0005  0.0019 </r>
        <r>  0.0001  0.0007  0.0008 </r>
        <r>  0.0006  0.0004  0.0014 </r>
        <r>  0.0001  0.0005  0.0006 </r>
        <r>  0.0008  0.0004  0.0017 </r>
        <r>  0.0001  0.0008  0.0009 </r>
        <r>  0.0003  0.0010  0.0009 </r>
        <r>  0.0002  0.0010  0.0004 </r>
        <r>  0.0000  0.0001  0.0017 </r>
        <r>  0.0000  0.0007  0.0020 </r>
        <r>  0.0001  0.0003  0.0008 </r>
        <r>  0.0001  0.0007  0.0007 </r>
        <r>  0.0000  0.0007  0.0006 </r>
        <r>  0.0000  0.0011  0.0021 </r>
        <r>  0.0001  0.0004  0.0005 </r>
        <r>  0.0000  0.0004  0.0008 </r>
        <r>  0.0009  0.0004  0.0023 </r>
        <r>  0.0003  0.0009  0.0009 </r>
        <r>  0.0002  0.0004  0.0010 </r>
        <r>  0.0000  0.0003  0.0006 </r>
        <r>  0.0004  0.0009  0.0014 </r>
        <r>  0.0006  0.0007  0.0019 </r>
       </set>
       <set comment="band 214">
        <r>  0.0000  0.0011  0.0153 </r>
        <r>  0.0000  0.0002  0.0247 </r>
        <r>  0.0000  0.0003  0.0062 </r>
        <r>  0.0000  0.0003  0.0113 </r>
        <r>  0.0000  0.0005  0.0513 </r>
        <r>  0.0001  0.0004  0.0076 </r>
        <r>  0.0000  0.0010  0.0126 </r>
        <r>  0.0000  0.0001  0.0154 </r>
        <r>  0.0000  0.0027  0.0005 </r>
        <r>  0.0000  0.0012  0.0002 </r>
        <r>  0.0000  0.0042  0.0002 </r>
        <r>  0.0000  0.0022  0.0002 </r>
        <r>  0.0000  0.0024  0.0003 </r>
        <r>  0.0000  0.0025  0.0005 </r>
        <r>  0.0000  0.0016  0.0002 </r>
        <r>  0.0000  0.0030  0.0002 </r>
        <r>  0.0009  0.0012  0.0023 </r>
        <r>  0.0003  0.0012  0.0017 </r>
        <r>  0.0003  0.0005  0.0008 </r>
        <r>  0.0002  0.0002  0.0006 </r>
        <r>  0.0003  0.0003  0.0007 </r>
        <r>  0.0009  0.0004  0.0021 </r>
        <r>  0.0000  0.0003  0.0010 </r>
        <r>  0.0001  0.0006  0.0005 </r>
        <r>  0.0001  0.0009  0.0023 </r>
        <r>  0.0001  0.0002  0.0013 </r>
        <r>  0.0002  0.0013  0.0010 </r>
        <r>  0.0004  0.0004  0.0010 </r>
        <r>  0.0000  0.0010  0.0017 </r>
        <r>  0.0000  0.0005  0.0007 </r>
        <r>  0.0002  0.0009  0.0009 </r>
        <r>  0.0001  0.0002  0.0004 </r>
        <r>  0.0003  0.0003  0.0012 </r>
        <r>  0.0000  0.0004  0.0010 </r>
        <r>  0.0004  0.0003  0.0009 </r>
        <r>  0.0001  0.0002  0.0005 </r>
        <r>  0.0009  0.0008  0.0019 </r>
        <r>  0.0009  0.0009  0.0020 </r>
        <r>  0.0002  0.0003  0.0012 </r>
        <r>  0.0000  0.0007  0.0005 </r>
       </set>
       <set comment="band 215">
        <r>  0.0000  0.0003  0.0228 </r>
        <r>  0.0000  0.0002  0.0138 </r>
        <r>  0.0000  0.0010  0.0103 </r>
        <r>  0.0000  0.0004  0.0184 </r>
        <r>  0.0000  0.0007  0.0163 </r>
        <r>  0.0000  0.0005  0.0200 </r>
        <r>  0.0000  0.0004  0.0207 </r>
        <r>  0.0000  0.0003  0.0235 </r>
        <r>  0.0000  0.0011  0.0004 </r>
        <r>  0.0000  0.0026  0.0005 </r>
        <r>  0.0000  0.0006  0.0002 </r>
        <r>  0.0000  0.0019  0.0005 </r>
        <r>  0.0000  0.0019  0.0003 </r>
        <r>  0.0000  0.0025  0.0001 </r>
        <r>  0.0000  0.0066  0.0002 </r>
        <r>  0.0000  0.0044  0.0002 </r>
        <r>  0.0000  0.0006  0.0019 </r>
        <r>  0.0005  0.0007  0.0011 </r>
        <r>  0.0002  0.0009  0.0007 </r>
        <r>  0.0002  0.0009  0.0022 </r>
        <r>  0.0003  0.0006  0.0008 </r>
        <r>  0.0004  0.0001  0.0014 </r>
        <r>  0.0006  0.0001  0.0012 </r>
        <r>  0.0001  0.0008  0.0005 </r>
        <r>  0.0001  0.0015  0.0006 </r>
        <r>  0.0002  0.0008  0.0010 </r>
        <r>  0.0001  0.0004  0.0025 </r>
        <r>  0.0003  0.0002  0.0017 </r>
        <r>  0.0002  0.0003  0.0010 </r>
        <r>  0.0004  0.0002  0.0012 </r>
        <r>  0.0002  0.0010  0.0006 </r>
        <r>  0.0002  0.0003  0.0009 </r>
        <r>  0.0002  0.0002  0.0006 </r>
        <r>  0.0003  0.0002  0.0012 </r>
        <r>  0.0002  0.0009  0.0008 </r>
        <r>  0.0004  0.0008  0.0016 </r>
        <r>  0.0000  0.0003  0.0011 </r>
        <r>  0.0001  0.0007  0.0010 </r>
        <r>  0.0005  0.0008  0.0010 </r>
        <r>  0.0011  0.0002  0.0020 </r>
       </set>
       <set comment="band 216">
        <r>  0.0000  0.0003  0.0180 </r>
        <r>  0.0000  0.0003  0.0246 </r>
        <r>  0.0000  0.0006  0.0243 </r>
        <r>  0.0000  0.0004  0.0103 </r>
        <r>  0.0000  0.0004  0.0076 </r>
        <r>  0.0000  0.0010  0.0154 </r>
        <r>  0.0000  0.0003  0.0167 </r>
        <r>  0.0000  0.0003  0.0293 </r>
        <r>  0.0000  0.0021  0.0004 </r>
        <r>  0.0000  0.0011  0.0003 </r>
        <r>  0.0000  0.0018  0.0004 </r>
        <r>  0.0000  0.0051  0.0002 </r>
        <r>  0.0000  0.0029  0.0005 </r>
        <r>  0.0000  0.0045  0.0002 </r>
        <r>  0.0000  0.0018  0.0002 </r>
        <r>  0.0000  0.0038  0.0004 </r>
        <r>  0.0001  0.0003  0.0015 </r>
        <r>  0.0003  0.0004  0.0008 </r>
        <r>  0.0002  0.0007  0.0009 </r>
        <r>  0.0002  0.0002  0.0010 </r>
        <r>  0.0001  0.0007  0.0007 </r>
        <r>  0.0003  0.0004  0.0009 </r>
        <r>  0.0004  0.0003  0.0021 </r>
        <r>  0.0007  0.0003  0.0015 </r>
        <r>  0.0002  0.0001  0.0008 </r>
        <r>  0.0001  0.0003  0.0015 </r>
        <r>  0.0003  0.0006  0.0009 </r>
        <r>  0.0004  0.0012  0.0011 </r>
        <r>  0.0001  0.0005  0.0007 </r>
        <r>  0.0001  0.0006  0.0007 </r>
        <r>  0.0004  0.0006  0.0018 </r>
        <r>  0.0006  0.0004  0.0021 </r>
        <r>  0.0005  0.0006  0.0012 </r>
        <r>  0.0003  0.0001  0.0009 </r>
        <r>  0.0001  0.0008  0.0016 </r>
        <r>  0.0005  0.0004  0.0013 </r>
        <r>  0.0002  0.0010  0.0010 </r>
        <r>  0.0002  0.0002  0.0010 </r>
        <r>  0.0002  0.0010  0.0016 </r>
        <r>  0.0001  0.0006  0.0012 </r>
       </set>
      </set>
     </set>
    </set>
   </array>
  </projected>
 </calculation>
 <structure name="finalpos" >
  <crystal>
   <varray name="basis" >
    <v>      11.73535200       0.00000000       0.00000000 </v>
    <v>       0.00000000      11.73535200       0.00000000 </v>
    <v>       0.00000000       0.00000000      11.73535200 </v>
   </varray>
   <i name="volume">   1616.17491673 </i>
   <varray name="rec_basis" >
    <v>       0.08521261       0.00000000       0.00000000 </v>
    <v>       0.00000000       0.08521261       0.00000000 </v>
    <v>       0.00000000       0.00000000       0.08521261 </v>
   </varray>
  </crystal>
  <varray name="positions" >
   <v>       0.25000000       0.25000000       0.25000000 </v>
   <v>       0.25000000       0.25000000       0.75000000 </v>
   <v>       0.25000000       0.75000000       0.25000000 </v>
   <v>       0.25000000       0.75000000       0.75000000 </v>
   <v>       0.75000000       0.25000000       0.25000000 </v>
   <v>       0.75000000       0.25000000       0.75000000 </v>
   <v>       0.75000000       0.75000000       0.25000000 </v>
   <v>       0.75000000       0.75000000       0.75000000 </v>
   <v>       0.00000000       0.00000000       0.00000000 </v>
   <v>       0.00000000       0.00000000       0.50000000 </v>
   <v>       0.00000000       0.50000000       0.00000000 </v>
   <v>       0.00000000       0.50000000       0.50000000 </v>
   <v>       0.50000000       0.00000000       0.00000000 </v>
   <v>       0.50000000       0.00000000       0.50000000 </v>
   <v>       0.50000000       0.50000000       0.00000000 </v>
   <v>       0.50000000       0.50000000       0.50000000 </v>
   <v>       0.97750000       0.25000000       0.00000000 </v>
   <v>       0.02250000       0.25000000       0.50000000 </v>
   <v>       0.02250000       0.75000000       0.00000000 </v>
   <v>       0.97750000       0.75000000       0.50000000 </v>
   <v>       0.52250000       0.25000000       0.00000000 </v>
   <v>       0.47750000       0.25000000       0.50000000 </v>
   <v>       0.47750000       0.75000000       0.00000000 </v>
   <v>       0.52250000       0.75000000       0.50000000 </v>
   <v>       0.00000000       0.00000000       0.25000000 </v>
   <v>       0.00000000       0.00000000       0.75000000 </v>
   <v>       0.00000000       0.50000000       0.25000000 </v>
   <v>       0.00000000       0.50000000       0.75000000 </v>
   <v>       0.50000000       0.00000000       0.25000000 </v>
   <v>       0.50000000       0.00000000       0.75000000 </v>
   <v>       0.50000000       0.50000000       0.25000000 </v>
   <v>       0.50000000       0.50000000       0.75000000 </v>
   <v>       0.25000000       0.02250000       0.00000000 </v>
   <v>       0.25000000       0.97750000       0.50000000 </v>
   <v>       0.25000000       0.47750000       0.00000000 </v>
   <v>       0.25000000       0.52250000       0.50000000 </v>
   <v>       0.75000000       0.97750000       0.00000000 </v>
   <v>       0.75000000       0.02250000       0.50000000 </v>
   <v>       0.75000000       0.52250000       0.00000000 </v>
   <v>       0.75000000       0.47750000       0.50000000 </v>
  </varray>
 </structure>
</modeling>
