  39  39   1   0
  0.4089970E+02  0.1166870E-08  0.1172985E-08  0.1166870E-08  0.5000000E-15
   1.0000000000000000E-004
  CAR 
 CsPbBr3 cubic bulk                      
      8.03889326    -22.25835859  301      0.48982801      1.00000000
    -22.258  0.0000E+00  0.0000E+00
    -22.157  0.0000E+00  0.0000E+00
    -22.056  0.0000E+00  0.0000E+00
    -21.955  0.0000E+00  0.0000E+00
    -21.854  0.0000E+00  0.0000E+00
    -21.753  0.0000E+00  0.0000E+00
    -21.652  0.0000E+00  0.0000E+00
    -21.551  0.0000E+00  0.0000E+00
    -21.450  0.0000E+00  0.0000E+00
    -21.349  0.0000E+00  0.0000E+00
    -21.248  0.0000E+00  0.0000E+00
    -21.147  0.0000E+00  0.0000E+00
    -21.046  0.0000E+00  0.0000E+00
    -20.945  0.0000E+00  0.0000E+00
    -20.844  0.1987E+02  0.2007E+01
    -20.743  0.6786E+02  0.1085E+02
    -20.643  0.1980E+02  0.1600E+02
    -20.542  0.0000E+00  0.1600E+02
    -20.441  0.0000E+00  0.1600E+02
    -20.340  0.0000E+00  0.1600E+02
    -20.239  0.0000E+00  0.1600E+02
    -20.138  0.0000E+00  0.1600E+02
    -20.037  0.0000E+00  0.1600E+02
    -19.936  0.0000E+00  0.1600E+02
    -19.835  0.0000E+00  0.1600E+02
    -19.734  0.0000E+00  0.1600E+02
    -19.633  0.0000E+00  0.1600E+02
    -19.532  0.0000E+00  0.1600E+02
    -19.431  0.0000E+00  0.1600E+02
    -19.330  0.0000E+00  0.1600E+02
    -19.229  0.0000E+00  0.1600E+02
    -19.128  0.0000E+00  0.1600E+02
    -19.027  0.0000E+00  0.1600E+02
    -18.926  0.0000E+00  0.1600E+02
    -18.825  0.0000E+00  0.1600E+02
    -18.724  0.0000E+00  0.1600E+02
    -18.623  0.0000E+00  0.1600E+02
    -18.522  0.0000E+00  0.1600E+02
    -18.421  0.0000E+00  0.1600E+02
    -18.320  0.0000E+00  0.1600E+02
    -18.219  0.0000E+00  0.1600E+02
    -18.118  0.0000E+00  0.1600E+02
    -18.017  0.0000E+00  0.1600E+02
    -17.916  0.0000E+00  0.1600E+02
    -17.815  0.0000E+00  0.1600E+02
    -17.714  0.0000E+00  0.1600E+02
    -17.613  0.0000E+00  0.1600E+02
    -17.512  0.0000E+00  0.1600E+02
    -17.411  0.0000E+00  0.1600E+02
    -17.310  0.0000E+00  0.1600E+02
    -17.209  0.0000E+00  0.1600E+02
    -17.108  0.0000E+00  0.1600E+02
    -17.007  0.0000E+00  0.1600E+02
    -16.906  0.0000E+00  0.1600E+02
    -16.805  0.0000E+00  0.1600E+02
    -16.704  0.1167E+02  0.1718E+02
    -16.603  0.5246E+02  0.2530E+02
    -16.502  0.9880E+02  0.3998E+02
    -16.401  0.1359E+03  0.5372E+02
    -16.300  0.1483E+03  0.7222E+02
    -16.199  0.1584E+03  0.9600E+02
    -16.098  0.0000E+00  0.9600E+02
    -15.997  0.0000E+00  0.9600E+02
    -15.896  0.0000E+00  0.9600E+02
    -15.795  0.0000E+00  0.9600E+02
    -15.694  0.0000E+00  0.9600E+02
    -15.593  0.0000E+00  0.9600E+02
    -15.492  0.0000E+00  0.9600E+02
    -15.391  0.0000E+00  0.9600E+02
    -15.290  0.0000E+00  0.9600E+02
    -15.189  0.0000E+00  0.9600E+02
    -15.088  0.0000E+00  0.9600E+02
    -14.987  0.0000E+00  0.9600E+02
    -14.886  0.0000E+00  0.9600E+02
    -14.785  0.0000E+00  0.9600E+02
    -14.684  0.0000E+00  0.9600E+02
    -14.583  0.0000E+00  0.9600E+02
    -14.482  0.3524E+01  0.9636E+02
    -14.381  0.4806E+01  0.9849E+02
    -14.280  0.1864E+02  0.1019E+03
    -14.179  0.3519E+02  0.1068E+03
    -14.078  0.6205E+02  0.1135E+03
    -13.977  0.6322E+02  0.1221E+03
    -13.876  0.7224E+02  0.1310E+03
    -13.775  0.6271E+02  0.1391E+03
    -13.674  0.1733E+02  0.1420E+03
    -13.573  0.0000E+00  0.1420E+03
    -13.472  0.0000E+00  0.1420E+03
    -13.371  0.0000E+00  0.1420E+03
    -13.270  0.0000E+00  0.1420E+03
    -13.169  0.0000E+00  0.1420E+03
    -13.068  0.0000E+00  0.1420E+03
    -12.967  0.0000E+00  0.1420E+03
    -12.866  0.0000E+00  0.1420E+03
    -12.765  0.0000E+00  0.1420E+03
    -12.664  0.0000E+00  0.1420E+03
    -12.563  0.0000E+00  0.1420E+03
    -12.462  0.0000E+00  0.1420E+03
    -12.361  0.0000E+00  0.1420E+03
    -12.260  0.0000E+00  0.1420E+03
    -12.159  0.0000E+00  0.1420E+03
    -12.058  0.0000E+00  0.1420E+03
    -11.957  0.0000E+00  0.1420E+03
    -11.856  0.0000E+00  0.1420E+03
    -11.755  0.0000E+00  0.1420E+03
    -11.654  0.0000E+00  0.1420E+03
    -11.553  0.0000E+00  0.1420E+03
    -11.452  0.0000E+00  0.1420E+03
    -11.351  0.0000E+00  0.1420E+03
    -11.250  0.0000E+00  0.1420E+03
    -11.149  0.0000E+00  0.1420E+03
    -11.048  0.0000E+00  0.1420E+03
    -10.947  0.0000E+00  0.1420E+03
    -10.846  0.0000E+00  0.1420E+03
    -10.745  0.0000E+00  0.1420E+03
    -10.644  0.0000E+00  0.1420E+03
    -10.543  0.0000E+00  0.1420E+03
    -10.442  0.0000E+00  0.1420E+03
    -10.341  0.0000E+00  0.1420E+03
    -10.240  0.0000E+00  0.1420E+03
    -10.139  0.0000E+00  0.1420E+03
    -10.038  0.0000E+00  0.1420E+03
     -9.937  0.0000E+00  0.1420E+03
     -9.836  0.0000E+00  0.1420E+03
     -9.735  0.0000E+00  0.1420E+03
     -9.635  0.0000E+00  0.1420E+03
     -9.534  0.0000E+00  0.1420E+03
     -9.433  0.0000E+00  0.1420E+03
     -9.332  0.0000E+00  0.1420E+03
     -9.231  0.0000E+00  0.1420E+03
     -9.130  0.0000E+00  0.1420E+03
     -9.029  0.0000E+00  0.1420E+03
     -8.928  0.0000E+00  0.1420E+03
     -8.827  0.0000E+00  0.1420E+03
     -8.726  0.0000E+00  0.1420E+03
     -8.625  0.0000E+00  0.1420E+03
     -8.524  0.0000E+00  0.1420E+03
     -8.423  0.0000E+00  0.1420E+03
     -8.322  0.0000E+00  0.1420E+03
     -8.221  0.1091E+00  0.1420E+03
     -8.120  0.0000E+00  0.1422E+03
     -8.019  0.4952E+01  0.1428E+03
     -7.918  0.1237E+02  0.1440E+03
     -7.817  0.9910E+01  0.1450E+03
     -7.716  0.1459E+02  0.1467E+03
     -7.615  0.1729E+02  0.1487E+03
     -7.514  0.7074E+01  0.1495E+03
     -7.413  0.2351E+02  0.1529E+03
     -7.312  0.1799E+02  0.1548E+03
     -7.211  0.1027E+03  0.1661E+03
     -7.110  0.2596E+03  0.1960E+03
     -7.009  0.4692E+02  0.2045E+03
     -6.908  0.4905E+01  0.2050E+03
     -6.807  0.7426E+01  0.2057E+03
     -6.706  0.0000E+00  0.2058E+03
     -6.605  0.2330E-02  0.2058E+03
     -6.504  0.2473E+01  0.2060E+03
     -6.403  0.0000E+00  0.2060E+03
     -6.302  0.0000E+00  0.2060E+03
     -6.201  0.0000E+00  0.2060E+03
     -6.100  0.0000E+00  0.2060E+03
     -5.999  0.0000E+00  0.2060E+03
     -5.898  0.0000E+00  0.2060E+03
     -5.797  0.0000E+00  0.2060E+03
     -5.696  0.0000E+00  0.2060E+03
     -5.595  0.0000E+00  0.2060E+03
     -5.494  0.0000E+00  0.2060E+03
     -5.393  0.0000E+00  0.2060E+03
     -5.292  0.0000E+00  0.2060E+03
     -5.191  0.0000E+00  0.2060E+03
     -5.090  0.0000E+00  0.2060E+03
     -4.989  0.0000E+00  0.2060E+03
     -4.888  0.0000E+00  0.2060E+03
     -4.787  0.0000E+00  0.2060E+03
     -4.686  0.0000E+00  0.2060E+03
     -4.585  0.0000E+00  0.2060E+03
     -4.484  0.0000E+00  0.2060E+03
     -4.383  0.0000E+00  0.2060E+03
     -4.282  0.0000E+00  0.2060E+03
     -4.181  0.0000E+00  0.2060E+03
     -4.080  0.0000E+00  0.2060E+03
     -3.979  0.0000E+00  0.2060E+03
     -3.878  0.0000E+00  0.2060E+03
     -3.777  0.0000E+00  0.2060E+03
     -3.676  0.0000E+00  0.2060E+03
     -3.575  0.0000E+00  0.2060E+03
     -3.474  0.0000E+00  0.2060E+03
     -3.373  0.1146E+01  0.2061E+03
     -3.272  0.2484E+02  0.2090E+03
     -3.171  0.3860E+02  0.2139E+03
     -3.070  0.2926E+02  0.2175E+03
     -2.969  0.1147E+02  0.2187E+03
     -2.868  0.7430E+01  0.2198E+03
     -2.767  0.2472E+01  0.2200E+03
     -2.666  0.1699E+02  0.2217E+03
     -2.565  0.3516E+02  0.2261E+03
     -2.464  0.2005E+02  0.2293E+03
     -2.363  0.3676E+02  0.2337E+03
     -2.262  0.2613E+02  0.2376E+03
     -2.161  0.2248E+02  0.2410E+03
     -2.060  0.2208E+02  0.2440E+03
     -1.959  0.3617E+02  0.2489E+03
     -1.858  0.3686E+02  0.2530E+03
     -1.757  0.4157E+02  0.2577E+03
     -1.656  0.5257E+02  0.2641E+03
     -1.555  0.6079E+02  0.2711E+03
     -1.454  0.6851E+02  0.2802E+03
     -1.353  0.1068E+03  0.2933E+03
     -1.252  0.8976E+02  0.3051E+03
     -1.151  0.7543E+02  0.3141E+03
     -1.050  0.7656E+02  0.3250E+03
     -0.949  0.3241E+02  0.3290E+03
     -0.848  0.3012E+02  0.3330E+03
     -0.747  0.1342E+02  0.3346E+03
     -0.646  0.9817E+01  0.3360E+03
     -0.545  0.1132E+02  0.3376E+03
     -0.444  0.1125E+02  0.3391E+03
     -0.343  0.1556E+02  0.3413E+03
     -0.242  0.2475E+01  0.3418E+03
     -0.141  0.4948E+01  0.3422E+03
     -0.040  0.5225E+01  0.3428E+03
      0.061  0.4953E+01  0.3435E+03
      0.162  0.0000E+00  0.3438E+03
      0.263  0.0000E+00  0.3438E+03
      0.364  0.2029E-03  0.3438E+03
      0.465  0.2475E+01  0.3440E+03
      0.566  0.0000E+00  0.3440E+03
      0.667  0.0000E+00  0.3440E+03
      0.768  0.0000E+00  0.3440E+03
      0.869  0.0000E+00  0.3440E+03
      0.970  0.0000E+00  0.3440E+03
      1.071  0.0000E+00  0.3440E+03
      1.172  0.0000E+00  0.3440E+03
      1.273  0.0000E+00  0.3440E+03
      1.373  0.0000E+00  0.3440E+03
      1.474  0.0000E+00  0.3440E+03
      1.575  0.0000E+00  0.3440E+03
      1.676  0.0000E+00  0.3440E+03
      1.777  0.0000E+00  0.3440E+03
      1.878  0.0000E+00  0.3440E+03
      1.979  0.0000E+00  0.3440E+03
      2.080  0.0000E+00  0.3440E+03
      2.181  0.0000E+00  0.3440E+03
      2.282  0.0000E+00  0.3440E+03
      2.383  0.0000E+00  0.3440E+03
      2.484  0.1374E+00  0.3440E+03
      2.585  0.3476E+01  0.3446E+03
      2.686  0.4969E+01  0.3455E+03
      2.787  0.4868E+01  0.3462E+03
      2.888  0.4336E+01  0.3467E+03
      2.989  0.1978E+02  0.3487E+03
      3.090  0.1009E+02  0.3498E+03
      3.191  0.2193E+02  0.3522E+03
      3.292  0.1365E+02  0.3539E+03
      3.393  0.1809E+02  0.3566E+03
      3.494  0.8561E+01  0.3576E+03
      3.595  0.2475E+01  0.3580E+03
      3.696  0.0000E+00  0.3580E+03
      3.797  0.0000E+00  0.3580E+03
      3.898  0.3115E-01  0.3580E+03
      3.999  0.1047E+02  0.3593E+03
      4.100  0.4950E+01  0.3600E+03
      4.201  0.1848E-11  0.3600E+03
      4.302  0.1345E+02  0.3614E+03
      4.403  0.2838E+02  0.3649E+03
      4.504  0.1578E+02  0.3673E+03
      4.605  0.2735E+02  0.3710E+03
      4.706  0.2645E+02  0.3744E+03
      4.807  0.2095E+02  0.3769E+03
      4.908  0.1962E+02  0.3800E+03
      5.009  0.4893E+01  0.3805E+03
      5.110  0.4951E+01  0.3812E+03
      5.211  0.2252E+01  0.3815E+03
      5.312  0.7486E+01  0.3823E+03
      5.413  0.2475E+01  0.3828E+03
      5.514  0.2542E+01  0.3830E+03
      5.615  0.7932E+01  0.3841E+03
      5.716  0.1558E+02  0.3858E+03
      5.817  0.1419E+02  0.3874E+03
      5.918  0.2236E+02  0.3900E+03
      6.019  0.2011E+02  0.3925E+03
      6.120  0.3219E+02  0.3965E+03
      6.221  0.2595E+02  0.3999E+03
      6.322  0.3796E+02  0.4041E+03
      6.423  0.1837E+02  0.4079E+03
      6.524  0.2336E+02  0.4114E+03
      6.625  0.2365E+02  0.4146E+03
      6.726  0.2475E+01  0.4160E+03
      6.827  0.0000E+00  0.4160E+03
      6.928  0.0000E+00  0.4160E+03
      7.029  0.0000E+00  0.4160E+03
      7.130  0.0000E+00  0.4160E+03
      7.231  0.0000E+00  0.4160E+03
      7.332  0.0000E+00  0.4160E+03
      7.433  0.0000E+00  0.4160E+03
      7.534  0.0000E+00  0.4160E+03
      7.635  0.0000E+00  0.4160E+03
      7.736  0.0000E+00  0.4160E+03
      7.837  0.0000E+00  0.4160E+03
      7.938  0.0000E+00  0.4160E+03
      8.039  0.0000E+00  0.4160E+03
      8.03889326    -22.25835859  301      0.48982801      1.00000000
    -22.258  0.0000E+00  0.0000E+00  0.0000E+00
    -22.157  0.0000E+00  0.0000E+00  0.0000E+00
    -22.056  0.0000E+00  0.0000E+00  0.0000E+00
    -21.955  0.0000E+00  0.0000E+00  0.0000E+00
    -21.854  0.0000E+00  0.0000E+00  0.0000E+00
    -21.753  0.0000E+00  0.0000E+00  0.0000E+00
    -21.652  0.0000E+00  0.0000E+00  0.0000E+00
    -21.551  0.0000E+00  0.0000E+00  0.0000E+00
    -21.450  0.0000E+00  0.0000E+00  0.0000E+00
    -21.349  0.0000E+00  0.0000E+00  0.0000E+00
    -21.248  0.0000E+00  0.0000E+00  0.0000E+00
    -21.147  0.0000E+00  0.0000E+00  0.0000E+00
    -21.046  0.0000E+00  0.0000E+00  0.0000E+00
    -20.945  0.0000E+00  0.0000E+00  0.0000E+00
    -20.844  0.3787E-03  0.5150E-07  0.1030E-07
    -20.743  0.1734E+02  0.8331E-04  0.6788E-05
    -20.643  0.1546E-04  0.3697E-08  0.4159E-09
    -20.542  0.0000E+00  0.0000E+00  0.0000E+00
    -20.441  0.0000E+00  0.0000E+00  0.0000E+00
    -20.340  0.0000E+00  0.0000E+00  0.0000E+00
    -20.239  0.0000E+00  0.0000E+00  0.0000E+00
    -20.138  0.0000E+00  0.0000E+00  0.0000E+00
    -20.037  0.0000E+00  0.0000E+00  0.0000E+00
    -19.936  0.0000E+00  0.0000E+00  0.0000E+00
    -19.835  0.0000E+00  0.0000E+00  0.0000E+00
    -19.734  0.0000E+00  0.0000E+00  0.0000E+00
    -19.633  0.0000E+00  0.0000E+00  0.0000E+00
    -19.532  0.0000E+00  0.0000E+00  0.0000E+00
    -19.431  0.0000E+00  0.0000E+00  0.0000E+00
    -19.330  0.0000E+00  0.0000E+00  0.0000E+00
    -19.229  0.0000E+00  0.0000E+00  0.0000E+00
    -19.128  0.0000E+00  0.0000E+00  0.0000E+00
    -19.027  0.0000E+00  0.0000E+00  0.0000E+00
    -18.926  0.0000E+00  0.0000E+00  0.0000E+00
    -18.825  0.0000E+00  0.0000E+00  0.0000E+00
    -18.724  0.0000E+00  0.0000E+00  0.0000E+00
    -18.623  0.0000E+00  0.0000E+00  0.0000E+00
    -18.522  0.0000E+00  0.0000E+00  0.0000E+00
    -18.421  0.0000E+00  0.0000E+00  0.0000E+00
    -18.320  0.0000E+00  0.0000E+00  0.0000E+00
    -18.219  0.0000E+00  0.0000E+00  0.0000E+00
    -18.118  0.0000E+00  0.0000E+00  0.0000E+00
    -18.017  0.0000E+00  0.0000E+00  0.0000E+00
    -17.916  0.0000E+00  0.0000E+00  0.0000E+00
    -17.815  0.0000E+00  0.0000E+00  0.0000E+00
    -17.714  0.0000E+00  0.0000E+00  0.0000E+00
    -17.613  0.0000E+00  0.0000E+00  0.0000E+00
    -17.512  0.0000E+00  0.0000E+00  0.0000E+00
    -17.411  0.0000E+00  0.0000E+00  0.0000E+00
    -17.310  0.0000E+00  0.0000E+00  0.0000E+00
    -17.209  0.0000E+00  0.0000E+00  0.0000E+00
    -17.108  0.0000E+00  0.0000E+00  0.0000E+00
    -17.007  0.0000E+00  0.0000E+00  0.0000E+00
    -16.906  0.0000E+00  0.0000E+00  0.0000E+00
    -16.805  0.0000E+00  0.0000E+00  0.0000E+00
    -16.704  0.1237E-04  0.4644E-05  0.4763E-06
    -16.603  0.2306E-04  0.1701E-04  0.3558E-05
    -16.502  0.2374E-04  0.1296E-04  0.1833E-05
    -16.401  0.4486E-04  0.5479E-04  0.1298E-04
    -16.300  0.3353E-04  0.3969E-04  0.5042E-05
    -16.199  0.3043E-04  0.1750E-04  0.2133E-05
    -16.098  0.0000E+00  0.0000E+00  0.0000E+00
    -15.997  0.0000E+00  0.0000E+00  0.0000E+00
    -15.896  0.0000E+00  0.0000E+00  0.0000E+00
    -15.795  0.0000E+00  0.0000E+00  0.0000E+00
    -15.694  0.0000E+00  0.0000E+00  0.0000E+00
    -15.593  0.0000E+00  0.0000E+00  0.0000E+00
    -15.492  0.0000E+00  0.0000E+00  0.0000E+00
    -15.391  0.0000E+00  0.0000E+00  0.0000E+00
    -15.290  0.0000E+00  0.0000E+00  0.0000E+00
    -15.189  0.0000E+00  0.0000E+00  0.0000E+00
    -15.088  0.0000E+00  0.0000E+00  0.0000E+00
    -14.987  0.0000E+00  0.0000E+00  0.0000E+00
    -14.886  0.0000E+00  0.0000E+00  0.0000E+00
    -14.785  0.0000E+00  0.0000E+00  0.0000E+00
    -14.684  0.0000E+00  0.0000E+00  0.0000E+00
    -14.583  0.0000E+00  0.0000E+00  0.0000E+00
    -14.482  0.2290E-03  0.2002E-04  0.1005E-05
    -14.381  0.1846E-03  0.1592E-03  0.4751E-05
    -14.280  0.1846E-02  0.1113E-02  0.2273E-04
    -14.179  0.2734E-02  0.3087E-02  0.8990E-04
    -14.078  0.1102E-02  0.5458E-02  0.2518E-03
    -13.977  0.2226E-02  0.5835E-02  0.4943E-03
    -13.876  0.7193E-03  0.3574E-02  0.5214E-03
    -13.775  0.1146E-02  0.2509E-02  0.3875E-03
    -13.674  0.3615E-03  0.7090E-03  0.7370E-04
    -13.573  0.0000E+00  0.0000E+00  0.0000E+00
    -13.472  0.0000E+00  0.0000E+00  0.0000E+00
    -13.371  0.0000E+00  0.0000E+00  0.0000E+00
    -13.270  0.0000E+00  0.0000E+00  0.0000E+00
    -13.169  0.0000E+00  0.0000E+00  0.0000E+00
    -13.068  0.0000E+00  0.0000E+00  0.0000E+00
    -12.967  0.0000E+00  0.0000E+00  0.0000E+00
    -12.866  0.0000E+00  0.0000E+00  0.0000E+00
    -12.765  0.0000E+00  0.0000E+00  0.0000E+00
    -12.664  0.0000E+00  0.0000E+00  0.0000E+00
    -12.563  0.0000E+00  0.0000E+00  0.0000E+00
    -12.462  0.0000E+00  0.0000E+00  0.0000E+00
    -12.361  0.0000E+00  0.0000E+00  0.0000E+00
    -12.260  0.0000E+00  0.0000E+00  0.0000E+00
    -12.159  0.0000E+00  0.0000E+00  0.0000E+00
    -12.058  0.0000E+00  0.0000E+00  0.0000E+00
    -11.957  0.0000E+00  0.0000E+00  0.0000E+00
    -11.856  0.0000E+00  0.0000E+00  0.0000E+00
    -11.755  0.0000E+00  0.0000E+00  0.0000E+00
    -11.654  0.0000E+00  0.0000E+00  0.0000E+00
    -11.553  0.0000E+00  0.0000E+00  0.0000E+00
    -11.452  0.0000E+00  0.0000E+00  0.0000E+00
    -11.351  0.0000E+00  0.0000E+00  0.0000E+00
    -11.250  0.0000E+00  0.0000E+00  0.0000E+00
    -11.149  0.0000E+00  0.0000E+00  0.0000E+00
    -11.048  0.0000E+00  0.0000E+00  0.0000E+00
    -10.947  0.0000E+00  0.0000E+00  0.0000E+00
    -10.846  0.0000E+00  0.0000E+00  0.0000E+00
    -10.745  0.0000E+00  0.0000E+00  0.0000E+00
    -10.644  0.0000E+00  0.0000E+00  0.0000E+00
    -10.543  0.0000E+00  0.0000E+00  0.0000E+00
    -10.442  0.0000E+00  0.0000E+00  0.0000E+00
    -10.341  0.0000E+00  0.0000E+00  0.0000E+00
    -10.240  0.0000E+00  0.0000E+00  0.0000E+00
    -10.139  0.0000E+00  0.0000E+00  0.0000E+00
    -10.038  0.0000E+00  0.0000E+00  0.0000E+00
     -9.937  0.0000E+00  0.0000E+00  0.0000E+00
     -9.836  0.0000E+00  0.0000E+00  0.0000E+00
     -9.735  0.0000E+00  0.0000E+00  0.0000E+00
     -9.635  0.0000E+00  0.0000E+00  0.0000E+00
     -9.534  0.0000E+00  0.0000E+00  0.0000E+00
     -9.433  0.0000E+00  0.0000E+00  0.0000E+00
     -9.332  0.0000E+00  0.0000E+00  0.0000E+00
     -9.231  0.0000E+00  0.0000E+00  0.0000E+00
     -9.130  0.0000E+00  0.0000E+00  0.0000E+00
     -9.029  0.0000E+00  0.0000E+00  0.0000E+00
     -8.928  0.0000E+00  0.0000E+00  0.0000E+00
     -8.827  0.0000E+00  0.0000E+00  0.0000E+00
     -8.726  0.0000E+00  0.0000E+00  0.0000E+00
     -8.625  0.0000E+00  0.0000E+00  0.0000E+00
     -8.524  0.0000E+00  0.0000E+00  0.0000E+00
     -8.423  0.0000E+00  0.0000E+00  0.0000E+00
     -8.322  0.0000E+00  0.0000E+00  0.0000E+00
     -8.221  0.1332E-08  0.1368E-04  0.5132E-06
     -8.120  0.0000E+00  0.0000E+00  0.0000E+00
     -8.019  0.8385E-07  0.2522E-02  0.1718E-04
     -7.918  0.5637E-06  0.1085E-01  0.3840E-04
     -7.817  0.8860E-06  0.1222E-01  0.3669E-04
     -7.716  0.4084E-05  0.1658E-01  0.5271E-04
     -7.615  0.1496E-04  0.4862E-01  0.5346E-04
     -7.514  0.8147E-06  0.1323E-01  0.2097E-04
     -7.413  0.3763E-04  0.1882E+00  0.6619E-04
     -7.312  0.5360E-05  0.1255E+00  0.1974E-04
     -7.211  0.4262E-04  0.2807E+01  0.5550E-04
     -7.110  0.1788E-03  0.3367E+02  0.1612E-03
     -7.009  0.3886E-04  0.6324E+00  0.2907E-04
     -6.908  0.2617E-04  0.1503E-01  0.1325E-04
     -6.807  0.3064E-04  0.3450E-01  0.1549E-04
     -6.706  0.0000E+00  0.0000E+00  0.0000E+00
     -6.605  0.1021E-07  0.4938E-05  0.1283E-08
     -6.504  0.1083E-04  0.5241E-02  0.1362E-05
     -6.403  0.0000E+00  0.0000E+00  0.0000E+00
     -6.302  0.0000E+00  0.0000E+00  0.0000E+00
     -6.201  0.0000E+00  0.0000E+00  0.0000E+00
     -6.100  0.0000E+00  0.0000E+00  0.0000E+00
     -5.999  0.0000E+00  0.0000E+00  0.0000E+00
     -5.898  0.0000E+00  0.0000E+00  0.0000E+00
     -5.797  0.0000E+00  0.0000E+00  0.0000E+00
     -5.696  0.0000E+00  0.0000E+00  0.0000E+00
     -5.595  0.0000E+00  0.0000E+00  0.0000E+00
     -5.494  0.0000E+00  0.0000E+00  0.0000E+00
     -5.393  0.0000E+00  0.0000E+00  0.0000E+00
     -5.292  0.0000E+00  0.0000E+00  0.0000E+00
     -5.191  0.0000E+00  0.0000E+00  0.0000E+00
     -5.090  0.0000E+00  0.0000E+00  0.0000E+00
     -4.989  0.0000E+00  0.0000E+00  0.0000E+00
     -4.888  0.0000E+00  0.0000E+00  0.0000E+00
     -4.787  0.0000E+00  0.0000E+00  0.0000E+00
     -4.686  0.0000E+00  0.0000E+00  0.0000E+00
     -4.585  0.0000E+00  0.0000E+00  0.0000E+00
     -4.484  0.0000E+00  0.0000E+00  0.0000E+00
     -4.383  0.0000E+00  0.0000E+00  0.0000E+00
     -4.282  0.0000E+00  0.0000E+00  0.0000E+00
     -4.181  0.0000E+00  0.0000E+00  0.0000E+00
     -4.080  0.0000E+00  0.0000E+00  0.0000E+00
     -3.979  0.0000E+00  0.0000E+00  0.0000E+00
     -3.878  0.0000E+00  0.0000E+00  0.0000E+00
     -3.777  0.0000E+00  0.0000E+00  0.0000E+00
     -3.676  0.0000E+00  0.0000E+00  0.0000E+00
     -3.575  0.0000E+00  0.0000E+00  0.0000E+00
     -3.474  0.0000E+00  0.0000E+00  0.0000E+00
     -3.373  0.2078E-05  0.1065E-02  0.1264E-04
     -3.272  0.1725E-03  0.1336E-01  0.1066E-02
     -3.171  0.6037E-03  0.2510E-01  0.2260E-02
     -3.070  0.2231E-03  0.7862E-02  0.9774E-03
     -2.969  0.1874E-03  0.5079E-02  0.2517E-03
     -2.868  0.9193E-04  0.2175E-02  0.2511E-03
     -2.767  0.6173E-05  0.3374E-03  0.5592E-04
     -2.666  0.7454E-03  0.1653E-01  0.7199E-03
     -2.565  0.1522E-02  0.2768E-01  0.1886E-02
     -2.464  0.1105E-02  0.1910E-01  0.7801E-03
     -2.363  0.1725E-02  0.2787E-01  0.3387E-02
     -2.262  0.3358E-02  0.1065E-01  0.2208E-02
     -2.161  0.5741E-02  0.1059E-01  0.2223E-02
     -2.060  0.2319E-02  0.1760E-01  0.1850E-02
     -1.959  0.2084E-01  0.4317E-01  0.3465E-02
     -1.858  0.4498E-02  0.6182E-01  0.3986E-02
     -1.757  0.3490E-02  0.6344E-01  0.5538E-02
     -1.656  0.4056E-02  0.9694E-01  0.1059E-01
     -1.555  0.2792E-02  0.1049E+00  0.1240E-01
     -1.454  0.5111E-02  0.5651E-01  0.1423E-01
     -1.353  0.4669E-02  0.9219E-01  0.2290E-01
     -1.252  0.5889E-02  0.6965E-01  0.1435E-01
     -1.151  0.2542E-02  0.9767E-01  0.1428E-01
     -1.050  0.1185E-02  0.6031E-01  0.1240E-01
     -0.949  0.5769E-03  0.1835E-01  0.3116E-02
     -0.848  0.1499E-02  0.2904E-01  0.5037E-02
     -0.747  0.4031E-03  0.6902E-02  0.1403E-02
     -0.646  0.2123E-03  0.3040E-02  0.4727E-03
     -0.545  0.1558E-03  0.1406E-02  0.7834E-03
     -0.444  0.1138E-04  0.2057E-02  0.8455E-03
     -0.343  0.1182E-03  0.2271E-02  0.9223E-03
     -0.242  0.1048E-04  0.4972E-03  0.1815E-03
     -0.141  0.8043E-05  0.1188E-02  0.1865E-03
     -0.040  0.6304E-05  0.2156E-03  0.4332E-03
      0.061  0.1477E-05  0.7121E-03  0.3737E-03
      0.162  0.0000E+00  0.0000E+00  0.0000E+00
      0.263  0.0000E+00  0.0000E+00  0.0000E+00
      0.364  0.4691E-12  0.1304E-07  0.1492E-07
      0.465  0.5722E-08  0.1591E-03  0.1820E-03
      0.566  0.0000E+00  0.0000E+00  0.0000E+00
      0.667  0.0000E+00  0.0000E+00  0.0000E+00
      0.768  0.0000E+00  0.0000E+00  0.0000E+00
      0.869  0.0000E+00  0.0000E+00  0.0000E+00
      0.970  0.0000E+00  0.0000E+00  0.0000E+00
      1.071  0.0000E+00  0.0000E+00  0.0000E+00
      1.172  0.0000E+00  0.0000E+00  0.0000E+00
      1.273  0.0000E+00  0.0000E+00  0.0000E+00
      1.373  0.0000E+00  0.0000E+00  0.0000E+00
      1.474  0.0000E+00  0.0000E+00  0.0000E+00
      1.575  0.0000E+00  0.0000E+00  0.0000E+00
      1.676  0.0000E+00  0.0000E+00  0.0000E+00
      1.777  0.0000E+00  0.0000E+00  0.0000E+00
      1.878  0.0000E+00  0.0000E+00  0.0000E+00
      1.979  0.0000E+00  0.0000E+00  0.0000E+00
      2.080  0.0000E+00  0.0000E+00  0.0000E+00
      2.181  0.0000E+00  0.0000E+00  0.0000E+00
      2.282  0.0000E+00  0.0000E+00  0.0000E+00
      2.383  0.0000E+00  0.0000E+00  0.0000E+00
      2.484  0.2203E-05  0.7386E-05  0.1221E-05
      2.585  0.9760E-04  0.2895E-03  0.1374E-03
      2.686  0.1578E-04  0.5857E-03  0.2786E-02
      2.787  0.5577E-04  0.5817E-03  0.1661E-02
      2.888  0.5700E-04  0.3217E-03  0.1462E-02
      2.989  0.7046E-03  0.2764E-02  0.5681E-02
      3.090  0.5272E-03  0.1999E-02  0.1971E-02
      3.191  0.9334E-03  0.3734E-02  0.4700E-02
      3.292  0.7835E-03  0.2772E-02  0.2782E-02
      3.393  0.6735E-03  0.2858E-02  0.3092E-02
      3.494  0.3543E-03  0.8114E-03  0.1630E-02
      3.595  0.5494E-03  0.1572E-03  0.9029E-03
      3.696  0.0000E+00  0.0000E+00  0.0000E+00
      3.797  0.0000E+00  0.0000E+00  0.0000E+00
      3.898  0.5160E-05  0.2187E-04  0.6599E-04
      3.999  0.1549E-02  0.7091E-02  0.1549E-01
      4.100  0.1934E-04  0.2942E-03  0.2756E-02
      4.201  0.1352E-16  0.2570E-15  0.9923E-15
      4.302  0.2608E-03  0.1182E-02  0.6079E-02
      4.403  0.1560E-02  0.7470E-02  0.1625E-01
      4.504  0.2963E-02  0.4245E-02  0.9313E-02
      4.605  0.1486E-02  0.4416E-02  0.1064E-01
      4.706  0.2721E-02  0.6435E-02  0.9863E-02
      4.807  0.9902E-02  0.4612E-02  0.6850E-02
      4.908  0.6333E-02  0.5566E-02  0.1019E-01
      5.009  0.1499E-02  0.1542E-02  0.1685E-02
      5.110  0.1251E-02  0.7064E-03  0.1515E-02
      5.211  0.7378E-03  0.2927E-03  0.2124E-03
      5.312  0.5637E-02  0.3961E-02  0.4050E-02
      5.413  0.1292E-01  0.2388E-02  0.1915E-02
      5.514  0.2286E-02  0.3643E-02  0.8223E-03
      5.615  0.1076E-01  0.8438E-03  0.5142E-02
      5.716  0.7128E-02  0.8377E-02  0.2727E-01
      5.817  0.7588E-02  0.3046E-02  0.3262E-01
      5.918  0.5207E-02  0.5332E-02  0.6744E-01
      6.019  0.5216E-02  0.9539E-02  0.5971E-01
      6.120  0.6621E-01  0.1393E-01  0.1428E+00
      6.221  0.3473E-01  0.1454E-01  0.1917E+00
      6.322  0.4301E-01  0.1828E-01  0.3728E+00
      6.423  0.2761E-01  0.1706E-01  0.1931E+00
      6.524  0.2909E-01  0.1926E-01  0.2741E+00
      6.625  0.3207E-01  0.2169E-01  0.2772E+00
      6.726  0.1316E-02  0.8266E-03  0.4918E-01
      6.827  0.0000E+00  0.0000E+00  0.0000E+00
      6.928  0.0000E+00  0.0000E+00  0.0000E+00
      7.029  0.0000E+00  0.0000E+00  0.0000E+00
      7.130  0.0000E+00  0.0000E+00  0.0000E+00
      7.231  0.0000E+00  0.0000E+00  0.0000E+00
      7.332  0.0000E+00  0.0000E+00  0.0000E+00
      7.433  0.0000E+00  0.0000E+00  0.0000E+00
      7.534  0.0000E+00  0.0000E+00  0.0000E+00
      7.635  0.0000E+00  0.0000E+00  0.0000E+00
      7.736  0.0000E+00  0.0000E+00  0.0000E+00
      7.837  0.0000E+00  0.0000E+00  0.0000E+00
      7.938  0.0000E+00  0.0000E+00  0.0000E+00
      8.039  0.0000E+00  0.0000E+00  0.0000E+00
      8.03889326    -22.25835859  301      0.48982801      1.00000000
    -22.258  0.0000E+00  0.0000E+00  0.0000E+00
    -22.157  0.0000E+00  0.0000E+00  0.0000E+00
    -22.056  0.0000E+00  0.0000E+00  0.0000E+00
    -21.955  0.0000E+00  0.0000E+00  0.0000E+00
    -21.854  0.0000E+00  0.0000E+00  0.0000E+00
    -21.753  0.0000E+00  0.0000E+00  0.0000E+00
    -21.652  0.0000E+00  0.0000E+00  0.0000E+00
    -21.551  0.0000E+00  0.0000E+00  0.0000E+00
    -21.450  0.0000E+00  0.0000E+00  0.0000E+00
    -21.349  0.0000E+00  0.0000E+00  0.0000E+00
    -21.248  0.0000E+00  0.0000E+00  0.0000E+00
    -21.147  0.0000E+00  0.0000E+00  0.0000E+00
    -21.046  0.0000E+00  0.0000E+00  0.0000E+00
    -20.945  0.0000E+00  0.0000E+00  0.0000E+00
    -20.844  0.6296E-01  0.4023E-06  0.5658E-07
    -20.743  0.4773E-02  0.2514E-06  0.2986E-07
    -20.643  0.1528E-05  0.3336E-08  0.3244E-09
    -20.542  0.0000E+00  0.0000E+00  0.0000E+00
    -20.441  0.0000E+00  0.0000E+00  0.0000E+00
    -20.340  0.0000E+00  0.0000E+00  0.0000E+00
    -20.239  0.0000E+00  0.0000E+00  0.0000E+00
    -20.138  0.0000E+00  0.0000E+00  0.0000E+00
    -20.037  0.0000E+00  0.0000E+00  0.0000E+00
    -19.936  0.0000E+00  0.0000E+00  0.0000E+00
    -19.835  0.0000E+00  0.0000E+00  0.0000E+00
    -19.734  0.0000E+00  0.0000E+00  0.0000E+00
    -19.633  0.0000E+00  0.0000E+00  0.0000E+00
    -19.532  0.0000E+00  0.0000E+00  0.0000E+00
    -19.431  0.0000E+00  0.0000E+00  0.0000E+00
    -19.330  0.0000E+00  0.0000E+00  0.0000E+00
    -19.229  0.0000E+00  0.0000E+00  0.0000E+00
    -19.128  0.0000E+00  0.0000E+00  0.0000E+00
    -19.027  0.0000E+00  0.0000E+00  0.0000E+00
    -18.926  0.0000E+00  0.0000E+00  0.0000E+00
    -18.825  0.0000E+00  0.0000E+00  0.0000E+00
    -18.724  0.0000E+00  0.0000E+00  0.0000E+00
    -18.623  0.0000E+00  0.0000E+00  0.0000E+00
    -18.522  0.0000E+00  0.0000E+00  0.0000E+00
    -18.421  0.0000E+00  0.0000E+00  0.0000E+00
    -18.320  0.0000E+00  0.0000E+00  0.0000E+00
    -18.219  0.0000E+00  0.0000E+00  0.0000E+00
    -18.118  0.0000E+00  0.0000E+00  0.0000E+00
    -18.017  0.0000E+00  0.0000E+00  0.0000E+00
    -17.916  0.0000E+00  0.0000E+00  0.0000E+00
    -17.815  0.0000E+00  0.0000E+00  0.0000E+00
    -17.714  0.0000E+00  0.0000E+00  0.0000E+00
    -17.613  0.0000E+00  0.0000E+00  0.0000E+00
    -17.512  0.0000E+00  0.0000E+00  0.0000E+00
    -17.411  0.0000E+00  0.0000E+00  0.0000E+00
    -17.310  0.0000E+00  0.0000E+00  0.0000E+00
    -17.209  0.0000E+00  0.0000E+00  0.0000E+00
    -17.108  0.0000E+00  0.0000E+00  0.0000E+00
    -17.007  0.0000E+00  0.0000E+00  0.0000E+00
    -16.906  0.0000E+00  0.0000E+00  0.0000E+00
    -16.805  0.0000E+00  0.0000E+00  0.0000E+00
    -16.704  0.2301E-04  0.1034E-04  0.1444E-05
    -16.603  0.4536E-05  0.6456E-05  0.1644E-05
    -16.502  0.2393E-04  0.1126E-04  0.1413E-05
    -16.401  0.9004E-04  0.6836E-04  0.1297E-04
    -16.300  0.2459E-04  0.3474E-04  0.4374E-05
    -16.199  0.1710E-04  0.1150E-04  0.1525E-05
    -16.098  0.0000E+00  0.0000E+00  0.0000E+00
    -15.997  0.0000E+00  0.0000E+00  0.0000E+00
    -15.896  0.0000E+00  0.0000E+00  0.0000E+00
    -15.795  0.0000E+00  0.0000E+00  0.0000E+00
    -15.694  0.0000E+00  0.0000E+00  0.0000E+00
    -15.593  0.0000E+00  0.0000E+00  0.0000E+00
    -15.492  0.0000E+00  0.0000E+00  0.0000E+00
    -15.391  0.0000E+00  0.0000E+00  0.0000E+00
    -15.290  0.0000E+00  0.0000E+00  0.0000E+00
    -15.189  0.0000E+00  0.0000E+00  0.0000E+00
    -15.088  0.0000E+00  0.0000E+00  0.0000E+00
    -14.987  0.0000E+00  0.0000E+00  0.0000E+00
    -14.886  0.0000E+00  0.0000E+00  0.0000E+00
    -14.785  0.0000E+00  0.0000E+00  0.0000E+00
    -14.684  0.0000E+00  0.0000E+00  0.0000E+00
    -14.583  0.0000E+00  0.0000E+00  0.0000E+00
    -14.482  0.4116E-03  0.2063E-03  0.1712E-04
    -14.381  0.5254E-03  0.1989E-03  0.1524E-04
    -14.280  0.1079E-02  0.9479E-03  0.1746E-04
    -14.179  0.2026E-02  0.3375E-02  0.1787E-03
    -14.078  0.1949E-02  0.5887E-02  0.3939E-03
    -13.977  0.1209E-02  0.3556E-02  0.2635E-03
    -13.876  0.9593E-03  0.3647E-02  0.3885E-03
    -13.775  0.7542E-03  0.2255E-02  0.3093E-03
    -13.674  0.3151E-03  0.5280E-03  0.6592E-04
    -13.573  0.0000E+00  0.0000E+00  0.0000E+00
    -13.472  0.0000E+00  0.0000E+00  0.0000E+00
    -13.371  0.0000E+00  0.0000E+00  0.0000E+00
    -13.270  0.0000E+00  0.0000E+00  0.0000E+00