 vasp.5.4.4.18Apr17-6-g9f103f2a35 (build Jun 22 2020 09:27:21) complex           
 executed on tx2_gcc-7.3_libsci-1 date 2021.10.12  05:27:32
 running on   64 total cores
 distrk:  each k-point on   64 cores,    1 groups
 distr:  one band on NCORES_PER_BAND=   8 cores,    8 groups


--------------------------------------------------------------------------------------------------------


 INCAR:
 POTCAR:    PAW_PBE Cs_sv 08Apr2002               
 POTCAR:    PAW_PBE Pb_d 06Sep2000                
 POTCAR:    PAW_PBE Br 06Sep2000                  
 POTCAR:    PAW_PBE Cs_sv 08Apr2002               
   SHA256 =  c1463496f0f6037ed62c6012a8013a89ee9ad6ffb38599dcd6c079e7ed31779b Cs
   COPYR  = (c) Copyright 08Apr2002 Georg Kresse                                
   COPYR  = This file is part of the software VASP. Any use, copying, and all ot
   COPYR  = If you do not have a valid VASP license, you may not use, copy or di
   VRHFIN =Cs: 5s5p6s                                                           
   LEXCH  = PE                                                                  
   EATOM  =   555.6835 eV,   40.8416 Ry                                         
                                                                                
   TITEL  = PAW_PBE Cs_sv 08Apr2002                                             
   LULTRA =        F    use ultrasoft PP ?                                      
   IUNSCR =        1    unscreen: 0-lin 1-nonlin 2-no                           
   RPACOR =    2.200    partial core radius                                     
   POMASS =  132.900; ZVAL   =    9.000    mass and valenz                      
   RCORE  =    2.500    outmost cutoff radius                                   
   RWIGS  =    2.500; RWIGS  =    1.323    wigner-seitz radius (au A)           
   ENMAX  =  220.318; ENMIN  =  165.238 eV                                      
   RCLOC  =    2.207    cutoff for local pot                                    
   LCOR   =        T    correct aug charges                                     
   LPAW   =        T    paw PP                                                  
   EAUG   =  407.933                                                            
   DEXC   =    0.000                                                            
   RMAX   =    2.554    core radius for proj-oper                               
   RAUG   =    1.300    factor for augmentation sphere                          
   RDEP   =    2.590    radius for radial grids                                 
   RDEPT  =    2.117    core radius for aug-charge                              
                                                                                
   Atomic configuration                                                         
   13 entries                                                                   
     n  l   j            E        occ.                                          
     1  0  0.50    -35790.1377   2.0000                                         
     2  0  0.50     -5613.6201   2.0000                                         
     2  1  1.50     -5035.0101   6.0000                                         
     3  0  0.50     -1167.0767   2.0000                                         
     3  1  1.50      -980.9754   6.0000                                         
     3  2  2.50      -708.0703  10.0000                                         
     4  0  0.50      -220.2386   2.0000                                         
     4  1  1.50      -160.7596   6.0000                                         
     4  2  2.50       -74.2354  10.0000                                         
     5  0  0.50       -26.7287   2.0000                                         
     6  0  0.50        -2.0862   1.0000                                         
     5  1  1.50       -13.5159   6.0000                                         
     5  2  2.50        -0.4136   0.0000                                         
   Description                                                                  
     l       E           TYP  RCUT    TYP  RCUT                                 
     0    -26.7287425     23  1.900                                             
     0     -2.0862306     23  1.900                                             
     1    -13.5158719     23  2.500                                             
     1     -2.7211652     23  2.500                                             
     2     -0.4136171     23  2.500                                             
  local pseudopotential read in
  partial core-charges read in
  partial kinetic energy density read in
  atomic valenz-charges read in
  non local Contribution for L=           0  read in
    real space projection operators read in
  non local Contribution for L=           0  read in
    real space projection operators read in
  non local Contribution for L=           1  read in
    real space projection operators read in
  non local Contribution for L=           1  read in
    real space projection operators read in
  non local Contribution for L=           2  read in
    real space projection operators read in
    PAW grid and wavefunctions read in

   number of l-projection  operators is LMAX  =           5
   number of lm-projection operators is LMMAX =          13

 POTCAR:    PAW_PBE Pb_d 06Sep2000                
   SHA256 =  fb885b08f0fba73a15f6a6b0e39bd200c13ec96ef97cf3ecd8e63bade5137abd Pb
   COPYR  = (c) Copyright 06Sep2000 Georg Kresse                                
   COPYR  = This file is part of the software VASP. Any use, copying, and all ot
   COPYR  = If you do not have a valid VASP license, you may not use, copy or di
   VRHFIN =Pb:                                                                  
   LEXCH  = PE                                                                  
   EATOM  =  1661.6185 eV,  122.1255 Ry                                         
                                                                                
   TITEL  = PAW_PBE Pb_d 06Sep2000                                              
   LULTRA =        F    use ultrasoft PP ?                                      
   IUNSCR =        1    unscreen: 0-lin 1-nonlin 2-no                           
   RPACOR =    2.200    partial core radius                                     
   POMASS =  207.200; ZVAL   =   14.000    mass and valenz                      
   RCORE  =    2.500    outmost cutoff radius                                   
   RWIGS  =    3.260; RWIGS  =    1.725    wigner-seitz radius (au A)           
   ENMAX  =  237.835; ENMIN  =  178.376 eV                                      
   ICORE  =        3    local potential                                         
   LCOR   =        T    correct aug charges                                     
   LPAW   =        T    paw PP                                                  
   EAUG   =  391.914                                                            
   DEXC   =    0.000                                                            
   RMAX   =    2.565    core radius for proj-oper                               
   RAUG   =    1.300    factor for augmentation sphere                          
   RDEP   =    2.643    radius for radial grids                                 
   RDEPT  =    2.092    core radius for aug-charge                              
                                                                                
   Atomic configuration                                                         
   16 entries                                                                   
     n  l   j            E        occ.                                          
     1  0  0.50    -88091.8466   2.0000                                         
     2  0  0.50    -15753.4197   2.0000                                         
     2  1  1.50    -13508.1797   6.0000                                         
     3  0  0.50     -3781.7194   2.0000                                         
     3  1  1.50     -3138.2529   6.0000                                         
     3  2  2.50     -2483.2977  10.0000                                         
     4  0  0.50      -856.2895   2.0000                                         
     4  1  1.50      -645.4942   6.0000                                         
     4  2  2.50      -401.8768  10.0000                                         
     4  3  3.50      -132.9059  14.0000                                         
     5  0  0.50      -144.0950   2.0000                                         
     5  1  1.50       -85.7879   6.0000                                         
     5  2  2.50       -21.1769  10.0000                                         
     6  0  0.50       -12.0372   2.0000                                         
     6  1  1.50        -3.4971   2.0000                                         
     5  3  2.50        -2.7212   0.0000                                         
   Description                                                                  
     l       E           TYP  RCUT    TYP  RCUT                                 
     2    -21.1768523     23  2.500                                             
     2      1.3605826     23  2.500                                             
     0    -12.0371562     23  2.500                                             
     0     13.6058260     23  2.500                                             
     1     -3.4971339     23  2.500                                             
     1     13.6058260     23  2.500                                             
     3     -1.3605826      7  2.500                                             
  local pseudopotential read in
  partial core-charges read in
  partial kinetic energy density read in
  atomic valenz-charges read in
  non local Contribution for L=           2  read in
    real space projection operators read in
  non local Contribution for L=           2  read in
    real space projection operators read in
  non local Contribution for L=           0  read in
    real space projection operators read in
  non local Contribution for L=           0  read in
    real space projection operators read in
  non local Contribution for L=           1  read in
    real space projection operators read in
  non local Contribution for L=           1  read in
    real space projection operators read in
    PAW grid and wavefunctions read in

   number of l-projection  operators is LMAX  =           6
   number of lm-projection operators is LMMAX =          18

 POTCAR:    PAW_PBE Br 06Sep2000                  
   SHA256 =  96a73d2954943bbee26f4990d676cc6c3bf44b8dd2c75cd4b3b825d8403f0103 Br
   COPYR  = (c) Copyright 06Sep2000 Georg Kresse                                
   COPYR  = This file is part of the software VASP. Any use, copying, and all ot
   COPYR  = If you do not have a valid VASP license, you may not use, copy or di
   VRHFIN =Br: s2p5                                                             
   LEXCH  = PE                                                                  
   EATOM  =   368.4488 eV,   27.0802 Ry                                         
                                                                                
   TITEL  = PAW_PBE Br 06Sep2000                                                
   LULTRA =        F    use ultrasoft PP ?                                      
   IUNSCR =        1    unscreen: 0-lin 1-nonlin 2-no                           
   RPACOR =    1.900    partial core radius                                     
   POMASS =   79.904; ZVAL   =    7.000    mass and valenz                      
   RCORE  =    2.100    outmost cutoff radius                                   
   RWIGS  =    2.200; RWIGS  =    1.164    wigner-seitz radius (au A)           
   ENMAX  =  216.285; ENMIN  =  162.214 eV                                      
   ICORE  =        3    local potential                                         
   LCOR   =        T    correct aug charges                                     
   LPAW   =        T    paw PP                                                  
   EAUG   =  503.852                                                            
   DEXC   =    0.000                                                            
   RMAX   =    2.139    core radius for proj-oper                               
   RAUG   =    1.300    factor for augmentation sphere                          
   RDEP   =    2.186    radius for radial grids                                 
   RDEPT  =    1.890    core radius for aug-charge                              
                                                                                
   Atomic configuration                                                         
   10 entries                                                                   
     n  l   j            E        occ.                                          
     1  0  0.50    -13316.2796   2.0000                                         
     2  0  0.50     -1732.8239   2.0000                                         
     2  1  1.50     -1528.2193   6.0000                                         
     3  0  0.50      -238.0460   2.0000                                         
     3  1  1.50      -173.4609   6.0000                                         
     3  2  2.50       -66.7132  10.0000                                         
     4  0  0.50       -20.1334   2.0000                                         
     4  1  0.50        -7.8591   5.0000                                         
     4  2  2.50        -8.1635   0.0000                                         
     4  3  2.50        -8.1635   0.0000                                         
   Description                                                                  
     l       E           TYP  RCUT    TYP  RCUT                                 
     0    -20.1333652     23  2.100                                             
     0    -21.4939478     23  2.100                                             
     1     -7.8591052     23  2.100                                             
     1     -3.1608434     23  2.100                                             
     2     -8.1634956     23  2.100                                             
     3     -1.3605826      7  2.100                                             
  local pseudopotential read in
  partial core-charges read in
  partial kinetic energy density read in
  atomic valenz-charges read in
  non local Contribution for L=           0  read in
    real space projection operators read in
  non local Contribution for L=           0  read in
    real space projection operators read in
  non local Contribution for L=           1  read in
    real space projection operators read in
  non local Contribution for L=           1  read in
    real space projection operators read in
  non local Contribution for L=           2  read in
    real space projection operators read in
    PAW grid and wavefunctions read in

   number of l-projection  operators is LMAX  =           5
   number of lm-projection operators is LMMAX =          13

 Optimization of the real space projectors (new method)

 maximal supplied QI-value         = 15.12
 optimisation between [QCUT,QGAM] = [  8.77, 17.69] = [ 21.53, 87.61] Ry 
 Optimized for a Real-space Cutoff    1.85 Angstroem

   l    n(q)    QCUT    max X(q) W(low)/X(q) W(high)/X(q)  e(spline) 
   0     10     8.768    25.322    0.81E-04    0.51E-04    0.48E-06
   0     10     8.768    99.187    0.78E-04    0.50E-04    0.47E-06
   1      9     8.768    11.761    0.21E-03    0.20E-03    0.37E-06
   1      9     8.768     8.275    0.24E-03    0.22E-03    0.41E-06
   2      9     8.768     3.829    0.23E-04    0.15E-03    0.18E-06
 Optimization of the real space projectors (new method)

 maximal supplied QI-value         = 15.12
 optimisation between [QCUT,QGAM] = [  8.77, 17.69] = [ 21.53, 87.61] Ry 
 Optimized for a Real-space Cutoff    1.59 Angstroem

   l    n(q)    QCUT    max X(q) W(low)/X(q) W(high)/X(q)  e(spline) 
   2      7     8.768     3.846    0.48E-04    0.11E-03    0.11E-06
   2      7     8.768     8.593    0.20E-03    0.22E-04    0.24E-06
   0      8     8.768    20.082    0.68E-04    0.88E-04    0.41E-07
   0      8     8.768     8.597    0.89E-04    0.13E-03    0.59E-07
   1      8     8.768    33.223    0.15E-03    0.53E-04    0.87E-07
   1      8     8.768    15.899    0.14E-03    0.44E-04    0.78E-07
 Optimization of the real space projectors (new method)

 maximal supplied QI-value         = 17.95
 optimisation between [QCUT,QGAM] = [  8.80, 17.59] = [ 21.67, 86.68] Ry 
 Optimized for a Real-space Cutoff    1.59 Angstroem

   l    n(q)    QCUT    max X(q) W(low)/X(q) W(high)/X(q)  e(spline) 
   0      8     8.797   175.082    0.82E-04    0.14E-03    0.89E-07
   0      8     8.797   174.004    0.79E-04    0.14E-03    0.86E-07
   1      8     8.797    54.315    0.16E-03    0.14E-04    0.30E-06
   1      8     8.797    42.441    0.16E-03    0.14E-04    0.30E-06
   2      7     8.797     3.596    0.92E-04    0.15E-03    0.85E-07
  PAW_PBE Cs_sv 08Apr2002               :
 energy of atom  1       EATOM= -555.6835
 kinetic energy error for atom=    0.0069 (will be added to EATOM!!)
  PAW_PBE Pb_d 06Sep2000                :
 energy of atom  2       EATOM=-1661.6185
 kinetic energy error for atom=    0.0498 (will be added to EATOM!!)
  PAW_PBE Br 06Sep2000                  :
 energy of atom  3       EATOM= -368.4488
 kinetic energy error for atom=    0.0072 (will be added to EATOM!!)


 POSCAR: Cs8 Pb8 Br23                            
  positions in direct lattice
  No initial velocities read in

 METAGGA = SCAN     LMAXTAU =  6    LMIXTAU =  F

 exchange correlation table for  LEXCH =        8
   RHO(1)=    0.500       N(1)  =     2000
   RHO(2)=  100.500       N(2)  =     4000

 VTST: version 3.2, (02/03/18)

 CHAIN: initializing optimizer
 
 OPT: Using VASP Conjugate-Gradient optimizer
 CHAIN: Read ICHAIN            0

 POSCAR: Cs8 Pb8 Br23                            
  positions in direct lattice
  No initial velocities read in



--------------------------------------------------------------------------------------------------------


 ion  position               nearest neighbor table
   1  0.266  0.239  0.198-
   2  0.775  0.233  0.734-
   3  0.711  0.773  0.262-
   4  0.219  0.752  0.778-
   5  0.268  0.245  0.729-
   6  0.804  0.248  0.227-
   7  0.729  0.755  0.789-
   8  0.223  0.757  0.296-
   9  0.005  0.996  0.000-  21 2.96  29 2.96  19 2.99  34 2.99  28 3.00  31 3.00
  10  0.495  0.003  0.499-  33 2.99  27 2.99  32 3.00  20 3.01  30 3.01  22 3.03
  11  0.500  0.000  0.000-  31 2.96  27 2.98  17 2.99  23 3.00  29 3.01  33 3.02
  12  0.996  1.000  0.500-  34 2.99  18 2.99  30 2.99  28 3.00  24 3.00  32 3.02
  13  0.514  0.495  0.999-  37 2.92  23 2.94  35 2.97  17 2.98  25 3.00
  14  0.995  0.503  0.496-  36 2.88  18 2.96  24 2.97  26 2.97  38 3.03
  15  0.008  0.501  0.997-  21 2.96  19 2.98  35 3.00  38 3.01  25 3.04  26 3.05
  16  0.488  0.498  0.512-  39 2.61  20 2.95  37 2.97  22 2.97  36 3.02
  17  0.480  0.747  0.977-  13 2.98  11 2.99
  18  0.960  0.750  0.461-  14 2.96  12 2.99
  19  0.985  0.249  0.974-  15 2.98   9 2.99
  20  0.442  0.254  0.473-  16 2.95  10 3.01
  21  0.044  0.748  0.031-  15 2.96   9 2.96
  22  0.530  0.748  0.522-  16 2.97  10 3.03
  23  0.537  0.250  0.044-  13 2.94  11 3.00
  24  0.011  0.253  0.533-  14 2.97  12 3.00
  25  0.260  0.467  0.953-  13 3.00  15 3.04
  26  0.946  0.531  0.742-  14 2.97  15 3.05
  27  0.541  0.031  0.752-  11 2.98  10 2.99
  28  0.048  0.028  0.253-   9 3.00  12 3.00
  29  0.756  0.977  0.039-   9 2.96  11 3.01
  30  0.247  0.963  0.551-  12 2.99  10 3.01
  31  0.252  0.030  0.948-  11 2.96   9 3.00
  32  0.742  0.040  0.453-  10 3.00  12 3.02
  33  0.445  0.969  0.248-  10 2.99  11 3.02
  34  0.954  0.963  0.748-  12 2.99   9 2.99
  35  0.762  0.538  0.048-  13 2.97  15 3.00
  36  0.236  0.538  0.549-  14 2.88  16 3.02
  37  0.560  0.464  0.757-  13 2.92  16 2.97
  38  0.059  0.468  0.250-  15 3.01  14 3.03
  39  0.622  0.492  0.340-  16 2.61


IMPORTANT INFORMATION: All symmetrisations will be switched off!
NOSYMM: (Re-)initialisation of all symmetry stuff for point group C_1.



 KPOINTS: 1x1x1                                   

Automatic generation of k-mesh.
Space group operators:
 irot       det(A)        alpha          n_x          n_y          n_z        tau_x        tau_y        tau_z
    1     1.000000     0.000001     1.000000     0.000000     0.000000     0.000000     0.000000     0.000000
 
 Subroutine IBZKPT returns following result:
 ===========================================
 
 Found      8 irreducible k-points:
 
 Following reciprocal coordinates:
            Coordinates               Weight
  0.000000  0.000000  0.000000      1.000000
  0.500000  0.000000  0.000000      1.000000
  0.000000  0.500000  0.000000      1.000000
  0.500000  0.500000  0.000000      1.000000
  0.000000  0.000000  0.500000      1.000000
  0.500000  0.000000  0.500000      1.000000
  0.000000  0.500000  0.500000      1.000000
  0.500000  0.500000  0.500000      1.000000
 
 Following cartesian coordinates:
            Coordinates               Weight
 -0.000000  0.000000  0.000000      1.000000
  0.029563  0.000000  0.031093      1.000000
 -0.000000  0.042626  0.000000      1.000000
  0.029563  0.042626  0.031093      1.000000
 -0.029563  0.000000  0.031093      1.000000
  0.000000  0.000000  0.062187      1.000000
 -0.029563  0.042626  0.031093      1.000000
  0.000000  0.042626  0.062187      1.000000
 


--------------------------------------------------------------------------------------------------------




 Dimension of arrays:
   k-points           NKPTS =      8   k-points in BZ     NKDIM =      8   number of bands    NBANDS=    208
   number of dos      NEDOS =    301   number of ions     NIONS =     39
   non local maximal  LDIM  =      6   non local SUM 2l+1 LMDIM =     18
   total plane-waves  NPLWV = 343000
   max r-space proj   IRMAX =   5734   max aug-charges    IRDMAX=  91523
   dimension x,y,z NGX =    70 NGY =   70 NGZ =   70
   dimension x,y,z NGXF=   140 NGYF=  140 NGZF=  140
   support grid    NGXF=   280 NGYF=  280 NGZF=  280
   ions per type =               8   8  23
   NGX,Y,Z   is equivalent  to a cutoff of   9.97,  9.92,  9.97 a.u.
   NGXF,Y,Z  is equivalent  to a cutoff of  19.95, 19.84, 19.95 a.u.

 SYSTEM =  CsPbBr3 cubic bulk                      
 POSCAR =  Cs8 Pb8 Br23                            

 Startparameter for this run:
   NWRITE =      2    write-flag & timer
   PREC   = accura    normal or accurate (medium, high low for compatibility)
   ISTART =      0    job   : 0-new  1-cont  2-samecut
   ICHARG =      2    charge: 1-file 2-atom 10-const
   ISPIN  =      1    spin polarized calculation?
   LNONCOLLINEAR =      F non collinear calculations
   LSORBIT =      F    spin-orbit coupling
   INIWAV =      1    electr: 0-lowe 1-rand  2-diag
   LASPH  =      T    aspherical Exc in radial PAW
   METAGGA=      F    non-selfconsistent MetaGGA calc.

 Electronic Relaxation 1
   ENCUT  =  300.0 eV  22.05 Ry    4.70 a.u.  16.48 16.57 16.48*2*pi/ulx,y,z
   ENINI  =  300.0     initial cutoff
   ENAUG  =  503.9 eV  augmentation charge cutoff
   NELM   =    200;   NELMIN=  2; NELMDL= -5     # of ELM steps 
   EDIFF  = 0.1E-05   stopping-criterion for ELM
   LREAL  =      T    real-space projection
   NLSPLINE    = F    spline interpolate recip. space projectors
   LCOMPAT=      F    compatible to vasp.4.4
   GGA_COMPAT  = T    GGA compatible to vasp.4.4-vasp.4.6
   LMAXPAW     = -100 max onsite density
   LMAXMIX     =    2 max onsite mixed and CHGCAR
   VOSKOWN=      0    Vosko Wilk Nusair interpolation
   ROPT   =   -0.00025  -0.00025  -0.00025
 Ionic relaxation
   EDIFFG = -.1E-01   stopping-criterion for IOM
   NSW    =      0    number of steps for IOM
   NBLOCK =      1;   KBLOCK =      1    inner block; outer block 
   IBRION =     -1    ionic relax: 0-MD 1-quasi-New 2-CG
   NFREE  =      1    steps in history (QN), initial steepest desc. (CG)
   ISIF   =      2    stress and relaxation
   IWAVPR =     10    prediction:  0-non 1-charg 2-wave 3-comb
   ISYM   =      0    0-nonsym 1-usesym 2-fastsym
   LCORR  =      T    Harris-Foulkes like correction to forces

   POTIM  = 0.5000    time-step for ionic-motion
   TEIN   =    0.0    initial temperature
   TEBEG  =    0.0;   TEEND  =   0.0 temperature during run
   SMASS  =  -3.00    Nose mass-parameter (am)
   estimated Nose-frequenzy (Omega)   =  0.10E-29 period in steps =****** mass=  -0.311E-26a.u.
   SCALEE = 1.0000    scale energy and forces
   NPACO  =    256;   APACO  = 16.0  distance and # of slots for P.C.
   PSTRESS=    0.0 pullay stress

  Mass of Ions in am
   POMASS = 132.90207.20 79.90
  Ionic Valenz
   ZVAL   =   9.00 14.00  7.00
  Atomic Wigner-Seitz radii
   RWIGS  =  -1.00 -1.00 -1.00
  virtual crystal weights 
   VCA    =   1.00  1.00  1.00
   NELECT =     344.0000    total number of electrons
   NUPDOWN=       0.0000    fix difference up-down

 DOS related values:
   EMIN   =  10.00;   EMAX   =-10.00  energy-range for DOS
   EFERMI =   0.00
   ISMEAR =     0;   SIGMA  =   0.01  broadening in eV -4-tet -1-fermi 0-gaus

 Electronic relaxation 2 (details)
   IALGO  =     38    algorithm
   LDIAG  =      T    sub-space diagonalisation (order eigenvalues)
   LSUBROT=      F    optimize rotation matrix (better conditioning)
   TURBO    =      0    0=normal 1=particle mesh
   IRESTART =      0    0=no restart 2=restart with 2 vectors
   NREBOOT  =      0    no. of reboots
   NMIN     =      0    reboot dimension
   EREF     =   0.00    reference energy to select bands
   IMIX   =      4    mixing-type and parameters
     AMIX     =   0.40;   BMIX     =  1.00
     AMIX_MAG =   1.60;   BMIX_MAG =  1.00
     AMIN     =   0.10
     WC   =   100.;   INIMIX=   1;  MIXPRE=   1;  MAXMIX= -45

 Intra band minimization:
   WEIMIN = 0.0000     energy-eigenvalue tresh-hold
   EBREAK =  0.12E-08  absolut break condition
   DEPER  =   0.30     relativ break condition  

   TIME   =   0.40     timestep for ELM

  volume/ion in A,a.u.               =      40.90       276.00
  Fermi-wavevector in a.u.,A,eV,Ry     =   0.981747  1.855232 13.113654  0.963826
  Thomas-Fermi vector in A             =   2.112777

 Write flags
   LWAVE        =      F    write WAVECAR
   LDOWNSAMPLE  =      F    k-point downsampling of WAVECAR
   LCHARG       =      F    write CHGCAR
   LVTOT        =      F    write LOCPOT, total local potential
   LVHAR        =      T    write LOCPOT, Hartree potential only
   LELF         =      F    write electronic localiz. function (ELF)
   LORBIT       =     10    0 simple, 1 ext, 2 COOP (PROOUT), +10 PAW based schemes


 Dipole corrections
   LMONO  =      F    monopole corrections only (constant potential shift)
   LDIPOL =      F    correct potential (dipole corrections)
   IDIPOL =      0    1-x, 2-y, 3-z, 4-all directions 
   EPSILON=  1.0000000 bulk dielectric constant

 Exchange correlation treatment:
   GGA     =    --    GGA type
   LEXCH   =     8    internal setting for exchange type
   VOSKOWN=      0    Vosko Wilk Nusair interpolation
   LHFCALC =     F    Hartree Fock is set to
   LHFONE  =     F    Hartree Fock one center treatment
   AEXX    =    0.0000 exact exchange contribution

 Linear response parameters
   LEPSILON=     F    determine dielectric tensor
   LRPA    =     F    only Hartree local field effects (RPA)
   LNABLA  =     F    use nabla operator in PAW spheres
   LVEL    =     F    velocity operator in full k-point grid
   LINTERFAST=   F  fast interpolation
   KINTER  =     0    interpolate to denser k-point grid
   CSHIFT  =0.1000    complex shift for real part using Kramers Kronig
   OMEGAMAX=  -1.0    maximum frequency
   DEG_THRESHOLD= 0.2000000E-02 threshold for treating states as degnerate
   RTIME   =   -0.100 relaxation time in fs
  (WPLASMAI=    0.000 imaginary part of plasma frequency in eV, 0.658/RTIME)
   DFIELD  = 0.0000000 0.0000000 0.0000000 field for delta impulse in time

 Orbital magnetization related:
   ORBITALMAG=     F  switch on orbital magnetization
   LCHIMAG   =     F  perturbation theory with respect to B field
   DQ        =  0.001000  dq finite difference perturbation B field
   LLRAUG    =     F  two centre corrections for induced B field



--------------------------------------------------------------------------------------------------------


 Static calculation
 charge density and potential will be updated during run
 non-spin polarized calculation
 Variant of blocked Davidson
 Davidson routine will perform the subspace rotation
 perform sub-space diagonalisation
    after iterative eigenvector-optimisation
 modified Broyden-mixing scheme, WC =      100.0
 initial mixing is a Kerker type mixing with AMIX =  0.4000 and BMIX =      1.0000
 Hartree-type preconditioning will be used
 using additional bands           36
 real space projection scheme for non local part
 use partial core corrections
 calculate Harris-corrections to forces   (improved forces if not selfconsistent)
 use gradient corrections 
 use of overlap-Matrix (Vanderbilt PP)
 Gauss-broadening in eV      SIGMA  =   0.01


--------------------------------------------------------------------------------------------------------


  energy-cutoff  :      300.00
  volume of cell :     1595.09
      direct lattice vectors                 reciprocal lattice vectors
     8.456489000  0.000000000  8.040301000     0.059126193 -0.000000000  0.062186727
     0.000000000 11.729847000  0.000000000     0.000000000  0.085252604 -0.000000000
    -8.456489000  0.000000000  8.040301000    -0.059126193  0.000000000  0.062186727

  length of vectors
    11.668703715 11.729847000 11.668703715     0.085808482  0.085252604  0.085808482



 k-points in units of 2pi/SCALE and weight: 1x1x1                                   
  -0.00000000  0.00000000  0.00000000       0.125
   0.02956310  0.00000000  0.03109336       0.125
  -0.00000000  0.04262630  0.00000000       0.125
   0.02956310  0.04262630  0.03109336       0.125
  -0.02956310  0.00000000  0.03109336       0.125
   0.00000000  0.00000000  0.06218673       0.125
  -0.02956310  0.04262630  0.03109336       0.125
   0.00000000  0.04262630  0.06218673       0.125

 k-points in reciprocal lattice and weights: 1x1x1                                   
   0.00000000  0.00000000  0.00000000       0.125
   0.50000000  0.00000000  0.00000000       0.125
   0.00000000  0.50000000  0.00000000       0.125
   0.50000000  0.50000000  0.00000000       0.125
   0.00000000  0.00000000  0.50000000       0.125
   0.50000000  0.00000000  0.50000000       0.125
   0.00000000  0.50000000  0.50000000       0.125
   0.50000000  0.50000000  0.50000000       0.125

 position of ions in fractional coordinates (direct lattice) 
   0.26551900  0.23872100  0.19829500
   0.77513000  0.23256000  0.73437000
   0.71149700  0.77286800  0.26161400
   0.21867100  0.75246200  0.77785400
   0.26843200  0.24454100  0.72916500
   0.80442700  0.24780900  0.22734800
   0.72860400  0.75537400  0.78875300
   0.22325000  0.75739000  0.29555100
   0.00452300  0.99598000  0.00005200
   0.49479800  0.00324500  0.49949100
   0.50027600  0.00008200  0.00029600
   0.99574000  0.99988100  0.50046500
   0.51382300  0.49522000  0.99920000
   0.99494200  0.50296200  0.49586300
   0.00827100  0.50084500  0.99689900
   0.48787800  0.49820400  0.51218100
   0.47958800  0.74660900  0.97724500
   0.95965600  0.75027100  0.46078000
   0.98455300  0.24871700  0.97375500
   0.44180300  0.25363000  0.47294800
   0.04434200  0.74825300  0.03110700
   0.52981600  0.74798100  0.52156800
   0.53747300  0.24971000  0.04417500
   0.01073800  0.25306100  0.53264500
   0.26044200  0.46713900  0.95288800
   0.94592400  0.53081700  0.74169800
   0.54138200  0.03116100  0.75245800
   0.04797700  0.02841400  0.25324700
   0.75607600  0.97740500  0.03860400
   0.24725200  0.96338200  0.55050300
   0.25166500  0.02970600  0.94761700
   0.74235100  0.04027100  0.45298300
   0.44505900  0.96855000  0.24801100
   0.95399900  0.96339700  0.74817400
   0.76199300  0.53836000  0.04751400
   0.23633800  0.53771000  0.54859100
   0.56008100  0.46408100  0.75722300
   0.05912200  0.46791300  0.24975300
   0.62153100  0.49181800  0.33966000

 position of ions in cartesian coordinates  (Angst):
   0.56847902  2.80016081  3.72920417
   0.34468649  2.72789322 12.13683436
   3.80443064  9.06562339  7.82410535
  -4.72872489  8.82626413  8.01236095
  -3.89618355  2.86842852  8.02098016
   4.88006222  2.90676166  8.29578156
  -0.50864936  8.86042145 12.20000700
  -0.61141261  8.88406882  4.17131620
   0.03780896 11.68269302  0.03678438
  -0.03968630  0.03806335  7.99438284
   4.22807537  0.00096185  4.02474955
   4.18828759 11.72845115 12.02993856
  -4.10458526  5.80885483 12.16516034
   4.22045607  5.89966731 11.98652093
  -8.36032181  5.87483522  8.08186936
  -0.20551805  5.84385669  8.04077538
  -4.20843095  8.75760934 11.71337583
   4.21873941  8.80056404 11.42073299
   0.09131317  2.91741236 15.74538577
  -0.26337735  2.97504109  7.35487338
   0.11192163  8.77689321  0.60663267
   0.06974912  8.77370269  8.45344383
   4.17156911  2.92906009  4.67662500
  -4.41350080  2.96836681  4.36896288
  -5.85566198  5.47946900  9.75553841
   1.72703492  6.22640219 13.56898885
  -1.78496187  0.36551376 10.40286305
  -1.73586350  0.33329187  2.42193163
   6.06729408 11.46481111  6.38946640
  -2.56443875 11.30032346  6.41419032
  -5.88531043  0.34844683  9.64258826
   2.44703731  0.47237267  9.61084516
   1.66633424 11.36094331  5.57249141
   1.74055685 11.30049941 13.68598327
   6.04198380  6.31488043  6.50867994
  -2.64056406  6.30725603  6.31106542
  -1.66712915  5.44359913 10.59152067
  -1.61206895  5.48854790  2.48344797
   2.38363901  5.76894989  7.72826496



--------------------------------------------------------------------------------------------------------


 k-point  1 :   0.0000 0.0000 0.0000  plane waves:   18809
 k-point  2 :   0.5000 0.0000 0.0000  plane waves:   18808
 k-point  3 :   0.0000 0.5000 0.0000  plane waves:   18794
 k-point  4 :   0.5000 0.5000 0.0000  plane waves:   18804
 k-point  5 :   0.0000 0.0000 0.5000  plane waves:   18808
 k-point  6 :   0.5000 0.0000 0.5000  plane waves:   18790
 k-point  7 :   0.0000 0.5000 0.5000  plane waves:   18804
 k-point  8 :   0.5000 0.5000 0.5000  plane waves:   18800

 maximum and minimum number of plane-waves per node :      2389     2304

 maximum number of plane-waves:     18809
 maximum index in each direction: 
   IXMAX=   16   IYMAX=   16   IZMAX=   16
   IXMIN=  -16   IYMIN=  -17   IZMIN=  -16


 real space projection operators:
  total allocation   :      16739.84 KBytes
  max/ min on nodes  :       2192.07       1812.52


 parallel 3D FFT for wavefunctions:
    minimum data exchange during FFTs selected (reduces bandwidth)
 parallel 3D FFT for charge:
    minimum data exchange during FFTs selected (reduces bandwidth)


 total amount of memory used by VASP MPI-rank0    60648. kBytes
=======================================================================

   base      :      30000. kBytes
   nonlr-proj:       6483. kBytes
   fftplans  :       8423. kBytes
   grid      :       7465. kBytes
   one-center:         77. kBytes
   wavefun   :       8200. kBytes

     INWAV:  cpu time    0.0000: real time    0.0000
 Broyden mixing: mesh for mixing (old mesh)
   NGX = 33   NGY = 33   NGZ = 33
  (NGX  =140   NGY  =140   NGZ  =140)
  gives a total of  35937 points

 initial charge density was supplied:
 charge density of overlapping atoms calculated
 number of electron     345.0000000 magnetization 
 keeping initial charge density in first step


--------------------------------------------------------------------------------------------------------


 Maximum index for non-local projection operator          730
 Maximum index for augmentation-charges         3197 (set IRDMAX)


--------------------------------------------------------------------------------------------------------


 First call to EWALD:  gamma=   0.152
 Maximum number of real-space cells 3x 3x 3
 Maximum number of reciprocal cells 3x 3x 3

    FEWALD:  cpu time    0.0042: real time    0.0042


--------------------------------------- Iteration      1(   1)  ---------------------------------------


    POTLOK:  cpu time    0.2660: real time    0.2689
    SETDIJ:  cpu time    1.2068: real time    1.2068
     EDDAV:  cpu time   16.5053: real time   16.5113
       DOS:  cpu time    0.0007: real time    0.0007
    --------------------------------------------
      LOOP:  cpu time   17.9788: real time   17.9878

 eigenvalue-minimisations  :  3464
 total energy-change (2. order) : 0.1332034E+04  (-0.1105741E+05)
 number of electron     345.0000000 magnetization 
 augmentation part      345.0000000 magnetization 

 Free energy of the ion-electron system (eV)
  ---------------------------------------------------
  alpha Z        PSCENC =       872.70583573
  Ewald energy   TEWEN  =    -17927.96605853
  -Hartree energ DENC   =     -7428.60964191
  -exchange      EXHF   =         0.00000000
  -V(xc)+E(xc)   XCENC  =       908.15092133
  PAW double counting   =     21345.28103884   -22405.85761495
  entropy T*S    EENTRO =        -0.00024640
  eigenvalues    EBANDS =      -243.78900835
  atomic energy  EATOM  =     26212.11861568
  Solvation  Ediel_sol  =         0.00000000
  ---------------------------------------------------
  free energy    TOTEN  =      1332.03384143 eV

  energy without entropy =     1332.03408784  energy(sigma->0) =     1332.03396464


--------------------------------------------------------------------------------------------------------




--------------------------------------- Iteration      1(   2)  ---------------------------------------


     EDDAV:  cpu time   18.3275: real time   18.3379
       DOS:  cpu time    0.0004: real time    0.0004
    --------------------------------------------
      LOOP:  cpu time   18.3279: real time   18.3383

 eigenvalue-minimisations  :  4072
 total energy-change (2. order) :-0.2444180E+04  (-0.2359159E+04)
 number of electron     345.0000000 magnetization 
 augmentation part      345.0000000 magnetization 

 Free energy of the ion-electron system (eV)
  ---------------------------------------------------
  alpha Z        PSCENC =       872.70583573
  Ewald energy   TEWEN  =    -17927.96605853
  -Hartree energ DENC   =     -7428.60964191
  -exchange      EXHF   =         0.00000000
  -V(xc)+E(xc)   XCENC  =       908.15092133
  PAW double counting   =     21345.28103884   -22405.85761495
  entropy T*S    EENTRO =        -0.00000000
  eigenvalues    EBANDS =     -2687.96942287
  atomic energy  EATOM  =     26212.11861568
  Solvation  Ediel_sol  =         0.00000000
  ---------------------------------------------------
  free energy    TOTEN  =     -1112.14632668 eV

  energy without entropy =    -1112.14632668  energy(sigma->0) =    -1112.14632668


--------------------------------------------------------------------------------------------------------




--------------------------------------- Iteration      1(   3)  ---------------------------------------


     EDDAV:  cpu time   19.2920: real time   19.3418
       DOS:  cpu time    0.0004: real time    0.0004
    --------------------------------------------
      LOOP:  cpu time   19.2924: real time   19.3421

 eigenvalue-minimisations  :  4432
 total energy-change (2. order) :-0.3627273E+03  (-0.3607574E+03)
 number of electron     345.0000000 magnetization 
 augmentation part      345.0000000 magnetization 

 Free energy of the ion-electron system (eV)
  ---------------------------------------------------
  alpha Z        PSCENC =       872.70583573
  Ewald energy   TEWEN  =    -17927.96605853
  -Hartree energ DENC   =     -7428.60964191
  -exchange      EXHF   =         0.00000000
  -V(xc)+E(xc)   XCENC  =       908.15092133
  PAW double counting   =     21345.28103884   -22405.85761495
  entropy T*S    EENTRO =        -0.00000000
  eigenvalues    EBANDS =     -3050.69673299
  atomic energy  EATOM  =     26212.11861568
  Solvation  Ediel_sol  =         0.00000000
  ---------------------------------------------------
  free energy    TOTEN  =     -1474.87363680 eV

  energy without entropy =    -1474.87363680  energy(sigma->0) =    -1474.87363680


--------------------------------------------------------------------------------------------------------




--------------------------------------- Iteration      1(   4)  ---------------------------------------


     EDDAV:  cpu time   17.9169: real time   17.9496
       DOS:  cpu time    0.0004: real time    0.0004
    --------------------------------------------
      LOOP:  cpu time   17.9173: real time   17.9499

 eigenvalue-minimisations  :  3944
 total energy-change (2. order) :-0.1186829E+02  (-0.1183344E+02)
 number of electron     345.0000000 magnetization 
 augmentation part      345.0000000 magnetization 

 Free energy of the ion-electron system (eV)
  ---------------------------------------------------
  alpha Z        PSCENC =       872.70583573
  Ewald energy   TEWEN  =    -17927.96605853
  -Hartree energ DENC   =     -7428.60964191
  -exchange      EXHF   =         0.00000000
  -V(xc)+E(xc)   XCENC  =       908.15092133
  PAW double counting   =     21345.28103884   -22405.85761495
  entropy T*S    EENTRO =        -0.00000000
  eigenvalues    EBANDS =     -3062.56502358
  atomic energy  EATOM  =     26212.11861568
  Solvation  Ediel_sol  =         0.00000000
  ---------------------------------------------------
  free energy    TOTEN  =     -1486.74192739 eV

  energy without entropy =    -1486.74192739  energy(sigma->0) =    -1486.74192739


--------------------------------------------------------------------------------------------------------




--------------------------------------- Iteration      1(   5)  ---------------------------------------


     EDDAV:  cpu time   19.3174: real time   19.3729
       DOS:  cpu time    0.0004: real time    0.0004
    CHARGE:  cpu time    2.7102: real time    2.7103
    MIXING:  cpu time    0.0014: real time    0.0014
    --------------------------------------------
      LOOP:  cpu time   22.0294: real time   22.0849

 eigenvalue-minimisations  :  4440
 total energy-change (2. order) :-0.5320257E+00  (-0.5317556E+00)
 number of electron     343.9999999 magnetization 
 augmentation part       -5.0526384 magnetization 

 Broyden mixing:
  rms(total) = 0.10216E+01    rms(broyden)= 0.10209E+01
  rms(prec ) = 0.14039E+01
  weight for this iteration     100.00

 Free energy of the ion-electron system (eV)
  ---------------------------------------------------
  alpha Z        PSCENC =       872.70583573
  Ewald energy   TEWEN  =    -17927.96605853
  -Hartree energ DENC   =     -7428.60964191
  -exchange      EXHF   =         0.00000000
  -V(xc)+E(xc)   XCENC  =       908.15092133
  PAW double counting   =     21345.28103884   -22405.85761495
  entropy T*S    EENTRO =        -0.00000000
  eigenvalues    EBANDS =     -3063.09704923
  atomic energy  EATOM  =     26212.11861568
  Solvation  Ediel_sol  =         0.00000000
  ---------------------------------------------------
  free energy    TOTEN  =     -1487.27395304 eV

  energy without entropy =    -1487.27395304  energy(sigma->0) =    -1487.27395304


--------------------------------------------------------------------------------------------------------




--------------------------------------- Iteration      1(   6)  ---------------------------------------


    POTLOK:  cpu time    0.2620: real time    0.3077
    SETDIJ:  cpu time    1.1993: real time    1.1993
     EDDAV:  cpu time   18.9927: real time   18.9935
       DOS:  cpu time    0.0006: real time    0.0006
    CHARGE:  cpu time    2.7003: real time    2.7004
    MIXING:  cpu time    0.0015: real time    0.0015
    --------------------------------------------
      LOOP:  cpu time   23.1564: real time   23.2031

 eigenvalue-minimisations  :  4320
 total energy-change (2. order) : 0.7768351E+02  (-0.2356177E+01)
 number of electron     343.9999999 magnetization 
 augmentation part       -3.6567583 magnetization 

 Broyden mixing:
  rms(total) = 0.72748E+00    rms(broyden)= 0.72740E+00
  rms(prec ) = 0.90579E+00
  weight for this iteration     100.00

 eigenvalues of (default mixing * dielectric matrix)
  average eigenvalue GAMMA=   1.2067
  1.2067

 Free energy of the ion-electron system (eV)
  ---------------------------------------------------
  alpha Z        PSCENC =       872.70583573
  Ewald energy   TEWEN  =    -17927.96605853
  -Hartree energ DENC   =     -7409.49540472
  -exchange      EXHF   =         0.00000000
  -V(xc)+E(xc)   XCENC  =       936.18778119
  PAW double counting   =     21638.32291093   -22697.16937876
  entropy T*S    EENTRO =        -0.00000000
  eigenvalues    EBANDS =     -3034.29474556
  atomic energy  EATOM  =     26212.11861568
  Solvation  Ediel_sol  =         0.00000000
  ---------------------------------------------------
  free energy    TOTEN  =     -1409.59044404 eV

  energy without entropy =    -1409.59044404  energy(sigma->0) =    -1409.59044404


--------------------------------------------------------------------------------------------------------




--------------------------------------- Iteration      1(   7)  ---------------------------------------


    POTLOK:  cpu time    0.2525: real time    0.3140
    SETDIJ:  cpu time    1.1975: real time    1.1975
     EDDAV:  cpu time   18.3044: real time   18.3052
       DOS:  cpu time    0.0005: real time    0.0005
    CHARGE:  cpu time    2.6930: real time    2.6931
    MIXING:  cpu time    0.0016: real time    0.0016
    --------------------------------------------
      LOOP:  cpu time   22.4495: real time   22.5118

 eigenvalue-minimisations  :  4080
 total energy-change (2. order) : 0.5101376E+00  (-0.8524302E+00)
 number of electron     343.9999999 magnetization 
 augmentation part       -3.1011078 magnetization 

 Broyden mixing:
  rms(total) = 0.37178E+00    rms(broyden)= 0.37176E+00
  rms(prec ) = 0.41369E+00
  weight for this iteration     100.00

 eigenvalues of (default mixing * dielectric matrix)
  average eigenvalue GAMMA=   1.3065
  1.3065  1.3065

 Free energy of the ion-electron system (eV)
  ---------------------------------------------------
  alpha Z        PSCENC =       872.70583573
  Ewald energy   TEWEN  =    -17927.96605853
  -Hartree energ DENC   =     -7451.82560606
  -exchange      EXHF   =         0.00000000
  -V(xc)+E(xc)   XCENC  =       941.25242715
  PAW double counting   =     22260.46269419   -23317.45288936
  entropy T*S    EENTRO =        -0.00000000
  eigenvalues    EBANDS =     -2998.37532524
  atomic energy  EATOM  =     26212.11861568
  Solvation  Ediel_sol  =         0.00000000
  ---------------------------------------------------
  free energy    TOTEN  =     -1409.08030644 eV

  energy without entropy =    -1409.08030644  energy(sigma->0) =    -1409.08030644


--------------------------------------------------------------------------------------------------------




--------------------------------------- Iteration      1(   8)  ---------------------------------------


    POTLOK:  cpu time    0.2963: real time    0.3109
    SETDIJ:  cpu time    1.1981: real time    1.1981
     EDDAV:  cpu time   18.1591: real time   18.1599
       DOS:  cpu time    0.0004: real time    0.0004
    CHARGE:  cpu time    2.7057: real time    2.7059
    MIXING:  cpu time    0.0015: real time    0.0015
    --------------------------------------------
      LOOP:  cpu time   22.3610: real time   22.3767

 eigenvalue-minimisations  :  4032
 total energy-change (2. order) :-0.1746118E+00  (-0.4400335E-01)
 number of electron     343.9999999 magnetization 
 augmentation part       -3.1898451 magnetization 

 Broyden mixing:
  rms(total) = 0.21553E+00    rms(broyden)= 0.21553E+00
  rms(prec ) = 0.24438E+00
  weight for this iteration     100.00

 eigenvalues of (default mixing * dielectric matrix)
  average eigenvalue GAMMA=   1.6913
  1.1258  1.3013  2.6467

 Free energy of the ion-electron system (eV)
  ---------------------------------------------------
  alpha Z        PSCENC =       872.70583573
  Ewald energy   TEWEN  =    -17927.96605853
  -Hartree energ DENC   =     -7457.87197252
  -exchange      EXHF   =         0.00000000
  -V(xc)+E(xc)   XCENC  =       941.98402461
  PAW double counting   =     22497.31975806   -23554.70452658
  entropy T*S    EENTRO =        -0.00000000
  eigenvalues    EBANDS =     -2992.84059471
  atomic energy  EATOM  =     26212.11861568
  Solvation  Ediel_sol  =         0.00000000
  ---------------------------------------------------
  free energy    TOTEN  =     -1409.25491826 eV

  energy without entropy =    -1409.25491826  energy(sigma->0) =    -1409.25491826


--------------------------------------------------------------------------------------------------------




--------------------------------------- Iteration      1(   9)  ---------------------------------------


    POTLOK:  cpu time    0.3048: real time    0.3156
    SETDIJ:  cpu time    1.1974: real time    1.1975
     EDDAV:  cpu time   17.3820: real time   17.3827
       DOS:  cpu time    0.0005: real time    0.0005
    CHARGE:  cpu time    2.7019: real time    2.7020
    MIXING:  cpu time    0.0015: real time    0.0015
    --------------------------------------------
      LOOP:  cpu time   21.5882: real time   21.6000

 eigenvalue-minimisations  :  3760
 total energy-change (2. order) :-0.6728778E-01  (-0.1730495E-01)
 number of electron     343.9999999 magnetization 
 augmentation part       -3.2282650 magnetization 

 Broyden mixing:
  rms(total) = 0.45226E-01    rms(broyden)= 0.45223E-01
  rms(prec ) = 0.54578E-01
  weight for this iteration     100.00

 eigenvalues of (default mixing * dielectric matrix)
  average eigenvalue GAMMA=   1.4699
  2.5284  1.2502  1.2502  0.8510

 Free energy of the ion-electron system (eV)
  ---------------------------------------------------
  alpha Z        PSCENC =       872.70583573
  Ewald energy   TEWEN  =    -17927.96605853
  -Hartree energ DENC   =     -7464.97615760
  -exchange      EXHF   =         0.00000000
  -V(xc)+E(xc)   XCENC  =       943.87113250
  PAW double counting   =     22832.36653699   -23890.60700367
  entropy T*S    EENTRO =        -0.00000000
  eigenvalues    EBANDS =     -2986.83510714
  atomic energy  EATOM  =     26212.11861568
  Solvation  Ediel_sol  =         0.00000000
  ---------------------------------------------------
  free energy    TOTEN  =     -1409.32220604 eV

  energy without entropy =    -1409.32220604  energy(sigma->0) =    -1409.32220604


--------------------------------------------------------------------------------------------------------




--------------------------------------- Iteration      1(  10)  ---------------------------------------


    POTLOK:  cpu time    0.2772: real time    0.2844
    SETDIJ:  cpu time    1.1963: real time    1.1964
     EDDAV:  cpu time   19.6138: real time   19.6146
       DOS:  cpu time    0.0004: real time    0.0004
    CHARGE:  cpu time    2.6998: real time    2.6999
    MIXING:  cpu time    0.0016: real time    0.0016
    --------------------------------------------
      LOOP:  cpu time   23.7891: real time   23.7973

 eigenvalue-minimisations  :  4536
 total energy-change (2. order) :-0.3592782E-02  (-0.2434455E-02)
 number of electron     343.9999999 magnetization 
 augmentation part       -3.2154885 magnetization 

 Broyden mixing:
  rms(total) = 0.32364E-01    rms(broyden)= 0.32362E-01
  rms(prec ) = 0.40748E-01
  weight for this iteration     100.00

 eigenvalues of (default mixing * dielectric matrix)
  average eigenvalue GAMMA=   1.3107
  2.4143  1.3286  1.3286  0.8497  0.6322

 Free energy of the ion-electron system (eV)
  ---------------------------------------------------
  alpha Z        PSCENC =       872.70583573
  Ewald energy   TEWEN  =    -17927.96605853
  -Hartree energ DENC   =     -7463.30986304
  -exchange      EXHF   =         0.00000000
  -V(xc)+E(xc)   XCENC  =       943.72900026
  PAW double counting   =     22802.70739654   -23861.00510351
  entropy T*S    EENTRO =        -0.00000000
  eigenvalues    EBANDS =     -2988.30562195
  atomic energy  EATOM  =     26212.11861568
  Solvation  Ediel_sol  =         0.00000000
  ---------------------------------------------------
  free energy    TOTEN  =     -1409.32579882 eV

  energy without entropy =    -1409.32579882  energy(sigma->0) =    -1409.32579882


--------------------------------------------------------------------------------------------------------




--------------------------------------- Iteration      1(  11)  ---------------------------------------


    POTLOK:  cpu time    0.2875: real time    0.2910
    SETDIJ:  cpu time    1.2022: real time    1.2022
     EDDAV:  cpu time   17.3736: real time   17.3745
       DOS:  cpu time    0.0005: real time    0.0005
    CHARGE:  cpu time    2.7064: real time    2.7065
    MIXING:  cpu time    0.0016: real time    0.0016
    --------------------------------------------
      LOOP:  cpu time   21.5718: real time   21.5762

 eigenvalue-minimisations  :  3752
 total energy-change (2. order) :-0.1787331E-02  (-0.2619111E-03)
 number of electron     343.9999999 magnetization 
 augmentation part       -3.2142749 magnetization 

 Broyden mixing:
  rms(total) = 0.15691E-01    rms(broyden)= 0.15690E-01
  rms(prec ) = 0.23467E-01
  weight for this iteration     100.00

 eigenvalues of (default mixing * dielectric matrix)
  average eigenvalue GAMMA=   1.6010
  2.7527  2.7527  1.2037  1.2037  0.8466  0.8466

 Free energy of the ion-electron system (eV)
  ---------------------------------------------------
  alpha Z        PSCENC =       872.70583573
  Ewald energy   TEWEN  =    -17927.96605853
  -Hartree energ DENC   =     -7462.02175627
  -exchange      EXHF   =         0.00000000
  -V(xc)+E(xc)   XCENC  =       943.67174547
  PAW double counting   =     22786.79065291   -23845.25150354
  entropy T*S    EENTRO =        -0.00000000
  eigenvalues    EBANDS =     -2989.37511761
  atomic energy  EATOM  =     26212.11861568
  Solvation  Ediel_sol  =         0.00000000
  ---------------------------------------------------
  free energy    TOTEN  =     -1409.32758615 eV

  energy without entropy =    -1409.32758615  energy(sigma->0) =    -1409.32758615


--------------------------------------------------------------------------------------------------------




--------------------------------------- Iteration      1(  12)  ---------------------------------------


    POTLOK:  cpu time    0.2503: real time    0.2944
    SETDIJ:  cpu time    1.2005: real time    1.2005
     EDDAV:  cpu time   16.9065: real time   16.9073
       DOS:  cpu time    0.0004: real time    0.0004
    CHARGE:  cpu time    2.7012: real time    2.7013
    MIXING:  cpu time    0.0017: real time    0.0017
    --------------------------------------------
      LOOP:  cpu time   21.0606: real time   21.1057

 eigenvalue-minimisations  :  3592
 total energy-change (2. order) :-0.2612860E-02  (-0.5299036E-03)
 number of electron     343.9999999 magnetization 
 augmentation part       -3.2174329 magnetization 

 Broyden mixing:
  rms(total) = 0.10061E-01    rms(broyden)= 0.10060E-01
  rms(prec ) = 0.12887E-01
  weight for this iteration     100.00

 eigenvalues of (default mixing * dielectric matrix)
  average eigenvalue GAMMA=   1.5765
  2.8363  2.8363  1.2827  1.2827  0.8768  0.9601  0.9601

 Free energy of the ion-electron system (eV)
  ---------------------------------------------------
  alpha Z        PSCENC =       872.70583573
  Ewald energy   TEWEN  =    -17927.96605853
  -Hartree energ DENC   =     -7461.19323226
  -exchange      EXHF   =         0.00000000
  -V(xc)+E(xc)   XCENC  =       943.71006777
  PAW double counting   =     22781.01990107   -23839.75971871
  entropy T*S    EENTRO =        -0.00000000
  eigenvalues    EBANDS =     -2989.96560976
  atomic energy  EATOM  =     26212.11861568
  Solvation  Ediel_sol  =         0.00000000
  ---------------------------------------------------
  free energy    TOTEN  =     -1409.33019901 eV

  energy without entropy =    -1409.33019901  energy(sigma->0) =    -1409.33019901


--------------------------------------------------------------------------------------------------------




--------------------------------------- Iteration      1(  13)  ---------------------------------------


    POTLOK:  cpu time    0.2728: real time    0.3175
    SETDIJ:  cpu time    1.2023: real time    1.2023
     EDDAV:  cpu time   19.4308: real time   19.4316
       DOS:  cpu time    0.0004: real time    0.0004
    CHARGE:  cpu time    2.7017: real time    2.7018
    MIXING:  cpu time    0.0019: real time    0.0019
    --------------------------------------------
      LOOP:  cpu time   23.6099: real time   23.6556

 eigenvalue-minimisations  :  4464
 total energy-change (2. order) : 0.3494023E-03  (-0.1405337E-03)
 number of electron     343.9999999 magnetization 
 augmentation part       -3.2184825 magnetization 

 Broyden mixing:
  rms(total) = 0.50994E-02    rms(broyden)= 0.50988E-02
  rms(prec ) = 0.60334E-02
  weight for this iteration     100.00

 eigenvalues of (default mixing * dielectric matrix)
  average eigenvalue GAMMA=   1.5478
  3.1554  2.5175  1.5490  1.2439  1.0870  1.0870  0.9620  0.7805

 Free energy of the ion-electron system (eV)
  ---------------------------------------------------
  alpha Z        PSCENC =       872.70583573
  Ewald energy   TEWEN  =    -17927.96605853
  -Hartree energ DENC   =     -7462.13299497
  -exchange      EXHF   =         0.00000000
  -V(xc)+E(xc)   XCENC  =       943.76598685
  PAW double counting   =     22780.26427414   -23838.96198735
  entropy T*S    EENTRO =        -0.00000000
  eigenvalues    EBANDS =     -2989.12352116
  atomic energy  EATOM  =     26212.11861568
  Solvation  Ediel_sol  =         0.00000000
  ---------------------------------------------------
  free energy    TOTEN  =     -1409.32984961 eV

  energy without entropy =    -1409.32984961  energy(sigma->0) =    -1409.32984961


--------------------------------------------------------------------------------------------------------




--------------------------------------- Iteration      1(  14)  ---------------------------------------


    POTLOK:  cpu time    0.2928: real time    0.3163
    SETDIJ:  cpu time    1.2020: real time    1.2020
     EDDAV:  cpu time   17.6301: real time   17.6309
       DOS:  cpu time    0.0004: real time    0.0004
    CHARGE:  cpu time    2.7025: real time    2.7026
    MIXING:  cpu time    0.0018: real time    0.0018
    --------------------------------------------
      LOOP:  cpu time   21.8296: real time   21.8541

 eigenvalue-minimisations  :  3840
 total energy-change (2. order) : 0.9172256E-04  (-0.4422416E-04)
 number of electron     343.9999999 magnetization 
 augmentation part       -3.2177270 magnetization 

 Broyden mixing:
  rms(total) = 0.25660E-02    rms(broyden)= 0.25649E-02
  rms(prec ) = 0.33182E-02
  weight for this iteration     100.00

 eigenvalues of (default mixing * dielectric matrix)
  average eigenvalue GAMMA=   1.5293
  3.2146  2.1617  2.1617  1.1040  1.1040  1.1428  1.1428  0.8663  0.8663

 Free energy of the ion-electron system (eV)
  ---------------------------------------------------
  alpha Z        PSCENC =       872.70583573
  Ewald energy   TEWEN  =    -17927.96605853
  -Hartree energ DENC   =     -7462.47356644
  -exchange      EXHF   =         0.00000000
  -V(xc)+E(xc)   XCENC  =       943.78666421
  PAW double counting   =     22782.01385280   -23840.68786242
  entropy T*S    EENTRO =        -0.00000000
  eigenvalues    EBANDS =     -2988.82723893
  atomic energy  EATOM  =     26212.11861568
  Solvation  Ediel_sol  =         0.00000000
  ---------------------------------------------------
  free energy    TOTEN  =     -1409.32975789 eV

  energy without entropy =    -1409.32975789  energy(sigma->0) =    -1409.32975789


--------------------------------------------------------------------------------------------------------




--------------------------------------- Iteration      1(  15)  ---------------------------------------


    POTLOK:  cpu time    0.2586: real time    0.3151
    SETDIJ:  cpu time    1.2017: real time    1.2018
     EDDAV:  cpu time   17.8052: real time   17.8060
       DOS:  cpu time    0.0004: real time    0.0004
    CHARGE:  cpu time    2.7084: real time    2.7085
    MIXING:  cpu time    0.0019: real time    0.0019
    --------------------------------------------
      LOOP:  cpu time   21.9761: real time   22.0337

 eigenvalue-minimisations  :  3896
 total energy-change (2. order) : 0.1772378E-04  (-0.2850751E-05)
 number of electron     343.9999999 magnetization 
 augmentation part       -3.2178557 magnetization 

 Broyden mixing:
  rms(total) = 0.15101E-02    rms(broyden)= 0.15089E-02
  rms(prec ) = 0.20661E-02
  weight for this iteration     100.00

 eigenvalues of (default mixing * dielectric matrix)
  average eigenvalue GAMMA=   1.6372
  3.7604  2.5323  2.5323  1.2939  1.2939  1.1791  1.1791  0.7998  0.9008  0.9008

 Free energy of the ion-electron system (eV)
  ---------------------------------------------------
  alpha Z        PSCENC =       872.70583573
  Ewald energy   TEWEN  =    -17927.96605853
  -Hartree energ DENC   =     -7462.57568818
  -exchange      EXHF   =         0.00000000
  -V(xc)+E(xc)   XCENC  =       943.78919889
  PAW double counting   =     22782.54714874   -23841.21557898
  entropy T*S    EENTRO =        -0.00000000
  eigenvalues    EBANDS =     -2988.73321352
  atomic energy  EATOM  =     26212.11861568
  Solvation  Ediel_sol  =         0.00000000
  ---------------------------------------------------
  free energy    TOTEN  =     -1409.32974017 eV

  energy without entropy =    -1409.32974017  energy(sigma->0) =    -1409.32974017


--------------------------------------------------------------------------------------------------------




--------------------------------------- Iteration      1(  16)  ---------------------------------------


    POTLOK:  cpu time    0.3094: real time    0.3177
    SETDIJ:  cpu time    1.1981: real time    1.1982
     EDDAV:  cpu time   17.7260: real time   17.7267
       DOS:  cpu time    0.0005: real time    0.0005
    CHARGE:  cpu time    2.7031: real time    2.7032
    MIXING:  cpu time    0.0021: real time    0.0021
    --------------------------------------------
      LOOP:  cpu time   21.9392: real time   21.9485

 eigenvalue-minimisations  :  3872
 total energy-change (2. order) :-0.3969840E-04  (-0.3268930E-05)
 number of electron     343.9999999 magnetization 
 augmentation part       -3.2174686 magnetization 

 Broyden mixing:
  rms(total) = 0.58997E-03    rms(broyden)= 0.58695E-03
  rms(prec ) = 0.73149E-03
  weight for this iteration     100.00

 eigenvalues of (default mixing * dielectric matrix)
  average eigenvalue GAMMA=   1.6714
  4.1506  2.7152  2.1993  2.1993  1.0825  1.0825  1.1552  1.1552  0.9174  0.9174
  0.8113

 Free energy of the ion-electron system (eV)
  ---------------------------------------------------
  alpha Z        PSCENC =       872.70583573
  Ewald energy   TEWEN  =    -17927.96605853
  -Hartree energ DENC   =     -7462.62548280
  -exchange      EXHF   =         0.00000000
  -V(xc)+E(xc)   XCENC  =       943.78340591
  PAW double counting   =     22781.90445625   -23840.56699152
  entropy T*S    EENTRO =        -0.00000000
  eigenvalues    EBANDS =     -2988.68356058
  atomic energy  EATOM  =     26212.11861568
  Solvation  Ediel_sol  =         0.00000000
  ---------------------------------------------------
  free energy    TOTEN  =     -1409.32977986 eV

  energy without entropy =    -1409.32977986  energy(sigma->0) =    -1409.32977986


--------------------------------------------------------------------------------------------------------




--------------------------------------- Iteration      1(  17)  ---------------------------------------


    POTLOK:  cpu time    0.2744: real time    0.3113
    SETDIJ:  cpu time    1.1985: real time    1.1986
     EDDAV:  cpu time   17.6382: real time   17.6390
       DOS:  cpu time    0.0006: real time    0.0006
    CHARGE:  cpu time    2.7041: real time    2.7042
    MIXING:  cpu time    0.0022: real time    0.0022
    --------------------------------------------
      LOOP:  cpu time   21.8180: real time   21.8559

 eigenvalue-minimisations  :  3832
 total energy-change (2. order) :-0.1477490E-04  (-0.8490178E-06)
 number of electron     343.9999999 magnetization 
 augmentation part       -3.2173734 magnetization 

 Broyden mixing:
  rms(total) = 0.43280E-03    rms(broyden)= 0.42872E-03
  rms(prec ) = 0.47988E-03
  weight for this iteration     100.00

 eigenvalues of (default mixing * dielectric matrix)
  average eigenvalue GAMMA=   1.6466
  4.2584  2.9401  2.1876  2.1876  1.1681  1.1681  1.1367  1.1367  0.9922  0.9922
  0.7955  0.7955

 Free energy of the ion-electron system (eV)
  ---------------------------------------------------
  alpha Z        PSCENC =       872.70583573
  Ewald energy   TEWEN  =    -17927.96605853
  -Hartree energ DENC   =     -7462.59086975
  -exchange      EXHF   =         0.00000000
  -V(xc)+E(xc)   XCENC  =       943.77905647
  PAW double counting   =     22781.83248037   -23840.49501283
  entropy T*S    EENTRO =        -0.00000000
  eigenvalues    EBANDS =     -2988.71384177
  atomic energy  EATOM  =     26212.11861568
  Solvation  Ediel_sol  =         0.00000000
  ---------------------------------------------------
  free energy    TOTEN  =     -1409.32979464 eV

  energy without entropy =    -1409.32979464  energy(sigma->0) =    -1409.32979464


--------------------------------------------------------------------------------------------------------




--------------------------------------- Iteration      1(  18)  ---------------------------------------


    POTLOK:  cpu time    0.2652: real time    0.3147
    SETDIJ:  cpu time    1.1991: real time    1.1991
     EDDAV:  cpu time   13.7705: real time   13.7712
       DOS:  cpu time    0.0005: real time    0.0005
    CHARGE:  cpu time    2.7020: real time    2.7021
    MIXING:  cpu time    0.0020: real time    0.0020
    --------------------------------------------
      LOOP:  cpu time   17.9392: real time   17.9896

 eigenvalue-minimisations  :  2472
 total energy-change (2. order) : 0.8496638E-05  (-0.1253479E-06)
 number of electron     343.9999999 magnetization 
 augmentation part       -3.2174137 magnetization 

 Broyden mixing:
  rms(total) = 0.18606E-03    rms(broyden)= 0.17640E-03
  rms(prec ) = 0.20110E-03
  weight for this iteration     100.00

 eigenvalues of (default mixing * dielectric matrix)
  average eigenvalue GAMMA=   1.6799
  4.5795  2.9949  2.3111  2.3111  1.3160  1.3160  1.1572  1.1572  1.0444  1.0444
  0.8167  0.8950  0.8950

 Free energy of the ion-electron system (eV)
  ---------------------------------------------------
  alpha Z        PSCENC =       872.70583573
  Ewald energy   TEWEN  =    -17927.96605853
  -Hartree energ DENC   =     -7462.60219228
  -exchange      EXHF   =         0.00000000
  -V(xc)+E(xc)   XCENC  =       943.77941744
  PAW double counting   =     22781.90277474   -23840.56408159
  entropy T*S    EENTRO =        -0.00000000
  eigenvalues    EBANDS =     -2988.70409734
  atomic energy  EATOM  =     26212.11861568
  Solvation  Ediel_sol  =         0.00000000
  ---------------------------------------------------
  free energy    TOTEN  =     -1409.32978614 eV

  energy without entropy =    -1409.32978614  energy(sigma->0) =    -1409.32978614


--------------------------------------------------------------------------------------------------------




--------------------------------------- Iteration      1(  19)  ---------------------------------------


    POTLOK:  cpu time    0.2507: real time    0.3116
    SETDIJ:  cpu time    1.1996: real time    1.1996
     EDDAV:  cpu time   12.8437: real time   12.8442
       DOS:  cpu time    0.0004: real time    0.0004
    CHARGE:  cpu time    2.7028: real time    2.7029
    MIXING:  cpu time    0.0020: real time    0.0020
    --------------------------------------------
      LOOP:  cpu time   16.9992: real time   17.0607

 eigenvalue-minimisations  :  2144
 total energy-change (2. order) : 0.3513460E-05  (-0.4178334E-07)
 number of electron     343.9999999 magnetization 
 augmentation part       -3.2174146 magnetization 

 Broyden mixing:
  rms(total) = 0.98099E-04    rms(broyden)= 0.78281E-04
  rms(prec ) = 0.94317E-04
  weight for this iteration     100.00
  WARNING: grid for Broyden might be to small

 eigenvalues of (default mixing * dielectric matrix)
  average eigenvalue GAMMA=   1.6651
  4.6421  3.0357  2.4289  1.8926  1.8926  1.1885  1.1885  1.2707  1.0786  1.0786
  1.0003  1.0003  0.8071  0.8071

 Free energy of the ion-electron system (eV)
  ---------------------------------------------------
  alpha Z        PSCENC =       872.70583573
  Ewald energy   TEWEN  =    -17927.96605853
  -Hartree energ DENC   =     -7462.60234111
  -exchange      EXHF   =         0.00000000
  -V(xc)+E(xc)   XCENC  =       943.77924420
  PAW double counting   =     22781.95523952   -23840.61647082
  entropy T*S    EENTRO =        -0.00000000
  eigenvalues    EBANDS =     -2988.70384729
  atomic energy  EATOM  =     26212.11861568
  Solvation  Ediel_sol  =         0.00000000
  ---------------------------------------------------
  free energy    TOTEN  =     -1409.32978263 eV

  energy without entropy =    -1409.32978263  energy(sigma->0) =    -1409.32978263


--------------------------------------------------------------------------------------------------------




--------------------------------------- Iteration      1(  20)  ---------------------------------------


    POTLOK:  cpu time    0.2944: real time    0.3170
    SETDIJ:  cpu time    1.1997: real time    1.1998
     EDDAV:  cpu time   12.6456: real time   12.6462
       DOS:  cpu time    0.0004: real time    0.0004
    CHARGE:  cpu time    2.7046: real time    2.7047
    MIXING:  cpu time    0.0024: real time    0.0024
    --------------------------------------------
      LOOP:  cpu time   16.8472: real time   16.8705

 eigenvalue-minimisations  :  2080
 total energy-change (2. order) : 0.4073774E-05  (-0.3288436E-07)
 number of electron     343.9999999 magnetization 
 augmentation part       -3.2174565 magnetization 

 Broyden mixing:
  rms(total) = 0.96744E-04    rms(broyden)= 0.76576E-04
  rms(prec ) = 0.85565E-04
  weight for this iteration     100.00
  WARNING: grid for Broyden might be to small

 eigenvalues of (default mixing * dielectric matrix)
  average eigenvalue GAMMA=   1.5831
  4.6602  3.0426  2.4548  1.9111  1.9111  1.1963  1.1963  1.1746  1.0818  1.0818
  1.0309  1.0309  0.8033  0.8033  0.3680

 Free energy of the ion-electron system (eV)
  ---------------------------------------------------
  alpha Z        PSCENC =       872.70583573
  Ewald energy   TEWEN  =    -17927.96605853
  -Hartree energ DENC   =     -7462.61006185
  -exchange      EXHF   =         0.00000000
  -V(xc)+E(xc)   XCENC  =       943.77964216
  PAW double counting   =     22781.98210195   -23840.64316597
  entropy T*S    EENTRO =        -0.00000000
  eigenvalues    EBANDS =     -2988.69668772
  atomic energy  EATOM  =     26212.11861568
  Solvation  Ediel_sol  =         0.00000000
  ---------------------------------------------------
  free energy    TOTEN  =     -1409.32977855 eV

  energy without entropy =    -1409.32977855  energy(sigma->0) =    -1409.32977855


--------------------------------------------------------------------------------------------------------




--------------------------------------- Iteration      1(  21)  ---------------------------------------


    POTLOK:  cpu time    0.2968: real time    0.3290
    SETDIJ:  cpu time    1.2015: real time    1.2015
     EDDAV:  cpu time   12.6217: real time   12.6223
       DOS:  cpu time    0.0004: real time    0.0004
    --------------------------------------------
      LOOP:  cpu time   14.1204: real time   14.1532

 eigenvalue-minimisations  :  2064
 total energy-change (2. order) :-0.5436550E-07  (-0.1747234E-07)
 number of electron     343.9999999 magnetization 
 augmentation part       -3.2174565 magnetization 

 Free energy of the ion-electron system (eV)
  ---------------------------------------------------
  alpha Z        PSCENC =       872.70583573
  Ewald energy   TEWEN  =    -17927.96605853
  -Hartree energ DENC   =     -7462.61002165
  -exchange      EXHF   =         0.00000000
  -V(xc)+E(xc)   XCENC  =       943.77966348
  PAW double counting   =     22781.98410483   -23840.64461263
  entropy T*S    EENTRO =        -0.00000000
  eigenvalues    EBANDS =     -2988.69730552
  atomic energy  EATOM  =     26212.11861568
  Solvation  Ediel_sol  =         0.00000000
  ---------------------------------------------------
  free energy    TOTEN  =     -1409.32977861 eV

  energy without entropy =    -1409.32977861  energy(sigma->0) =    -1409.32977861


--------------------------------------------------------------------------------------------------------




 average (electrostatic) potential at core
  the test charge radii are     1.1312  1.1541  1.0178
  (the norm of the test charge is              1.0000)
       1 -55.2261       2 -55.2952       3 -55.1439       4 -55.1997       5 -55.2259
       6 -55.2553       7 -55.2170       8 -55.3536       9-101.5976      10-101.5882
      11-101.6196      12-101.6232      13-101.9325      14-101.9176      15-101.6763
      16-101.7050      17 -69.0553      18 -69.0630      19 -69.0274      20 -68.9469
      21 -69.0287      22 -68.9264      23 -69.0736      24 -69.0718      25 -69.0183
      26 -69.0190      27 -68.9489      28 -68.9947      29 -68.9936      30 -68.9188
      31 -69.0116      32 -68.9201      33 -68.9385      34 -68.9911      35 -69.0205
      36 -69.3600      37 -69.3859      38 -69.0249      39 -69.2072



 E-fermi :   0.4898     XC(G=0):  -7.9565     alpha+bet : -6.9586


 k-point     1 :       0.0000    0.0000    0.0000
  band No.  band energies     occupation 
      1     -20.8812      2.00000
      2     -20.8255      2.00000
      3     -20.7822      2.00000
      4     -20.7595      2.00000
      5     -20.7527      2.00000
      6     -20.7438      2.00000
      7     -20.7288      2.00000
      8     -20.6833      2.00000
      9     -16.7059      2.00000
     10     -16.6896      2.00000
     11     -16.6755      2.00000
     12     -16.6645      2.00000
     13     -16.6013      2.00000
     14     -16.5975      2.00000
     15     -16.5880      2.00000
     16     -16.5814      2.00000
     17     -16.5775      2.00000
     18     -16.5479      2.00000
     19     -16.5444      2.00000
     20     -16.5208      2.00000
     21     -16.4673      2.00000
     22     -16.4636      2.00000
     23     -16.4357      2.00000
     24     -16.4327      2.00000
     25     -16.4319      2.00000
     26     -16.4152      2.00000
     27     -16.4128      2.00000
     28     -16.4016      2.00000
     29     -16.3622      2.00000
     30     -16.3585      2.00000
     31     -16.3407      2.00000
     32     -16.3396      2.00000
     33     -16.3317      2.00000
     34     -16.3292      2.00000
     35     -16.3273      2.00000
     36     -16.3160      2.00000
     37     -16.2892      2.00000
     38     -16.2877      2.00000
     39     -16.2838      2.00000
     40     -16.2816      2.00000
     41     -16.2748      2.00000
     42     -16.2711      2.00000
     43     -16.2670      2.00000
     44     -16.2634      2.00000
     45     -16.2576      2.00000
     46     -16.2511      2.00000
     47     -16.2448      2.00000
     48     -16.2389      2.00000
     49     -14.4870      2.00000
     50     -14.3634      2.00000
     51     -14.2981      2.00000
     52     -14.2653      2.00000
     53     -14.1418      2.00000
     54     -14.1272      2.00000
     55     -14.1090      2.00000
     56     -14.0988      2.00000
     57     -14.0830      2.00000
     58     -14.0543      2.00000
     59     -14.0361      2.00000
     60     -14.0342      2.00000
     61     -14.0314      2.00000
     62     -14.0279      2.00000
     63     -13.9778      2.00000
     64     -13.9659      2.00000
     65     -13.9471      2.00000
     66     -13.9406      2.00000
     67     -13.8864      2.00000
     68     -13.7748      2.00000
     69     -13.7716      2.00000
     70     -13.7186      2.00000
     71     -13.7074      2.00000
     72      -8.2086      2.00000
     73      -7.8064      2.00000
     74      -7.7542      2.00000
     75      -7.6754      2.00000
     76      -7.3504      2.00000
     77      -7.3106      2.00000
     78      -7.2762      2.00000
     79      -7.2664      2.00000
     80      -7.2581      2.00000
     81      -7.2280      2.00000
     82      -7.2210      2.00000
     83      -7.2162      2.00000
     84      -7.2029      2.00000
     85      -7.1848      2.00000
     86      -7.1776      2.00000
     87      -7.1750      2.00000
     88      -7.1663      2.00000
     89      -7.1592      2.00000
     90      -7.1536      2.00000
     91      -7.1502      2.00000
     92      -7.1479      2.00000
     93      -7.1443      2.00000
     94      -7.1402      2.00000
     95      -7.1331      2.00000
     96      -7.1306      2.00000
     97      -7.1186      2.00000
     98      -7.1059      2.00000
     99      -7.0982      2.00000
    100      -7.0916      2.00000
    101      -7.0773      2.00000
    102      -7.0422      2.00000
    103      -6.5828      2.00000
    104      -3.3724      2.00000
    105      -3.3341      2.00000
    106      -3.2928      2.00000
    107      -3.2731      2.00000
    108      -3.2621      2.00000
    109      -3.1981      2.00000
    110      -3.1762      2.00000
    111      -3.1513      2.00000
    112      -3.1464      2.00000
    113      -3.0834      2.00000
    114      -3.0397      2.00000
    115      -2.8470      2.00000
    116      -2.2225      2.00000
    117      -2.1928      2.00000
    118      -2.1404      2.00000
    119      -2.1062      2.00000
    120      -2.0191      2.00000
    121      -1.9689      2.00000
    122      -1.9316      2.00000
    123      -1.8854      2.00000
    124      -1.8730      2.00000
    125      -1.8579      2.00000
    126      -1.8110      2.00000
    127      -1.7280      2.00000
    128      -1.7040      2.00000
    129      -1.6684      2.00000
    130      -1.6463      2.00000
    131      -1.6261      2.00000
    132      -1.5778      2.00000
    133      -1.5496      2.00000
    134      -1.5359      2.00000
    135      -1.5320      2.00000
    136      -1.5088      2.00000
    137      -1.4984      2.00000
    138      -1.4844      2.00000
    139      -1.4613      2.00000
    140      -1.4467      2.00000
    141      -1.4296      2.00000
    142      -1.4157      2.00000
    143      -1.4039      2.00000
    144      -1.3975      2.00000
    145      -1.3915      2.00000
    146      -1.3756      2.00000
    147      -1.3668      2.00000
    148      -1.3527      2.00000
    149      -1.3405      2.00000
    150      -1.3205      2.00000
    151      -1.3098      2.00000
    152      -1.3040      2.00000
    153      -1.2794      2.00000
[...]


--------------------------------------------------------------------------------------------------------


 soft charge-density along one line, spin component           1
         0         1         2         3         4         5         6         7         8         9
 total charge-density along one line

 pseudopotential strength for first ion, spin component:           1
 17.948  -4.698   0.004   0.001   0.001  -0.005  -0.001  -0.001
 -4.698   1.239  -0.001  -0.000  -0.000   0.001   0.000   0.000
  0.004  -0.001   2.255   0.001   0.000  -2.695  -0.001  -0.001
  0.001  -0.000   0.001   2.255  -0.000  -0.001  -2.695   0.001
  0.001  -0.000   0.000  -0.000   2.255  -0.001   0.001  -2.694
 -0.005   0.001  -2.695  -0.001  -0.001   3.189   0.001   0.001
 -0.001   0.000  -0.001  -2.695   0.001   0.001   3.188  -0.001
 -0.001   0.000  -0.001   0.001  -2.694   0.001  -0.001   3.187
  0.000  -0.000   0.001   0.000   0.002  -0.001  -0.000  -0.002
  0.001  -0.000   0.002   0.002   0.000  -0.002  -0.003  -0.000
 -0.000   0.000  -0.001  -0.001   0.000   0.002   0.001  -0.001
 -0.001   0.000   0.000   0.001   0.001  -0.000  -0.001  -0.001
 -0.000   0.000  -0.002  -0.000  -0.001   0.003   0.001   0.001
 total augmentation occupancy for first ion, spin component:           1
  1.912  -0.137   0.001   0.000   0.000   0.002   0.001   0.000   0.001   0.001  -0.000  -0.001  -0.000
 -0.137   0.121   0.011   0.002   0.002  -0.004  -0.002   0.000  -0.001  -0.001  -0.001   0.004   0.000
  0.001   0.011   2.020   0.003   0.001   0.006   0.002   0.001   0.003   0.004  -0.002   0.001  -0.005
  0.000   0.002   0.003   2.018  -0.001   0.002   0.004  -0.001   0.001   0.004  -0.003   0.001  -0.001
  0.000   0.002   0.001  -0.001   2.018   0.001  -0.001   0.004   0.003   0.001  -0.000   0.002  -0.002
  0.002  -0.004   0.006   0.002   0.001   0.008  -0.000  -0.000  -0.002  -0.003   0.000  -0.000   0.001
  0.001  -0.002   0.002   0.004  -0.001  -0.000   0.008   0.001  -0.000  -0.001   0.002  -0.001   0.001
  0.000   0.000   0.001  -0.001   0.004  -0.000   0.001   0.009  -0.001  -0.000  -0.001  -0.001   0.002
  0.001  -0.001   0.003   0.001   0.003  -0.002  -0.000  -0.001   0.007   0.001  -0.000   0.000   0.001
  0.001  -0.001   0.004   0.004   0.001  -0.003  -0.001  -0.000   0.001   0.005   0.000  -0.001   0.001
 -0.000  -0.001  -0.002  -0.003  -0.000   0.000   0.002  -0.001  -0.000   0.000   0.005  -0.002  -0.000
 -0.001   0.004   0.001   0.001   0.002  -0.000  -0.001  -0.001   0.000  -0.001  -0.002   0.004   0.001
 -0.000   0.000  -0.005  -0.001  -0.002   0.001   0.001   0.002   0.001   0.001  -0.000   0.001   0.004


------------------------ aborting loop because EDIFF is reached ----------------------------------------





 total charge     

# of ion       s       p       d       tot
------------------------------------------
    1        1.786   4.717   0.019   6.522
    2        1.786   4.717   0.018   6.520
    3        1.787   4.717   0.020   6.524
    4        1.785   4.717   0.018   6.520
    5        1.785   4.716   0.017   6.519
    6        1.785   4.716   0.018   6.519
    7        1.785   4.716   0.017   6.519
    8        1.785   4.716   0.018   6.519
    9        1.554   0.423   9.835  11.812
   10        1.554   0.410   9.833  11.797
   11        1.554   0.419   9.834  11.807
   12        1.554   0.416   9.834  11.803
   13        1.537   0.427   9.831  11.795
   14        1.530   0.438   9.831  11.799
   15        1.553   0.413   9.833  11.799
   16        1.538   0.492   9.838  11.868
   17        1.614   3.281   0.006   4.902
   18        1.615   3.282   0.007   4.903
   19        1.614   3.286   0.007   4.907
   20        1.615   3.281   0.006   4.902
   21        1.615   3.285   0.007   4.907
   22        1.614   3.279   0.006   4.899
   23        1.615   3.281   0.007   4.902
   24        1.614   3.283   0.006   4.904
   25        1.614   3.279   0.006   4.898
   26        1.614   3.274   0.006   4.894
   27        1.614   3.282   0.006   4.902
   28        1.614   3.285   0.006   4.905
   29        1.614   3.285   0.007   4.906
   30        1.614   3.281   0.006   4.901
   31        1.615   3.286   0.007   4.908
   32        1.614   3.280   0.006   4.899
   33        1.614   3.283   0.006   4.903
   34        1.614   3.284   0.006   4.904
   35        1.615   3.276   0.006   4.898
   36        1.617   3.269   0.007   4.893
   37        1.616   3.269   0.007   4.892
   38        1.614   3.279   0.006   4.898
   39        1.618   3.291   0.011   4.920
--------------------------------------------------
tot         63.795 116.633  78.962 259.390

    CHARGE:  cpu time    0.3952: real time    0.3952
    FORLOC:  cpu time    0.0112: real time    0.0112
    FORNL :  cpu time    1.9139: real time    1.9140
    STRESS:  cpu time   49.7854: real time   49.7874
    FORCOR:  cpu time    0.2418: real time    0.2419
    FORHAR:  cpu time    0.0272: real time    0.0272
    MIXING:  cpu time    0.0021: real time    0.0021
    OFIELD:  cpu time    0.0000: real time    0.0000

  FORCE on cell =-STRESS in cart. coord.  units (eV):
  Direction    XX          YY          ZZ          XY          YZ          ZX
  --------------------------------------------------------------------------------------
  Alpha Z   872.70584   872.70584   872.70584
  Ewald   -5950.62503 -5656.27964 -6321.14022    11.88798    -3.72167   -48.22850
  Hartree  2499.86746  2688.00379  2274.73711     8.35240    -2.38813   -30.41818
  E(xc)   -1449.38175 -1449.24692 -1449.74144     0.05131    -0.00897    -0.02260
  Local   -2940.53657 -3424.01154 -2344.64431   -20.94496     5.79141    78.38571
  n-local  1751.87661  1750.30581  1745.13331     0.03844     0.21684    -0.29075
  augment   817.83477   818.12447   816.48995     0.03640     0.04863    -0.07238
  Kinetic  4394.73958  4396.95083  4399.88246     0.89346    -0.01478     0.58148
  Fock        0.00000     0.00000     0.00000     0.00000     0.00000     0.00000
  -------------------------------------------------------------------------------------
  Total      -3.51909    -3.44738    -6.57732     0.31502    -0.07667    -0.06522
  in kB      -3.53473    -3.46270    -6.60655     0.31642    -0.07701    -0.06551
  external pressure =       -4.53 kB  Pullay stress =        0.00 kB


 VOLUME and BASIS-vectors are now :
 -----------------------------------------------------------------------------
  energy-cutoff  :      300.00
  volume of cell :     1595.09
      direct lattice vectors                 reciprocal lattice vectors
     8.456489000  0.000000000  8.040301000     0.059126193 -0.000000000  0.062186727
     0.000000000 11.729847000  0.000000000     0.000000000  0.085252604 -0.000000000
    -8.456489000  0.000000000  8.040301000    -0.059126193  0.000000000  0.062186727

  length of vectors
    11.668703715 11.729847000 11.668703715     0.085808482  0.085252604  0.085808482


 FORCES acting on ions
    electron-ion (+dipol)            ewald-force                    non-local-force                 convergence-correction
 -----------------------------------------------------------------------------------------------
   0.204E+02 -.502E+02 -.441E+02   -.204E+02 0.498E+02 0.441E+02   0.144E-01 0.334E+00 0.895E-01   -.366E-04 -.104E-03 0.135E-03
   0.657E+01 -.417E+02 0.301E+02   -.654E+01 0.413E+02 -.299E+02   -.467E-01 0.315E+00 -.268E+00   -.107E-03 -.113E-03 -.646E-04
   -.850E+00 0.375E+02 -.115E+02   0.742E+00 -.374E+02 0.116E+02   0.115E+00 -.236E-01 -.131E+00   -.148E-03 0.150E-03 -.494E-04
   -.346E+02 0.229E+02 -.818E+01   0.344E+02 -.227E+02 0.823E+01   0.148E+00 -.177E+00 -.620E-01   0.218E-03 0.137E-04 -.193E-04
   0.627E+01 -.239E+02 0.256E+01   -.620E+01 0.237E+02 -.265E+01   -.396E-01 0.208E+00 0.883E-01   0.171E-03 -.224E-04 0.389E-04
   0.560E+02 -.294E+02 -.709E+00   -.558E+02 0.292E+02 0.450E+00   -.170E+00 0.250E+00 0.246E+00   -.123E-04 -.164E-03 -.475E-04
   -.340E+02 0.222E+02 0.279E+02   0.339E+02 -.221E+02 -.278E+02   0.652E-01 -.917E-01 -.430E-01   -.398E-04 0.796E-04 -.128E-03
   -.571E+02 0.509E+02 -.126E+02   0.567E+02 -.504E+02 0.123E+02   0.422E+00 -.533E+00 0.318E+00   -.746E-04 0.712E-04 0.219E-03
   0.625E+01 0.124E+02 -.108E+01   -.600E+01 -.122E+02 0.132E+01   -.213E+00 -.149E+00 -.215E+00   0.176E-04 0.280E-04 0.838E-04
   -.160E+02 -.755E+01 -.827E+01   0.159E+02 0.752E+01 0.842E+01   0.426E-01 0.941E-02 -.187E+00   -.611E-04 -.458E-04 -.122E-03
   0.437E+01 0.487E+01 -.933E+01   -.433E+01 -.496E+01 0.101E+02   -.288E-01 0.923E-01 -.792E+00   -.673E-04 -.103E-04 0.134E-04
   0.634E+01 -.487E+01 0.824E+01   -.638E+01 0.506E+01 -.845E+01   0.254E-02 -.209E+00 0.194E+00   0.124E-03 -.623E-04 0.549E-04
   0.916E+02 -.152E+02 -.372E+02   -.956E+02 0.161E+02 0.397E+02   0.429E+01 -.942E+00 -.253E+01   0.838E-03 -.122E-03 -.627E-03
   0.598E+02 0.181E+02 0.976E+02   -.624E+02 -.190E+02 -.103E+03   0.271E+01 0.941E+00 0.539E+01   0.707E-03 0.218E-03 0.104E-02
   -.720E+01 -.533E+01 -.347E+01   0.804E+01 0.504E+01 0.302E+01   -.855E+00 0.272E+00 0.427E+00   0.391E-04 -.212E-04 0.685E-04
   -.174E+02 -.308E+01 0.993E+01   0.109E+02 0.378E+01 -.999E+01   0.532E+01 -.635E+00 0.186E+00   -.552E-03 0.549E-04 -.332E-04
   0.292E+02 0.229E+02 0.192E+02   -.294E+02 -.229E+02 -.194E+02   0.130E+00 0.122E-01 0.205E+00   0.208E-04 -.277E-05 -.852E-05
   0.233E+02 0.227E+02 0.457E+02   -.234E+02 -.227E+02 -.460E+02   0.100E+00 -.389E-01 0.281E+00   0.271E-04 0.583E-05 0.678E-04
   -.103E+02 -.155E+02 0.284E+02   0.105E+02 0.156E+02 -.286E+02   -.131E+00 0.436E-02 0.147E+00   0.309E-04 0.238E-04 0.781E-04
   -.170E+02 -.161E+02 0.374E+02   0.171E+02 0.160E+02 -.377E+02   -.775E-01 -.666E-01 0.314E+00   -.187E-04 0.710E-04 -.293E-04
   0.915E+01 0.143E+02 -.411E+02   -.924E+01 -.143E+02 0.415E+02   0.753E-01 -.780E-02 -.307E+00   -.533E-05 -.347E-04 0.274E-04
   -.101E+02 0.173E+02 -.263E+02   0.102E+02 -.172E+02 0.264E+02   -.863E-01 0.848E-01 -.162E+00   -.805E-04 -.565E-04 -.840E-04
   0.962E+01 -.160E+02 -.421E+02   -.962E+01 0.159E+02 0.425E+02   0.371E-02 0.863E-01 -.360E+00   -.586E-04 -.976E-05 -.685E-04
   0.276E+01 -.208E+02 -.888E+01   -.278E+01 0.207E+02 0.905E+01   0.194E-01 0.304E-01 -.175E+00   0.153E-03 0.330E-05 0.890E-04
   -.142E+02 0.375E+01 0.458E+00   0.143E+02 -.391E+01 -.682E+00   -.134E+00 0.157E+00 0.217E+00   0.609E-04 -.247E-05 0.341E-04
   0.246E+02 -.113E+02 0.454E+02   -.249E+02 0.114E+02 -.455E+02   0.307E+00 -.150E+00 0.152E+00   0.679E-04 0.341E-04 0.264E-04
   -.257E+02 -.195E+02 -.122E+02   0.259E+02 0.197E+02 0.123E+02   -.194E+00 -.143E+00 -.134E+00   -.118E-04 -.362E-04 -.126E-03
   -.117E+02 -.179E+02 -.284E+02   0.119E+02 0.181E+02 0.286E+02   -.167E+00 -.145E+00 -.216E+00   0.222E-04 -.386E-05 0.108E-03
   0.253E+02 0.125E+02 -.146E+02   -.255E+02 -.126E+02 0.147E+02   0.181E+00 0.660E-01 -.101E+00   -.611E-04 -.197E-04 -.586E-04
   0.123E+02 0.223E+02 -.273E+02   -.125E+02 -.225E+02 0.276E+02   0.151E+00 0.197E+00 -.308E+00   0.128E-03 -.184E-04 0.351E-04
   -.235E+02 -.141E+02 0.220E+02   0.237E+02 0.143E+02 -.223E+02   -.162E+00 -.167E+00 0.333E+00   0.493E-04 0.258E-04 0.756E-04
   -.110E+02 -.349E+02 0.265E+02   0.112E+02 0.351E+02 -.267E+02   -.179E+00 -.207E+00 0.173E+00   -.921E-04 -.574E-04 -.888E-04
   0.194E+02 0.260E+02 0.182E+02   -.196E+02 -.262E+02 -.185E+02   0.190E+00 0.153E+00 0.245E+00   -.672E-04 0.556E-05 0.675E-04
   0.146E+02 0.268E+02 0.314E+02   -.148E+02 -.270E+02 -.316E+02   0.182E+00 0.211E+00 0.195E+00   0.500E-04 -.327E-04 -.277E-04
   0.323E+02 -.216E+02 -.272E+02   -.326E+02 0.219E+02 0.275E+02   0.295E+00 -.280E+00 -.304E+00   0.150E-04 0.111E-04 -.695E-04
   -.101E+02 -.161E+02 -.345E+02   0.101E+02 0.163E+02 0.351E+02   -.358E+00 -.184E+00 -.903E+00   0.144E-03 -.265E-04 0.383E-04
   -.495E+02 0.205E+02 -.135E+02   0.499E+02 -.207E+02 0.136E+02   -.593E+00 0.207E+00 0.223E+00   -.768E-04 0.697E-04 -.181E-03
   -.145E+02 0.116E+02 -.440E+02   0.147E+02 -.118E+02 0.443E+02   -.170E+00 0.176E+00 -.270E+00   0.842E-04 0.333E-04 0.166E-03
   -.106E+03 0.159E+02 0.370E+01   0.108E+03 -.160E+02 -.394E+01   -.595E-01 -.462E-01 0.509E-01   -.301E-03 0.239E-04 -.744E-04
 -----------------------------------------------------------------------------------------------
   -.111E+02 0.358E+00 -.204E+01   0.284E-13 -.391E-13 0.711E-13   0.111E+02 -.388E+00 0.202E+01   0.110E-02 -.426E-04 0.557E-03


 POSITION                                       TOTAL-FORCE (eV/Angst)
 -----------------------------------------------------------------------------------
      0.56848      2.80016      3.72920        -0.009762     -0.027834      0.010252
      0.34469      2.72789     12.13683        -0.018858     -0.010898      0.010514
      3.80443      9.06562      7.82411         0.005950      0.065407      0.005243
     -4.72872      8.82626      8.01236         0.009614     -0.001957     -0.001660
     -3.89618      2.86843      8.02098         0.035605      0.005281     -0.002238
      4.88006      2.90676      8.29578        -0.020724      0.025801      0.001425
     -0.50865      8.86042     12.20001        -0.000588      0.007536     -0.020253
     -0.61141      8.88407      4.17132        -0.014043      0.010138      0.010625
      0.03781     11.68269      0.03678         0.023854     -0.001386      0.020909
     -0.03969      0.03806      7.99438        -0.041255     -0.018126     -0.032101
      4.22808      0.00096      4.02475         0.005847      0.004688     -0.003347
      4.18829     11.72845     12.02994        -0.024138     -0.013921     -0.006545
     -4.10459      5.80885     12.16516         0.199734     -0.037198     -0.058643
      4.22046      5.89967     11.98652         0.141101      0.057469      0.168855
     -8.36032      5.87484      8.08187        -0.027680     -0.001618     -0.018305
     -0.20552      5.84386      8.04078        -1.142144      0.059763      0.122003
     -4.20843      8.75761     11.71338        -0.010357     -0.019630      0.009980
      4.21874      8.80056     11.42073         0.002212     -0.019540     -0.006943
      0.09131      2.91741     15.74539        -0.000346      0.004199      0.010590
     -0.26338      2.97504      7.35487        -0.039077     -0.122401     -0.018884
      0.11192      8.77689      0.60663        -0.001489     -0.004262      0.003734
      0.06975      8.77370      8.45344        -0.016364      0.138026      0.019667
      4.17157      2.92906      4.67662        -0.004780      0.015277      0.005095
     -4.41350      2.96837      4.36896        -0.005160      0.016196     -0.008313
     -5.85566      5.47947      9.75554        -0.004470      0.006751      0.015255
      1.72703      6.22640     13.56899         0.018452     -0.004918     -0.014828
     -1.78496      0.36551     10.40286        -0.011599      0.005137      0.013828
     -1.73586      0.33329      2.42193         0.002823      0.003082      0.000752
      6.06729     11.46481      6.38947         0.001671      0.010967     -0.009135
     -2.56444     11.30032      6.41419        -0.027763      0.005378     -0.034523
     -5.88531      0.34845      9.64259         0.009251     -0.004417      0.012495
      2.44704      0.47237      9.61085         0.006198      0.016008      0.008672
      1.66633     11.36094      5.57249         0.016673     -0.014694     -0.011846
      1.74056     11.30050     13.68598         0.007646     -0.003831      0.007791
      6.04198      6.31488      6.50868         0.040027      0.000535      0.004997
     -2.64056      6.30726      6.31107        -0.290803     -0.010381     -0.383127
     -1.66713      5.44360     10.59152        -0.253457     -0.004440      0.322985
     -1.61207      5.48855      2.48345         0.001094      0.004469      0.017528
      2.38364      5.76895      7.72826         1.437102     -0.140654     -0.172502
 -----------------------------------------------------------------------------------
    total drift:                               -0.012270     -0.030140     -0.027043


--------------------------------------------------------------------------------------------------------



  FREE ENERGIE OF THE ION-ELECTRON SYSTEM (eV)
  ---------------------------------------------------
  free  energy   TOTEN  =     -1409.32977861 eV

  energy  without entropy=    -1409.32977861  energy(sigma->0) =    -1409.32977861



--------------------------------------------------------------------------------------------------------


    POTLOK:  cpu time    1.4367: real time    1.4368


--------------------------------------------------------------------------------------------------------


 stress matrix after NEB project (eV)
     -3.51909      0.31510     -0.06522
      0.31502     -3.44738     -0.07676
     -0.06517     -0.07667     -6.57732
  FORCES: max atom, RMS     1.454236    0.320047
  FORCE total and by dimension    1.998694    1.437102
  Stress total and by dimension    8.230938    6.577319
     LOOP+:  cpu time  483.7553: real time  484.4647
    4ORBIT:  cpu time    0.0000: real time    0.0000



 total charge     

# of ion       s       p       d       tot
------------------------------------------
    1        1.786   4.717   0.019   6.522
    2        1.786   4.717   0.018   6.520
    3        1.787   4.717   0.020   6.524
    4        1.785   4.717   0.018   6.520
    5        1.785   4.716   0.017   6.519
    6        1.785   4.716   0.018   6.519
    7        1.785   4.716   0.017   6.519
    8        1.785   4.716   0.018   6.519
    9        1.554   0.423   9.835  11.812
   10        1.554   0.410   9.833  11.797
   11        1.554   0.419   9.834  11.807
   12        1.554   0.416   9.834  11.803
   13        1.537   0.427   9.831  11.795
   14        1.530   0.438   9.831  11.799
   15        1.553   0.413   9.833  11.799
   16        1.538   0.492   9.838  11.868
   17        1.614   3.281   0.006   4.902
   18        1.615   3.282   0.007   4.903
   19        1.614   3.286   0.007   4.907
   20        1.615   3.281   0.006   4.902
   21        1.615   3.285   0.007   4.907
   22        1.614   3.279   0.006   4.899
   23        1.615   3.281   0.007   4.902
   24        1.614   3.283   0.006   4.904
   25        1.614   3.279   0.006   4.898
   26        1.614   3.274   0.006   4.894
   27        1.614   3.282   0.006   4.902
   28        1.614   3.285   0.006   4.905
   29        1.614   3.285   0.007   4.906
   30        1.614   3.281   0.006   4.901
   31        1.615   3.286   0.007   4.908
   32        1.614   3.280   0.006   4.899
   33        1.614   3.283   0.006   4.903
   34        1.614   3.284   0.006   4.904
   35        1.615   3.276   0.006   4.898
   36        1.617   3.269   0.007   4.893
   37        1.616   3.269   0.007   4.892
   38        1.614   3.279   0.006   4.898
   39        1.618   3.291   0.011   4.920
--------------------------------------------------
tot         63.795 116.633  78.962 259.390


 total amount of memory used by VASP MPI-rank0    60648. kBytes
=======================================================================

   base      :      30000. kBytes
   nonlr-proj:       6483. kBytes
   fftplans  :       8423. kBytes
   grid      :       7465. kBytes
   one-center:         77. kBytes
   wavefun   :       8200. kBytes

  
  
 General timing and accounting informations for this job:
 ========================================================
  
                  Total CPU time used (sec):      496.107
                            User time (sec):      494.631
                          System time (sec):        1.476
                         Elapsed time (sec):      497.548
  
                   Maximum memory used (kb):       78012.
                   Average memory used (kb):           0.
  
                          Minor page faults:        20806
                          Major page faults:            1
                 Voluntary context switches:         1885
