<?xml version="1.0" encoding="ISO-8859-1"?>
<modeling>
 <generator>
  <i name="program" type="string">vasp </i>
  <i name="version" type="string">5.4.4.18Apr17-6-g9f103f2a35  </i>
  <i name="subversion" type="string">(build Jun 22 2020 09:27:21) complex            parallel </i>
  <i name="platform" type="string">tx2_gcc-7.3_libsci-18.07_cray-fftw-3.3.8 </i>
  <i name="date" type="string">2021 10 12 </i>
  <i name="time" type="string">05:27:32 </i>
 </generator>
 <incar>
  <i type="string" name="SYSTEM"> CsPbBr3 cubic bulk</i>
  <i type="string" name="PREC">accurate</i>
  <i type="string" name="ALGO"> NORMAL   ! Electronic minimisation algo</i>
  <i type="logical" name="ADDGRID"> T  </i>
  <i type="int" name="ISPIN">     1</i>
  <i type="int" name="NELM">   200</i>
  <i type="int" name="IBRION">     2</i>
  <i name="EDIFF">      0.00000100</i>
  <i name="EDIFFG">     -0.01000000</i>
  <i type="int" name="NSW">     0</i>
  <i type="int" name="ISIF">     2</i>
  <i type="int" name="ISYM">     0</i>
  <i name="ENCUT">    300.00000000</i>
  <i name="POTIM">      0.50000000</i>
  <i name="NUPDOWN">      0.00000000</i>
  <i name="NELECT">    344.00000000</i>
  <i type="string" name="LREAL"> AUTO</i>
  <i type="int" name="ISMEAR">     0</i>
  <i name="SIGMA">      0.01000000</i>
  <i type="logical" name="LWAVE"> F  </i>
  <i type="logical" name="LCHARG"> F  </i>
  <i type="logical" name="LVHAR"> T  </i>
  <i type="int" name="LORBIT">    10</i>
  <i type="logical" name="LASPH"> T  </i>
  <v type="int" name="KPOINT_BSE">    -1     0     0     0</v>
  <i type="int" name="NELM">   200</i>
  <i type="string" name="METAGGA"> SCAN       ! PBE exchange-correlation</i>
  <i type="logical" name="LASPH"> T  </i>
 </incar>
 <structure name="primitive_cell" >
  <crystal>
   <varray name="basis" >
    <v>       8.45648900       0.00000000       8.04030100 </v>
    <v>       0.00000000      11.72984700       0.00000000 </v>
    <v>      -8.45648900       0.00000000       8.04030100 </v>
   </varray>
   <i name="volume">   1595.08833419 </i>
   <varray name="rec_basis" >
    <v>       0.05912619      -0.00000000       0.06218673 </v>
    <v>       0.00000000       0.08525260      -0.00000000 </v>
    <v>      -0.05912619       0.00000000       0.06218673 </v>
   </varray>
  </crystal>
  <varray name="positions" >
   <v>       0.26551900       0.23872100       0.19829500 </v>
   <v>       0.04797700       0.02841400       0.25324700 </v>
   <v>       0.05912200       0.46791300       0.24975300 </v>
   <v>       0.44180300       0.25363000       0.47294800 </v>
   <v>      -0.46252700       0.24971000       0.04417500 </v>
   <v>       0.25166500       0.02970600      -0.05238300 </v>
   <v>       0.44505900      -0.03145000       0.24801100 </v>
   <v>       0.26044200       0.46713900      -0.04711200 </v>
   <v>      -0.01544700       0.24871700      -0.02624500 </v>
   <v>      -0.49972400       0.00008200       0.00029600 </v>
   <v>       0.00452300      -0.00402000       0.00005200 </v>
   <v>       0.00827100      -0.49915500      -0.00310100 </v>
   <v>      -0.48617700       0.49522000      -0.00080000 </v>
   <v>       0.01073800       0.25306100      -0.46735500 </v>
   <v>       0.49479800       0.00324500       0.49949100 </v>
   <v>       0.24725200      -0.03661800      -0.44949700 </v>
   <v>      -0.37846900       0.49181800       0.33966000 </v>
   <v>       0.48787800       0.49820400      -0.48781900 </v>
   <v>      -0.19557300       0.24780900       0.22734800 </v>
   <v>       0.23633800      -0.46229000      -0.45140900 </v>
   <v>       0.26843200       0.24454100      -0.27083500 </v>
   <v>      -0.00426000      -0.00011900      -0.49953500 </v>
   <v>      -0.00505800      -0.49703800       0.49586300 </v>
   <v>       0.22325000      -0.24261000       0.29555100 </v>
   <v>       0.04434200      -0.25174700       0.03110700 </v>
   <v>      -0.25764900       0.04027100       0.45298300 </v>
   <v>      -0.45861800       0.03116100      -0.24754200 </v>
   <v>      -0.24392400      -0.02259500       0.03860400 </v>
   <v>       0.47958800      -0.25339100      -0.02275500 </v>
   <v>      -0.43991900       0.46408100      -0.24277700 </v>
   <v>      -0.23800700      -0.46164000       0.04751400 </v>
   <v>      -0.04600100      -0.03660300      -0.25182600 </v>
   <v>      -0.05407600      -0.46918300      -0.25830200 </v>
   <v>      -0.47018400      -0.25201900      -0.47843200 </v>
   <v>      -0.04034400      -0.24972900       0.46078000 </v>
   <v>       0.21867100      -0.24753800      -0.22214600 </v>
   <v>      -0.28850300      -0.22713200       0.26161400 </v>
   <v>      -0.22487000       0.23256000      -0.26563000 </v>
   <v>      -0.27139600      -0.24462600      -0.21124700 </v>
  </varray>
 </structure>
 <varray name="primitive_index" >
  <v type="int" >        1 </v>
  <v type="int" >       28 </v>
  <v type="int" >       38 </v>
  <v type="int" >       20 </v>
  <v type="int" >       23 </v>
  <v type="int" >       31 </v>
  <v type="int" >       33 </v>
  <v type="int" >       25 </v>
  <v type="int" >       19 </v>
  <v type="int" >       11 </v>
  <v type="int" >        9 </v>
  <v type="int" >       15 </v>
  <v type="int" >       13 </v>
  <v type="int" >       24 </v>
  <v type="int" >       10 </v>
  <v type="int" >       30 </v>
  <v type="int" >       39 </v>
  <v type="int" >       16 </v>
  <v type="int" >        6 </v>
  <v type="int" >       36 </v>
  <v type="int" >        5 </v>
  <v type="int" >       12 </v>
  <v type="int" >       14 </v>
  <v type="int" >        8 </v>
  <v type="int" >       21 </v>
  <v type="int" >       32 </v>
  <v type="int" >       27 </v>
  <v type="int" >       29 </v>
  <v type="int" >       17 </v>
  <v type="int" >       37 </v>
  <v type="int" >       35 </v>
  <v type="int" >       34 </v>
  <v type="int" >       26 </v>
  <v type="int" >       22 </v>
  <v type="int" >       18 </v>
  <v type="int" >        4 </v>
  <v type="int" >        3 </v>
  <v type="int" >        2 </v>
  <v type="int" >        7 </v>
 </varray>
 <kpoints>
  <generation param="Gamma">
   <v type="int" name="divisions">       2        2        2 </v>
   <v name="usershift">      0.00000000       0.00000000       0.00000000 </v>
   <v name="genvec1">      0.50000000       0.00000000       0.00000000 </v>
   <v name="genvec2">      0.00000000       0.50000000       0.00000000 </v>
   <v name="genvec3">      0.00000000       0.00000000       0.50000000 </v>
   <v name="shift">      0.00000000       0.00000000       0.00000000 </v>
  </generation>
  <varray name="kpointlist" >
   <v>       0.00000000       0.00000000       0.00000000 </v>
   <v>       0.50000000       0.00000000       0.00000000 </v>
   <v>       0.00000000       0.50000000       0.00000000 </v>
   <v>       0.50000000       0.50000000       0.00000000 </v>
   <v>       0.00000000       0.00000000       0.50000000 </v>
   <v>       0.50000000       0.00000000       0.50000000 </v>
   <v>       0.00000000       0.50000000       0.50000000 </v>
   <v>       0.50000000       0.50000000       0.50000000 </v>
  </varray>
  <varray name="weights" >
   <v>       0.12500000 </v>
   <v>       0.12500000 </v>
   <v>       0.12500000 </v>
   <v>       0.12500000 </v>
   <v>       0.12500000 </v>
   <v>       0.12500000 </v>
   <v>       0.12500000 </v>
   <v>       0.12500000 </v>
  </varray>
 </kpoints>
 <parameters>
  <separator name="general" >
   <i type="string" name="SYSTEM">CsPbBr3 cubic bulk</i>
   <i type="logical" name="LCOMPAT"> F  </i>
  </separator>
  <separator name="electronic" >
   <i type="string" name="PREC">accura</i>
   <i name="ENMAX">    300.00000000</i>
   <i name="ENAUG">    503.85200000</i>
   <i name="EDIFF">      0.00000100</i>
   <i type="int" name="IALGO">    38</i>
   <i type="int" name="IWAVPR">    10</i>
   <i type="int" name="NBANDS">   208</i>
   <i name="NELECT">    344.00000000</i>
   <i type="int" name="TURBO">     0</i>
   <i type="int" name="IRESTART">     0</i>
   <i type="int" name="NREBOOT">     0</i>
   <i type="int" name="NMIN">     0</i>
   <i name="EREF">      0.00000000</i>
   <separator name="electronic smearing" >
    <i type="int" name="ISMEAR">     0</i>
    <i name="SIGMA">      0.01000000</i>
    <i name="KSPACING">      0.50000000</i>
    <i type="logical" name="KGAMMA"> T  </i>
   </separator>
   <separator name="electronic projectors" >
    <i type="logical" name="LREAL"> T  </i>
    <v name="ROPT">     -0.00025000     -0.00025000     -0.00025000</v>
    <i type="int" name="LMAXPAW">  -100</i>
    <i type="int" name="LMAXMIX">     2</i>
    <i type="logical" name="NLSPLINE"> F  </i>
   </separator>
   <separator name="electronic startup" >
    <i type="int" name="ISTART">     0</i>
    <i type="int" name="ICHARG">     2</i>
    <i type="int" name="INIWAV">     1</i>
   </separator>
   <separator name="electronic spin" >
    <i type="int" name="ISPIN">     1</i>
    <i type="logical" name="LNONCOLLINEAR"> F  </i>
    <v name="MAGMOM">      0.00000000      0.00000000      0.00000000      0.00000000      0.00000000      0.00000000      0.00000000      0.00000000      0.00000000      0.00000000      0.00000000      0.00000000      0.00000000      0.00000000      0.00000000      0.00000000      0.00000000      0.00000000      0.00000000      0.00000000
      0.00000000      0.00000000      0.00000000      0.00000000      0.00000000      0.00000000      0.00000000      0.00000000      0.00000000      0.00000000      0.00000000      0.00000000      0.00000000      0.00000000      0.00000000      0.00000000      0.00000000      0.00000000      0.00000000</v>
    <i name="NUPDOWN">      0.00000000</i>
    <i type="logical" name="LSORBIT"> F  </i>
    <v name="SAXIS">      0.00000000      0.00000000      1.00000000</v>
    <i type="logical" name="LSPIRAL"> F  </i>
    <v name="QSPIRAL">      0.00000000      0.00000000      0.00000000</v>
    <i type="logical" name="LZEROZ"> F  </i>
   </separator>
   <separator name="electronic exchange-correlation" >
    <i type="logical" name="LASPH"> T  </i>
    <i type="logical" name="LMETAGGA"> F  </i>
   </separator>
   <separator name="electronic convergence" >
    <i type="int" name="NELM">   200</i>
    <i type="int" name="NELMDL">    -5</i>
    <i type="int" name="NELMIN">     2</i>
    <i name="ENINI">    300.00000000</i>
    <separator name="electronic convergence detail" >
     <i type="logical" name="LDIAG"> T  </i>
     <i type="logical" name="LSUBROT"> F  </i>
     <i name="WEIMIN">      0.00000000</i>
     <i name="EBREAK">      0.00000000</i>
     <i name="DEPER">      0.30000000</i>
     <i type="int" name="NRMM">     4</i>
     <i name="TIME">      0.40000000</i>
    </separator>
   </separator>
   <separator name="electronic mixer" >
    <i name="AMIX">      0.40000000</i>
    <i name="BMIX">      1.00000000</i>
    <i name="AMIN">      0.10000000</i>
    <i name="AMIX_MAG">      1.60000000</i>
    <i name="BMIX_MAG">      1.00000000</i>
    <separator name="electronic mixer details" >
     <i type="int" name="IMIX">     4</i>
     <i type="logical" name="MIXFIRST"> F  </i>
     <i type="int" name="MAXMIX">   -45</i>
     <i name="WC">    100.00000000</i>
     <i type="int" name="INIMIX">     1</i>
     <i type="int" name="MIXPRE">     1</i>
     <i type="int" name="MREMOVE">     5</i>
    </separator>
   </separator>
   <separator name="electronic dipolcorrection" >
    <i type="logical" name="LDIPOL"> F  </i>
    <i type="logical" name="LMONO"> F  </i>
    <i type="int" name="IDIPOL">     0</i>
    <i name="EPSILON">      1.00000000</i>
    <v name="DIPOL">   -100.00000000   -100.00000000   -100.00000000</v>
    <i name="EFIELD">      0.00000000</i>
   </separator>
  </separator>
  <separator name="grids" >
   <i type="int" name="NGX">    70</i>
   <i type="int" name="NGY">    70</i>
   <i type="int" name="NGZ">    70</i>
   <i type="int" name="NGXF">   140</i>
   <i type="int" name="NGYF">   140</i>
   <i type="int" name="NGZF">   140</i>
   <i type="logical" name="ADDGRID"> T  </i>
  </separator>
  <separator name="ionic" >
   <i type="int" name="NSW">     0</i>
   <i type="int" name="IBRION">    -1</i>
   <i type="int" name="MDALGO">     0</i>
   <i type="int" name="ISIF">     2</i>
   <i name="PSTRESS">      0.00000000</i>
   <i name="EDIFFG">     -0.01000000</i>
   <i type="int" name="NFREE">     1</i>
   <i name="POTIM">      0.50000000</i>
   <i name="SMASS">     -3.00000000</i>
   <i name="SCALEE">      1.00000000</i>
  </separator>
  <separator name="ionic md" >
   <i name="TEBEG">      0.00010000</i>
   <i name="TEEND">      0.00010000</i>
   <i type="int" name="NBLOCK">     1</i>
   <i type="int" name="KBLOCK">     1</i>
   <i type="int" name="NPACO">   256</i>
   <i name="APACO">     16.00000000</i>
  </separator>
  <separator name="symmetry" >
   <i type="int" name="ISYM">     0</i>
   <i name="SYMPREC">      0.00001000</i>
  </separator>
  <separator name="dos" >
   <i type="int" name="LORBIT">    10</i>
   <v name="RWIGS">     -1.00000000     -1.00000000     -1.00000000</v>
   <i type="int" name="NEDOS">   301</i>
   <i name="EMIN">     10.00000000</i>
   <i name="EMAX">    -10.00000000</i>
   <i name="EFERMI">      0.00000000</i>
  </separator>
  <separator name="writing" >
   <i type="int" name="NWRITE">     2</i>
   <i type="logical" name="LWAVE"> F  </i>
   <i type="logical" name="LDOWNSAMPLE"> F  </i>
   <i type="logical" name="LCHARG"> F  </i>
   <i type="logical" name="LPARD"> F  </i>
   <i type="logical" name="LVTOT"> F  </i>
   <i type="logical" name="LVHAR"> T  </i>
   <i type="logical" name="LELF"> F  </i>
   <i type="logical" name="LOPTICS"> F  </i>
   <v name="STM">      0.00000000      0.00000000      0.00000000      0.00000000      0.00000000      0.00000000      0.00000000</v>
  </separator>
  <separator name="performance" >
   <i type="int" name="NPAR">     8</i>
   <i type="int" name="NSIM">     4</i>
   <i type="int" name="NBLK">    -1</i>
   <i type="logical" name="LPLANE"> T  </i>
   <i type="logical" name="LSCALAPACK"> T  </i>
   <i type="logical" name="LSCAAWARE"> F  </i>
   <i type="logical" name="LSCALU"> F  </i>
   <i type="logical" name="LASYNC"> F  </i>
   <i type="logical" name="LORBITALREAL"> F  </i>
  </separator>
  <separator name="miscellaneous" >
   <i type="int" name="IDIOT">     3</i>
   <i type="int" name="ISPECIAL">     0</i>
   <i type="logical" name="LMUSIC"> F  </i>
   <v name="POMASS">    132.90000000    207.20000000     79.90400000</v>
   <v name="DARWINR">      0.00000000      0.00000000      0.00000000</v>
   <v name="DARWINV">      1.00000000      1.00000000      1.00000000</v>
   <i type="logical" name="LCORR"> T  </i>
  </separator>
  <i type="logical" name="GGA_COMPAT"> T  </i>
  <i type="logical" name="LBERRY"> F  </i>
  <i type="int" name="ICORELEVEL">     0</i>
  <i type="logical" name="LDAU"> F  </i>
  <i type="int" name="I_CONSTRAINED_M">     0</i>
  <separator name="electronic exchange-correlation" >
   <i type="string" name="GGA">--</i>
   <i type="int" name="VOSKOWN">     0</i>
   <i type="logical" name="LHFCALC"> F  </i>
   <i type="string" name="PRECFOCK"></i>
   <i type="logical" name="LSYMGRAD"> F  </i>
   <i type="logical" name="LHFONE"> F  </i>
   <i type="logical" name="LRHFCALC"> F  </i>
   <i type="logical" name="LTHOMAS"> F  </i>
   <i type="logical" name="LMODELHF"> F  </i>
   <i name="ENCUT4O">     -1.00000000</i>
   <i type="int" name="EXXOEP">     0</i>
   <i type="int" name="FOURORBIT">     0</i>
   <i name="AEXX">      0.00000000</i>
   <i name="HFALPHA">      0.00000000</i>
   <i name="MCALPHA">      0.00000000</i>
   <i name="ALDAX">      1.00000000</i>
   <i name="AGGAX">      1.00000000</i>
   <i name="ALDAC">      1.00000000</i>
   <i name="AGGAC">      1.00000000</i>
   <i type="int" name="NKREDX">     1</i>
   <i type="int" name="NKREDY">     1</i>
   <i type="int" name="NKREDZ">     1</i>
   <i type="logical" name="SHIFTRED"> F  </i>
   <i type="logical" name="ODDONLY"> F  </i>
   <i type="logical" name="EVENONLY"> F  </i>
   <i type="int" name="LMAXFOCK">     0</i>
   <i type="int" name="NMAXFOCKAE">     0</i>
   <i type="logical" name="LFOCKAEDFT"> F  </i>
   <i name="HFSCREEN">      0.00000000</i>
   <i name="HFSCREENC">      0.00000000</i>
   <i type="int" name="NBANDSGWLOW">     0</i>
  </separator>
  <separator name="vdW DFT" >
   <i type="logical" name="LUSE_VDW"> F  </i>
   <i name="Zab_VDW">     -0.84910000</i>
   <i name="PARAM1">      0.12340000</i>
   <i name="PARAM2">      1.00000000</i>
   <i name="PARAM3">      0.00000000</i>
  </separator>
  <separator name="model GW" >
   <i type="int" name="MODEL_GW">     0</i>
   <i name="MODEL_EPS0">     24.53982053</i>
   <i name="MODEL_ALPHA">      1.00000000</i>
  </separator>
  <separator name="linear response parameters" >
   <i type="logical" name="LEPSILON"> F  </i>
   <i type="logical" name="LRPA"> F  </i>
   <i type="logical" name="LNABLA"> F  </i>
   <i type="logical" name="LVEL"> F  </i>
   <i type="int" name="KINTER">     0</i>
   <i name="CSHIFT">      0.10000000</i>
   <i name="OMEGAMAX">     -1.00000000</i>
   <i name="DEG_THRESHOLD">      0.00200000</i>
   <i name="RTIME">     -0.10000000</i>
   <i name="WPLASMAI">      0.00000000</i>
   <v name="DFIELD">      0.00000000      0.00000000      0.00000000</v>
   <v name="WPLASMA">      0.00000000      0.00000000      0.00000000      0.00000000      0.00000000      0.00000000      0.00000000      0.00000000      0.00000000</v>
  </separator>
  <separator name="orbital magnetization" >
   <i type="logical" name="NUCIND"> F  </i>
   <v name="MAGPOS">      0.00000000      0.00000000      0.00000000</v>
   <i type="logical" name="LNICSALL"> T  </i>
   <i type="logical" name="ORBITALMAG"> F  </i>
   <i type="logical" name="LMAGBLOCH"> F  </i>
   <i type="logical" name="LCHIMAG"> F  </i>
   <i type="logical" name="LGAUGE"> T  </i>
   <i type="int" name="MAGATOM">     0</i>
   <v name="MAGDIPOL">      0.00000000      0.00000000      0.00000000</v>
   <v name="AVECCONST">      0.00000000      0.00000000      0.00000000</v>
  </separator>
  <separator name="response functions" >
   <i type="logical" name="LADDER"> F  </i>
   <i type="logical" name="LRPAFORCE"> F  </i>
   <i type="logical" name="LFXC"> F  </i>
   <i type="logical" name="LHARTREE"> T  </i>
   <i type="int" name="IBSE">     0</i>
   <v type="int" name="KPOINT">    -1     0     0     0</v>
   <i type="logical" name="LTCTE"> F  </i>
   <i type="logical" name="LTETE"> F  </i>
   <i type="logical" name="LTRIPLET"> F  </i>
   <i type="logical" name="LFXCEPS"> F  </i>
   <i type="logical" name="LFXHEG"> F  </i>
   <i type="int" name="NATURALO">     2</i>
   <i type="logical" name="L2ORDER"> F  </i>
   <i type="logical" name="LMP2LT"> F  </i>
   <i type="logical" name="LUSEW"> F  </i>
   <i name="ENCUTGW">     -2.00000000</i>
   <i name="ENCUTGWSOFT">     -2.00000000</i>
   <i name="ENCUTLF">     -1.00000000</i>
   <i type="int" name="LMAXMP2">    -1</i>
   <i name="SCISSOR">      0.00000000</i>
   <i type="int" name="NOMEGA">     0</i>
   <i type="int" name="NOMEGAR">     0</i>
   <i type="int" name="NBANDSGW">    -1</i>
   <i type="int" name="NBANDSO">    -1</i>
   <i type="int" name="NBANDSV">    -1</i>
   <i type="int" name="NELM">   200</i>
   <i type="int" name="NELMHF">     1</i>
   <i type="int" name="DIM">     3</i>
   <i type="int" name="ANTIRES">     0</i>
   <i name="OMEGAMAX">    -30.00000000</i>
   <i name="OMEGAMIN">    -30.00000000</i>
   <i name="OMEGATL">   -200.00000000</i>
   <i type="int" name="OMEGAGRID">   140</i>
   <i name="CSHIFT">     -0.10000000</i>
   <i type="logical" name="SELFENERGY"> F  </i>
   <i type="logical" name="LSPECTRAL"> F  </i>
   <i type="logical" name="LSPECTRALGW"> F  </i>
   <i type="logical" name="LSINGLES"> F  </i>
   <i type="logical" name="LFERMIGW"> F  </i>
   <i type="logical" name="ODDONLYGW"> F  </i>
   <i type="logical" name="EVENONLYGW"> F  </i>
   <i type="int" name="NKREDLFX">     1</i>
   <i type="int" name="NKREDLFY">     1</i>
   <i type="int" name="NKREDLFZ">     1</i>
   <i type="int" name="MAXMEM">  2800</i>
   <i type="int" name="TELESCOPE">     0</i>
   <i type="int" name="TAUPAR">     1</i>
   <i type="int" name="OMEGAPAR">    -1</i>
   <i name="LAMBDA">      1.00000000</i>
  </separator>
  <separator name="External order field" >
   <i name="OFIELD_KAPPA">      0.00000000</i>
   <v name="OFIELD_K">      0.00000000      0.00000000      0.00000000</v>
   <i name="OFIELD_Q6_NEAR">      0.00000000</i>
   <i name="OFIELD_Q6_FAR">      0.00000000</i>
   <i name="OFIELD_A">      0.00000000</i>
  </separator>
 </parameters>
 <atominfo>
  <atoms>      39 </atoms>
  <types>       3 </types>
  <array name="atoms" >
   <dimension dim="1">ion</dimension>
   <field type="string">element</field>
   <field type="int">atomtype</field>
   <set>
    <rc><c>Cs</c><c>   1</c></rc>
    <rc><c>Cs</c><c>   1</c></rc>
    <rc><c>Cs</c><c>   1</c></rc>
    <rc><c>Cs</c><c>   1</c></rc>
    <rc><c>Cs</c><c>   1</c></rc>
    <rc><c>Cs</c><c>   1</c></rc>
    <rc><c>Cs</c><c>   1</c></rc>
    <rc><c>Cs</c><c>   1</c></rc>
    <rc><c>Pb</c><c>   2</c></rc>
    <rc><c>Pb</c><c>   2</c></rc>
    <rc><c>Pb</c><c>   2</c></rc>
    <rc><c>Pb</c><c>   2</c></rc>
    <rc><c>Pb</c><c>   2</c></rc>
    <rc><c>Pb</c><c>   2</c></rc>
    <rc><c>Pb</c><c>   2</c></rc>
    <rc><c>Pb</c><c>   2</c></rc>
    <rc><c>Br</c><c>   3</c></rc>
    <rc><c>Br</c><c>   3</c></rc>
    <rc><c>Br</c><c>   3</c></rc>
    <rc><c>Br</c><c>   3</c></rc>
    <rc><c>Br</c><c>   3</c></rc>
    <rc><c>Br</c><c>   3</c></rc>
    <rc><c>Br</c><c>   3</c></rc>
    <rc><c>Br</c><c>   3</c></rc>
    <rc><c>Br</c><c>   3</c></rc>
    <rc><c>Br</c><c>   3</c></rc>
    <rc><c>Br</c><c>   3</c></rc>
    <rc><c>Br</c><c>   3</c></rc>
    <rc><c>Br</c><c>   3</c></rc>
    <rc><c>Br</c><c>   3</c></rc>
    <rc><c>Br</c><c>   3</c></rc>
    <rc><c>Br</c><c>   3</c></rc>
    <rc><c>Br</c><c>   3</c></rc>
    <rc><c>Br</c><c>   3</c></rc>
    <rc><c>Br</c><c>   3</c></rc>
    <rc><c>Br</c><c>   3</c></rc>
    <rc><c>Br</c><c>   3</c></rc>
    <rc><c>Br</c><c>   3</c></rc>
    <rc><c>Br</c><c>   3</c></rc>
   </set>
  </array>
  <array name="atomtypes" >
   <dimension dim="1">type</dimension>
   <field type="int">atomspertype</field>
   <field type="string">element</field>
   <field>mass</field>
   <field>valence</field>
   <field type="string">pseudopotential</field>
   <set>
    <rc><c>   8</c><c>Cs</c><c>    132.90000000</c><c>      9.00000000</c><c>  PAW_PBE Cs_sv 08Apr2002               </c></rc>
    <rc><c>   8</c><c>Pb</c><c>    207.20000000</c><c>     14.00000000</c><c>  PAW_PBE Pb_d 06Sep2000                </c></rc>
    <rc><c>  23</c><c>Br</c><c>     79.90400000</c><c>      7.00000000</c><c>  PAW_PBE Br 06Sep2000                  </c></rc>
   </set>
  </array>
 </atominfo>
 <structure name="initialpos" >
  <crystal>
   <varray name="basis" >
    <v>       8.45648900       0.00000000       8.04030100 </v>
    <v>       0.00000000      11.72984700       0.00000000 </v>
    <v>      -8.45648900       0.00000000       8.04030100 </v>
   </varray>
   <i name="volume">   1595.08833419 </i>
   <varray name="rec_basis" >
    <v>       0.05912619      -0.00000000       0.06218673 </v>
    <v>       0.00000000       0.08525260      -0.00000000 </v>
    <v>      -0.05912619       0.00000000       0.06218673 </v>
   </varray>
  </crystal>
  <varray name="positions" >
   <v>       0.26551900       0.23872100       0.19829500 </v>
   <v>       0.77513000       0.23256000       0.73437000 </v>
   <v>       0.71149700       0.77286800       0.26161400 </v>
   <v>       0.21867100       0.75246200       0.77785400 </v>
   <v>       0.26843200       0.24454100       0.72916500 </v>
   <v>       0.80442700       0.24780900       0.22734800 </v>
   <v>       0.72860400       0.75537400       0.78875300 </v>
   <v>       0.22325000       0.75739000       0.29555100 </v>
   <v>       0.00452300       0.99598000       0.00005200 </v>
   <v>       0.49479800       0.00324500       0.49949100 </v>
   <v>       0.50027600       0.00008200       0.00029600 </v>
   <v>       0.99574000       0.99988100       0.50046500 </v>
   <v>       0.51382300       0.49522000       0.99920000 </v>
   <v>       0.99494200       0.50296200       0.49586300 </v>
   <v>       0.00827100       0.50084500       0.99689900 </v>
   <v>       0.48787800       0.49820400       0.51218100 </v>
   <v>       0.47958800       0.74660900       0.97724500 </v>
   <v>       0.95965600       0.75027100       0.46078000 </v>
   <v>       0.98455300       0.24871700       0.97375500 </v>
   <v>       0.44180300       0.25363000       0.47294800 </v>
   <v>       0.04434200       0.74825300       0.03110700 </v>
   <v>       0.52981600       0.74798100       0.52156800 </v>
   <v>       0.53747300       0.24971000       0.04417500 </v>
   <v>       0.01073800       0.25306100       0.53264500 </v>
   <v>       0.26044200       0.46713900       0.95288800 </v>
   <v>       0.94592400       0.53081700       0.74169800 </v>
   <v>       0.54138200       0.03116100       0.75245800 </v>
   <v>       0.04797700       0.02841400       0.25324700 </v>
   <v>       0.75607600       0.97740500       0.03860400 </v>
   <v>       0.24725200       0.96338200       0.55050300 </v>
   <v>       0.25166500       0.02970600       0.94761700 </v>
   <v>       0.74235100       0.04027100       0.45298300 </v>
   <v>       0.44505900       0.96855000       0.24801100 </v>
   <v>       0.95399900       0.96339700       0.74817400 </v>
   <v>       0.76199300       0.53836000       0.04751400 </v>
   <v>       0.23633800       0.53771000       0.54859100 </v>
   <v>       0.56008100       0.46408100       0.75722300 </v>
   <v>       0.05912200       0.46791300       0.24975300 </v>
   <v>       0.62153100       0.49181800       0.33966000 </v>
  </varray>
 </structure>
 <calculation>
  <scstep>
   <time name="dav">   16.51   16.51</time>
   <time name="total">   17.98   17.99</time>
   <energy>
    <i name="alphaZ">    872.70583573 </i>
    <i name="ewald"> -17927.96605853 </i>
    <i name="hartreedc">  -7428.60964191 </i>
    <i name="XCdc">    908.15092133 </i>
    <i name="pawpsdc">  21345.28103884 </i>
    <i name="pawaedc"> -22405.85761495 </i>
    <i name="eentropy">     -0.00024640 </i>
    <i name="bandstr">   -243.78900835 </i>
    <i name="atom">  26212.11861568 </i>
    <i name="e_fr_energy">   1332.03384143 </i>
    <i name="e_wo_entrp">   1332.03408784 </i>
    <i name="e_0_energy">   1332.03396464 </i>
   </energy>
  </scstep>
  <scstep>
   <time name="dav">   18.33   18.34</time>
   <time name="total">   18.33   18.34</time>
   <energy>
    <i name="e_fr_energy">  -1112.14632668 </i>
    <i name="e_wo_entrp">  -1112.14632668 </i>
    <i name="e_0_energy">  -1112.14632668 </i>
   </energy>
  </scstep>
  <scstep>
   <time name="dav">   19.29   19.34</time>
   <time name="total">   19.29   19.34</time>
   <energy>
    <i name="e_fr_energy">  -1474.87363680 </i>
    <i name="e_wo_entrp">  -1474.87363680 </i>
    <i name="e_0_energy">  -1474.87363680 </i>
   </energy>
  </scstep>
  <scstep>
   <time name="dav">   17.92   17.95</time>
   <time name="total">   17.92   17.95</time>
   <energy>
    <i name="e_fr_energy">  -1486.74192739 </i>
    <i name="e_wo_entrp">  -1486.74192739 </i>
    <i name="e_0_energy">  -1486.74192739 </i>
   </energy>
  </scstep>
  <scstep>
   <time name="dav">   19.32   19.37</time>
   <time name="total">   22.03   22.08</time>
   <energy>
    <i name="e_fr_energy">  -1487.27395304 </i>
    <i name="e_wo_entrp">  -1487.27395304 </i>
    <i name="e_0_energy">  -1487.27395304 </i>
   </energy>
  </scstep>
  <scstep>
   <time name="dav">   18.99   18.99</time>
   <time name="total">   23.16   23.20</time>
   <energy>
    <i name="e_fr_energy">  -1409.59044404 </i>
    <i name="e_wo_entrp">  -1409.59044404 </i>
    <i name="e_0_energy">  -1409.59044404 </i>
   </energy>
  </scstep>
  <scstep>
   <time name="dav">   18.30   18.31</time>
   <time name="total">   22.45   22.51</time>
   <energy>
    <i name="e_fr_energy">  -1409.08030644 </i>
    <i name="e_wo_entrp">  -1409.08030644 </i>
    <i name="e_0_energy">  -1409.08030644 </i>
   </energy>
  </scstep>
  <scstep>
   <time name="dav">   18.16   18.16</time>
   <time name="total">   22.36   22.38</time>
   <energy>
    <i name="e_fr_energy">  -1409.25491826 </i>
    <i name="e_wo_entrp">  -1409.25491826 </i>
    <i name="e_0_energy">  -1409.25491826 </i>
   </energy>
  </scstep>
  <scstep>
   <time name="dav">   17.38   17.38</time>
   <time name="total">   21.59   21.60</time>
   <energy>
    <i name="e_fr_energy">  -1409.32220604 </i>
    <i name="e_wo_entrp">  -1409.32220604 </i>
    <i name="e_0_energy">  -1409.32220604 </i>
   </energy>
  </scstep>
  <scstep>
   <time name="dav">   19.61   19.61</time>
   <time name="total">   23.79   23.80</time>
   <energy>
    <i name="e_fr_energy">  -1409.32579882 </i>
    <i name="e_wo_entrp">  -1409.32579882 </i>
    <i name="e_0_energy">  -1409.32579882 </i>
   </energy>
  </scstep>
  <scstep>
   <time name="dav">   17.37   17.37</time>
   <time name="total">   21.57   21.58</time>
   <energy>
    <i name="e_fr_energy">  -1409.32758615 </i>
    <i name="e_wo_entrp">  -1409.32758615 </i>
    <i name="e_0_energy">  -1409.32758615 </i>
   </energy>
  </scstep>
  <scstep>
   <time name="dav">   16.91   16.91</time>
   <time name="total">   21.06   21.11</time>
   <energy>
    <i name="e_fr_energy">  -1409.33019901 </i>
    <i name="e_wo_entrp">  -1409.33019901 </i>
    <i name="e_0_energy">  -1409.33019901 </i>
   </energy>
  </scstep>
  <scstep>
   <time name="dav">   19.43   19.43</time>
   <time name="total">   23.61   23.66</time>
   <energy>
    <i name="e_fr_energy">  -1409.32984961 </i>
    <i name="e_wo_entrp">  -1409.32984961 </i>
    <i name="e_0_energy">  -1409.32984961 </i>
   </energy>
  </scstep>
  <scstep>
   <time name="dav">   17.63   17.63</time>
   <time name="total">   21.83   21.85</time>
   <energy>
    <i name="e_fr_energy">  -1409.32975789 </i>
    <i name="e_wo_entrp">  -1409.32975789 </i>
    <i name="e_0_energy">  -1409.32975789 </i>
   </energy>
  </scstep>
  <scstep>
   <time name="dav">   17.81   17.81</time>
   <time name="total">   21.98   22.03</time>
   <energy>
    <i name="e_fr_energy">  -1409.32974017 </i>
    <i name="e_wo_entrp">  -1409.32974017 </i>
    <i name="e_0_energy">  -1409.32974017 </i>
   </energy>
  </scstep>
  <scstep>
   <time name="dav">   17.73   17.73</time>
   <time name="total">   21.94   21.95</time>
   <energy>
    <i name="e_fr_energy">  -1409.32977986 </i>
    <i name="e_wo_entrp">  -1409.32977986 </i>
    <i name="e_0_energy">  -1409.32977986 </i>
   </energy>
  </scstep>
  <scstep>
   <time name="dav">   17.64   17.64</time>
   <time name="total">   21.82   21.86</time>
   <energy>
    <i name="e_fr_energy">  -1409.32979464 </i>
    <i name="e_wo_entrp">  -1409.32979464 </i>
    <i name="e_0_energy">  -1409.32979464 </i>
   </energy>
  </scstep>
  <scstep>
   <time name="dav">   13.77   13.77</time>
   <time name="total">   17.94   17.99</time>
   <energy>
    <i name="e_fr_energy">  -1409.32978614 </i>
    <i name="e_wo_entrp">  -1409.32978614 </i>
    <i name="e_0_energy">  -1409.32978614 </i>
   </energy>
  </scstep>
  <scstep>
   <time name="dav">   12.84   12.84</time>
   <time name="total">   17.00   17.06</time>
   <energy>
    <i name="e_fr_energy">  -1409.32978263 </i>
    <i name="e_wo_entrp">  -1409.32978263 </i>
    <i name="e_0_energy">  -1409.32978263 </i>
   </energy>
  </scstep>
  <scstep>
   <time name="dav">   12.65   12.65</time>
   <time name="total">   16.85   16.87</time>
   <energy>
    <i name="e_fr_energy">  -1409.32977855 </i>
    <i name="e_wo_entrp">  -1409.32977855 </i>
    <i name="e_0_energy">  -1409.32977855 </i>
   </energy>
  </scstep>
  <scstep>
   <time name="dav">   12.62   12.62</time>
   <time name="total">   14.12   14.15</time>
   <energy>
    <i name="alphaZ">    872.70583573 </i>
    <i name="ewald"> -17927.96605853 </i>
    <i name="hartreedc">  -7462.61002165 </i>
    <i name="XCdc">    943.77966348 </i>
    <i name="pawpsdc">  22781.98410483 </i>
    <i name="pawaedc"> -23840.64461263 </i>
    <i name="eentropy">     -0.00000000 </i>
    <i name="bandstr">  -2988.69730552 </i>
    <i name="atom">  26212.11861568 </i>
    <i name="e_fr_energy">  -1409.32977861 </i>
    <i name="e_wo_entrp">  -1409.32977861 </i>
    <i name="e_0_energy">  -1409.32977861 </i>
   </energy>
  </scstep>
  <structure>
   <crystal>
    <varray name="basis" >
     <v>       8.45648900       0.00000000       8.04030100 </v>
     <v>       0.00000000      11.72984700       0.00000000 </v>
     <v>      -8.45648900       0.00000000       8.04030100 </v>
    </varray>
    <i name="volume">   1595.08833419 </i>
    <varray name="rec_basis" >
     <v>       0.05912619      -0.00000000       0.06218673 </v>
     <v>       0.00000000       0.08525260      -0.00000000 </v>
     <v>      -0.05912619       0.00000000       0.06218673 </v>
    </varray>
   </crystal>
   <varray name="positions" >
    <v>       0.26551900       0.23872100       0.19829500 </v>
    <v>       0.77513000       0.23256000       0.73437000 </v>
    <v>       0.71149700       0.77286800       0.26161400 </v>
    <v>       0.21867100       0.75246200       0.77785400 </v>
    <v>       0.26843200       0.24454100       0.72916500 </v>
    <v>       0.80442700       0.24780900       0.22734800 </v>
    <v>       0.72860400       0.75537400       0.78875300 </v>
    <v>       0.22325000       0.75739000       0.29555100 </v>
    <v>       0.00452300       0.99598000       0.00005200 </v>
    <v>       0.49479800       0.00324500       0.49949100 </v>
    <v>       0.50027600       0.00008200       0.00029600 </v>
    <v>       0.99574000       0.99988100       0.50046500 </v>
    <v>       0.51382300       0.49522000       0.99920000 </v>
    <v>       0.99494200       0.50296200       0.49586300 </v>
    <v>       0.00827100       0.50084500       0.99689900 </v>
    <v>       0.48787800       0.49820400       0.51218100 </v>
    <v>       0.47958800       0.74660900       0.97724500 </v>
    <v>       0.95965600       0.75027100       0.46078000 </v>
    <v>       0.98455300       0.24871700       0.97375500 </v>
    <v>       0.44180300       0.25363000       0.47294800 </v>
    <v>       0.04434200       0.74825300       0.03110700 </v>
    <v>       0.52981600       0.74798100       0.52156800 </v>
    <v>       0.53747300       0.24971000       0.04417500 </v>
    <v>       0.01073800       0.25306100       0.53264500 </v>
    <v>       0.26044200       0.46713900       0.95288800 </v>
    <v>       0.94592400       0.53081700       0.74169800 </v>
    <v>       0.54138200       0.03116100       0.75245800 </v>
    <v>       0.04797700       0.02841400       0.25324700 </v>
    <v>       0.75607600       0.97740500       0.03860400 </v>
    <v>       0.24725200       0.96338200       0.55050300 </v>
    <v>       0.25166500       0.02970600       0.94761700 </v>
    <v>       0.74235100       0.04027100       0.45298300 </v>
    <v>       0.44505900       0.96855000       0.24801100 </v>
    <v>       0.95399900       0.96339700       0.74817400 </v>
    <v>       0.76199300       0.53836000       0.04751400 </v>
    <v>       0.23633800       0.53771000       0.54859100 </v>
    <v>       0.56008100       0.46408100       0.75722300 </v>
    <v>       0.05912200       0.46791300       0.24975300 </v>
    <v>       0.62153100       0.49181800       0.33966000 </v>
   </varray>
  </structure>
  <varray name="forces" >
   <v>      -0.00976188      -0.02783380       0.01025151 </v>
   <v>      -0.01885764      -0.01089790       0.01051412 </v>
   <v>       0.00594985       0.06540729       0.00524286 </v>
   <v>       0.00961444      -0.00195677      -0.00165973 </v>
   <v>       0.03560482       0.00528065      -0.00223799 </v>
   <v>      -0.02072371       0.02580105       0.00142544 </v>
   <v>      -0.00058821       0.00753632      -0.02025296 </v>
   <v>      -0.01404260       0.01013768       0.01062477 </v>
   <v>       0.02385448      -0.00138643       0.02090889 </v>
   <v>      -0.04125458      -0.01812557      -0.03210068 </v>
   <v>       0.00584664       0.00468779      -0.00334701 </v>
   <v>      -0.02413818      -0.01392060      -0.00654457 </v>
   <v>       0.19973387      -0.03719815      -0.05864284 </v>
   <v>       0.14110060       0.05746859       0.16885509 </v>
   <v>      -0.02767984      -0.00161846      -0.01830520 </v>
   <v>      -1.14214370       0.05976261       0.12200302 </v>
   <v>      -0.01035743      -0.01962973       0.00998024 </v>
   <v>       0.00221199      -0.01953974      -0.00694315 </v>
   <v>      -0.00034562       0.00419853       0.01058978 </v>
   <v>      -0.03907735      -0.12240102      -0.01888378 </v>
   <v>      -0.00148879      -0.00426218       0.00373426 </v>
   <v>      -0.01636389       0.13802607       0.01966716 </v>
   <v>      -0.00477991       0.01527680       0.00509484 </v>
   <v>      -0.00515964       0.01619612      -0.00831322 </v>
   <v>      -0.00446966       0.00675056       0.01525503 </v>
   <v>       0.01845201      -0.00491782      -0.01482800 </v>
   <v>      -0.01159945       0.00513719       0.01382789 </v>
   <v>       0.00282258       0.00308168       0.00075158 </v>
   <v>       0.00167130       0.01096711      -0.00913514 </v>
   <v>      -0.02776319       0.00537823      -0.03452326 </v>
   <v>       0.00925096      -0.00441738       0.01249484 </v>
   <v>       0.00619775       0.01600767       0.00867155 </v>
   <v>       0.01667317      -0.01469381      -0.01184642 </v>
   <v>       0.00764637      -0.00383112       0.00779057 </v>
   <v>       0.04002744       0.00053529       0.00499735 </v>
   <v>      -0.29080273      -0.01038116      -0.38312673 </v>
   <v>      -0.25345691      -0.00443974       0.32298460 </v>
   <v>       0.00109435       0.00446851       0.01752771 </v>
   <v>       1.43710226      -0.14065438      -0.17250241 </v>
  </varray>
  <varray name="stress" >
   <v>      -3.53472792       0.31649772      -0.06550992 </v>
   <v>       0.31642278      -3.46270187      -0.07710421 </v>
   <v>      -0.06546216      -0.07701387      -6.60655025 </v>
  </varray>
  <energy>
   <i name="e_fr_energy">  -1409.32977861 </i>
   <i name="e_wo_entrp">  -1409.32977861 </i>
   <i name="e_0_energy">     -0.00000000 </i>
  </energy>
  <time name="totalsc">  483.76  484.46</time>
  <eigenvalues>
   <array>
    <dimension dim="1">band</dimension>
    <dimension dim="2">kpoint</dimension>
    <dimension dim="3">spin</dimension>
    <field>eigene</field>
    <field>occ</field>
    <set>
     <set comment="spin 1">
      <set comment="kpoint 1">
       <r>  -20.8812    1.0000 </r>
       <r>  -20.8255    1.0000 </r>
       <r>  -20.7822    1.0000 </r>
       <r>  -20.7595    1.0000 </r>
       <r>  -20.7527    1.0000 </r>
       <r>  -20.7438    1.0000 </r>
       <r>  -20.7288    1.0000 </r>
       <r>  -20.6833    1.0000 </r>
       <r>  -16.7059    1.0000 </r>
       <r>  -16.6896    1.0000 </r>
       <r>  -16.6755    1.0000 </r>
       <r>  -16.6645    1.0000 </r>
       <r>  -16.6013    1.0000 </r>
       <r>  -16.5975    1.0000 </r>
       <r>  -16.5880    1.0000 </r>
       <r>  -16.5814    1.0000 </r>
       <r>  -16.5775    1.0000 </r>
       <r>  -16.5479    1.0000 </r>
       <r>  -16.5444    1.0000 </r>
       <r>  -16.5208    1.0000 </r>
       <r>  -16.4673    1.0000 </r>
       <r>  -16.4636    1.0000 </r>
       <r>  -16.4357    1.0000 </r>
       <r>  -16.4327    1.0000 </r>
       <r>  -16.4319    1.0000 </r>
       <r>  -16.4152    1.0000 </r>
       <r>  -16.4128    1.0000 </r>
       <r>  -16.4016    1.0000 </r>
       <r>  -16.3622    1.0000 </r>
       <r>  -16.3585    1.0000 </r>
       <r>  -16.3407    1.0000 </r>
       <r>  -16.3396    1.0000 </r>
       <r>  -16.3317    1.0000 </r>
       <r>  -16.3292    1.0000 </r>
       <r>  -16.3273    1.0000 </r>
       <r>  -16.3160    1.0000 </r>
       <r>  -16.2892    1.0000 </r>
       <r>  -16.2877    1.0000 </r>
       <r>  -16.2838    1.0000 </r>
       <r>  -16.2816    1.0000 </r>
       <r>  -16.2748    1.0000 </r>
       <r>  -16.2711    1.0000 </r>
       <r>  -16.2670    1.0000 </r>
       <r>  -16.2634    1.0000 </r>
       <r>  -16.2576    1.0000 </r>
       <r>  -16.2511    1.0000 </r>
       <r>  -16.2448    1.0000 </r>
       <r>  -16.2389    1.0000 </r>
       <r>  -14.4870    1.0000 </r>
       <r>  -14.3634    1.0000 </r>
       <r>  -14.2981    1.0000 </r>
       <r>  -14.2653    1.0000 </r>
       <r>  -14.1418    1.0000 </r>
       <r>  -14.1272    1.0000 </r>
       <r>  -14.1090    1.0000 </r>
       <r>  -14.0988    1.0000 </r>
       <r>  -14.0830    1.0000 </r>
       <r>  -14.0543    1.0000 </r>
       <r>  -14.0361    1.0000 </r>
       <r>  -14.0342    1.0000 </r>
       <r>  -14.0314    1.0000 </r>
       <r>  -14.0279    1.0000 </r>
       <r>  -13.9778    1.0000 </r>
       <r>  -13.9659    1.0000 </r>
       <r>  -13.9471    1.0000 </r>
       <r>  -13.9406    1.0000 </r>
       <r>  -13.8864    1.0000 </r>
       <r>  -13.7748    1.0000 </r>
       <r>  -13.7716    1.0000 </r>
       <r>  -13.7186    1.0000 </r>
       <r>  -13.7074    1.0000 </r>
       <r>   -8.2086    1.0000 </r>
       <r>   -7.8064    1.0000 </r>
       <r>   -7.7542    1.0000 </r>
       <r>   -7.6754    1.0000 </r>
       <r>   -7.3504    1.0000 </r>
       <r>   -7.3106    1.0000 </r>
       <r>   -7.2762    1.0000 </r>
       <r>   -7.2664    1.0000 </r>
       <r>   -7.2581    1.0000 </r>
       <r>   -7.2280    1.0000 </r>
       <r>   -7.2210    1.0000 </r>
       <r>   -7.2162    1.0000 </r>
       <r>   -7.2029    1.0000 </r>
       <r>   -7.1848    1.0000 </r>
       <r>   -7.1776    1.0000 </r>
       <r>   -7.1750    1.0000 </r>
       <r>   -7.1663    1.0000 </r>
       <r>   -7.1592    1.0000 </r>
       <r>   -7.1536    1.0000 </r>
       <r>   -7.1502    1.0000 </r>
       <r>   -7.1479    1.0000 </r>
       <r>   -7.1443    1.0000 </r>
       <r>   -7.1402    1.0000 </r>
       <r>   -7.1331    1.0000 </r>
       <r>   -7.1306    1.0000 </r>
       <r>   -7.1186    1.0000 </r>
       <r>   -7.1059    1.0000 </r>
       <r>   -7.0982    1.0000 </r>
       <r>   -7.0916    1.0000 </r>
       <r>   -7.0773    1.0000 </r>
       <r>   -7.0422    1.0000 </r>
       <r>   -6.5828    1.0000 </r>
       <r>   -3.3724    1.0000 </r>
       <r>   -3.3341    1.0000 </r>
       <r>   -3.2928    1.0000 </r>
       <r>   -3.2731    1.0000 </r>
       <r>   -3.2621    1.0000 </r>
       <r>   -3.1981    1.0000 </r>
       <r>   -3.1762    1.0000 </r>
       <r>   -3.1513    1.0000 </r>
       <r>   -3.1464    1.0000 </r>
       <r>   -3.0834    1.0000 </r>
       <r>   -3.0397    1.0000 </r>
       <r>   -2.8470    1.0000 </r>
       <r>   -2.2225    1.0000 </r>
       <r>   -2.1928    1.0000 </r>
       <r>   -2.1404    1.0000 </r>
       <r>   -2.1062    1.0000 </r>
       <r>   -2.0191    1.0000 </r>
       <r>   -1.9689    1.0000 </r>
       <r>   -1.9316    1.0000 </r>
       <r>   -1.8854    1.0000 </r>
       <r>   -1.8730    1.0000 </r>
       <r>   -1.8579    1.0000 </r>
       <r>   -1.8110    1.0000 </r>
       <r>   -1.7280    1.0000 </r>
       <r>   -1.7040    1.0000 </r>
       <r>   -1.6684    1.0000 </r>
       <r>   -1.6463    1.0000 </r>
       <r>   -1.6261    1.0000 </r>
       <r>   -1.5778    1.0000 </r>
       <r>   -1.5496    1.0000 </r>
       <r>   -1.5359    1.0000 </r>
       <r>   -1.5320    1.0000 </r>
       <r>   -1.5088    1.0000 </r>
       <r>   -1.4984    1.0000 </r>
       <r>   -1.4844    1.0000 </r>
       <r>   -1.4613    1.0000 </r>
       <r>   -1.4467    1.0000 </r>
       <r>   -1.4296    1.0000 </r>
       <r>   -1.4157    1.0000 </r>
       <r>   -1.4039    1.0000 </r>
       <r>   -1.3975    1.0000 </r>
       <r>   -1.3915    1.0000 </r>
       <r>   -1.3756    1.0000 </r>
       <r>   -1.3668    1.0000 </r>
       <r>   -1.3527    1.0000 </r>
       <r>   -1.3405    1.0000 </r>
       <r>   -1.3205    1.0000 </r>
       <r>   -1.3098    1.0000 </r>
       <r>   -1.3040    1.0000 </r>
       <r>   -1.2794    1.0000 </r>
       <r>   -1.2728    1.0000 </r>
       <r>   -1.2494    1.0000 </r>
       <r>   -1.2387    1.0000 </r>
       <r>   -1.1729    1.0000 </r>
       <r>   -1.1479    1.0000 </r>
       <r>   -1.1369    1.0000 </r>
       <r>   -1.1027    1.0000 </r>
       <r>   -1.0548    1.0000 </r>
       <r>   -1.0346    1.0000 </r>
       <r>   -0.9991    1.0000 </r>
       <r>   -0.9551    1.0000 </r>
       <r>   -0.8582    1.0000 </r>
       <r>   -0.8163    1.0000 </r>
       <r>   -0.7277    1.0000 </r>
       <r>   -0.6056    1.0000 </r>
       <r>   -0.3398    1.0000 </r>
       <r>   -0.2116    1.0000 </r>
       <r>   -0.0973    1.0000 </r>
       <r>    0.3902    1.0000 </r>
       <r>    2.6227    0.0000 </r>
       <r>    2.7744    0.0000 </r>
       <r>    2.8323    0.0000 </r>
       <r>    2.9253    0.0000 </r>
       <r>    3.0255    0.0000 </r>
       <r>    3.1005    0.0000 </r>
       <r>    3.1504    0.0000 </r>
       <r>    3.2178    0.0000 </r>
       <r>    3.3232    0.0000 </r>
       <r>    3.4872    0.0000 </r>
       <r>    3.4922    0.0000 </r>
       <r>    3.5481    0.0000 </r>
       <r>    4.0748    0.0000 </r>
       <r>    4.8051    0.0000 </r>
       <r>    5.2567    0.0000 </r>
       <r>    5.5611    0.0000 </r>
       <r>    5.6447    0.0000 </r>
       <r>    5.7132    0.0000 </r>
       <r>    5.8725    0.0000 </r>
       <r>    5.8852    0.0000 </r>
       <r>    5.9282    0.0000 </r>
       <r>    5.9932    0.0000 </r>
       <r>    6.0117    0.0000 </r>
       <r>    6.0581    0.0000 </r>
       <r>    6.1374    0.0000 </r>
       <r>    6.1560    0.0000 </r>
       <r>    6.2031    0.0000 </r>
       <r>    6.2551    0.0000 </r>
       <r>    6.2751    0.0000 </r>
       <r>    6.3376    0.0000 </r>
       <r>    6.3782    0.0000 </r>
       <r>    6.4404    0.0000 </r>
       <r>    6.4706    0.0000 </r>
       <r>    6.5387    0.0000 </r>
       <r>    6.6226    0.0000 </r>
       <r>    6.6617    0.0000 </r>
      </set>
      <set comment="kpoint 2">
       <r>  -20.8812    1.0000 </r>
       <r>  -20.8255    1.0000 </r>
       <r>  -20.7822    1.0000 </r>
       <r>  -20.7596    1.0000 </r>
       <r>  -20.7527    1.0000 </r>
       <r>  -20.7437    1.0000 </r>
       <r>  -20.7288    1.0000 </r>
       <r>  -20.6833    1.0000 </r>
       <r>  -16.7055    1.0000 </r>
       <r>  -16.6893    1.0000 </r>
       <r>  -16.6729    1.0000 </r>
       <r>  -16.6645    1.0000 </r>
       <r>  -16.6013    1.0000 </r>
       <r>  -16.5975    1.0000 </r>
       <r>  -16.5882    1.0000 </r>
       <r>  -16.5814    1.0000 </r>
       <r>  -16.5775    1.0000 </r>
       <r>  -16.5479    1.0000 </r>
       <r>  -16.5444    1.0000 </r>
       <r>  -16.5208    1.0000 </r>
       <r>  -16.4679    1.0000 </r>
       <r>  -16.4633    1.0000 </r>
       <r>  -16.4377    1.0000 </r>
       <r>  -16.4320    1.0000 </r>
       <r>  -16.4235    1.0000 </r>
       <r>  -16.4118    1.0000 </r>
       <r>  -16.4049    1.0000 </r>
       <r>  -16.3943    1.0000 </r>
       <r>  -16.3760    1.0000 </r>
       <r>  -16.3556    1.0000 </r>
       <r>  -16.3491    1.0000 </r>
       <r>  -16.3407    1.0000 </r>
       <r>  -16.3393    1.0000 </r>
       <r>  -16.3317    1.0000 </r>
       <r>  -16.3273    1.0000 </r>
       <r>  -16.3160    1.0000 </r>
       <r>  -16.2892    1.0000 </r>
       <r>  -16.2877    1.0000 </r>
       <r>  -16.2838    1.0000 </r>
       <r>  -16.2816    1.0000 </r>
       <r>  -16.2749    1.0000 </r>
       <r>  -16.2711    1.0000 </r>
       <r>  -16.2670    1.0000 </r>
       <r>  -16.2634    1.0000 </r>
       <r>  -16.2576    1.0000 </r>
       <r>  -16.2511    1.0000 </r>
       <r>  -16.2448    1.0000 </r>
       <r>  -16.2389    1.0000 </r>
       <r>  -14.4743    1.0000 </r>
       <r>  -14.3880    1.0000 </r>
       <r>  -14.2785    1.0000 </r>
       <r>  -14.2579    1.0000 </r>
       <r>  -14.2035    1.0000 </r>
       <r>  -14.1362    1.0000 </r>
       <r>  -14.1096    1.0000 </r>
       <r>  -14.0991    1.0000 </r>
       <r>  -14.0829    1.0000 </r>
       <r>  -14.0727    1.0000 </r>
       <r>  -14.0534    1.0000 </r>
       <r>  -14.0343    1.0000 </r>
       <r>  -14.0285    1.0000 </r>
       <r>  -13.9833    1.0000 </r>
       <r>  -13.9737    1.0000 </r>
       <r>  -13.9636    1.0000 </r>
       <r>  -13.9079    1.0000 </r>
       <r>  -13.8642    1.0000 </r>
       <r>  -13.8556    1.0000 </r>
       <r>  -13.8089    1.0000 </r>
       <r>  -13.7767    1.0000 </r>
       <r>  -13.7677    1.0000 </r>
       <r>  -13.7236    1.0000 </r>
       <r>   -8.0493    1.0000 </r>
       <r>   -7.9782    1.0000 </r>
       <r>   -7.6453    1.0000 </r>
       <r>   -7.5184    1.0000 </r>
       <r>   -7.4529    1.0000 </r>
       <r>   -7.4379    1.0000 </r>
       <r>   -7.3147    1.0000 </r>
       <r>   -7.2755    1.0000 </r>
       <r>   -7.2622    1.0000 </r>
       <r>   -7.2508    1.0000 </r>
       <r>   -7.2214    1.0000 </r>
       <r>   -7.2112    1.0000 </r>
       <r>   -7.1970    1.0000 </r>
       <r>   -7.1918    1.0000 </r>
       <r>   -7.1841    1.0000 </r>
       <r>   -7.1752    1.0000 </r>
       <r>   -7.1653    1.0000 </r>
       <r>   -7.1607    1.0000 </r>
       <r>   -7.1562    1.0000 </r>
       <r>   -7.1500    1.0000 </r>
       <r>   -7.1443    1.0000 </r>
       <r>   -7.1424    1.0000 </r>
       <r>   -7.1349    1.0000 </r>
       <r>   -7.1330    1.0000 </r>
       <r>   -7.1283    1.0000 </r>
       <r>   -7.1143    1.0000 </r>
       <r>   -7.1071    1.0000 </r>
       <r>   -7.0975    1.0000 </r>
       <r>   -7.0875    1.0000 </r>
       <r>   -7.0740    1.0000 </r>
       <r>   -6.9225    1.0000 </r>
       <r>   -6.8511    1.0000 </r>
       <r>   -3.3517    1.0000 </r>
       <r>   -3.3191    1.0000 </r>
       <r>   -3.2564    1.0000 </r>
       <r>   -3.2487    1.0000 </r>
       <r>   -3.1959    1.0000 </r>
       <r>   -3.1873    1.0000 </r>
       <r>   -3.1279    1.0000 </r>
       <r>   -3.1231    1.0000 </r>
       <r>   -2.9052    1.0000 </r>
       <r>   -2.5513    1.0000 </r>
       <r>   -2.4909    1.0000 </r>
       <r>   -2.4486    1.0000 </r>
       <r>   -2.4012    1.0000 </r>
       <r>   -2.3745    1.0000 </r>
       <r>   -2.3267    1.0000 </r>
       <r>   -2.1895    1.0000 </r>
       <r>   -2.1146    1.0000 </r>
       <r>   -2.0558    1.0000 </r>
       <r>   -2.0475    1.0000 </r>
       <r>   -2.0006    1.0000 </r>
       <r>   -1.9809    1.0000 </r>
       <r>   -1.9354    1.0000 </r>
       <r>   -1.8843    1.0000 </r>
       <r>   -1.8353    1.0000 </r>
       <r>   -1.8055    1.0000 </r>
       <r>   -1.7888    1.0000 </r>
       <r>   -1.7176    1.0000 </r>
       <r>   -1.6735    1.0000 </r>
       <r>   -1.6091    1.0000 </r>
       <r>   -1.5829    1.0000 </r>
       <r>   -1.5556    1.0000 </r>
       <r>   -1.5428    1.0000 </r>
       <r>   -1.5373    1.0000 </r>
       <r>   -1.4883    1.0000 </r>
       <r>   -1.4771    1.0000 </r>
       <r>   -1.4510    1.0000 </r>
       <r>   -1.4465    1.0000 </r>
       <r>   -1.4296    1.0000 </r>
       <r>   -1.4253    1.0000 </r>
       <r>   -1.4195    1.0000 </r>
       <r>   -1.4052    1.0000 </r>
       <r>   -1.3839    1.0000 </r>
       <r>   -1.3793    1.0000 </r>
       <r>   -1.3629    1.0000 </r>
       <r>   -1.3380    1.0000 </r>
       <r>   -1.3241    1.0000 </r>
       <r>   -1.3208    1.0000 </r>
       <r>   -1.2897    1.0000 </r>
       <r>   -1.2803    1.0000 </r>
       <r>   -1.2576    1.0000 </r>
       <r>   -1.2369    1.0000 </r>
       <r>   -1.2195    1.0000 </r>
       <r>   -1.1927    1.0000 </r>
       <r>   -1.1869    1.0000 </r>
       <r>   -1.1746    1.0000 </r>
       <r>   -1.1391    1.0000 </r>
       <r>   -1.1011    1.0000 </r>
       <r>   -1.0796    1.0000 </r>
       <r>   -1.0683    1.0000 </r>
       <r>   -1.0486    1.0000 </r>
       <r>   -0.9515    1.0000 </r>
       <r>   -0.9172    1.0000 </r>
       <r>   -0.8948    1.0000 </r>
       <r>   -0.7083    1.0000 </r>
       <r>   -0.6275    1.0000 </r>
       <r>   -0.5233    1.0000 </r>
       <r>   -0.4222    1.0000 </r>
       <r>   -0.0322    1.0000 </r>
       <r>    0.0363    1.0000 </r>
       <r>    2.6480    0.0000 </r>
       <r>    2.8836    0.0000 </r>
       <r>    2.9319    0.0000 </r>
       <r>    2.9530    0.0000 </r>
       <r>    3.1805    0.0000 </r>
       <r>    3.2594    0.0000 </r>
       <r>    3.3126    0.0000 </r>
       <r>    3.3496    0.0000 </r>
       <r>    3.4338    0.0000 </r>
       <r>    4.0043    0.0000 </r>
       <r>    4.3217    0.0000 </r>
       <r>    4.3929    0.0000 </r>
       <r>    4.5692    0.0000 </r>
       <r>    4.6224    0.0000 </r>
       <r>    4.7852    0.0000 </r>
       <r>    4.8655    0.0000 </r>
       <r>    4.9980    0.0000 </r>
       <r>    5.3553    0.0000 </r>
       <r>    5.5971    0.0000 </r>
       <r>    5.6402    0.0000 </r>
       <r>    5.7914    0.0000 </r>
       <r>    5.8840    0.0000 </r>
       <r>    5.9630    0.0000 </r>
       <r>    6.0289    0.0000 </r>
       <r>    6.0486    0.0000 </r>
       <r>    6.1362    0.0000 </r>
       <r>    6.1756    0.0000 </r>
       <r>    6.2002    0.0000 </r>
       <r>    6.2506    0.0000 </r>
       <r>    6.2678    0.0000 </r>
       <r>    6.3304    0.0000 </r>
       <r>    6.3787    0.0000 </r>
       <r>    6.4429    0.0000 </r>
       <r>    6.5575    0.0000 </r>
       <r>    6.5715    0.0000 </r>
       <r>    6.6299    0.0000 </r>
      </set>
      <set comment="kpoint 3">
       <r>  -20.8812    1.0000 </r>
       <r>  -20.8255    1.0000 </r>
       <r>  -20.7822    1.0000 </r>
       <r>  -20.7595    1.0000 </r>
       <r>  -20.7527    1.0000 </r>
       <r>  -20.7438    1.0000 </r>
       <r>  -20.7288    1.0000 </r>
       <r>  -20.6833    1.0000 </r>
       <r>  -16.7050    1.0000 </r>
       <r>  -16.6882    1.0000 </r>
       <r>  -16.6732    1.0000 </r>
       <r>  -16.6624    1.0000 </r>
       <r>  -16.6013    1.0000 </r>
       <r>  -16.5975    1.0000 </r>
       <r>  -16.5876    1.0000 </r>
       <r>  -16.5813    1.0000 </r>
       <r>  -16.5775    1.0000 </r>
       <r>  -16.5479    1.0000 </r>
       <r>  -16.5444    1.0000 </r>
       <r>  -16.5171    1.0000 </r>
       <r>  -16.4634    1.0000 </r>
       <r>  -16.4522    1.0000 </r>
       <r>  -16.4348    1.0000 </r>
       <r>  -16.4341    1.0000 </r>
       <r>  -16.4319    1.0000 </r>
       <r>  -16.4212    1.0000 </r>
       <r>  -16.4160    1.0000 </r>
       <r>  -16.4049    1.0000 </r>
       <r>  -16.3734    1.0000 </r>
       <r>  -16.3594    1.0000 </r>
       <r>  -16.3439    1.0000 </r>
       <r>  -16.3407    1.0000 </r>
       <r>  -16.3316    1.0000 </r>
       <r>  -16.3293    1.0000 </r>
       <r>  -16.3273    1.0000 </r>
       <r>  -16.3158    1.0000 </r>
       <r>  -16.2892    1.0000 </r>
       <r>  -16.2876    1.0000 </r>
       <r>  -16.2838    1.0000 </r>
       <r>  -16.2816    1.0000 </r>
       <r>  -16.2748    1.0000 </r>
       <r>  -16.2711    1.0000 </r>
       <r>  -16.2670    1.0000 </r>
       <r>  -16.2634    1.0000 </r>
       <r>  -16.2576    1.0000 </r>
       <r>  -16.2510    1.0000 </r>
       <r>  -16.2448    1.0000 </r>
       <r>  -16.2389    1.0000 </r>
       <r>  -14.4802    1.0000 </r>
       <r>  -14.3610    1.0000 </r>
       <r>  -14.3086    1.0000 </r>
       <r>  -14.2713    1.0000 </r>
       <r>  -14.1981    1.0000 </r>
       <r>  -14.1718    1.0000 </r>
       <r>  -14.1228    1.0000 </r>
       <r>  -14.0657    1.0000 </r>
       <r>  -14.0585    1.0000 </r>
       <r>  -14.0488    1.0000 </r>
       <r>  -14.0357    1.0000 </r>
       <r>  -14.0324    1.0000 </r>
       <r>  -14.0235    1.0000 </r>
       <r>  -14.0181    1.0000 </r>
       <r>  -13.9786    1.0000 </r>
       <r>  -13.9417    1.0000 </r>
       <r>  -13.8814    1.0000 </r>
       <r>  -13.8728    1.0000 </r>
       <r>  -13.8360    1.0000 </r>
       <r>  -13.8253    1.0000 </r>
       <r>  -13.8132    1.0000 </r>
       <r>  -13.7853    1.0000 </r>
       <r>  -13.7116    1.0000 </r>
       <r>   -7.9947    1.0000 </r>
       <r>   -7.9375    1.0000 </r>
       <r>   -7.6298    1.0000 </r>
       <r>   -7.5888    1.0000 </r>
       <r>   -7.4534    1.0000 </r>
       <r>   -7.4170    1.0000 </r>
       <r>   -7.3177    1.0000 </r>
       <r>   -7.2779    1.0000 </r>
       <r>   -7.2619    1.0000 </r>
       <r>   -7.2496    1.0000 </r>
       <r>   -7.2236    1.0000 </r>
       <r>   -7.2120    1.0000 </r>
       <r>   -7.2024    1.0000 </r>
       <r>   -7.1848    1.0000 </r>
       <r>   -7.1799    1.0000 </r>
       <r>   -7.1728    1.0000 </r>
       <r>   -7.1634    1.0000 </r>
       <r>   -7.1611    1.0000 </r>
       <r>   -7.1571    1.0000 </r>
       <r>   -7.1478    1.0000 </r>
       <r>   -7.1441    1.0000 </r>
       <r>   -7.1427    1.0000 </r>
       <r>   -7.1370    1.0000 </r>
       <r>   -7.1351    1.0000 </r>
       <r>   -7.1264    1.0000 </r>
       <r>   -7.1235    1.0000 </r>
       <r>   -7.1121    1.0000 </r>
       <r>   -7.1044    1.0000 </r>
       <r>   -7.0986    1.0000 </r>
       <r>   -7.0723    1.0000 </r>
       <r>   -7.0535    1.0000 </r>
       <r>   -6.8474    1.0000 </r>
       <r>   -3.2694    1.0000 </r>
       <r>   -3.2456    1.0000 </r>
       <r>   -3.2234    1.0000 </r>
       <r>   -3.2069    1.0000 </r>
       <r>   -3.1435    1.0000 </r>
       <r>   -3.1143    1.0000 </r>
       <r>   -3.0797    1.0000 </r>
       <r>   -2.9309    1.0000 </r>
       <r>   -2.5770    1.0000 </r>
       <r>   -2.5570    1.0000 </r>
       <r>   -2.5158    1.0000 </r>
       <r>   -2.4752    1.0000 </r>
       <r>   -2.4343    1.0000 </r>
       <r>   -2.4231    1.0000 </r>
       <r>   -2.3794    1.0000 </r>
       <r>   -2.3537    1.0000 </r>
       <r>   -2.1831    1.0000 </r>
       <r>   -2.0989    1.0000 </r>
       <r>   -2.0555    1.0000 </r>
       <r>   -2.0187    1.0000 </r>
       <r>   -2.0057    1.0000 </r>
       <r>   -1.9372    1.0000 </r>
       <r>   -1.8948    1.0000 </r>
       <r>   -1.8694    1.0000 </r>
       <r>   -1.8588    1.0000 </r>
       <r>   -1.8003    1.0000 </r>
       <r>   -1.7523    1.0000 </r>
       <r>   -1.7045    1.0000 </r>
       <r>   -1.6761    1.0000 </r>
       <r>   -1.6650    1.0000 </r>
       <r>   -1.5739    1.0000 </r>
       <r>   -1.5128    1.0000 </r>
       <r>   -1.5051    1.0000 </r>
       <r>   -1.4781    1.0000 </r>
       <r>   -1.4555    1.0000 </r>
       <r>   -1.4449    1.0000 </r>
       <r>   -1.4420    1.0000 </r>
       <r>   -1.4187    1.0000 </r>
       <r>   -1.4067    1.0000 </r>
       <r>   -1.3947    1.0000 </r>
       <r>   -1.3859    1.0000 </r>
       <r>   -1.3705    1.0000 </r>
       <r>   -1.3648    1.0000 </r>
       <r>   -1.3521    1.0000 </r>
       <r>   -1.3348    1.0000 </r>
       <r>   -1.3308    1.0000 </r>
       <r>   -1.3138    1.0000 </r>
       <r>   -1.3014    1.0000 </r>
       <r>   -1.2949    1.0000 </r>
       <r>   -1.2774    1.0000 </r>
       <r>   -1.2689    1.0000 </r>
       <r>   -1.2231    1.0000 </r>
       <r>   -1.2184    1.0000 </r>
       <r>   -1.1778    1.0000 </r>
       <r>   -1.1389    1.0000 </r>
       <r>   -1.1287    1.0000 </r>
       <r>   -1.1187    1.0000 </r>
       <r>   -1.0993    1.0000 </r>
       <r>   -1.0690    1.0000 </r>
       <r>   -1.0441    1.0000 </r>
       <r>   -1.0087    1.0000 </r>
       <r>   -0.9472    1.0000 </r>
       <r>   -0.8494    1.0000 </r>
       <r>   -0.8223    1.0000 </r>
       <r>   -0.5817    1.0000 </r>
       <r>   -0.5741    1.0000 </r>
       <r>   -0.5455    1.0000 </r>
       <r>   -0.3143    1.0000 </r>
       <r>    0.0384    1.0000 </r>
       <r>    2.7335    0.0000 </r>
       <r>    2.9394    0.0000 </r>
       <r>    2.9718    0.0000 </r>
       <r>    3.1133    0.0000 </r>
       <r>    3.1316    0.0000 </r>
       <r>    3.2930    0.0000 </r>
       <r>    3.3777    0.0000 </r>
       <r>    3.3966    0.0000 </r>
       <r>    4.0255    0.0000 </r>
       <r>    4.2993    0.0000 </r>
       <r>    4.3864    0.0000 </r>
       <r>    4.5669    0.0000 </r>
       <r>    4.6071    0.0000 </r>
       <r>    4.6344    0.0000 </r>
       <r>    4.7005    0.0000 </r>
       <r>    4.8257    0.0000 </r>
       <r>    4.9369    0.0000 </r>
       <r>    5.2745    0.0000 </r>
       <r>    5.3261    0.0000 </r>
       <r>    5.5427    0.0000 </r>
       <r>    5.6815    0.0000 </r>
       <r>    5.7870    0.0000 </r>
       <r>    5.8027    0.0000 </r>
       <r>    5.8413    0.0000 </r>
       <r>    6.0627    0.0000 </r>
       <r>    6.1077    0.0000 </r>
       <r>    6.1726    0.0000 </r>
       <r>    6.2063    0.0000 </r>
       <r>    6.2597    0.0000 </r>
       <r>    6.3222    0.0000 </r>
       <r>    6.3367    0.0000 </r>
       <r>    6.4151    0.0000 </r>
       <r>    6.5315    0.0000 </r>
       <r>    6.5910    0.0000 </r>
       <r>    6.6159    0.0000 </r>
       <r>    6.6411    0.0000 </r>
      </set>
      <set comment="kpoint 4">
       <r>  -20.8812    1.0000 </r>
       <r>  -20.8255    1.0000 </r>
       <r>  -20.7822    1.0000 </r>
       <r>  -20.7596    1.0000 </r>
       <r>  -20.7527    1.0000 </r>
       <r>  -20.7437    1.0000 </r>
       <r>  -20.7289    1.0000 </r>
       <r>  -20.6833    1.0000 </r>
       <r>  -16.7045    1.0000 </r>
       <r>  -16.6879    1.0000 </r>
       <r>  -16.6708    1.0000 </r>
       <r>  -16.6625    1.0000 </r>
       <r>  -16.6013    1.0000 </r>
       <r>  -16.5975    1.0000 </r>
       <r>  -16.5879    1.0000 </r>
       <r>  -16.5814    1.0000 </r>
       <r>  -16.5775    1.0000 </r>
       <r>  -16.5480    1.0000 </r>
       <r>  -16.5444    1.0000 </r>
       <r>  -16.5171    1.0000 </r>
       <r>  -16.4633    1.0000 </r>
       <r>  -16.4535    1.0000 </r>
       <r>  -16.4372    1.0000 </r>
       <r>  -16.4320    1.0000 </r>
       <r>  -16.4268    1.0000 </r>
       <r>  -16.4138    1.0000 </r>
       <r>  -16.4070    1.0000 </r>
       <r>  -16.3971    1.0000 </r>
       <r>  -16.3874    1.0000 </r>
       <r>  -16.3584    1.0000 </r>
       <r>  -16.3523    1.0000 </r>
       <r>  -16.3410    1.0000 </r>
       <r>  -16.3407    1.0000 </r>
       <r>  -16.3317    1.0000 </r>
       <r>  -16.3273    1.0000 </r>
       <r>  -16.3158    1.0000 </r>
       <r>  -16.2892    1.0000 </r>
       <r>  -16.2877    1.0000 </r>
       <r>  -16.2839    1.0000 </r>
       <r>  -16.2817    1.0000 </r>
       <r>  -16.2749    1.0000 </r>
       <r>  -16.2711    1.0000 </r>
       <r>  -16.2670    1.0000 </r>
       <r>  -16.2634    1.0000 </r>
       <r>  -16.2576    1.0000 </r>
       <r>  -16.2511    1.0000 </r>
       <r>  -16.2448    1.0000 </r>
       <r>  -16.2389    1.0000 </r>
       <r>  -14.4710    1.0000 </r>
       <r>  -14.3794    1.0000 </r>
       <r>  -14.2743    1.0000 </r>
       <r>  -14.2698    1.0000 </r>
       <r>  -14.2417    1.0000 </r>
       <r>  -14.1954    1.0000 </r>
       <r>  -14.1366    1.0000 </r>
       <r>  -14.1028    1.0000 </r>
       <r>  -14.0730    1.0000 </r>
       <r>  -14.0584    1.0000 </r>
       <r>  -14.0335    1.0000 </r>
       <r>  -14.0263    1.0000 </r>
       <r>  -13.9805    1.0000 </r>
       <r>  -13.9310    1.0000 </r>
       <r>  -13.9174    1.0000 </r>
       <r>  -13.9152    1.0000 </r>
       <r>  -13.9092    1.0000 </r>
       <r>  -13.8796    1.0000 </r>
       <r>  -13.8470    1.0000 </r>
       <r>  -13.8278    1.0000 </r>
       <r>  -13.8112    1.0000 </r>
       <r>  -13.7941    1.0000 </r>
       <r>  -13.7635    1.0000 </r>
       <r>   -7.8882    1.0000 </r>
       <r>   -7.7598    1.0000 </r>
       <r>   -7.7242    1.0000 </r>
       <r>   -7.6924    1.0000 </r>
       <r>   -7.4753    1.0000 </r>
       <r>   -7.3299    1.0000 </r>
       <r>   -7.2993    1.0000 </r>
       <r>   -7.2729    1.0000 </r>
       <r>   -7.2617    1.0000 </r>
       <r>   -7.2490    1.0000 </r>
       <r>   -7.2318    1.0000 </r>
       <r>   -7.2218    1.0000 </r>
       <r>   -7.2105    1.0000 </r>
       <r>   -7.1994    1.0000 </r>
       <r>   -7.1868    1.0000 </r>
       <r>   -7.1831    1.0000 </r>
       <r>   -7.1730    1.0000 </r>
       <r>   -7.1684    1.0000 </r>
       <r>   -7.1551    1.0000 </r>
       <r>   -7.1505    1.0000 </r>
       <r>   -7.1478    1.0000 </r>
       <r>   -7.1415    1.0000 </r>
       <r>   -7.1385    1.0000 </r>
       <r>   -7.1354    1.0000 </r>
       <r>   -7.1310    1.0000 </r>
       <r>   -7.1230    1.0000 </r>
       <r>   -7.1211    1.0000 </r>
       <r>   -7.1119    1.0000 </r>
       <r>   -7.1040    1.0000 </r>
       <r>   -7.0855    1.0000 </r>
       <r>   -7.0687    1.0000 </r>
       <r>   -7.0584    1.0000 </r>
       <r>   -3.1979    1.0000 </r>
       <r>   -3.1908    1.0000 </r>
       <r>   -3.1851    1.0000 </r>
       <r>   -3.1531    1.0000 </r>
       <r>   -2.9594    1.0000 </r>
       <r>   -2.7013    1.0000 </r>
       <r>   -2.6761    1.0000 </r>
       <r>   -2.6482    1.0000 </r>
       <r>   -2.5963    1.0000 </r>
       <r>   -2.5780    1.0000 </r>
       <r>   -2.5621    1.0000 </r>
       <r>   -2.4449    1.0000 </r>
       <r>   -2.3780    1.0000 </r>
       <r>   -2.3609    1.0000 </r>
       <r>   -2.3502    1.0000 </r>
       <r>   -2.3283    1.0000 </r>
       <r>   -2.3040    1.0000 </r>
       <r>   -2.2575    1.0000 </r>
       <r>   -2.2416    1.0000 </r>
       <r>   -2.1473    1.0000 </r>
       <r>   -2.0240    1.0000 </r>
       <r>   -2.0167    1.0000 </r>
       <r>   -1.9501    1.0000 </r>
       <r>   -1.9155    1.0000 </r>
       <r>   -1.8167    1.0000 </r>
       <r>   -1.7887    1.0000 </r>
       <r>   -1.7624    1.0000 </r>
       <r>   -1.7344    1.0000 </r>
       <r>   -1.7194    1.0000 </r>
       <r>   -1.6935    1.0000 </r>
       <r>   -1.6571    1.0000 </r>
       <r>   -1.6287    1.0000 </r>
       <r>   -1.6116    1.0000 </r>
       <r>   -1.5732    1.0000 </r>
       <r>   -1.5559    1.0000 </r>
       <r>   -1.5162    1.0000 </r>
       <r>   -1.4992    1.0000 </r>
       <r>   -1.4902    1.0000 </r>
       <r>   -1.4470    1.0000 </r>
       <r>   -1.4104    1.0000 </r>
       <r>   -1.3928    1.0000 </r>
       <r>   -1.3835    1.0000 </r>
       <r>   -1.3558    1.0000 </r>
       <r>   -1.3548    1.0000 </r>
       <r>   -1.3410    1.0000 </r>
       <r>   -1.2922    1.0000 </r>
       <r>   -1.2886    1.0000 </r>
       <r>   -1.2755    1.0000 </r>
       <r>   -1.2514    1.0000 </r>
       <r>   -1.2186    1.0000 </r>
       <r>   -1.2101    1.0000 </r>
       <r>   -1.1932    1.0000 </r>
       <r>   -1.1791    1.0000 </r>
       <r>   -1.1463    1.0000 </r>
       <r>   -1.1385    1.0000 </r>
       <r>   -1.1298    1.0000 </r>
       <r>   -1.1134    1.0000 </r>
       <r>   -1.0950    1.0000 </r>
       <r>   -1.0826    1.0000 </r>
       <r>   -1.0614    1.0000 </r>
       <r>   -1.0075    1.0000 </r>
       <r>   -0.9561    1.0000 </r>
       <r>   -0.9467    1.0000 </r>
       <r>   -0.8727    1.0000 </r>
       <r>   -0.8219    1.0000 </r>
       <r>   -0.6556    1.0000 </r>
       <r>   -0.4616    1.0000 </r>
       <r>   -0.4471    1.0000 </r>
       <r>   -0.3896    1.0000 </r>
       <r>    2.7037    0.0000 </r>
       <r>    3.0528    0.0000 </r>
       <r>    3.1813    0.0000 </r>
       <r>    3.2127    0.0000 </r>
       <r>    3.3344    0.0000 </r>
       <r>    3.9763    0.0000 </r>
       <r>    4.3370    0.0000 </r>
       <r>    4.3686    0.0000 </r>
       <r>    4.3780    0.0000 </r>
       <r>    4.4189    0.0000 </r>
       <r>    4.4672    0.0000 </r>
       <r>    4.5097    0.0000 </r>
       <r>    4.5237    0.0000 </r>
       <r>    4.5780    0.0000 </r>
       <r>    4.6889    0.0000 </r>
       <r>    4.7408    0.0000 </r>
       <r>    4.7734    0.0000 </r>
       <r>    4.8143    0.0000 </r>
       <r>    4.8631    0.0000 </r>
       <r>    4.8979    0.0000 </r>
       <r>    5.0222    0.0000 </r>
       <r>    5.5277    0.0000 </r>
       <r>    5.7098    0.0000 </r>
       <r>    5.9058    0.0000 </r>
       <r>    5.9626    0.0000 </r>
       <r>    5.9907    0.0000 </r>
       <r>    6.0496    0.0000 </r>
       <r>    6.0746    0.0000 </r>
       <r>    6.2492    0.0000 </r>
       <r>    6.2693    0.0000 </r>
       <r>    6.3048    0.0000 </r>
       <r>    6.3609    0.0000 </r>
       <r>    6.4230    0.0000 </r>
       <r>    6.4705    0.0000 </r>
       <r>    6.4950    0.0000 </r>
       <r>    6.6402    0.0000 </r>
      </set>
      <set comment="kpoint 5">
       <r>  -20.8812    1.0000 </r>
       <r>  -20.8255    1.0000 </r>
       <r>  -20.7822    1.0000 </r>
       <r>  -20.7594    1.0000 </r>
       <r>  -20.7529    1.0000 </r>
       <r>  -20.7438    1.0000 </r>
       <r>  -20.7288    1.0000 </r>
       <r>  -20.6834    1.0000 </r>
       <r>  -16.7058    1.0000 </r>
       <r>  -16.6893    1.0000 </r>
       <r>  -16.6754    1.0000 </r>
       <r>  -16.6621    1.0000 </r>
       <r>  -16.6013    1.0000 </r>
       <r>  -16.5972    1.0000 </r>
       <r>  -16.5882    1.0000 </r>
       <r>  -16.5814    1.0000 </r>
       <r>  -16.5775    1.0000 </r>
       <r>  -16.5479    1.0000 </r>
       <r>  -16.5444    1.0000 </r>
       <r>  -16.5209    1.0000 </r>
       <r>  -16.4677    1.0000 </r>
       <r>  -16.4633    1.0000 </r>
       <r>  -16.4377    1.0000 </r>
       <r>  -16.4320    1.0000 </r>
       <r>  -16.4251    1.0000 </r>
       <r>  -16.4080    1.0000 </r>
       <r>  -16.4027    1.0000 </r>
       <r>  -16.3983    1.0000 </r>
       <r>  -16.3745    1.0000 </r>
       <r>  -16.3563    1.0000 </r>
       <r>  -16.3536    1.0000 </r>
       <r>  -16.3407    1.0000 </r>
       <r>  -16.3359    1.0000 </r>
       <r>  -16.3317    1.0000 </r>
       <r>  -16.3273    1.0000 </r>
       <r>  -16.3160    1.0000 </r>
       <r>  -16.2892    1.0000 </r>
       <r>  -16.2877    1.0000 </r>
       <r>  -16.2838    1.0000 </r>
       <r>  -16.2816    1.0000 </r>
       <r>  -16.2748    1.0000 </r>
       <r>  -16.2711    1.0000 </r>
       <r>  -16.2671    1.0000 </r>
       <r>  -16.2634    1.0000 </r>
       <r>  -16.2576    1.0000 </r>
       <r>  -16.2511    1.0000 </r>
       <r>  -16.2448    1.0000 </r>
       <r>  -16.2389    1.0000 </r>
       <r>  -14.4699    1.0000 </r>
       <r>  -14.3798    1.0000 </r>
       <r>  -14.3086    1.0000 </r>
       <r>  -14.2570    1.0000 </r>
       <r>  -14.1835    1.0000 </r>
       <r>  -14.1423    1.0000 </r>
       <r>  -14.1089    1.0000 </r>
       <r>  -14.0982    1.0000 </r>
       <r>  -14.0832    1.0000 </r>
       <r>  -14.0682    1.0000 </r>
       <r>  -14.0556    1.0000 </r>
       <r>  -14.0508    1.0000 </r>
       <r>  -14.0315    1.0000 </r>
       <r>  -13.9764    1.0000 </r>
       <r>  -13.9645    1.0000 </r>
       <r>  -13.9446    1.0000 </r>
       <r>  -13.9170    1.0000 </r>
       <r>  -13.8639    1.0000 </r>
       <r>  -13.8544    1.0000 </r>
       <r>  -13.8219    1.0000 </r>
       <r>  -13.7783    1.0000 </r>
       <r>  -13.7683    1.0000 </r>
       <r>  -13.7174    1.0000 </r>
       <r>   -8.0581    1.0000 </r>
       <r>   -7.9632    1.0000 </r>
       <r>   -7.6528    1.0000 </r>
       <r>   -7.5096    1.0000 </r>
       <r>   -7.4613    1.0000 </r>
       <r>   -7.4361    1.0000 </r>
       <r>   -7.3120    1.0000 </r>
       <r>   -7.2764    1.0000 </r>
       <r>   -7.2601    1.0000 </r>
       <r>   -7.2486    1.0000 </r>
       <r>   -7.2237    1.0000 </r>
       <r>   -7.2072    1.0000 </r>
       <r>   -7.2028    1.0000 </r>
       <r>   -7.1893    1.0000 </r>
       <r>   -7.1769    1.0000 </r>
       <r>   -7.1718    1.0000 </r>
       <r>   -7.1677    1.0000 </r>
       <r>   -7.1601    1.0000 </r>
       <r>   -7.1565    1.0000 </r>
       <r>   -7.1524    1.0000 </r>
       <r>   -7.1451    1.0000 </r>
       <r>   -7.1429    1.0000 </r>
       <r>   -7.1370    1.0000 </r>
       <r>   -7.1308    1.0000 </r>
       <r>   -7.1275    1.0000 </r>
       <r>   -7.1172    1.0000 </r>
       <r>   -7.1089    1.0000 </r>
       <r>   -7.0999    1.0000 </r>
       <r>   -7.0833    1.0000 </r>
       <r>   -7.0768    1.0000 </r>
       <r>   -6.9342    1.0000 </r>
       <r>   -6.8478    1.0000 </r>
       <r>   -3.3521    1.0000 </r>
       <r>   -3.3287    1.0000 </r>
       <r>   -3.3030    1.0000 </r>
       <r>   -3.2482    1.0000 </r>
       <r>   -3.2007    1.0000 </r>
       <r>   -3.1786    1.0000 </r>
       <r>   -3.1162    1.0000 </r>
       <r>   -3.0194    1.0000 </r>
       <r>   -2.9114    1.0000 </r>
       <r>   -2.5668    1.0000 </r>
       <r>   -2.5090    1.0000 </r>
       <r>   -2.4566    1.0000 </r>
       <r>   -2.4255    1.0000 </r>
       <r>   -2.3870    1.0000 </r>
       <r>   -2.3488    1.0000 </r>
       <r>   -2.1538    1.0000 </r>
       <r>   -2.1196    1.0000 </r>
       <r>   -2.0564    1.0000 </r>
       <r>   -2.0468    1.0000 </r>
       <r>   -2.0328    1.0000 </r>
       <r>   -1.9802    1.0000 </r>
       <r>   -1.9088    1.0000 </r>
       <r>   -1.8691    1.0000 </r>
       <r>   -1.8429    1.0000 </r>
       <r>   -1.7821    1.0000 </r>
       <r>   -1.7528    1.0000 </r>
       <r>   -1.7372    1.0000 </r>
       <r>   -1.6713    1.0000 </r>
       <r>   -1.6341    1.0000 </r>
       <r>   -1.6067    1.0000 </r>
       <r>   -1.5676    1.0000 </r>
       <r>   -1.5503    1.0000 </r>
       <r>   -1.5248    1.0000 </r>
       <r>   -1.4894    1.0000 </r>
       <r>   -1.4747    1.0000 </r>
       <r>   -1.4720    1.0000 </r>
       <r>   -1.4611    1.0000 </r>
       <r>   -1.4401    1.0000 </r>
       <r>   -1.4321    1.0000 </r>
       <r>   -1.4096    1.0000 </r>
       <r>   -1.3816    1.0000 </r>
       <r>   -1.3745    1.0000 </r>
       <r>   -1.3635    1.0000 </r>
       <r>   -1.3546    1.0000 </r>
       <r>   -1.3415    1.0000 </r>
       <r>   -1.3276    1.0000 </r>
       <r>   -1.3089    1.0000 </r>
       <r>   -1.3036    1.0000 </r>
       <r>   -1.2638    1.0000 </r>
       <r>   -1.2441    1.0000 </r>
       <r>   -1.2169    1.0000 </r>
       <r>   -1.2079    1.0000 </r>
       <r>   -1.1951    1.0000 </r>
       <r>   -1.1902    1.0000 </r>
       <r>   -1.1681    1.0000 </r>
       <r>   -1.1549    1.0000 </r>
       <r>   -1.1135    1.0000 </r>
       <r>   -1.1046    1.0000 </r>
       <r>   -1.0733    1.0000 </r>
       <r>   -1.0540    1.0000 </r>
       <r>   -1.0063    1.0000 </r>
       <r>   -0.8987    1.0000 </r>
       <r>   -0.8611    1.0000 </r>
       <r>   -0.7065    1.0000 </r>
       <r>   -0.5903    1.0000 </r>
       <r>   -0.5343    1.0000 </r>
       <r>   -0.4051    1.0000 </r>
       <r>   -0.0564    1.0000 </r>
       <r>    0.0811    1.0000 </r>
       <r>    2.4957    0.0000 </r>
       <r>    2.9115    0.0000 </r>
       <r>    2.9482    0.0000 </r>
       <r>    2.9708    0.0000 </r>
       <r>    3.1532    0.0000 </r>
       <r>    3.2621    0.0000 </r>
       <r>    3.3117    0.0000 </r>
       <r>    3.3544    0.0000 </r>
       <r>    3.4531    0.0000 </r>
       <r>    3.9141    0.0000 </r>
       <r>    4.2513    0.0000 </r>
       <r>    4.3594    0.0000 </r>
       <r>    4.5398    0.0000 </r>
       <r>    4.6319    0.0000 </r>
       <r>    4.7919    0.0000 </r>
       <r>    4.8333    0.0000 </r>
       <r>    5.2017    0.0000 </r>
       <r>    5.4826    0.0000 </r>
       <r>    5.6208    0.0000 </r>
       <r>    5.6811    0.0000 </r>
       <r>    5.8125    0.0000 </r>
       <r>    5.8855    0.0000 </r>
       <r>    5.9194    0.0000 </r>
       <r>    6.0220    0.0000 </r>
       <r>    6.0885    0.0000 </r>
       <r>    6.1077    0.0000 </r>
       <r>    6.1589    0.0000 </r>
       <r>    6.2460    0.0000 </r>
       <r>    6.2845    0.0000 </r>
       <r>    6.3199    0.0000 </r>
       <r>    6.3387    0.0000 </r>
       <r>    6.4300    0.0000 </r>
       <r>    6.4607    0.0000 </r>
       <r>    6.5043    0.0000 </r>
       <r>    6.5529    0.0000 </r>
       <r>    6.6349    0.0000 </r>
      </set>
      <set comment="kpoint 6">
       <r>  -20.8812    1.0000 </r>
       <r>  -20.8255    1.0000 </r>
       <r>  -20.7822    1.0000 </r>
       <r>  -20.7594    1.0000 </r>
       <r>  -20.7529    1.0000 </r>
       <r>  -20.7437    1.0000 </r>
       <r>  -20.7288    1.0000 </r>
       <r>  -20.6833    1.0000 </r>
       <r>  -16.7053    1.0000 </r>
       <r>  -16.6891    1.0000 </r>
       <r>  -16.6729    1.0000 </r>
       <r>  -16.6621    1.0000 </r>
       <r>  -16.6013    1.0000 </r>
       <r>  -16.5972    1.0000 </r>
       <r>  -16.5884    1.0000 </r>
       <r>  -16.5814    1.0000 </r>
       <r>  -16.5775    1.0000 </r>
       <r>  -16.5479    1.0000 </r>
       <r>  -16.5444    1.0000 </r>
       <r>  -16.5209    1.0000 </r>
       <r>  -16.4680    1.0000 </r>
       <r>  -16.4634    1.0000 </r>
       <r>  -16.4402    1.0000 </r>
       <r>  -16.4319    1.0000 </r>
       <r>  -16.4071    1.0000 </r>
       <r>  -16.4052    1.0000 </r>
       <r>  -16.3953    1.0000 </r>
       <r>  -16.3884    1.0000 </r>
       <r>  -16.3829    1.0000 </r>
       <r>  -16.3725    1.0000 </r>
       <r>  -16.3575    1.0000 </r>
       <r>  -16.3480    1.0000 </r>
       <r>  -16.3407    1.0000 </r>
       <r>  -16.3317    1.0000 </r>
       <r>  -16.3273    1.0000 </r>
       <r>  -16.3160    1.0000 </r>
       <r>  -16.2892    1.0000 </r>
       <r>  -16.2877    1.0000 </r>
       <r>  -16.2839    1.0000 </r>
       <r>  -16.2817    1.0000 </r>
       <r>  -16.2748    1.0000 </r>
       <r>  -16.2711    1.0000 </r>
       <r>  -16.2670    1.0000 </r>
       <r>  -16.2635    1.0000 </r>
       <r>  -16.2576    1.0000 </r>
       <r>  -16.2511    1.0000 </r>
       <r>  -16.2448    1.0000 </r>
       <r>  -16.2389    1.0000 </r>
       <r>  -14.4656    1.0000 </r>
       <r>  -14.3736    1.0000 </r>
       <r>  -14.3025    1.0000 </r>
       <r>  -14.2753    1.0000 </r>
       <r>  -14.1970    1.0000 </r>
       <r>  -14.1767    1.0000 </r>
       <r>  -14.1144    1.0000 </r>
       <r>  -14.1092    1.0000 </r>
       <r>  -14.0974    1.0000 </r>
       <r>  -14.0817    1.0000 </r>
       <r>  -14.0797    1.0000 </r>
       <r>  -14.0119    1.0000 </r>
       <r>  -13.9960    1.0000 </r>
       <r>  -13.9647    1.0000 </r>
       <r>  -13.9096    1.0000 </r>
       <r>  -13.8967    1.0000 </r>
       <r>  -13.8734    1.0000 </r>
       <r>  -13.8658    1.0000 </r>
       <r>  -13.8379    1.0000 </r>
       <r>  -13.8293    1.0000 </r>
       <r>  -13.8248    1.0000 </r>
       <r>  -13.8161    1.0000 </r>
       <r>  -13.7412    1.0000 </r>
       <r>   -7.9456    1.0000 </r>
       <r>   -7.8276    1.0000 </r>
       <r>   -7.7576    1.0000 </r>
       <r>   -7.6987    1.0000 </r>
       <r>   -7.3387    1.0000 </r>
       <r>   -7.3118    1.0000 </r>
       <r>   -7.2868    1.0000 </r>
       <r>   -7.2813    1.0000 </r>
       <r>   -7.2577    1.0000 </r>
       <r>   -7.2478    1.0000 </r>
       <r>   -7.2400    1.0000 </r>
       <r>   -7.2155    1.0000 </r>
       <r>   -7.2098    1.0000 </r>
       <r>   -7.1902    1.0000 </r>
       <r>   -7.1824    1.0000 </r>
       <r>   -7.1803    1.0000 </r>
       <r>   -7.1686    1.0000 </r>
       <r>   -7.1649    1.0000 </r>
       <r>   -7.1571    1.0000 </r>
       <r>   -7.1517    1.0000 </r>
[...]
        <r>  0.0001  0.0016  0.0002 </r>
        <r>  0.0001  0.0011  0.0009 </r>
        <r>  0.0012  0.0025  0.0006 </r>
        <r>  0.0002  0.0003  0.0011 </r>
        <r>  0.0015  0.0012  0.0010 </r>
        <r>  0.0000  0.0032  0.0007 </r>
        <r>  0.0043  0.0061  0.0013 </r>
        <r>  0.0000  0.0021  0.0003 </r>
        <r>  0.0001  0.0020  0.0003 </r>
       </set>
       <set comment="band 199">
        <r>  0.0037  0.0009  0.0082 </r>
        <r>  0.0014  0.0001  0.0117 </r>
        <r>  0.0004  0.0008  0.0088 </r>
        <r>  0.0067  0.0009  0.0037 </r>
        <r>  0.0011  0.0007  0.0058 </r>
        <r>  0.0034  0.0014  0.0080 </r>
        <r>  0.0008  0.0006  0.0018 </r>
        <r>  0.0018  0.0008  0.0100 </r>
        <r>  0.0000  0.0002  0.0000 </r>
        <r>  0.0000  0.0051  0.0001 </r>
        <r>  0.0000  0.0013  0.0003 </r>
        <r>  0.0000  0.0019  0.0001 </r>
        <r>  0.0001  0.0063  0.0006 </r>
        <r>  0.0002  0.0054  0.0004 </r>
        <r>  0.0000  0.0046  0.0004 </r>
        <r>  0.0003  0.0089  0.0009 </r>
        <r>  0.0011  0.0003  0.0021 </r>
        <r>  0.0004  0.0023  0.0015 </r>
        <r>  0.0001  0.0013  0.0008 </r>
        <r>  0.0001  0.0066  0.0006 </r>
        <r>  0.0000  0.0011  0.0002 </r>
        <r>  0.0004  0.0043  0.0009 </r>
        <r>  0.0000  0.0007  0.0019 </r>
        <r>  0.0020  0.0005  0.0026 </r>
        <r>  0.0000  0.0015  0.0006 </r>
        <r>  0.0003  0.0016  0.0014 </r>
        <r>  0.0002  0.0007  0.0006 </r>
        <r>  0.0001  0.0023  0.0007 </r>
        <r>  0.0002  0.0015  0.0003 </r>
        <r>  0.0002  0.0020  0.0002 </r>
        <r>  0.0001  0.0001  0.0012 </r>
        <r>  0.0012  0.0031  0.0005 </r>
        <r>  0.0000  0.0007  0.0013 </r>
        <r>  0.0002  0.0013  0.0004 </r>
        <r>  0.0001  0.0012  0.0001 </r>
        <r>  0.0047  0.0020  0.0021 </r>
        <r>  0.0009  0.0019  0.0010 </r>
        <r>  0.0031  0.0042  0.0026 </r>
        <r>  0.0000  0.0024  0.0014 </r>
       </set>
       <set comment="band 200">
        <r>  0.0004  0.0002  0.0032 </r>
        <r>  0.0000  0.0005  0.0044 </r>
        <r>  0.0004  0.0009  0.0073 </r>
        <r>  0.0076  0.0003  0.0126 </r>
        <r>  0.0011  0.0002  0.0031 </r>
        <r>  0.0033  0.0008  0.0057 </r>
        <r>  0.0056  0.0016  0.0158 </r>
        <r>  0.0015  0.0008  0.0070 </r>
        <r>  0.0000  0.0052  0.0001 </r>
        <r>  0.0000  0.0008  0.0001 </r>
        <r>  0.0000  0.0007  0.0002 </r>
        <r>  0.0000  0.0014  0.0001 </r>
        <r>  0.0001  0.0192  0.0001 </r>
        <r>  0.0000  0.0073  0.0003 </r>
        <r>  0.0000  0.0013  0.0004 </r>
        <r>  0.0000  0.0090  0.0002 </r>
        <r>  0.0002  0.0032  0.0023 </r>
        <r>  0.0003  0.0040  0.0008 </r>
        <r>  0.0002  0.0031  0.0008 </r>
        <r>  0.0001  0.0008  0.0005 </r>
        <r>  0.0019  0.0011  0.0017 </r>
        <r>  0.0000  0.0035  0.0031 </r>
        <r>  0.0000  0.0012  0.0006 </r>
        <r>  0.0000  0.0014  0.0001 </r>
        <r>  0.0007  0.0033  0.0015 </r>
        <r>  0.0017  0.0014  0.0019 </r>
        <r>  0.0001  0.0016  0.0017 </r>
        <r>  0.0000  0.0022  0.0002 </r>
        <r>  0.0005  0.0020  0.0005 </r>
        <r>  0.0001  0.0012  0.0009 </r>
        <r>  0.0000  0.0008  0.0003 </r>
        <r>  0.0015  0.0000  0.0012 </r>
        <r>  0.0000  0.0008  0.0005 </r>
        <r>  0.0009  0.0023  0.0013 </r>
        <r>  0.0018  0.0053  0.0023 </r>
        <r>  0.0002  0.0015  0.0008 </r>
        <r>  0.0000  0.0038  0.0010 </r>
        <r>  0.0016  0.0043  0.0011 </r>
        <r>  0.0013  0.0007  0.0012 </r>
       </set>
       <set comment="band 201">
        <r>  0.0085  0.0004  0.0043 </r>
        <r>  0.0007  0.0006  0.0038 </r>
        <r>  0.0023  0.0005  0.0058 </r>
        <r>  0.0007  0.0007  0.0031 </r>
        <r>  0.0100  0.0010  0.0059 </r>
        <r>  0.0007  0.0010  0.0040 </r>
        <r>  0.0004  0.0003  0.0073 </r>
        <r>  0.0034  0.0007  0.0088 </r>
        <r>  0.0000  0.0049  0.0000 </r>
        <r>  0.0001  0.0100  0.0000 </r>
        <r>  0.0000  0.0034  0.0002 </r>
        <r>  0.0000  0.0036  0.0001 </r>
        <r>  0.0000  0.0147  0.0004 </r>
        <r>  0.0000  0.0037  0.0003 </r>
        <r>  0.0000  0.0042  0.0001 </r>
        <r>  0.0000  0.0109  0.0002 </r>
        <r>  0.0006  0.0057  0.0014 </r>
        <r>  0.0000  0.0026  0.0007 </r>
        <r>  0.0006  0.0028  0.0004 </r>
        <r>  0.0003  0.0044  0.0009 </r>
        <r>  0.0003  0.0021  0.0005 </r>
        <r>  0.0005  0.0015  0.0008 </r>
        <r>  0.0012  0.0015  0.0016 </r>
        <r>  0.0006  0.0017  0.0017 </r>
        <r>  0.0012  0.0018  0.0021 </r>
        <r>  0.0002  0.0012  0.0004 </r>
        <r>  0.0006  0.0047  0.0009 </r>
        <r>  0.0002  0.0043  0.0007 </r>
        <r>  0.0000  0.0061  0.0001 </r>
        <r>  0.0000  0.0024  0.0007 </r>
        <r>  0.0026  0.0010  0.0020 </r>
        <r>  0.0009  0.0012  0.0007 </r>
        <r>  0.0031  0.0028  0.0020 </r>
        <r>  0.0010  0.0012  0.0005 </r>
        <r>  0.0000  0.0047  0.0006 </r>
        <r>  0.0003  0.0013  0.0029 </r>
        <r>  0.0007  0.0012  0.0015 </r>
        <r>  0.0003  0.0016  0.0015 </r>
        <r>  0.0003  0.0022  0.0014 </r>
       </set>
       <set comment="band 202">
        <r>  0.0018  0.0005  0.0055 </r>
        <r>  0.0002  0.0011  0.0063 </r>
        <r>  0.0041  0.0009  0.0104 </r>
        <r>  0.0006  0.0008  0.0093 </r>
        <r>  0.0035  0.0005  0.0122 </r>
        <r>  0.0000  0.0003  0.0109 </r>
        <r>  0.0047  0.0014  0.0039 </r>
        <r>  0.0002  0.0009  0.0066 </r>
        <r>  0.0000  0.0007  0.0001 </r>
        <r>  0.0000  0.0005  0.0002 </r>
        <r>  0.0000  0.0045  0.0001 </r>
        <r>  0.0001  0.0137  0.0003 </r>
        <r>  0.0000  0.0005  0.0003 </r>
        <r>  0.0001  0.0031  0.0007 </r>
        <r>  0.0000  0.0130  0.0001 </r>
        <r>  0.0000  0.0124  0.0005 </r>
        <r>  0.0000  0.0019  0.0005 </r>
        <r>  0.0013  0.0051  0.0028 </r>
        <r>  0.0003  0.0009  0.0014 </r>
        <r>  0.0006  0.0049  0.0014 </r>
        <r>  0.0004  0.0011  0.0021 </r>
        <r>  0.0013  0.0043  0.0024 </r>
        <r>  0.0003  0.0006  0.0008 </r>
        <r>  0.0009  0.0082  0.0015 </r>
        <r>  0.0002  0.0008  0.0011 </r>
        <r>  0.0019  0.0021  0.0027 </r>
        <r>  0.0009  0.0013  0.0015 </r>
        <r>  0.0001  0.0008  0.0004 </r>
        <r>  0.0000  0.0004  0.0013 </r>
        <r>  0.0010  0.0011  0.0005 </r>
        <r>  0.0000  0.0004  0.0001 </r>
        <r>  0.0002  0.0007  0.0008 </r>
        <r>  0.0001  0.0015  0.0008 </r>
        <r>  0.0000  0.0013  0.0005 </r>
        <r>  0.0002  0.0023  0.0004 </r>
        <r>  0.0010  0.0031  0.0008 </r>
        <r>  0.0007  0.0005  0.0006 </r>
        <r>  0.0010  0.0041  0.0016 </r>
        <r>  0.0002  0.0007  0.0013 </r>
       </set>
       <set comment="band 203">
        <r>  0.0002  0.0004  0.0124 </r>
        <r>  0.0006  0.0015  0.0165 </r>
        <r>  0.0029  0.0002  0.0102 </r>
        <r>  0.0001  0.0008  0.0038 </r>
        <r>  0.0000  0.0001  0.0110 </r>
        <r>  0.0020  0.0004  0.0184 </r>
        <r>  0.0061  0.0002  0.0022 </r>
        <r>  0.0018  0.0005  0.0092 </r>
        <r>  0.0000  0.0052  0.0001 </r>
        <r>  0.0000  0.0053  0.0000 </r>
        <r>  0.0000  0.0004  0.0005 </r>
        <r>  0.0000  0.0009  0.0008 </r>
        <r>  0.0000  0.0101  0.0002 </r>
        <r>  0.0000  0.0072  0.0004 </r>
        <r>  0.0000  0.0015  0.0003 </r>
        <r>  0.0000  0.0052  0.0004 </r>
        <r>  0.0007  0.0018  0.0018 </r>
        <r>  0.0012  0.0011  0.0014 </r>
        <r>  0.0001  0.0035  0.0020 </r>
        <r>  0.0001  0.0004  0.0006 </r>
        <r>  0.0001  0.0030  0.0008 </r>
        <r>  0.0018  0.0002  0.0015 </r>
        <r>  0.0019  0.0021  0.0032 </r>
        <r>  0.0001  0.0021  0.0018 </r>
        <r>  0.0003  0.0016  0.0011 </r>
        <r>  0.0007  0.0015  0.0011 </r>
        <r>  0.0004  0.0004  0.0010 </r>
        <r>  0.0012  0.0021  0.0012 </r>
        <r>  0.0003  0.0014  0.0012 </r>
        <r>  0.0004  0.0009  0.0007 </r>
        <r>  0.0000  0.0005  0.0009 </r>
        <r>  0.0004  0.0029  0.0011 </r>
        <r>  0.0001  0.0011  0.0003 </r>
        <r>  0.0003  0.0020  0.0009 </r>
        <r>  0.0001  0.0010  0.0014 </r>
        <r>  0.0000  0.0073  0.0001 </r>
        <r>  0.0001  0.0018  0.0005 </r>
        <r>  0.0002  0.0028  0.0008 </r>
        <r>  0.0002  0.0003  0.0016 </r>
       </set>
       <set comment="band 204">
        <r>  0.0015  0.0019  0.0175 </r>
        <r>  0.0053  0.0003  0.0012 </r>
        <r>  0.0016  0.0008  0.0005 </r>
        <r>  0.0009  0.0004  0.0099 </r>
        <r>  0.0052  0.0005  0.0155 </r>
        <r>  0.0003  0.0009  0.0121 </r>
        <r>  0.0000  0.0006  0.0057 </r>
        <r>  0.0014  0.0002  0.0073 </r>
        <r>  0.0000  0.0102  0.0004 </r>
        <r>  0.0000  0.0012  0.0001 </r>
        <r>  0.0000  0.0025  0.0002 </r>
        <r>  0.0000  0.0001  0.0004 </r>
        <r>  0.0001  0.0036  0.0003 </r>
        <r>  0.0000  0.0079  0.0005 </r>
        <r>  0.0001  0.0017  0.0003 </r>
        <r>  0.0000  0.0116  0.0007 </r>
        <r>  0.0002  0.0020  0.0007 </r>
        <r>  0.0009  0.0017  0.0013 </r>
        <r>  0.0027  0.0015  0.0031 </r>
        <r>  0.0007  0.0001  0.0033 </r>
        <r>  0.0005  0.0028  0.0008 </r>
        <r>  0.0002  0.0042  0.0010 </r>
        <r>  0.0002  0.0038  0.0020 </r>
        <r>  0.0010  0.0051  0.0018 </r>
        <r>  0.0000  0.0030  0.0016 </r>
        <r>  0.0001  0.0008  0.0002 </r>
        <r>  0.0000  0.0004  0.0007 </r>
        <r>  0.0003  0.0003  0.0020 </r>
        <r>  0.0000  0.0013  0.0001 </r>
        <r>  0.0000  0.0008  0.0006 </r>
        <r>  0.0001  0.0028  0.0012 </r>
        <r>  0.0000  0.0015  0.0006 </r>
        <r>  0.0005  0.0006  0.0007 </r>
        <r>  0.0016  0.0019  0.0015 </r>
        <r>  0.0005  0.0005  0.0007 </r>
        <r>  0.0003  0.0006  0.0010 </r>
        <r>  0.0003  0.0042  0.0020 </r>
        <r>  0.0000  0.0014  0.0008 </r>
        <r>  0.0003  0.0011  0.0024 </r>
       </set>
       <set comment="band 205">
        <r>  0.0033  0.0014  0.0085 </r>
        <r>  0.0051  0.0007  0.0039 </r>
        <r>  0.0018  0.0020  0.0039 </r>
        <r>  0.0036  0.0009  0.0092 </r>
        <r>  0.0003  0.0015  0.0082 </r>
        <r>  0.0021  0.0006  0.0111 </r>
        <r>  0.0030  0.0006  0.0092 </r>
        <r>  0.0012  0.0005  0.0088 </r>
        <r>  0.0000  0.0028  0.0001 </r>
        <r>  0.0001  0.0063  0.0004 </r>
        <r>  0.0000  0.0044  0.0002 </r>
        <r>  0.0000  0.0057  0.0001 </r>
        <r>  0.0000  0.0035  0.0003 </r>
        <r>  0.0000  0.0038  0.0003 </r>
        <r>  0.0000  0.0068  0.0002 </r>
        <r>  0.0000  0.0087  0.0002 </r>
        <r>  0.0010  0.0013  0.0009 </r>
        <r>  0.0005  0.0018  0.0015 </r>
        <r>  0.0025  0.0010  0.0019 </r>
        <r>  0.0002  0.0025  0.0016 </r>
        <r>  0.0007  0.0055  0.0013 </r>
        <r>  0.0008  0.0022  0.0020 </r>
        <r>  0.0004  0.0035  0.0011 </r>
        <r>  0.0002  0.0037  0.0005 </r>
        <r>  0.0007  0.0001  0.0013 </r>
        <r>  0.0008  0.0010  0.0016 </r>
        <r>  0.0016  0.0010  0.0027 </r>
        <r>  0.0023  0.0011  0.0016 </r>
        <r>  0.0010  0.0009  0.0011 </r>
        <r>  0.0015  0.0012  0.0018 </r>
        <r>  0.0000  0.0046  0.0005 </r>
        <r>  0.0000  0.0030  0.0005 </r>
        <r>  0.0003  0.0060  0.0003 </r>
        <r>  0.0000  0.0020  0.0001 </r>
        <r>  0.0005  0.0021  0.0012 </r>
        <r>  0.0003  0.0011  0.0007 </r>
        <r>  0.0008  0.0014  0.0011 </r>
        <r>  0.0002  0.0021  0.0010 </r>
        <r>  0.0001  0.0003  0.0004 </r>
       </set>
       <set comment="band 206">
        <r>  0.0015  0.0002  0.0101 </r>
        <r>  0.0001  0.0003  0.0253 </r>
        <r>  0.0035  0.0012  0.0045 </r>
        <r>  0.0014  0.0001  0.0023 </r>
        <r>  0.0008  0.0005  0.0076 </r>
        <r>  0.0072  0.0008  0.0134 </r>
        <r>  0.0014  0.0005  0.0106 </r>
        <r>  0.0001  0.0002  0.0114 </r>
        <r>  0.0000  0.0041  0.0005 </r>
        <r>  0.0000  0.0042  0.0006 </r>
        <r>  0.0000  0.0155  0.0001 </r>
        <r>  0.0000  0.0148  0.0001 </r>
        <r>  0.0000  0.0024  0.0002 </r>
        <r>  0.0000  0.0016  0.0007 </r>
        <r>  0.0000  0.0037  0.0002 </r>
        <r>  0.0000  0.0017  0.0006 </r>
        <r>  0.0000  0.0027  0.0005 </r>
        <r>  0.0000  0.0006  0.0002 </r>
        <r>  0.0000  0.0037  0.0007 </r>
        <r>  0.0006  0.0012  0.0006 </r>
        <r>  0.0006  0.0011  0.0008 </r>
        <r>  0.0001  0.0020  0.0002 </r>
        <r>  0.0013  0.0015  0.0013 </r>
        <r>  0.0003  0.0001  0.0007 </r>
        <r>  0.0006  0.0006  0.0011 </r>
        <r>  0.0003  0.0005  0.0012 </r>
        <r>  0.0001  0.0042  0.0005 </r>
        <r>  0.0003  0.0034  0.0007 </r>
        <r>  0.0045  0.0012  0.0059 </r>
        <r>  0.0002  0.0024  0.0012 </r>
        <r>  0.0003  0.0064  0.0019 </r>
        <r>  0.0015  0.0020  0.0043 </r>
        <r>  0.0003  0.0015  0.0008 </r>
        <r>  0.0005  0.0022  0.0010 </r>
        <r>  0.0000  0.0013  0.0014 </r>
        <r>  0.0002  0.0006  0.0013 </r>
        <r>  0.0002  0.0003  0.0009 </r>
        <r>  0.0001  0.0010  0.0017 </r>
        <r>  0.0003  0.0015  0.0011 </r>
       </set>
       <set comment="band 207">
        <r>  0.0005  0.0002  0.0180 </r>
        <r>  0.0013  0.0008  0.0246 </r>
        <r>  0.0005  0.0001  0.0053 </r>
        <r>  0.0003  0.0005  0.0272 </r>
        <r>  0.0000  0.0007  0.0126 </r>
        <r>  0.0002  0.0003  0.0059 </r>
        <r>  0.0000  0.0009  0.0183 </r>
        <r>  0.0005  0.0003  0.0104 </r>
        <r>  0.0000  0.0037  0.0002 </r>
        <r>  0.0000  0.0069  0.0003 </r>
        <r>  0.0000  0.0012  0.0009 </r>
        <r>  0.0001  0.0019  0.0003 </r>
        <r>  0.0000  0.0006  0.0005 </r>
        <r>  0.0001  0.0081  0.0002 </r>
        <r>  0.0000  0.0040  0.0003 </r>
        <r>  0.0000  0.0029  0.0003 </r>
        <r>  0.0000  0.0011  0.0012 </r>
        <r>  0.0005  0.0022  0.0010 </r>
        <r>  0.0001  0.0019  0.0015 </r>
        <r>  0.0001  0.0011  0.0011 </r>
        <r>  0.0005  0.0004  0.0010 </r>
        <r>  0.0004  0.0007  0.0004 </r>
        <r>  0.0001  0.0005  0.0005 </r>
        <r>  0.0004  0.0006  0.0009 </r>
        <r>  0.0006  0.0011  0.0024 </r>
        <r>  0.0014  0.0009  0.0034 </r>
        <r>  0.0004  0.0017  0.0030 </r>
        <r>  0.0001  0.0024  0.0009 </r>
        <r>  0.0002  0.0006  0.0012 </r>
        <r>  0.0003  0.0023  0.0014 </r>
        <r>  0.0004  0.0009  0.0022 </r>
        <r>  0.0002  0.0014  0.0006 </r>
        <r>  0.0000  0.0005  0.0018 </r>
        <r>  0.0004  0.0018  0.0043 </r>
        <r>  0.0001  0.0008  0.0004 </r>
        <r>  0.0002  0.0029  0.0007 </r>
        <r>  0.0002  0.0011  0.0022 </r>
        <r>  0.0005  0.0014  0.0007 </r>
        <r>  0.0000  0.0010  0.0004 </r>
       </set>
       <set comment="band 208">
        <r>  0.0003  0.0003  0.0181 </r>
        <r>  0.0018  0.0010  0.0222 </r>
        <r>  0.0004  0.0007  0.0092 </r>
        <r>  0.0000  0.0005  0.0095 </r>
        <r>  0.0003  0.0010  0.0091 </r>
        <r>  0.0009  0.0005  0.0046 </r>
        <r>  0.0003  0.0006  0.0169 </r>
        <r>  0.0003  0.0002  0.0291 </r>
        <r>  0.0000  0.0031  0.0008 </r>
        <r>  0.0000  0.0029  0.0008 </r>
        <r>  0.0000  0.0007  0.0001 </r>
        <r>  0.0000  0.0014  0.0003 </r>
        <r>  0.0001  0.0012  0.0001 </r>
        <r>  0.0000  0.0081  0.0001 </r>
        <r>  0.0000  0.0018  0.0002 </r>
        <r>  0.0001  0.0031  0.0002 </r>
        <r>  0.0001  0.0021  0.0006 </r>
        <r>  0.0002  0.0022  0.0022 </r>
        <r>  0.0006  0.0014  0.0024 </r>
        <r>  0.0002  0.0029  0.0011 </r>
        <r>  0.0001  0.0018  0.0013 </r>
        <r>  0.0006  0.0003  0.0018 </r>
        <r>  0.0000  0.0019  0.0005 </r>
        <r>  0.0012  0.0011  0.0021 </r>
        <r>  0.0002  0.0007  0.0008 </r>
        <r>  0.0002  0.0011  0.0007 </r>
        <r>  0.0001  0.0011  0.0021 </r>
        <r>  0.0006  0.0021  0.0024 </r>
        <r>  0.0003  0.0008  0.0014 </r>
        <r>  0.0008  0.0013  0.0017 </r>
        <r>  0.0004  0.0007  0.0009 </r>
        <r>  0.0000  0.0026  0.0012 </r>
        <r>  0.0001  0.0016  0.0022 </r>
        <r>  0.0000  0.0014  0.0019 </r>
        <r>  0.0002  0.0006  0.0008 </r>
        <r>  0.0004  0.0014  0.0013 </r>
        <r>  0.0007  0.0014  0.0012 </r>
        <r>  0.0000  0.0010  0.0007 </r>
        <r>  0.0000  0.0011  0.0002 </r>
       </set>
      </set>
     </set>
    </set>
   </array>
  </projected>
 </calculation>
 <structure name="finalpos" >
  <crystal>
   <varray name="basis" >
    <v>       8.45648900       0.00000000       8.04030100 </v>
    <v>       0.00000000      11.72984700       0.00000000 </v>
    <v>      -8.45648900       0.00000000       8.04030100 </v>
   </varray>
   <i name="volume">   1595.08833419 </i>
   <varray name="rec_basis" >
    <v>       0.05912619      -0.00000000       0.06218673 </v>
    <v>       0.00000000       0.08525260      -0.00000000 </v>
    <v>      -0.05912619       0.00000000       0.06218673 </v>
   </varray>
  </crystal>
  <varray name="positions" >
   <v>       0.26551900       0.23872100       0.19829500 </v>
   <v>       0.77513000       0.23256000       0.73437000 </v>
   <v>       0.71149700       0.77286800       0.26161400 </v>
   <v>       0.21867100       0.75246200       0.77785400 </v>
   <v>       0.26843200       0.24454100       0.72916500 </v>
   <v>       0.80442700       0.24780900       0.22734800 </v>
   <v>       0.72860400       0.75537400       0.78875300 </v>
   <v>       0.22325000       0.75739000       0.29555100 </v>
   <v>       0.00452300       0.99598000       0.00005200 </v>
   <v>       0.49479800       0.00324500       0.49949100 </v>
   <v>       0.50027600       0.00008200       0.00029600 </v>
   <v>       0.99574000       0.99988100       0.50046500 </v>
   <v>       0.51382300       0.49522000       0.99920000 </v>
   <v>       0.99494200       0.50296200       0.49586300 </v>
   <v>       0.00827100       0.50084500       0.99689900 </v>
   <v>       0.48787800       0.49820400       0.51218100 </v>
   <v>       0.47958800       0.74660900       0.97724500 </v>
   <v>       0.95965600       0.75027100       0.46078000 </v>
   <v>       0.98455300       0.24871700       0.97375500 </v>
   <v>       0.44180300       0.25363000       0.47294800 </v>
   <v>       0.04434200       0.74825300       0.03110700 </v>
   <v>       0.52981600       0.74798100       0.52156800 </v>
   <v>       0.53747300       0.24971000       0.04417500 </v>
   <v>       0.01073800       0.25306100       0.53264500 </v>
   <v>       0.26044200       0.46713900       0.95288800 </v>
   <v>       0.94592400       0.53081700       0.74169800 </v>
   <v>       0.54138200       0.03116100       0.75245800 </v>
   <v>       0.04797700       0.02841400       0.25324700 </v>
   <v>       0.75607600       0.97740500       0.03860400 </v>
   <v>       0.24725200       0.96338200       0.55050300 </v>
   <v>       0.25166500       0.02970600       0.94761700 </v>
   <v>       0.74235100       0.04027100       0.45298300 </v>
   <v>       0.44505900       0.96855000       0.24801100 </v>
   <v>       0.95399900       0.96339700       0.74817400 </v>
   <v>       0.76199300       0.53836000       0.04751400 </v>
   <v>       0.23633800       0.53771000       0.54859100 </v>
   <v>       0.56008100       0.46408100       0.75722300 </v>
   <v>       0.05912200       0.46791300       0.24975300 </v>
   <v>       0.62153100       0.49181800       0.33966000 </v>
  </varray>
 </structure>
</modeling>
