CsPbBr3 cubic bulk                      
           1
     8.456489    0.000000    8.040301
     0.000000   11.729847    0.000000
    -8.456489    0.000000    8.040301
   Cs   Pb   Br
   8   8  23
Direct configuration=     1
   0.26551900  0.23872100  0.19829500
   0.77513000  0.23256000  0.73437000
   0.71149700  0.77286800  0.26161400
   0.21867100  0.75246200  0.77785400
   0.26843200  0.24454100  0.72916500
   0.80442700  0.24780900  0.22734800
   0.72860400  0.75537400  0.78875300
   0.22325000  0.75739000  0.29555100
   0.00452300  0.99598000  0.00005200
   0.49479800  0.00324500  0.49949100
   0.50027600  0.00008200  0.00029600
   0.99574000  0.99988100  0.50046500
   0.51382300  0.49522000  0.99920000
   0.99494200  0.50296200  0.49586300
   0.00827100  0.50084500  0.99689900
   0.48787800  0.49820400  0.51218100
   0.47958800  0.74660900  0.97724500
   0.95965600  0.75027100  0.46078000
   0.98455300  0.24871700  0.97375500
   0.44180300  0.25363000  0.47294800
   0.04434200  0.74825300  0.03110700
   0.52981600  0.74798100  0.52156800
   0.53747300  0.24971000  0.04417500
   0.01073800  0.25306100  0.53264500
   0.26044200  0.46713900  0.95288800
   0.94592400  0.53081700  0.74169800
   0.54138200  0.03116100  0.75245800
   0.04797700  0.02841400  0.25324700
   0.75607600  0.97740500  0.03860400
   0.24725200  0.96338200  0.55050300
   0.25166500  0.02970600  0.94761700
   0.74235100  0.04027100  0.45298300
   0.44505900  0.96855000  0.24801100
   0.95399900  0.96339700  0.74817400
   0.76199300  0.53836000  0.04751400
   0.23633800  0.53771000  0.54859100
   0.56008100  0.46408100  0.75722300
   0.05912200  0.46791300  0.24975300
   0.62153100  0.49181800  0.33966000
