  40  40   1   0
  0.4000680E+02  0.1166835E-08  0.1176381E-08  0.1166835E-08  0.5000000E-15
   1.0000000000000000E-004
  CAR 
 CsPbBr3 cubic bulk                      
      8.32958389    -22.52163572  301      0.23113874      1.00000000
    -22.522  0.0000E+00  0.0000E+00
    -22.419  0.0000E+00  0.0000E+00
    -22.316  0.0000E+00  0.0000E+00
    -22.213  0.0000E+00  0.0000E+00
    -22.110  0.0000E+00  0.0000E+00
    -22.007  0.0000E+00  0.0000E+00
    -21.905  0.0000E+00  0.0000E+00
    -21.802  0.0000E+00  0.0000E+00
    -21.699  0.0000E+00  0.0000E+00
    -21.596  0.0000E+00  0.0000E+00
    -21.493  0.0000E+00  0.0000E+00
    -21.390  0.0000E+00  0.0000E+00
    -21.288  0.0000E+00  0.0000E+00
    -21.185  0.0000E+00  0.0000E+00
    -21.082  0.3715E+02  0.3820E+01
    -20.979  0.0000E+00  0.4000E+01
    -20.876  0.0000E+00  0.4000E+01
    -20.773  0.3825E+02  0.7933E+01
    -20.671  0.1506E-05  0.8000E+01
    -20.568  0.2064E+02  0.1012E+02
    -20.465  0.9367E-01  0.1401E+02
    -20.362  0.0000E+00  0.1600E+02
    -20.259  0.0000E+00  0.1600E+02
    -20.156  0.0000E+00  0.1600E+02
    -20.054  0.0000E+00  0.1600E+02
    -19.951  0.0000E+00  0.1600E+02
    -19.848  0.0000E+00  0.1600E+02
    -19.745  0.0000E+00  0.1600E+02
    -19.642  0.0000E+00  0.1600E+02
    -19.539  0.0000E+00  0.1600E+02
    -19.437  0.0000E+00  0.1600E+02
    -19.334  0.0000E+00  0.1600E+02
    -19.231  0.0000E+00  0.1600E+02
    -19.128  0.0000E+00  0.1600E+02
    -19.025  0.0000E+00  0.1600E+02
    -18.922  0.0000E+00  0.1600E+02
    -18.819  0.0000E+00  0.1600E+02
    -18.717  0.0000E+00  0.1600E+02
    -18.614  0.0000E+00  0.1600E+02
    -18.511  0.0000E+00  0.1600E+02
    -18.408  0.0000E+00  0.1600E+02
    -18.305  0.0000E+00  0.1600E+02
    -18.202  0.0000E+00  0.1600E+02
    -18.100  0.0000E+00  0.1600E+02
    -17.997  0.0000E+00  0.1600E+02
    -17.894  0.0000E+00  0.1600E+02
    -17.791  0.0000E+00  0.1600E+02
    -17.688  0.0000E+00  0.1600E+02
    -17.585  0.0000E+00  0.1600E+02
    -17.483  0.0000E+00  0.1600E+02
    -17.380  0.0000E+00  0.1600E+02
    -17.277  0.0000E+00  0.1600E+02
    -17.174  0.2742E-04  0.1600E+02
    -17.071  0.6704E+02  0.2289E+02
    -16.968  0.1945E+02  0.2600E+02
    -16.866  0.4668E+01  0.2648E+02
    -16.763  0.5740E+02  0.3390E+02
    -16.660  0.1945E+02  0.3600E+02
    -16.557  0.3932E+02  0.4004E+02
    -16.454  0.9216E+02  0.5348E+02
    -16.351  0.1323E+03  0.6961E+02
    -16.249  0.1849E+03  0.9302E+02
    -16.146  0.0000E+00  0.9600E+02
    -16.043  0.0000E+00  0.9600E+02
    -15.940  0.0000E+00  0.9600E+02
    -15.837  0.0000E+00  0.9600E+02
    -15.734  0.0000E+00  0.9600E+02
    -15.632  0.0000E+00  0.9600E+02
    -15.529  0.0000E+00  0.9600E+02
    -15.426  0.0000E+00  0.9600E+02
    -15.323  0.0000E+00  0.9600E+02
    -15.220  0.0000E+00  0.9600E+02
    -15.117  0.0000E+00  0.9600E+02
    -15.015  0.0000E+00  0.9600E+02
    -14.912  0.0000E+00  0.9600E+02
    -14.809  0.0000E+00  0.9600E+02
    -14.706  0.0000E+00  0.9600E+02
    -14.603  0.0000E+00  0.9600E+02
    -14.500  0.0000E+00  0.9600E+02
    -14.397  0.6741E+00  0.9607E+02
    -14.295  0.2674E+02  0.1000E+03
    -14.192  0.2273E+02  0.1023E+03
    -14.089  0.3822E+02  0.1082E+03
    -13.986  0.4242E+02  0.1139E+03
    -13.883  0.4558E+02  0.1197E+03
    -13.780  0.4859E+02  0.1260E+03
    -13.678  0.2692E+02  0.1288E+03
    -13.575  0.2910E+02  0.1340E+03
    -13.472  0.1569E+02  0.1366E+03
    -13.369  0.5337E+02  0.1435E+03
    -13.266  0.0000E+00  0.1440E+03
    -13.163  0.0000E+00  0.1440E+03
    -13.061  0.0000E+00  0.1440E+03
    -12.958  0.0000E+00  0.1440E+03
    -12.855  0.0000E+00  0.1440E+03
    -12.752  0.0000E+00  0.1440E+03
    -12.649  0.0000E+00  0.1440E+03
    -12.546  0.0000E+00  0.1440E+03
    -12.444  0.0000E+00  0.1440E+03
    -12.341  0.0000E+00  0.1440E+03
    -12.238  0.0000E+00  0.1440E+03
    -12.135  0.0000E+00  0.1440E+03
    -12.032  0.0000E+00  0.1440E+03
    -11.929  0.0000E+00  0.1440E+03
    -11.827  0.0000E+00  0.1440E+03
    -11.724  0.0000E+00  0.1440E+03
    -11.621  0.0000E+00  0.1440E+03
    -11.518  0.0000E+00  0.1440E+03
    -11.415  0.0000E+00  0.1440E+03
    -11.312  0.0000E+00  0.1440E+03
    -11.210  0.0000E+00  0.1440E+03
    -11.107  0.0000E+00  0.1440E+03
    -11.004  0.0000E+00  0.1440E+03
    -10.901  0.0000E+00  0.1440E+03
    -10.798  0.0000E+00  0.1440E+03
    -10.695  0.0000E+00  0.1440E+03
    -10.592  0.0000E+00  0.1440E+03
    -10.490  0.0000E+00  0.1440E+03
    -10.387  0.0000E+00  0.1440E+03
    -10.284  0.0000E+00  0.1440E+03
    -10.181  0.0000E+00  0.1440E+03
    -10.078  0.0000E+00  0.1440E+03
     -9.975  0.0000E+00  0.1440E+03
     -9.873  0.0000E+00  0.1440E+03
     -9.770  0.0000E+00  0.1440E+03
     -9.667  0.0000E+00  0.1440E+03
     -9.564  0.0000E+00  0.1440E+03
     -9.461  0.0000E+00  0.1440E+03
     -9.358  0.0000E+00  0.1440E+03
     -9.256  0.0000E+00  0.1440E+03
     -9.153  0.0000E+00  0.1440E+03
     -9.050  0.0000E+00  0.1440E+03
     -8.947  0.0000E+00  0.1440E+03
     -8.844  0.0000E+00  0.1440E+03
     -8.741  0.0000E+00  0.1440E+03
     -8.639  0.0000E+00  0.1440E+03
     -8.536  0.0000E+00  0.1440E+03
     -8.433  0.0000E+00  0.1440E+03
     -8.330  0.9980E-01  0.1440E+03
     -8.227  0.1027E+02  0.1453E+03
     -8.124  0.1109E-05  0.1460E+03
     -8.022  0.1195E+02  0.1472E+03
     -7.919  0.1219E+02  0.1488E+03
     -7.816  0.9774E+01  0.1500E+03
     -7.713  0.4876E+01  0.1508E+03
     -7.610  0.5285E+01  0.1515E+03
     -7.507  0.3365E+02  0.1552E+03
     -7.405  0.5431E+02  0.1631E+03
     -7.302  0.1922E+02  0.1655E+03
     -7.199  0.6802E+02  0.1730E+03
     -7.096  0.6070E+02  0.1817E+03
     -6.993  0.8217E+02  0.1929E+03
     -6.890  0.9269E+02  0.2045E+03
     -6.788  0.7599E+01  0.2075E+03
     -6.685  0.4193E-08  0.2078E+03
     -6.582  0.2431E+01  0.2080E+03
     -6.479  0.0000E+00  0.2080E+03
     -6.376  0.0000E+00  0.2080E+03
     -6.273  0.0000E+00  0.2080E+03
     -6.170  0.0000E+00  0.2080E+03
     -6.068  0.0000E+00  0.2080E+03
     -5.965  0.0000E+00  0.2080E+03
     -5.862  0.0000E+00  0.2080E+03
     -5.759  0.0000E+00  0.2080E+03
     -5.656  0.0000E+00  0.2080E+03
     -5.553  0.0000E+00  0.2080E+03
     -5.451  0.0000E+00  0.2080E+03
     -5.348  0.0000E+00  0.2080E+03
     -5.245  0.0000E+00  0.2080E+03
     -5.142  0.0000E+00  0.2080E+03
     -5.039  0.0000E+00  0.2080E+03
     -4.936  0.0000E+00  0.2080E+03
     -4.834  0.0000E+00  0.2080E+03
     -4.731  0.0000E+00  0.2080E+03
     -4.628  0.0000E+00  0.2080E+03
     -4.525  0.0000E+00  0.2080E+03
     -4.422  0.0000E+00  0.2080E+03
     -4.319  0.0000E+00  0.2080E+03
     -4.217  0.0000E+00  0.2080E+03
     -4.114  0.0000E+00  0.2080E+03
     -4.011  0.0000E+00  0.2080E+03
     -3.908  0.0000E+00  0.2080E+03
     -3.805  0.0000E+00  0.2080E+03
     -3.702  0.0000E+00  0.2080E+03
     -3.600  0.0000E+00  0.2080E+03
     -3.497  0.0000E+00  0.2080E+03
     -3.394  0.6900E+01  0.2087E+03
     -3.291  0.1374E+02  0.2104E+03
     -3.188  0.8076E+01  0.2118E+03
     -3.085  0.1243E+02  0.2138E+03
     -2.983  0.1243E+02  0.2155E+03
     -2.880  0.2442E+01  0.2168E+03
     -2.777  0.1707E+02  0.2188E+03
     -2.674  0.1233E+02  0.2210E+03
     -2.571  0.2400E+02  0.2240E+03
     -2.468  0.2380E+02  0.2269E+03
     -2.366  0.3275E+02  0.2309E+03
     -2.263  0.3203E+02  0.2348E+03
     -2.160  0.2462E+02  0.2385E+03
     -2.057  0.4195E+02  0.2438E+03
     -1.954  0.4046E+02  0.2492E+03
     -1.851  0.3600E+02  0.2540E+03
     -1.748  0.3574E+02  0.2589E+03
     -1.646  0.4466E+02  0.2643E+03
     -1.543  0.5070E+02  0.2715E+03
     -1.440  0.5218E+02  0.2781E+03
     -1.337  0.5293E+02  0.2849E+03
     -1.234  0.5771E+02  0.2922E+03
     -1.131  0.7093E+02  0.3005E+03
     -1.029  0.5783E+02  0.3084E+03
     -0.926  0.4514E+02  0.3154E+03
     -0.823  0.5290E+02  0.3224E+03
     -0.720  0.4248E+02  0.3281E+03
     -0.617  0.5738E+02  0.3352E+03
     -0.514  0.4681E+02  0.3413E+03
     -0.412  0.1937E+02  0.3450E+03
     -0.309  0.1798E+02  0.3476E+03
     -0.206  0.1934E+02  0.3500E+03
     -0.103  0.1215E+02  0.3512E+03
     -0.000  0.2430E+01  0.3515E+03
      0.103  0.2431E+01  0.3518E+03
      0.205  0.2431E+01  0.3520E+03
      0.308  0.0000E+00  0.3520E+03
      0.411  0.0000E+00  0.3520E+03
      0.514  0.0000E+00  0.3520E+03
      0.617  0.0000E+00  0.3520E+03
      0.720  0.0000E+00  0.3520E+03
      0.822  0.0000E+00  0.3520E+03
      0.925  0.0000E+00  0.3520E+03
      1.028  0.0000E+00  0.3520E+03
      1.131  0.0000E+00  0.3520E+03
      1.234  0.0000E+00  0.3520E+03
      1.337  0.0000E+00  0.3520E+03
      1.439  0.0000E+00  0.3520E+03
      1.542  0.0000E+00  0.3520E+03
      1.645  0.0000E+00  0.3520E+03
      1.748  0.0000E+00  0.3520E+03
      1.851  0.0000E+00  0.3520E+03
      1.954  0.0000E+00  0.3520E+03
      2.057  0.0000E+00  0.3520E+03
      2.159  0.0000E+00  0.3520E+03
      2.262  0.0000E+00  0.3520E+03
      2.365  0.7870E-06  0.3520E+03
      2.468  0.8391E+01  0.3529E+03
      2.571  0.6713E+01  0.3537E+03
      2.674  0.7068E+01  0.3547E+03
      2.776  0.8153E+01  0.3558E+03
      2.879  0.1125E+02  0.3577E+03
      2.982  0.5528E+01  0.3586E+03
      3.085  0.1223E+02  0.3600E+03
      3.188  0.2268E+02  0.3628E+03
      3.291  0.6060E+01  0.3639E+03
      3.393  0.8315E+01  0.3651E+03
      3.496  0.4977E+01  0.3658E+03
      3.599  0.1234E+02  0.3675E+03
      3.702  0.4776E+01  0.3685E+03
      3.805  0.5118E+01  0.3693E+03
      3.908  0.1033E+02  0.3706E+03
      4.010  0.2201E+02  0.3730E+03
      4.113  0.2186E+02  0.3755E+03
      4.216  0.1878E+02  0.3777E+03
      4.319  0.9058E+01  0.3789E+03
      4.422  0.8302E+01  0.3801E+03
      4.525  0.1636E+02  0.3822E+03
      4.627  0.3733E+01  0.3829E+03
      4.730  0.1068E+02  0.3843E+03
      4.833  0.1377E+02  0.3864E+03
      4.936  0.1156E+02  0.3882E+03
      5.039  0.1636E+02  0.3902E+03
      5.142  0.1063E+02  0.3913E+03
      5.244  0.7293E+01  0.3925E+03
      5.347  0.7295E+01  0.3933E+03
      5.450  0.1214E+02  0.3945E+03
      5.553  0.1607E+02  0.3962E+03
      5.656  0.9720E+01  0.3975E+03
      5.759  0.8339E+01  0.3984E+03
      5.861  0.1729E+02  0.4008E+03
      5.964  0.9972E+01  0.4023E+03
      6.067  0.1542E+02  0.4041E+03
      6.170  0.2298E+02  0.4071E+03
      6.273  0.1943E+02  0.4095E+03
      6.376  0.2649E+02  0.4135E+03
      6.479  0.2290E+02  0.4166E+03
      6.581  0.2764E+02  0.4206E+03
      6.684  0.2950E+02  0.4243E+03
      6.787  0.3349E+02  0.4287E+03
      6.890  0.1606E+02  0.4312E+03
      6.993  0.4862E+01  0.4320E+03
      7.096  0.0000E+00  0.4320E+03
      7.198  0.0000E+00  0.4320E+03
      7.301  0.0000E+00  0.4320E+03
      7.404  0.0000E+00  0.4320E+03
      7.507  0.0000E+00  0.4320E+03
      7.610  0.0000E+00  0.4320E+03
      7.713  0.0000E+00  0.4320E+03
      7.815  0.0000E+00  0.4320E+03
      7.918  0.0000E+00  0.4320E+03
      8.021  0.0000E+00  0.4320E+03
      8.124  0.0000E+00  0.4320E+03
      8.227  0.0000E+00  0.4320E+03
      8.330  0.0000E+00  0.4320E+03
      8.32958389    -22.52163572  301      0.23113874      1.00000000
    -22.522  0.0000E+00  0.0000E+00  0.0000E+00
    -22.419  0.0000E+00  0.0000E+00  0.0000E+00
    -22.316  0.0000E+00  0.0000E+00  0.0000E+00
    -22.213  0.0000E+00  0.0000E+00  0.0000E+00
    -22.110  0.0000E+00  0.0000E+00  0.0000E+00
    -22.007  0.0000E+00  0.0000E+00  0.0000E+00
    -21.905  0.0000E+00  0.0000E+00  0.0000E+00
    -21.802  0.0000E+00  0.0000E+00  0.0000E+00
    -21.699  0.0000E+00  0.0000E+00  0.0000E+00
    -21.596  0.0000E+00  0.0000E+00  0.0000E+00
    -21.493  0.0000E+00  0.0000E+00  0.0000E+00
    -21.390  0.0000E+00  0.0000E+00  0.0000E+00
    -21.288  0.0000E+00  0.0000E+00  0.0000E+00
    -21.185  0.0000E+00  0.0000E+00  0.0000E+00
    -21.082  0.1199E-05  0.4863E-08  0.4913E-09
    -20.979  0.0000E+00  0.0000E+00  0.0000E+00
    -20.876  0.0000E+00  0.0000E+00  0.0000E+00
    -20.773  0.4977E-03  0.2147E-06  0.1948E-07
    -20.671  0.1336E-05  0.5749E-11  0.1262E-11
    -20.568  0.1726E+02  0.7425E-04  0.1629E-04
    -20.465  0.1595E-05  0.8377E-09  0.1232E-09
    -20.362  0.0000E+00  0.0000E+00  0.0000E+00
    -20.259  0.0000E+00  0.0000E+00  0.0000E+00
    -20.156  0.0000E+00  0.0000E+00  0.0000E+00
    -20.054  0.0000E+00  0.0000E+00  0.0000E+00
    -19.951  0.0000E+00  0.0000E+00  0.0000E+00
    -19.848  0.0000E+00  0.0000E+00  0.0000E+00
    -19.745  0.0000E+00  0.0000E+00  0.0000E+00
    -19.642  0.0000E+00  0.0000E+00  0.0000E+00
    -19.539  0.0000E+00  0.0000E+00  0.0000E+00
    -19.437  0.0000E+00  0.0000E+00  0.0000E+00
    -19.334  0.0000E+00  0.0000E+00  0.0000E+00
    -19.231  0.0000E+00  0.0000E+00  0.0000E+00
    -19.128  0.0000E+00  0.0000E+00  0.0000E+00
    -19.025  0.0000E+00  0.0000E+00  0.0000E+00
    -18.922  0.0000E+00  0.0000E+00  0.0000E+00
    -18.819  0.0000E+00  0.0000E+00  0.0000E+00
    -18.717  0.0000E+00  0.0000E+00  0.0000E+00
    -18.614  0.0000E+00  0.0000E+00  0.0000E+00
    -18.511  0.0000E+00  0.0000E+00  0.0000E+00
    -18.408  0.0000E+00  0.0000E+00  0.0000E+00
    -18.305  0.0000E+00  0.0000E+00  0.0000E+00
    -18.202  0.0000E+00  0.0000E+00  0.0000E+00
    -18.100  0.0000E+00  0.0000E+00  0.0000E+00
    -17.997  0.0000E+00  0.0000E+00  0.0000E+00
    -17.894  0.0000E+00  0.0000E+00  0.0000E+00
    -17.791  0.0000E+00  0.0000E+00  0.0000E+00
    -17.688  0.0000E+00  0.0000E+00  0.0000E+00
    -17.585  0.0000E+00  0.0000E+00  0.0000E+00
    -17.483  0.0000E+00  0.0000E+00  0.0000E+00
    -17.380  0.0000E+00  0.0000E+00  0.0000E+00
    -17.277  0.0000E+00  0.0000E+00  0.0000E+00
    -17.174  0.2335E-11  0.1804E-11  0.4808E-12
    -17.071  0.1097E-04  0.5754E-05  0.1286E-05
    -16.968  0.3892E-04  0.1143E-04  0.1400E-05
    -16.866  0.1841E-05  0.6084E-06  0.8139E-07
    -16.763  0.1919E-05  0.7323E-06  0.1019E-06
    -16.660  0.2847E-07  0.2068E-07  0.3339E-08
    -16.557  0.1668E-04  0.9690E-05  0.1915E-05
    -16.454  0.1570E-04  0.9220E-05  0.1382E-05
    -16.351  0.1082E-03  0.8528E-04  0.1533E-04
    -16.249  0.8744E-04  0.4204E-04  0.5011E-05
    -16.146  0.0000E+00  0.0000E+00  0.0000E+00
    -16.043  0.0000E+00  0.0000E+00  0.0000E+00
    -15.940  0.0000E+00  0.0000E+00  0.0000E+00
    -15.837  0.0000E+00  0.0000E+00  0.0000E+00
    -15.734  0.0000E+00  0.0000E+00  0.0000E+00
    -15.632  0.0000E+00  0.0000E+00  0.0000E+00
    -15.529  0.0000E+00  0.0000E+00  0.0000E+00
    -15.426  0.0000E+00  0.0000E+00  0.0000E+00
    -15.323  0.0000E+00  0.0000E+00  0.0000E+00
    -15.220  0.0000E+00  0.0000E+00  0.0000E+00
    -15.117  0.0000E+00  0.0000E+00  0.0000E+00
    -15.015  0.0000E+00  0.0000E+00  0.0000E+00
    -14.912  0.0000E+00  0.0000E+00  0.0000E+00
    -14.809  0.0000E+00  0.0000E+00  0.0000E+00
    -14.706  0.0000E+00  0.0000E+00  0.0000E+00
    -14.603  0.0000E+00  0.0000E+00  0.0000E+00
    -14.500  0.0000E+00  0.0000E+00  0.0000E+00
    -14.397  0.1116E-03  0.5116E-04  0.1814E-05
    -14.295  0.2337E-02  0.1884E-02  0.8124E-04
    -14.192  0.3376E-02  0.5016E-02  0.2337E-03
    -14.089  0.9463E-03  0.1751E-02  0.8784E-04
    -13.986  0.1055E-02  0.3060E-02  0.2362E-03
    -13.883  0.3257E-03  0.1940E-02  0.2322E-03
    -13.780  0.2912E-03  0.1569E-02  0.3239E-03
    -13.678  0.2302E-03  0.7732E-03  0.6986E-04
    -13.575  0.2801E-03  0.6307E-03  0.5647E-04
    -13.472  0.6190E-03  0.1722E-02  0.1479E-03
    -13.369  0.5307E-02  0.1441E-01  0.1130E-02
    -13.266  0.0000E+00  0.0000E+00  0.0000E+00
    -13.163  0.0000E+00  0.0000E+00  0.0000E+00
    -13.061  0.0000E+00  0.0000E+00  0.0000E+00
    -12.958  0.0000E+00  0.0000E+00  0.0000E+00
    -12.855  0.0000E+00  0.0000E+00  0.0000E+00
    -12.752  0.0000E+00  0.0000E+00  0.0000E+00
    -12.649  0.0000E+00  0.0000E+00  0.0000E+00
    -12.546  0.0000E+00  0.0000E+00  0.0000E+00
    -12.444  0.0000E+00  0.0000E+00  0.0000E+00
    -12.341  0.0000E+00  0.0000E+00  0.0000E+00
    -12.238  0.0000E+00  0.0000E+00  0.0000E+00
    -12.135  0.0000E+00  0.0000E+00  0.0000E+00
    -12.032  0.0000E+00  0.0000E+00  0.0000E+00
    -11.929  0.0000E+00  0.0000E+00  0.0000E+00
    -11.827  0.0000E+00  0.0000E+00  0.0000E+00
    -11.724  0.0000E+00  0.0000E+00  0.0000E+00
    -11.621  0.0000E+00  0.0000E+00  0.0000E+00
    -11.518  0.0000E+00  0.0000E+00  0.0000E+00
    -11.415  0.0000E+00  0.0000E+00  0.0000E+00
    -11.312  0.0000E+00  0.0000E+00  0.0000E+00
    -11.210  0.0000E+00  0.0000E+00  0.0000E+00
    -11.107  0.0000E+00  0.0000E+00  0.0000E+00
    -11.004  0.0000E+00  0.0000E+00  0.0000E+00
    -10.901  0.0000E+00  0.0000E+00  0.0000E+00
    -10.798  0.0000E+00  0.0000E+00  0.0000E+00
    -10.695  0.0000E+00  0.0000E+00  0.0000E+00
    -10.592  0.0000E+00  0.0000E+00  0.0000E+00
    -10.490  0.0000E+00  0.0000E+00  0.0000E+00
    -10.387  0.0000E+00  0.0000E+00  0.0000E+00
    -10.284  0.0000E+00  0.0000E+00  0.0000E+00
    -10.181  0.0000E+00  0.0000E+00  0.0000E+00
    -10.078  0.0000E+00  0.0000E+00  0.0000E+00
     -9.975  0.0000E+00  0.0000E+00  0.0000E+00
     -9.873  0.0000E+00  0.0000E+00  0.0000E+00
     -9.770  0.0000E+00  0.0000E+00  0.0000E+00
     -9.667  0.0000E+00  0.0000E+00  0.0000E+00
     -9.564  0.0000E+00  0.0000E+00  0.0000E+00
     -9.461  0.0000E+00  0.0000E+00  0.0000E+00
     -9.358  0.0000E+00  0.0000E+00  0.0000E+00
     -9.256  0.0000E+00  0.0000E+00  0.0000E+00
     -9.153  0.0000E+00  0.0000E+00  0.0000E+00
     -9.050  0.0000E+00  0.0000E+00  0.0000E+00
     -8.947  0.0000E+00  0.0000E+00  0.0000E+00
     -8.844  0.0000E+00  0.0000E+00  0.0000E+00
     -8.741  0.0000E+00  0.0000E+00  0.0000E+00
     -8.639  0.0000E+00  0.0000E+00  0.0000E+00
     -8.536  0.0000E+00  0.0000E+00  0.0000E+00
     -8.433  0.0000E+00  0.0000E+00  0.0000E+00
     -8.330  0.1066E-07  0.3463E-04  0.2534E-06
     -8.227  0.1162E-04  0.3430E-02  0.1273E-04
     -8.124  0.3466E-11  0.2812E-09  0.3837E-11
     -8.022  0.2551E-04  0.7580E-02  0.4847E-04
     -7.919  0.2321E-04  0.1048E-01  0.4782E-04
     -7.816  0.1089E-04  0.5616E-02  0.1820E-04
     -7.713  0.9793E-05  0.7633E-02  0.1314E-04
     -7.610  0.1753E-04  0.9439E-02  0.8696E-05
     -7.507  0.4086E-04  0.4272E-01  0.5326E-04
     -7.405  0.2068E-04  0.4229E-01  0.3196E-04
     -7.302  0.2370E-04  0.9990E-01  0.6275E-04
     -7.199  0.4845E-04  0.4710E+00  0.6024E-04
     -7.096  0.9942E-04  0.2542E+01  0.6832E-04
     -6.993  0.1762E-03  0.2478E+02  0.1678E-03
     -6.890  0.1343E-03  0.2710E+01  0.1167E-03
     -6.788  0.2180E-04  0.1633E-01  0.8354E-05
     -6.685  0.3918E-13  0.7121E-11  0.6529E-14
     -6.582  0.2271E-04  0.4129E-02  0.3786E-05
     -6.479  0.0000E+00  0.0000E+00  0.0000E+00
     -6.376  0.0000E+00  0.0000E+00  0.0000E+00
     -6.273  0.0000E+00  0.0000E+00  0.0000E+00
     -6.170  0.0000E+00  0.0000E+00  0.0000E+00
     -6.068  0.0000E+00  0.0000E+00  0.0000E+00
     -5.965  0.0000E+00  0.0000E+00  0.0000E+00
     -5.862  0.0000E+00  0.0000E+00  0.0000E+00
     -5.759  0.0000E+00  0.0000E+00  0.0000E+00
     -5.656  0.0000E+00  0.0000E+00  0.0000E+00
     -5.553  0.0000E+00  0.0000E+00  0.0000E+00
     -5.451  0.0000E+00  0.0000E+00  0.0000E+00
     -5.348  0.0000E+00  0.0000E+00  0.0000E+00
     -5.245  0.0000E+00  0.0000E+00  0.0000E+00
     -5.142  0.0000E+00  0.0000E+00  0.0000E+00
     -5.039  0.0000E+00  0.0000E+00  0.0000E+00
     -4.936  0.0000E+00  0.0000E+00  0.0000E+00
     -4.834  0.0000E+00  0.0000E+00  0.0000E+00
     -4.731  0.0000E+00  0.0000E+00  0.0000E+00
     -4.628  0.0000E+00  0.0000E+00  0.0000E+00
     -4.525  0.0000E+00  0.0000E+00  0.0000E+00
     -4.422  0.0000E+00  0.0000E+00  0.0000E+00
     -4.319  0.0000E+00  0.0000E+00  0.0000E+00
     -4.217  0.0000E+00  0.0000E+00  0.0000E+00
     -4.114  0.0000E+00  0.0000E+00  0.0000E+00
     -4.011  0.0000E+00  0.0000E+00  0.0000E+00
     -3.908  0.0000E+00  0.0000E+00  0.0000E+00
     -3.805  0.0000E+00  0.0000E+00  0.0000E+00
     -3.702  0.0000E+00  0.0000E+00  0.0000E+00
     -3.600  0.0000E+00  0.0000E+00  0.0000E+00
     -3.497  0.0000E+00  0.0000E+00  0.0000E+00
     -3.394  0.9676E-06  0.4677E-02  0.6056E-03
     -3.291  0.7169E-04  0.3572E-02  0.3890E-03
     -3.188  0.5727E-04  0.7073E-02  0.6181E-03
     -3.085  0.9407E-04  0.3418E-02  0.1994E-03
     -2.983  0.1420E-03  0.6554E-02  0.4614E-03
     -2.880  0.5280E-04  0.2484E-02  0.2058E-03
     -2.777  0.1080E-03  0.1182E-01  0.1010E-02
     -2.674  0.1459E-03  0.2783E-02  0.6690E-03
     -2.571  0.8864E-03  0.1708E-01  0.1416E-02
     -2.468  0.5419E-03  0.1342E-01  0.1885E-02
     -2.366  0.2216E-02  0.2587E-01  0.2388E-02
     -2.263  0.2451E-02  0.3045E-01  0.2918E-02
     -2.160  0.2000E-02  0.1802E-01  0.2589E-02
     -2.057  0.1323E-01  0.4062E-01  0.5391E-02
     -1.954  0.1078E-01  0.5239E-01  0.4594E-02
     -1.851  0.6031E-02  0.5111E-01  0.4295E-02
     -1.748  0.2392E-02  0.4264E-01  0.4324E-02
     -1.646  0.2755E-02  0.6165E-01  0.7977E-02
     -1.543  0.2880E-02  0.7345E-01  0.1058E-01
     -1.440  0.3632E-02  0.4968E-01  0.1251E-01
     -1.337  0.1515E-02  0.6736E-01  0.8233E-02
     -1.234  0.5266E-02  0.7471E-01  0.1343E-01
     -1.131  0.2110E-02  0.6171E-01  0.1296E-01
     -1.029  0.3408E-02  0.5612E-01  0.1264E-01
     -0.926  0.3317E-02  0.3445E-01  0.6720E-02
     -0.823  0.5497E-02  0.5732E-01  0.9958E-02
     -0.720  0.3468E-02  0.6035E-01  0.1214E-01
     -0.617  0.2883E-02  0.7258E-01  0.1171E-01
     -0.514  0.1768E-02  0.5341E-01  0.1065E-01
     -0.412  0.1393E-03  0.7355E-02  0.2391E-02
     -0.309  0.1241E-03  0.3353E-02  0.1105E-02
     -0.206  0.3688E-03  0.5552E-02  0.1555E-02
     -0.103  0.1634E-03  0.2622E-02  0.8721E-03
     -0.000  0.1441E-05  0.3439E-03  0.1718E-03
      0.103  0.8368E-05  0.4935E-03  0.8186E-04
      0.205  0.3422E-04  0.4342E-03  0.7821E-04
      0.308  0.0000E+00  0.0000E+00  0.0000E+00
      0.411  0.0000E+00  0.0000E+00  0.0000E+00
      0.514  0.0000E+00  0.0000E+00  0.0000E+00
      0.617  0.0000E+00  0.0000E+00  0.0000E+00
      0.720  0.0000E+00  0.0000E+00  0.0000E+00
      0.822  0.0000E+00  0.0000E+00  0.0000E+00
      0.925  0.0000E+00  0.0000E+00  0.0000E+00
      1.028  0.0000E+00  0.0000E+00  0.0000E+00
      1.131  0.0000E+00  0.0000E+00  0.0000E+00
      1.234  0.0000E+00  0.0000E+00  0.0000E+00
      1.337  0.0000E+00  0.0000E+00  0.0000E+00
      1.439  0.0000E+00  0.0000E+00  0.0000E+00
      1.542  0.0000E+00  0.0000E+00  0.0000E+00
      1.645  0.0000E+00  0.0000E+00  0.0000E+00
      1.748  0.0000E+00  0.0000E+00  0.0000E+00
      1.851  0.0000E+00  0.0000E+00  0.0000E+00
      1.954  0.0000E+00  0.0000E+00  0.0000E+00
      2.057  0.0000E+00  0.0000E+00  0.0000E+00
      2.159  0.0000E+00  0.0000E+00  0.0000E+00
      2.262  0.0000E+00  0.0000E+00  0.0000E+00
      2.365  0.1065E-10  0.5145E-10  0.1112E-09
      2.468  0.7938E-04  0.1234E-02  0.1736E-02
      2.571  0.3845E-04  0.9952E-03  0.1920E-02
      2.674  0.1646E-03  0.1250E-02  0.2606E-02
      2.776  0.8272E-03  0.4178E-02  0.5344E-02
      2.879  0.1434E-02  0.3507E-02  0.3330E-02
      2.982  0.4537E-03  0.3709E-03  0.8673E-03
      3.085  0.2469E-03  0.2016E-02  0.2285E-02
      3.188  0.1285E-02  0.4532E-02  0.6429E-02
      3.291  0.7556E-04  0.1595E-02  0.1920E-02
      3.393  0.3694E-03  0.2124E-02  0.2052E-02
      3.496  0.5209E-04  0.8865E-03  0.1332E-02
      3.599  0.2938E-03  0.2332E-02  0.4313E-02
      3.702  0.2597E-04  0.6885E-03  0.2635E-02
      3.805  0.3857E-03  0.2940E-03  0.1862E-02
      3.908  0.4717E-03  0.7517E-03  0.3687E-02
      4.010  0.1508E-02  0.2220E-02  0.5460E-02
      4.113  0.1323E-02  0.4012E-02  0.4743E-02
      4.216  0.2388E-02  0.2611E-02  0.6376E-02
      4.319  0.2930E-03  0.1604E-02  0.2831E-02
      4.422  0.2739E-04  0.7751E-03  0.2891E-02
      4.525  0.6408E-03  0.3090E-02  0.8397E-02
      4.627  0.1373E-03  0.1198E-02  0.2510E-02
      4.730  0.3812E-03  0.2177E-02  0.8744E-02
      4.833  0.1555E-02  0.1603E-02  0.7600E-02
      4.936  0.1950E-02  0.2704E-02  0.6121E-02
      5.039  0.7923E-02  0.4428E-02  0.1098E-01
      5.142  0.2213E-02  0.1535E-02  0.7839E-02
      5.244  0.4351E-03  0.1245E-02  0.4056E-02
      5.347  0.4450E-03  0.1721E-02  0.7019E-02
      5.450  0.3450E-02  0.1832E-02  0.1262E-01
      5.553  0.1499E-01  0.9779E-02  0.2134E-01
      5.656  0.1362E-01  0.2990E-02  0.1407E-01
      5.759  0.2005E-01  0.2923E-02  0.1399E-01
      5.861  0.1069E-01  0.4693E-02  0.5331E-01
      5.964  0.7556E-02  0.8154E-02  0.2384E-01
      6.067  0.2602E-01  0.1380E-01  0.1012E+00
      6.170  0.3515E-01  0.2102E-01  0.1345E+00
      6.273  0.4327E-02  0.1511E-01  0.1958E+00
      6.376  0.1941E-01  0.2386E-01  0.2509E+00
      6.479  0.2663E-01  0.2753E-01  0.3230E+00
      6.581  0.1168E-01  0.2099E-01  0.3634E+00
      6.684  0.2937E-01  0.1879E-01  0.3344E+00
      6.787  0.1028E-01  0.2425E-01  0.4968E+00
      6.890  0.5918E-02  0.1336E-01  0.3875E+00
      6.993  0.2926E-02  0.3023E-02  0.3082E-01
      7.096  0.0000E+00  0.0000E+00  0.0000E+00
      7.198  0.0000E+00  0.0000E+00  0.0000E+00
      7.301  0.0000E+00  0.0000E+00  0.0000E+00
      7.404  0.0000E+00  0.0000E+00  0.0000E+00
      7.507  0.0000E+00  0.0000E+00  0.0000E+00
      7.610  0.0000E+00  0.0000E+00  0.0000E+00
      7.713  0.0000E+00  0.0000E+00  0.0000E+00
      7.815  0.0000E+00  0.0000E+00  0.0000E+00
      7.918  0.0000E+00  0.0000E+00  0.0000E+00
      8.021  0.0000E+00  0.0000E+00  0.0000E+00
      8.124  0.0000E+00  0.0000E+00  0.0000E+00
      8.227  0.0000E+00  0.0000E+00  0.0000E+00
      8.330  0.0000E+00  0.0000E+00  0.0000E+00
      8.32958389    -22.52163572  301      0.23113874      1.00000000
    -22.522  0.0000E+00  0.0000E+00  0.0000E+00
    -22.419  0.0000E+00  0.0000E+00  0.0000E+00
    -22.316  0.0000E+00  0.0000E+00  0.0000E+00
    -22.213  0.0000E+00  0.0000E+00  0.0000E+00
    -22.110  0.0000E+00  0.0000E+00  0.0000E+00
    -22.007  0.0000E+00  0.0000E+00  0.0000E+00
    -21.905  0.0000E+00  0.0000E+00  0.0000E+00
    -21.802  0.0000E+00  0.0000E+00  0.0000E+00
    -21.699  0.0000E+00  0.0000E+00  0.0000E+00
    -21.596  0.0000E+00  0.0000E+00  0.0000E+00
    -21.493  0.0000E+00  0.0000E+00  0.0000E+00
    -21.390  0.0000E+00  0.0000E+00  0.0000E+00
    -21.288  0.0000E+00  0.0000E+00  0.0000E+00
    -21.185  0.0000E+00  0.0000E+00  0.0000E+00
    -21.082  0.1571E+02  0.1026E-02  0.4887E-04
    -20.979  0.0000E+00  0.0000E+00  0.0000E+00
    -20.876  0.0000E+00  0.0000E+00  0.0000E+00
    -20.773  0.1108E-03  0.1449E-06  0.2130E-07
    -20.671  0.1374E-12  0.3633E-15  0.5758E-16
    -20.568  0.2276E-05  0.6303E-08  0.1037E-08
    -20.465  0.1215E-06  0.7703E-09  0.9157E-10
    -20.362  0.0000E+00  0.0000E+00  0.0000E+00
    -20.259  0.0000E+00  0.0000E+00  0.0000E+00
    -20.156  0.0000E+00  0.0000E+00  0.0000E+00
    -20.054  0.0000E+00  0.0000E+00  0.0000E+00
    -19.951  0.0000E+00  0.0000E+00  0.0000E+00
    -19.848  0.0000E+00  0.0000E+00  0.0000E+00
    -19.745  0.0000E+00  0.0000E+00  0.0000E+00
    -19.642  0.0000E+00  0.0000E+00  0.0000E+00
    -19.539  0.0000E+00  0.0000E+00  0.0000E+00
    -19.437  0.0000E+00  0.0000E+00  0.0000E+00
    -19.334  0.0000E+00  0.0000E+00  0.0000E+00
    -19.231  0.0000E+00  0.0000E+00  0.0000E+00
    -19.128  0.0000E+00  0.0000E+00  0.0000E+00
    -19.025  0.0000E+00  0.0000E+00  0.0000E+00
    -18.922  0.0000E+00  0.0000E+00  0.0000E+00
    -18.819  0.0000E+00  0.0000E+00  0.0000E+00
    -18.717  0.0000E+00  0.0000E+00  0.0000E+00
    -18.614  0.0000E+00  0.0000E+00  0.0000E+00
    -18.511  0.0000E+00  0.0000E+00  0.0000E+00
    -18.408  0.0000E+00  0.0000E+00  0.0000E+00
    -18.305  0.0000E+00  0.0000E+00  0.0000E+00
    -18.202  0.0000E+00  0.0000E+00  0.0000E+00
    -18.100  0.0000E+00  0.0000E+00  0.0000E+00
    -17.997  0.0000E+00  0.0000E+00  0.0000E+00
    -17.894  0.0000E+00  0.0000E+00  0.0000E+00
    -17.791  0.0000E+00  0.0000E+00  0.0000E+00
    -17.688  0.0000E+00  0.0000E+00  0.0000E+00
    -17.585  0.0000E+00  0.0000E+00  0.0000E+00
    -17.483  0.0000E+00  0.0000E+00  0.0000E+00
    -17.380  0.0000E+00  0.0000E+00  0.0000E+00
    -17.277  0.0000E+00  0.0000E+00  0.0000E+00
    -17.174  0.3054E-10  0.3554E-10  0.9953E-11
    -17.071  0.2695E-03  0.1466E-03  0.2833E-04
    -16.968  0.2304E-04  0.1172E-04  0.2016E-05
    -16.866  0.5831E-06  0.2270E-06  0.1621E-07
    -16.763  0.4008E-05  0.2977E-05  0.4596E-06
    -16.660  0.4577E-06  0.3118E-06  0.4669E-07
    -16.557  0.5204E-03  0.4365E-03  0.8555E-04
    -16.454  0.4783E-04  0.6432E-04  0.1715E-04
    -16.351  0.2811E-04  0.2554E-04  0.3323E-05
    -16.249  0.1112E-04  0.7927E-05  0.8851E-06
    -16.146  0.0000E+00  0.0000E+00  0.0000E+00
    -16.043  0.0000E+00  0.0000E+00  0.0000E+00
    -15.940  0.0000E+00  0.0000E+00  0.0000E+00
    -15.837  0.0000E+00  0.0000E+00  0.0000E+00
    -15.734  0.0000E+00  0.0000E+00  0.0000E+00
    -15.632  0.0000E+00  0.0000E+00  0.0000E+00
    -15.529  0.0000E+00  0.0000E+00  0.0000E+00
    -15.426  0.0000E+00  0.0000E+00  0.0000E+00
    -15.323  0.0000E+00  0.0000E+00  0.0000E+00
    -15.220  0.0000E+00  0.0000E+00  0.0000E+00
    -15.117  0.0000E+00  0.0000E+00  0.0000E+00
    -15.015  0.0000E+00  0.0000E+00  0.0000E+00
    -14.912  0.0000E+00  0.0000E+00  0.0000E+00
    -14.809  0.0000E+00  0.0000E+00  0.0000E+00
    -14.706  0.0000E+00  0.0000E+00  0.0000E+00
    -14.603  0.0000E+00  0.0000E+00  0.0000E+00
    -14.500  0.0000E+00  0.0000E+00  0.0000E+00
    -14.397  0.2340E-03  0.1281E-03  0.5732E-05
    -14.295  0.4942E-02  0.8822E-02  0.4229E-03
    -14.192  0.1194E-02  0.3372E-02  0.1168E-03
    -14.089  0.5134E-03  0.3588E-02  0.4631E-03
    -13.986  0.1358E-02  0.2028E-02  0.9212E-04
    -13.883  0.5852E-03  0.2533E-02  0.1540E-03
    -13.780  0.5525E-03  0.3197E-02  0.2590E-03
    -13.678  0.5968E-03  0.1177E-02  0.8905E-04
    -13.575  0.1314E-02  0.5248E-02  0.5565E-03
    -13.472  0.3790E-04  0.3925E-03  0.2311E-04
    -13.369  0.3684E-03  0.1066E-02  0.5041E-04