CsPbBr3 cubic bulk                      
           1
     8.420018    0.000000    8.077981
     0.000000   11.763808    0.000000
    -8.420018    0.000000    8.077981
   Cs   Pb   Br
   8   8  24
Direct configuration=     1
   0.27212500  0.25000000  0.20823600
   0.75879027  0.23136494  0.62346112
   0.78420948  0.78280960  0.27043064
   0.33008262  0.80007520  0.68088919
   0.27906820  0.27641963  0.68162152
   0.75260963  0.34302588  0.13669400
   0.83177375  0.73127691  0.73113681
   0.24591003  0.73027564  0.17239550
   0.04227223  0.03226182  0.96250525
   0.56313979  0.03618656  0.45412776
   0.56179010  0.04135151  0.96551258
   0.02191600  0.07506851  0.45499171
   0.52742964  0.55912885  0.93221119
   0.00505326  0.52790774  0.35121000
   0.00950156  0.53384595  0.86103123
   0.50810331  0.53319042  0.42926600
   0.63207835  0.79445820  0.93729148
   0.04837270  0.77451767  0.41787987
   0.07997673  0.29439323  0.97387187
   0.48559058  0.27729121  0.44814425
   0.08782199  0.79933667  0.87691090
   0.53147840  0.78107121  0.45325553
   0.47754471  0.30932565  0.95114602
   0.97329746  0.28295106  0.29913687
   0.27139392  0.56634152  0.90592318
   0.76277821  0.49496655  0.39413327
   0.51606323  0.58916939  0.18321760
   0.01002777  0.46530116  0.59388600
   0.49414859  0.06070456  0.70407119
   0.98721444  0.00356975  0.18883110
   0.79142696  0.14374182  0.91497619
   0.30917985  0.01007812  0.43467681
   0.30008129  0.97586922  0.05197859
   0.80870036  0.94791851  0.53268302
   0.63924261  0.03236392  0.21090489
   0.04549498  0.09280105  0.70117282
   0.76445888  0.45934720  0.86540831
   0.26328940  0.48127323  0.40175295
   0.54392978  0.56575932  0.68253909
   0.95636914  0.57374467  0.10042714
