  40  40   1   0
  0.4040437E+02  0.1173535E-08  0.1173535E-08  0.1173535E-08  0.5000000E-15
   1.0000000000000000E-004
  CAR 
 CsPbBr3 cubic bulk                      
      8.15363081    -22.40851603  301      0.94605785      1.00000000
    -22.409  0.0000E+00  0.0000E+00
    -22.307  0.0000E+00  0.0000E+00
    -22.205  0.0000E+00  0.0000E+00
    -22.103  0.0000E+00  0.0000E+00
    -22.001  0.0000E+00  0.0000E+00
    -21.899  0.0000E+00  0.0000E+00
    -21.797  0.0000E+00  0.0000E+00
    -21.695  0.0000E+00  0.0000E+00
    -21.594  0.0000E+00  0.0000E+00
    -21.492  0.0000E+00  0.0000E+00
    -21.390  0.0000E+00  0.0000E+00
    -21.288  0.0000E+00  0.0000E+00
    -21.186  0.0000E+00  0.0000E+00
    -21.084  0.0000E+00  0.0000E+00
    -20.982  0.1571E+03  0.1600E+02
    -20.880  0.0000E+00  0.1600E+02
    -20.779  0.0000E+00  0.1600E+02
    -20.677  0.0000E+00  0.1600E+02
    -20.575  0.0000E+00  0.1600E+02
    -20.473  0.0000E+00  0.1600E+02
    -20.371  0.0000E+00  0.1600E+02
    -20.269  0.0000E+00  0.1600E+02
    -20.167  0.0000E+00  0.1600E+02
    -20.065  0.0000E+00  0.1600E+02
    -19.964  0.0000E+00  0.1600E+02
    -19.862  0.0000E+00  0.1600E+02
    -19.760  0.0000E+00  0.1600E+02
    -19.658  0.0000E+00  0.1600E+02
    -19.556  0.0000E+00  0.1600E+02
    -19.454  0.0000E+00  0.1600E+02
    -19.352  0.0000E+00  0.1600E+02
    -19.250  0.0000E+00  0.1600E+02
    -19.149  0.0000E+00  0.1600E+02
    -19.047  0.0000E+00  0.1600E+02
    -18.945  0.0000E+00  0.1600E+02
    -18.843  0.0000E+00  0.1600E+02
    -18.741  0.0000E+00  0.1600E+02
    -18.639  0.0000E+00  0.1600E+02
    -18.537  0.0000E+00  0.1600E+02
    -18.435  0.0000E+00  0.1600E+02
    -18.334  0.0000E+00  0.1600E+02
    -18.232  0.0000E+00  0.1600E+02
    -18.130  0.0000E+00  0.1600E+02
    -18.028  0.0000E+00  0.1600E+02
    -17.926  0.0000E+00  0.1600E+02
    -17.824  0.0000E+00  0.1600E+02
    -17.722  0.0000E+00  0.1600E+02
    -17.620  0.0000E+00  0.1600E+02
    -17.519  0.0000E+00  0.1600E+02
    -17.417  0.0000E+00  0.1600E+02
    -17.315  0.0000E+00  0.1600E+02
    -17.213  0.0000E+00  0.1600E+02
    -17.111  0.0000E+00  0.1600E+02
    -17.009  0.0000E+00  0.1600E+02
    -16.907  0.0000E+00  0.1600E+02
    -16.805  0.0000E+00  0.1600E+02
    -16.704  0.0000E+00  0.1600E+02
    -16.602  0.0000E+00  0.1600E+02
    -16.500  0.0000E+00  0.1600E+02
    -16.398  0.4087E-15  0.1600E+02
    -16.296  0.9490E+02  0.2567E+02
    -16.194  0.1472E+03  0.4799E+02
    -16.092  0.4712E+03  0.9600E+02
    -15.990  0.0000E+00  0.9600E+02
    -15.889  0.0000E+00  0.9600E+02
    -15.787  0.0000E+00  0.9600E+02
    -15.685  0.0000E+00  0.9600E+02
    -15.583  0.0000E+00  0.9600E+02
    -15.481  0.0000E+00  0.9600E+02
    -15.379  0.0000E+00  0.9600E+02
    -15.277  0.0000E+00  0.9600E+02
    -15.175  0.0000E+00  0.9600E+02
    -15.074  0.0000E+00  0.9600E+02
    -14.972  0.0000E+00  0.9600E+02
    -14.870  0.0000E+00  0.9600E+02
    -14.768  0.0000E+00  0.9600E+02
    -14.666  0.0000E+00  0.9600E+02
    -14.564  0.0000E+00  0.9600E+02
    -14.462  0.0000E+00  0.9600E+02
    -14.360  0.2450E+01  0.9625E+02
    -14.259  0.2147E+02  0.9844E+02
    -14.157  0.2467E+02  0.1033E+03
    -14.055  0.5853E+02  0.1095E+03
    -13.953  0.1230E+03  0.1220E+03
    -13.851  0.5058E+01  0.1238E+03
    -13.749  0.8803E+02  0.1367E+03
    -13.647  0.4177E+02  0.1435E+03
    -13.545  0.0000E+00  0.1440E+03
    -13.444  0.0000E+00  0.1440E+03
    -13.342  0.0000E+00  0.1440E+03
    -13.240  0.0000E+00  0.1440E+03
    -13.138  0.0000E+00  0.1440E+03
    -13.036  0.0000E+00  0.1440E+03
    -12.934  0.0000E+00  0.1440E+03
    -12.832  0.0000E+00  0.1440E+03
    -12.731  0.0000E+00  0.1440E+03
    -12.629  0.0000E+00  0.1440E+03
    -12.527  0.0000E+00  0.1440E+03
    -12.425  0.0000E+00  0.1440E+03
    -12.323  0.0000E+00  0.1440E+03
    -12.221  0.0000E+00  0.1440E+03
    -12.119  0.0000E+00  0.1440E+03
    -12.017  0.0000E+00  0.1440E+03
    -11.916  0.0000E+00  0.1440E+03
    -11.814  0.0000E+00  0.1440E+03
    -11.712  0.0000E+00  0.1440E+03
    -11.610  0.0000E+00  0.1440E+03
    -11.508  0.0000E+00  0.1440E+03
    -11.406  0.0000E+00  0.1440E+03
    -11.304  0.0000E+00  0.1440E+03
    -11.202  0.0000E+00  0.1440E+03
    -11.101  0.0000E+00  0.1440E+03
    -10.999  0.0000E+00  0.1440E+03
    -10.897  0.0000E+00  0.1440E+03
    -10.795  0.0000E+00  0.1440E+03
    -10.693  0.0000E+00  0.1440E+03
    -10.591  0.0000E+00  0.1440E+03
    -10.489  0.0000E+00  0.1440E+03
    -10.387  0.0000E+00  0.1440E+03
    -10.286  0.0000E+00  0.1440E+03
    -10.184  0.0000E+00  0.1440E+03
    -10.082  0.0000E+00  0.1440E+03
     -9.980  0.0000E+00  0.1440E+03
     -9.878  0.0000E+00  0.1440E+03
     -9.776  0.0000E+00  0.1440E+03
     -9.674  0.0000E+00  0.1440E+03
     -9.572  0.0000E+00  0.1440E+03
     -9.471  0.0000E+00  0.1440E+03
     -9.369  0.0000E+00  0.1440E+03
     -9.267  0.0000E+00  0.1440E+03
     -9.165  0.0000E+00  0.1440E+03
     -9.063  0.0000E+00  0.1440E+03
     -8.961  0.0000E+00  0.1440E+03
     -8.859  0.0000E+00  0.1440E+03
     -8.757  0.0000E+00  0.1440E+03
     -8.656  0.0000E+00  0.1440E+03
     -8.554  0.0000E+00  0.1440E+03
     -8.452  0.0000E+00  0.1440E+03
     -8.350  0.0000E+00  0.1440E+03
     -8.248  0.4186E+00  0.1440E+03
     -8.146  0.0000E+00  0.1442E+03
     -8.044  0.0000E+00  0.1442E+03
     -7.942  0.1463E+02  0.1457E+03
     -7.841  0.0000E+00  0.1458E+03
     -7.739  0.6884E+00  0.1458E+03
     -7.637  0.2454E+02  0.1493E+03
     -7.535  0.2454E+01  0.1495E+03
     -7.433  0.2004E+02  0.1515E+03
     -7.331  0.4606E+03  0.2009E+03
     -7.229  0.0000E+00  0.2025E+03
     -7.127  0.4810E-02  0.2025E+03
     -7.026  0.3190E+02  0.2057E+03
     -6.924  0.4908E+01  0.2062E+03
     -6.822  0.0000E+00  0.2062E+03
     -6.720  0.4906E+01  0.2067E+03
     -6.618  0.9816E+01  0.2078E+03
     -6.516  0.0000E+00  0.2078E+03
     -6.414  0.0000E+00  0.2078E+03
     -6.312  0.1558E-06  0.2078E+03
     -6.211  0.2454E+01  0.2080E+03
     -6.109  0.0000E+00  0.2080E+03
     -6.007  0.0000E+00  0.2080E+03
     -5.905  0.0000E+00  0.2080E+03
     -5.803  0.0000E+00  0.2080E+03
     -5.701  0.0000E+00  0.2080E+03
     -5.599  0.0000E+00  0.2080E+03
     -5.497  0.0000E+00  0.2080E+03
     -5.396  0.0000E+00  0.2080E+03
     -5.294  0.0000E+00  0.2080E+03
     -5.192  0.0000E+00  0.2080E+03
     -5.090  0.0000E+00  0.2080E+03
     -4.988  0.0000E+00  0.2080E+03
     -4.886  0.0000E+00  0.2080E+03
     -4.784  0.0000E+00  0.2080E+03
     -4.682  0.0000E+00  0.2080E+03
     -4.581  0.0000E+00  0.2080E+03
     -4.479  0.0000E+00  0.2080E+03
     -4.377  0.0000E+00  0.2080E+03
     -4.275  0.0000E+00  0.2080E+03
     -4.173  0.0000E+00  0.2080E+03
     -4.071  0.0000E+00  0.2080E+03
     -3.969  0.0000E+00  0.2080E+03
     -3.867  0.0000E+00  0.2080E+03
     -3.766  0.0000E+00  0.2080E+03
     -3.664  0.0000E+00  0.2080E+03
     -3.562  0.0000E+00  0.2080E+03
     -3.460  0.4293E-01  0.2080E+03
     -3.358  0.1935E+02  0.2102E+03
     -3.256  0.5082E+02  0.2164E+03
     -3.154  0.2209E+02  0.2195E+03
     -3.052  0.4908E+01  0.2200E+03
     -2.951  0.0000E+00  0.2200E+03
     -2.849  0.0000E+00  0.2200E+03
     -2.747  0.0000E+00  0.2200E+03
     -2.645  0.1720E+02  0.2218E+03
     -2.543  0.3920E+02  0.2270E+03
     -2.441  0.4551E+02  0.2316E+03
     -2.339  0.4512E-06  0.2345E+03
     -2.237  0.6330E+02  0.2409E+03
     -2.136  0.2479E+02  0.2445E+03
     -2.034  0.1284E+02  0.2461E+03
     -1.932  0.4594E+02  0.2529E+03
     -1.830  0.1548E+02  0.2551E+03
     -1.728  0.3926E+02  0.2597E+03
     -1.626  0.1957E+02  0.2617E+03
     -1.524  0.1144E+03  0.2734E+03
     -1.423  0.3918E+02  0.2777E+03
     -1.321  0.1107E+03  0.2895E+03
     -1.219  0.1300E+03  0.3055E+03
     -1.117  0.8715E+02  0.3144E+03
     -1.015  0.1223E+03  0.3292E+03
     -0.913  0.3118E+02  0.3349E+03
     -0.811  0.4548E+02  0.3404E+03
     -0.709  0.9816E+01  0.3428E+03
     -0.608  0.1101E-06  0.3428E+03
     -0.506  0.4908E+01  0.3432E+03
     -0.404  0.4012E+01  0.3437E+03
     -0.302  0.1083E-01  0.3455E+03
     -0.200  0.1963E+02  0.3485E+03
     -0.098  0.9816E+01  0.3495E+03
      0.004  0.0000E+00  0.3495E+03
      0.106  0.1732E-06  0.3495E+03
      0.207  0.7272E+01  0.3502E+03
      0.309  0.4838E+01  0.3507E+03
      0.411  0.9816E+01  0.3518E+03
      0.513  0.0000E+00  0.3518E+03
      0.615  0.0000E+00  0.3518E+03
      0.717  0.0000E+00  0.3518E+03
      0.819  0.1273E-11  0.3518E+03
      0.921  0.2454E+01  0.3520E+03
      1.022  0.0000E+00  0.3520E+03
      1.124  0.0000E+00  0.3520E+03
      1.226  0.0000E+00  0.3520E+03
      1.328  0.0000E+00  0.3520E+03
      1.430  0.0000E+00  0.3520E+03
      1.532  0.0000E+00  0.3520E+03
      1.634  0.0000E+00  0.3520E+03
      1.736  0.0000E+00  0.3520E+03
      1.837  0.0000E+00  0.3520E+03
      1.939  0.0000E+00  0.3520E+03
      2.041  0.0000E+00  0.3520E+03
      2.143  0.0000E+00  0.3520E+03
      2.245  0.0000E+00  0.3520E+03
      2.347  0.0000E+00  0.3520E+03
      2.449  0.0000E+00  0.3520E+03
      2.551  0.0000E+00  0.3520E+03
      2.652  0.0000E+00  0.3520E+03
      2.754  0.0000E+00  0.3520E+03
      2.856  0.7362E+01  0.3527E+03
      2.958  0.0000E+00  0.3528E+03
      3.060  0.6657E+01  0.3534E+03
      3.162  0.9816E+01  0.3558E+03
      3.264  0.9295E-05  0.3558E+03
      3.366  0.4410E+02  0.3602E+03
      3.467  0.4523E-13  0.3602E+03
      3.569  0.2945E+02  0.3632E+03
      3.671  0.0000E+00  0.3632E+03
      3.773  0.7358E+01  0.3640E+03
      3.875  0.0000E+00  0.3640E+03
      3.977  0.0000E+00  0.3640E+03
      4.079  0.0000E+00  0.3640E+03
      4.181  0.0000E+00  0.3640E+03
      4.282  0.0000E+00  0.3640E+03
      4.384  0.0000E+00  0.3640E+03
      4.486  0.6796E+01  0.3647E+03
      4.588  0.9734E-02  0.3650E+03
      4.690  0.3285E+02  0.3686E+03
      4.792  0.9969E+01  0.3698E+03
      4.894  0.3739E+02  0.3756E+03
      4.996  0.2700E+02  0.3785E+03
      5.097  0.3958E+02  0.3838E+03
      5.199  0.2249E+02  0.3875E+03
      5.301  0.0000E+00  0.3882E+03
      5.403  0.0000E+00  0.3882E+03
      5.505  0.9816E+01  0.3892E+03
      5.607  0.7362E+01  0.3900E+03
      5.709  0.5803E-06  0.3900E+03
      5.811  0.2734E+02  0.3928E+03
      5.912  0.3730E+01  0.3936E+03
      6.014  0.1470E+02  0.3957E+03
      6.116  0.2841E+02  0.3986E+03
      6.218  0.4944E+02  0.4038E+03
      6.320  0.2716E+02  0.4068E+03
      6.422  0.3915E+02  0.4130E+03
      6.524  0.3315E+02  0.4189E+03
      6.626  0.5398E+02  0.4267E+03
      6.727  0.3935E+02  0.4308E+03
      6.829  0.7362E+01  0.4320E+03
      6.931  0.0000E+00  0.4320E+03
      7.033  0.0000E+00  0.4320E+03
      7.135  0.0000E+00  0.4320E+03
      7.237  0.0000E+00  0.4320E+03
      7.339  0.0000E+00  0.4320E+03
      7.441  0.0000E+00  0.4320E+03
      7.542  0.0000E+00  0.4320E+03
      7.644  0.0000E+00  0.4320E+03
      7.746  0.0000E+00  0.4320E+03
      7.848  0.0000E+00  0.4320E+03
      7.950  0.0000E+00  0.4320E+03
      8.052  0.0000E+00  0.4320E+03
      8.154  0.0000E+00  0.4320E+03
      8.15363081    -22.40851603  301      0.94605785      1.00000000
    -22.409  0.0000E+00  0.0000E+00  0.0000E+00
    -22.307  0.0000E+00  0.0000E+00  0.0000E+00
    -22.205  0.0000E+00  0.0000E+00  0.0000E+00
    -22.103  0.0000E+00  0.0000E+00  0.0000E+00
    -22.001  0.0000E+00  0.0000E+00  0.0000E+00
    -21.899  0.0000E+00  0.0000E+00  0.0000E+00
    -21.797  0.0000E+00  0.0000E+00  0.0000E+00
    -21.695  0.0000E+00  0.0000E+00  0.0000E+00
    -21.594  0.0000E+00  0.0000E+00  0.0000E+00
    -21.492  0.0000E+00  0.0000E+00  0.0000E+00
    -21.390  0.0000E+00  0.0000E+00  0.0000E+00
    -21.288  0.0000E+00  0.0000E+00  0.0000E+00
    -21.186  0.0000E+00  0.0000E+00  0.0000E+00
    -21.084  0.0000E+00  0.0000E+00  0.0000E+00
    -20.982  0.1742E+02  0.8602E-07  0.6623E-05
    -20.880  0.0000E+00  0.0000E+00  0.0000E+00
    -20.779  0.0000E+00  0.0000E+00  0.0000E+00
    -20.677  0.0000E+00  0.0000E+00  0.0000E+00
    -20.575  0.0000E+00  0.0000E+00  0.0000E+00
    -20.473  0.0000E+00  0.0000E+00  0.0000E+00
    -20.371  0.0000E+00  0.0000E+00  0.0000E+00
    -20.269  0.0000E+00  0.0000E+00  0.0000E+00
    -20.167  0.0000E+00  0.0000E+00  0.0000E+00
    -20.065  0.0000E+00  0.0000E+00  0.0000E+00
    -19.964  0.0000E+00  0.0000E+00  0.0000E+00
    -19.862  0.0000E+00  0.0000E+00  0.0000E+00
    -19.760  0.0000E+00  0.0000E+00  0.0000E+00
    -19.658  0.0000E+00  0.0000E+00  0.0000E+00
    -19.556  0.0000E+00  0.0000E+00  0.0000E+00
    -19.454  0.0000E+00  0.0000E+00  0.0000E+00
    -19.352  0.0000E+00  0.0000E+00  0.0000E+00
    -19.250  0.0000E+00  0.0000E+00  0.0000E+00
    -19.149  0.0000E+00  0.0000E+00  0.0000E+00
    -19.047  0.0000E+00  0.0000E+00  0.0000E+00
    -18.945  0.0000E+00  0.0000E+00  0.0000E+00
    -18.843  0.0000E+00  0.0000E+00  0.0000E+00
    -18.741  0.0000E+00  0.0000E+00  0.0000E+00
    -18.639  0.0000E+00  0.0000E+00  0.0000E+00
    -18.537  0.0000E+00  0.0000E+00  0.0000E+00
    -18.435  0.0000E+00  0.0000E+00  0.0000E+00
    -18.334  0.0000E+00  0.0000E+00  0.0000E+00
    -18.232  0.0000E+00  0.0000E+00  0.0000E+00
    -18.130  0.0000E+00  0.0000E+00  0.0000E+00
    -18.028  0.0000E+00  0.0000E+00  0.0000E+00
    -17.926  0.0000E+00  0.0000E+00  0.0000E+00
    -17.824  0.0000E+00  0.0000E+00  0.0000E+00
    -17.722  0.0000E+00  0.0000E+00  0.0000E+00
    -17.620  0.0000E+00  0.0000E+00  0.0000E+00
    -17.519  0.0000E+00  0.0000E+00  0.0000E+00
    -17.417  0.0000E+00  0.0000E+00  0.0000E+00
    -17.315  0.0000E+00  0.0000E+00  0.0000E+00
    -17.213  0.0000E+00  0.0000E+00  0.0000E+00
    -17.111  0.0000E+00  0.0000E+00  0.0000E+00
    -17.009  0.0000E+00  0.0000E+00  0.0000E+00
    -16.907  0.0000E+00  0.0000E+00  0.0000E+00
    -16.805  0.0000E+00  0.0000E+00  0.0000E+00
    -16.704  0.0000E+00  0.0000E+00  0.0000E+00
    -16.602  0.0000E+00  0.0000E+00  0.0000E+00
    -16.500  0.0000E+00  0.0000E+00  0.0000E+00
    -16.398  0.2239E-23  0.3682E-35  0.4177E-22
    -16.296  0.1796E-04  0.1039E-04  0.3888E-05
    -16.194  0.1058E-04  0.4491E-04  0.5016E-05
    -16.092  0.2806E-04  0.2045E-04  0.2085E-05
    -15.990  0.0000E+00  0.0000E+00  0.0000E+00
    -15.889  0.0000E+00  0.0000E+00  0.0000E+00
    -15.787  0.0000E+00  0.0000E+00  0.0000E+00
    -15.685  0.0000E+00  0.0000E+00  0.0000E+00
    -15.583  0.0000E+00  0.0000E+00  0.0000E+00
    -15.481  0.0000E+00  0.0000E+00  0.0000E+00
    -15.379  0.0000E+00  0.0000E+00  0.0000E+00
    -15.277  0.0000E+00  0.0000E+00  0.0000E+00
    -15.175  0.0000E+00  0.0000E+00  0.0000E+00
    -15.074  0.0000E+00  0.0000E+00  0.0000E+00
    -14.972  0.0000E+00  0.0000E+00  0.0000E+00
    -14.870  0.0000E+00  0.0000E+00  0.0000E+00
    -14.768  0.0000E+00  0.0000E+00  0.0000E+00
    -14.666  0.0000E+00  0.0000E+00  0.0000E+00
    -14.564  0.0000E+00  0.0000E+00  0.0000E+00
    -14.462  0.0000E+00  0.0000E+00  0.0000E+00
    -14.360  0.2667E-03  0.2682E-14  0.7968E-06
    -14.259  0.1445E-02  0.5136E-03  0.7662E-05
    -14.157  0.5483E-03  0.1178E-02  0.2789E-04
    -14.055  0.1431E-07  0.4004E-02  0.1268E-03
    -13.953  0.9387E-03  0.2211E-02  0.1794E-03
    -13.851  0.3958E-06  0.4194E-05  0.3436E-04
    -13.749  0.5940E-03  0.1528E-02  0.2710E-03
    -13.647  0.3238E-03  0.3484E-03  0.3748E-04
    -13.545  0.0000E+00  0.0000E+00  0.0000E+00
    -13.444  0.0000E+00  0.0000E+00  0.0000E+00
    -13.342  0.0000E+00  0.0000E+00  0.0000E+00
    -13.240  0.0000E+00  0.0000E+00  0.0000E+00
    -13.138  0.0000E+00  0.0000E+00  0.0000E+00
    -13.036  0.0000E+00  0.0000E+00  0.0000E+00
    -12.934  0.0000E+00  0.0000E+00  0.0000E+00
    -12.832  0.0000E+00  0.0000E+00  0.0000E+00
    -12.731  0.0000E+00  0.0000E+00  0.0000E+00
    -12.629  0.0000E+00  0.0000E+00  0.0000E+00
    -12.527  0.0000E+00  0.0000E+00  0.0000E+00
    -12.425  0.0000E+00  0.0000E+00  0.0000E+00
    -12.323  0.0000E+00  0.0000E+00  0.0000E+00
    -12.221  0.0000E+00  0.0000E+00  0.0000E+00
    -12.119  0.0000E+00  0.0000E+00  0.0000E+00
    -12.017  0.0000E+00  0.0000E+00  0.0000E+00
    -11.916  0.0000E+00  0.0000E+00  0.0000E+00
    -11.814  0.0000E+00  0.0000E+00  0.0000E+00
    -11.712  0.0000E+00  0.0000E+00  0.0000E+00
    -11.610  0.0000E+00  0.0000E+00  0.0000E+00
    -11.508  0.0000E+00  0.0000E+00  0.0000E+00
    -11.406  0.0000E+00  0.0000E+00  0.0000E+00
    -11.304  0.0000E+00  0.0000E+00  0.0000E+00
    -11.202  0.0000E+00  0.0000E+00  0.0000E+00
    -11.101  0.0000E+00  0.0000E+00  0.0000E+00
    -10.999  0.0000E+00  0.0000E+00  0.0000E+00
    -10.897  0.0000E+00  0.0000E+00  0.0000E+00
    -10.795  0.0000E+00  0.0000E+00  0.0000E+00
    -10.693  0.0000E+00  0.0000E+00  0.0000E+00
    -10.591  0.0000E+00  0.0000E+00  0.0000E+00
    -10.489  0.0000E+00  0.0000E+00  0.0000E+00
    -10.387  0.0000E+00  0.0000E+00  0.0000E+00
    -10.286  0.0000E+00  0.0000E+00  0.0000E+00
    -10.184  0.0000E+00  0.0000E+00  0.0000E+00
    -10.082  0.0000E+00  0.0000E+00  0.0000E+00
     -9.980  0.0000E+00  0.0000E+00  0.0000E+00
     -9.878  0.0000E+00  0.0000E+00  0.0000E+00
     -9.776  0.0000E+00  0.0000E+00  0.0000E+00
     -9.674  0.0000E+00  0.0000E+00  0.0000E+00
     -9.572  0.0000E+00  0.0000E+00  0.0000E+00
     -9.471  0.0000E+00  0.0000E+00  0.0000E+00
     -9.369  0.0000E+00  0.0000E+00  0.0000E+00
     -9.267  0.0000E+00  0.0000E+00  0.0000E+00
     -9.165  0.0000E+00  0.0000E+00  0.0000E+00
     -9.063  0.0000E+00  0.0000E+00  0.0000E+00
     -8.961  0.0000E+00  0.0000E+00  0.0000E+00
     -8.859  0.0000E+00  0.0000E+00  0.0000E+00
     -8.757  0.0000E+00  0.0000E+00  0.0000E+00
     -8.656  0.0000E+00  0.0000E+00  0.0000E+00
     -8.554  0.0000E+00  0.0000E+00  0.0000E+00
     -8.452  0.0000E+00  0.0000E+00  0.0000E+00
     -8.350  0.0000E+00  0.0000E+00  0.0000E+00
     -8.248  0.1815E-20  0.1925E-19  0.7285E-20
     -8.146  0.0000E+00  0.0000E+00  0.0000E+00
     -8.044  0.0000E+00  0.0000E+00  0.0000E+00
     -7.942  0.1322E-20  0.2574E-17  0.1882E-05
     -7.841  0.0000E+00  0.0000E+00  0.0000E+00
     -7.739  0.4646E-20  0.2230E-03  0.6015E-06
     -7.637  0.6750E-20  0.1805E-01  0.1362E-04
     -7.535  0.3538E-20  0.1270E-17  0.2036E-05
     -7.433  0.1319E-04  0.3656E+00  0.1486E-04
     -7.331  0.2154E-04  0.4275E+02  0.4438E-04
     -7.229  0.0000E+00  0.0000E+00  0.0000E+00
     -7.127  0.5601E-08  0.4418E-05  0.8533E-08
     -7.026  0.3589E-04  0.3067E-01  0.4231E-04
     -6.924  0.9512E-20  0.8866E-02  0.3232E-19
     -6.822  0.0000E+00  0.0000E+00  0.0000E+00
     -6.720  0.1121E-04  0.3328E-05  0.1956E-05
     -6.618  0.1727E-04  0.5888E-02  0.2174E-05
     -6.516  0.0000E+00  0.0000E+00  0.0000E+00
     -6.414  0.0000E+00  0.0000E+00  0.0000E+00
     -6.312  0.4647E-12  0.8860E-25  0.1267E-12
     -6.211  0.7322E-05  0.1396E-17  0.1996E-05
     -6.109  0.0000E+00  0.0000E+00  0.0000E+00
     -6.007  0.0000E+00  0.0000E+00  0.0000E+00
     -5.905  0.0000E+00  0.0000E+00  0.0000E+00
     -5.803  0.0000E+00  0.0000E+00  0.0000E+00
     -5.701  0.0000E+00  0.0000E+00  0.0000E+00
     -5.599  0.0000E+00  0.0000E+00  0.0000E+00
     -5.497  0.0000E+00  0.0000E+00  0.0000E+00
     -5.396  0.0000E+00  0.0000E+00  0.0000E+00
     -5.294  0.0000E+00  0.0000E+00  0.0000E+00
     -5.192  0.0000E+00  0.0000E+00  0.0000E+00
     -5.090  0.0000E+00  0.0000E+00  0.0000E+00
     -4.988  0.0000E+00  0.0000E+00  0.0000E+00
     -4.886  0.0000E+00  0.0000E+00  0.0000E+00
     -4.784  0.0000E+00  0.0000E+00  0.0000E+00
     -4.682  0.0000E+00  0.0000E+00  0.0000E+00
     -4.581  0.0000E+00  0.0000E+00  0.0000E+00
     -4.479  0.0000E+00  0.0000E+00  0.0000E+00
     -4.377  0.0000E+00  0.0000E+00  0.0000E+00
     -4.275  0.0000E+00  0.0000E+00  0.0000E+00
     -4.173  0.0000E+00  0.0000E+00  0.0000E+00
     -4.071  0.0000E+00  0.0000E+00  0.0000E+00
     -3.969  0.0000E+00  0.0000E+00  0.0000E+00
     -3.867  0.0000E+00  0.0000E+00  0.0000E+00
     -3.766  0.0000E+00  0.0000E+00  0.0000E+00
     -3.664  0.0000E+00  0.0000E+00  0.0000E+00
     -3.562  0.0000E+00  0.0000E+00  0.0000E+00
     -3.460  0.7352E-23  0.4036E-04  0.3597E-18
     -3.358  0.3508E-18  0.9297E-02  0.3743E-03
     -3.256  0.7975E-17  0.9582E-02  0.1508E-02
     -3.154  0.1346E-18  0.3481E-17  0.5532E-03
     -3.052  0.1066E-18  0.8153E-18  0.7563E-18
     -2.951  0.0000E+00  0.0000E+00  0.0000E+00
     -2.849  0.0000E+00  0.0000E+00  0.0000E+00
     -2.747  0.0000E+00  0.0000E+00  0.0000E+00
     -2.645  0.9938E-04  0.1067E-01  0.1794E-03
     -2.543  0.8162E-04  0.1836E-01  0.7054E-03
     -2.441  0.5503E-03  0.1611E-01  0.1664E-02
     -2.339  0.3401E-17  0.1349E-16  0.1861E-11
     -2.237  0.4171E-02  0.2467E-01  0.3550E-02
     -2.136  0.6659E-02  0.7911E-03  0.2917E-02
     -2.034  0.1296E-02  0.1002E-01  0.8092E-03
     -1.932  0.1552E-01  0.3738E-01  0.2255E-02
     -1.830  0.1237E-02  0.3604E-01  0.1141E-02
     -1.728  0.1223E-02  0.7907E-01  0.3014E-02
     -1.626  0.6098E-03  0.2549E-01  0.2702E-02
     -1.524  0.3930E-02  0.1294E+00  0.1276E-01
     -1.423  0.1010E-06  0.1510E-01  0.5910E-02
     -1.321  0.8365E-03  0.1912E-01  0.1993E-01
     -1.219  0.7180E-03  0.5859E-01  0.1580E-01
     -1.117  0.6541E-02  0.4120E-01  0.2642E-02
     -1.015  0.2735E-03  0.4525E-01  0.1550E-01
     -0.913  0.2327E-03  0.6271E-02  0.2611E-02
     -0.811  0.4758E-03  0.1008E-01  0.2982E-02
     -0.709  0.1729E-04  0.2687E-02  0.3535E-03
     -0.608  0.4980E-24  0.1256E-10  0.1270E-23
     -0.506  0.2219E-16  0.5599E-03  0.5660E-16
     -0.404  0.2999E-15  0.2061E-03  0.3136E-04
     -0.302  0.1009E-20  0.8587E-08  0.3952E-06
     -0.200  0.1217E-16  0.7421E-03  0.4799E-04
     -0.098  0.2311E-17  0.2014E-03  0.1838E-03
      0.004  0.0000E+00  0.0000E+00  0.0000E+00
      0.106  0.5371E-24  0.3091E-23  0.1131E-10
      0.207  0.1268E-15  0.4661E-16  0.5276E-03
      0.309  0.1835E-16  0.5955E-17  0.1104E-03
      0.411  0.1976E-17  0.2597E-16  0.3083E-04
      0.513  0.0000E+00  0.0000E+00  0.0000E+00
      0.615  0.0000E+00  0.0000E+00  0.0000E+00
      0.717  0.0000E+00  0.0000E+00  0.0000E+00
      0.819  0.1637E-29  0.7239E-30  0.5647E-28
      0.921  0.3155E-17  0.1395E-17  0.1088E-15
      1.022  0.0000E+00  0.0000E+00  0.0000E+00
      1.124  0.0000E+00  0.0000E+00  0.0000E+00
      1.226  0.0000E+00  0.0000E+00  0.0000E+00
      1.328  0.0000E+00  0.0000E+00  0.0000E+00
      1.430  0.0000E+00  0.0000E+00  0.0000E+00
      1.532  0.0000E+00  0.0000E+00  0.0000E+00
      1.634  0.0000E+00  0.0000E+00  0.0000E+00
      1.736  0.0000E+00  0.0000E+00  0.0000E+00
      1.837  0.0000E+00  0.0000E+00  0.0000E+00
      1.939  0.0000E+00  0.0000E+00  0.0000E+00
      2.041  0.0000E+00  0.0000E+00  0.0000E+00
      2.143  0.0000E+00  0.0000E+00  0.0000E+00
      2.245  0.0000E+00  0.0000E+00  0.0000E+00
      2.347  0.0000E+00  0.0000E+00  0.0000E+00
      2.449  0.0000E+00  0.0000E+00  0.0000E+00
      2.551  0.0000E+00  0.0000E+00  0.0000E+00
      2.652  0.0000E+00  0.0000E+00  0.0000E+00
      2.754  0.0000E+00  0.0000E+00  0.0000E+00
      2.856  0.3368E-14  0.1020E-15  0.2635E-02
      2.958  0.0000E+00  0.0000E+00  0.0000E+00
      3.060  0.1128E-16  0.1900E-03  0.1164E-02
      3.162  0.8790E-16  0.1593E-03  0.1581E-02
      3.264  0.6595E-10  0.9225E-09  0.4152E-09
      3.366  0.5632E-03  0.1845E-02  0.3661E-02
      3.467  0.1502E-17  0.2639E-17  0.2350E-17
      3.569  0.1155E-02  0.1259E-02  0.1286E-02
      3.671  0.0000E+00  0.0000E+00  0.0000E+00
      3.773  0.3792E-03  0.1862E-16  0.7604E-03
      3.875  0.0000E+00  0.0000E+00  0.0000E+00
      3.977  0.0000E+00  0.0000E+00  0.0000E+00
      4.079  0.0000E+00  0.0000E+00  0.0000E+00
      4.181  0.0000E+00  0.0000E+00  0.0000E+00
      4.282  0.0000E+00  0.0000E+00  0.0000E+00
      4.384  0.0000E+00  0.0000E+00  0.0000E+00
      4.486  0.7157E-16  0.2966E-14  0.6535E-02
      4.588  0.5664E-04  0.1880E-09  0.1702E-05
      4.690  0.1952E-14  0.1767E-02  0.1453E-01
      4.792  0.1248E-04  0.2623E-02  0.8498E-02
      4.894  0.2176E-02  0.5849E-02  0.2897E-01
      4.996  0.1522E-02  0.7911E-02  0.6909E-02
      5.097  0.1581E-01  0.1225E-01  0.4083E-02
      5.199  0.4438E-01  0.1405E-01  0.3338E-02
      5.301  0.0000E+00  0.0000E+00  0.0000E+00
      5.403  0.0000E+00  0.0000E+00  0.0000E+00
      5.505  0.1045E-01  0.3579E-02  0.4582E-02
      5.607  0.5067E-02  0.7589E-03  0.3654E-01
      5.709  0.1845E-10  0.4378E-20  0.8706E-08
      5.811  0.9251E-01  0.2417E-01  0.9836E-01
      5.912  0.2428E-02  0.6056E-03  0.5391E-01
      6.014  0.1369E-03  0.8485E-02  0.1335E+00
      6.116  0.9865E-01  0.1276E-01  0.1822E+00
      6.218  0.1172E-01  0.7265E-02  0.4897E+00
      6.320  0.2271E-03  0.3822E-02  0.8968E-01
      6.422  0.1041E+00  0.1455E-01  0.3029E+00
      6.524  0.2893E-01  0.4907E-02  0.3636E+00
      6.626  0.1086E+00  0.7610E-01  0.5264E+00
      6.727  0.5239E-02  0.6069E-01  0.6214E+00
      6.829  0.1571E-02  0.6053E-05  0.1497E+00
      6.931  0.0000E+00  0.0000E+00  0.0000E+00
      7.033  0.0000E+00  0.0000E+00  0.0000E+00
      7.135  0.0000E+00  0.0000E+00  0.0000E+00
      7.237  0.0000E+00  0.0000E+00  0.0000E+00
      7.339  0.0000E+00  0.0000E+00  0.0000E+00
      7.441  0.0000E+00  0.0000E+00  0.0000E+00
      7.542  0.0000E+00  0.0000E+00  0.0000E+00
      7.644  0.0000E+00  0.0000E+00  0.0000E+00
      7.746  0.0000E+00  0.0000E+00  0.0000E+00
      7.848  0.0000E+00  0.0000E+00  0.0000E+00
      7.950  0.0000E+00  0.0000E+00  0.0000E+00
      8.052  0.0000E+00  0.0000E+00  0.0000E+00
      8.154  0.0000E+00  0.0000E+00  0.0000E+00
      8.15363081    -22.40851603  301      0.94605785      1.00000000
    -22.409  0.0000E+00  0.0000E+00  0.0000E+00
    -22.307  0.0000E+00  0.0000E+00  0.0000E+00
    -22.205  0.0000E+00  0.0000E+00  0.0000E+00
    -22.103  0.0000E+00  0.0000E+00  0.0000E+00
    -22.001  0.0000E+00  0.0000E+00  0.0000E+00
    -21.899  0.0000E+00  0.0000E+00  0.0000E+00
    -21.797  0.0000E+00  0.0000E+00  0.0000E+00
    -21.695  0.0000E+00  0.0000E+00  0.0000E+00
    -21.594  0.0000E+00  0.0000E+00  0.0000E+00
    -21.492  0.0000E+00  0.0000E+00  0.0000E+00
    -21.390  0.0000E+00  0.0000E+00  0.0000E+00
    -21.288  0.0000E+00  0.0000E+00  0.0000E+00
    -21.186  0.0000E+00  0.0000E+00  0.0000E+00
    -21.084  0.0000E+00  0.0000E+00  0.0000E+00
    -20.982  0.1742E+02  0.8602E-07  0.6623E-05
    -20.880  0.0000E+00  0.0000E+00  0.0000E+00
    -20.779  0.0000E+00  0.0000E+00  0.0000E+00
    -20.677  0.0000E+00  0.0000E+00  0.0000E+00
    -20.575  0.0000E+00  0.0000E+00  0.0000E+00
    -20.473  0.0000E+00  0.0000E+00  0.0000E+00
    -20.371  0.0000E+00  0.0000E+00  0.0000E+00
    -20.269  0.0000E+00  0.0000E+00  0.0000E+00
    -20.167  0.0000E+00  0.0000E+00  0.0000E+00
    -20.065  0.0000E+00  0.0000E+00  0.0000E+00
    -19.964  0.0000E+00  0.0000E+00  0.0000E+00
    -19.862  0.0000E+00  0.0000E+00  0.0000E+00
    -19.760  0.0000E+00  0.0000E+00  0.0000E+00
    -19.658  0.0000E+00  0.0000E+00  0.0000E+00
    -19.556  0.0000E+00  0.0000E+00  0.0000E+00
    -19.454  0.0000E+00  0.0000E+00  0.0000E+00
    -19.352  0.0000E+00  0.0000E+00  0.0000E+00
    -19.250  0.0000E+00  0.0000E+00  0.0000E+00
    -19.149  0.0000E+00  0.0000E+00  0.0000E+00
    -19.047  0.0000E+00  0.0000E+00  0.0000E+00
    -18.945  0.0000E+00  0.0000E+00  0.0000E+00
    -18.843  0.0000E+00  0.0000E+00  0.0000E+00
    -18.741  0.0000E+00  0.0000E+00  0.0000E+00
    -18.639  0.0000E+00  0.0000E+00  0.0000E+00
    -18.537  0.0000E+00  0.0000E+00  0.0000E+00
    -18.435  0.0000E+00  0.0000E+00  0.0000E+00
    -18.334  0.0000E+00  0.0000E+00  0.0000E+00
    -18.232  0.0000E+00  0.0000E+00  0.0000E+00
    -18.130  0.0000E+00  0.0000E+00  0.0000E+00
    -18.028  0.0000E+00  0.0000E+00  0.0000E+00
    -17.926  0.0000E+00  0.0000E+00  0.0000E+00
    -17.824  0.0000E+00  0.0000E+00  0.0000E+00
    -17.722  0.0000E+00  0.0000E+00  0.0000E+00
    -17.620  0.0000E+00  0.0000E+00  0.0000E+00
    -17.519  0.0000E+00  0.0000E+00  0.0000E+00
    -17.417  0.0000E+00  0.0000E+00  0.0000E+00
    -17.315  0.0000E+00  0.0000E+00  0.0000E+00
    -17.213  0.0000E+00  0.0000E+00  0.0000E+00
    -17.111  0.0000E+00  0.0000E+00  0.0000E+00
    -17.009  0.0000E+00  0.0000E+00  0.0000E+00
    -16.907  0.0000E+00  0.0000E+00  0.0000E+00
    -16.805  0.0000E+00  0.0000E+00  0.0000E+00
    -16.704  0.0000E+00  0.0000E+00  0.0000E+00
    -16.602  0.0000E+00  0.0000E+00  0.0000E+00
    -16.500  0.0000E+00  0.0000E+00  0.0000E+00
    -16.398  0.2239E-23  0.5516E-35  0.4177E-22
    -16.296  0.1796E-04  0.1039E-04  0.3888E-05
    -16.194  0.1058E-04  0.4491E-04  0.5016E-05
    -16.092  0.2806E-04  0.2045E-04  0.2085E-05
    -15.990  0.0000E+00  0.0000E+00  0.0000E+00
    -15.889  0.0000E+00  0.0000E+00  0.0000E+00
    -15.787  0.0000E+00  0.0000E+00  0.0000E+00
    -15.685  0.0000E+00  0.0000E+00  0.0000E+00
    -15.583  0.0000E+00  0.0000E+00  0.0000E+00
    -15.481  0.0000E+00  0.0000E+00  0.0000E+00
    -15.379  0.0000E+00  0.0000E+00  0.0000E+00
    -15.277  0.0000E+00  0.0000E+00  0.0000E+00
    -15.175  0.0000E+00  0.0000E+00  0.0000E+00
    -15.074  0.0000E+00  0.0000E+00  0.0000E+00
    -14.972  0.0000E+00  0.0000E+00  0.0000E+00
    -14.870  0.0000E+00  0.0000E+00  0.0000E+00
    -14.768  0.0000E+00  0.0000E+00  0.0000E+00
    -14.666  0.0000E+00  0.0000E+00  0.0000E+00
    -14.564  0.0000E+00  0.0000E+00  0.0000E+00
    -14.462  0.0000E+00  0.0000E+00  0.0000E+00
    -14.360  0.2667E-03  0.2682E-14  0.7968E-06
    -14.259  0.1445E-02  0.5136E-03  0.7662E-05
    -14.157  0.5483E-03  0.1178E-02  0.2789E-04
    -14.055  0.1431E-07  0.4004E-02  0.1268E-03
    -13.953  0.9387E-03  0.2211E-02  0.1794E-03
    -13.851  0.3958E-06  0.4194E-05  0.3436E-04
    -13.749  0.5940E-03  0.1528E-02  0.2710E-03
    -13.647  0.3238E-03  0.3484E-03  0.3748E-04
    -13.545  0.0000E+00  0.0000E+00  0.0000E+00
    -13.444  0.0000E+00  0.0000E+00  0.0000E+00
    -13.342  0.0000E+00  0.0000E+00  0.0000E+00