       N       E                     dE             d eps       ncg     rms          rms(c)
DAV:   1     0.134427549115E+04    0.13443E+04   -0.11292E+05  2672   0.958E+02
DAV:   2    -0.112966362784E+04   -0.24739E+04   -0.23847E+04  3112   0.295E+02
DAV:   3    -0.149503830384E+04   -0.36537E+03   -0.36317E+03  3488   0.135E+02
DAV:   4    -0.150758576433E+04   -0.12547E+02   -0.12500E+02  3088   0.325E+01
DAV:   5    -0.150814878498E+04   -0.56302E+00   -0.56270E+00  3424   0.537E+00    0.105E+01
DAV:   6    -0.142945099398E+04    0.78698E+02   -0.22762E+01  3344   0.281E+01    0.743E+00
DAV:   7    -0.142896114532E+04    0.48985E+00   -0.75762E+00  3216   0.490E+00    0.363E+00
DAV:   8    -0.142913955944E+04   -0.17841E+00   -0.37447E-01  3152   0.175E+00    0.209E+00
DAV:   9    -0.142922023649E+04   -0.80677E-01   -0.15200E-01  2840   0.119E+00    0.469E-01
DAV:  10    -0.142922142834E+04   -0.11919E-02   -0.92513E-03  3648   0.346E-01    0.268E-01
DAV:  11    -0.142922420000E+04   -0.27717E-02   -0.24761E-03  2936   0.156E-01    0.950E-02
DAV:  12    -0.142922503735E+04   -0.83735E-03   -0.94660E-04  2920   0.935E-02    0.387E-02
DAV:  13    -0.142922504879E+04   -0.11438E-04   -0.91170E-05  3256   0.255E-02    0.143E-02
DAV:  14    -0.142922506895E+04   -0.20159E-04   -0.95281E-06  2808   0.591E-03    0.628E-03
DAV:  15    -0.142922506710E+04    0.18511E-05   -0.88507E-07  1776   0.318E-03    0.110E-03
DAV:  16    -0.142922506162E+04    0.54781E-05   -0.43296E-07  1672   0.190E-03    0.934E-04
DAV:  17    -0.142922505876E+04    0.28584E-05   -0.22437E-07  1656   0.140E-03    0.106E-03
DAV:  18    -0.142922505725E+04    0.15133E-05   -0.92354E-08  1656   0.842E-04    0.105E-03
DAV:  19    -0.142922505199E+04    0.52597E-05   -0.20291E-07  1664   0.927E-04    0.664E-04
DAV:  20    -0.142922504393E+04    0.80608E-05   -0.13646E-07  1656   0.968E-04    0.172E-03
DAV:  21    -0.142922504800E+04   -0.40715E-05   -0.32469E-08  1616   0.589E-04    0.726E-04
DAV:  22    -0.142922504736E+04    0.63991E-06   -0.95402E-09  1584   0.297E-04
   1 F= -.14292250E+04 E0= -.14292250E+04  d E =-.134018E-28
