 vasp.5.4.4.18Apr17-6-g9f103f2a35 (build Jun 22 2020 09:27:21) complex           
 executed on tx2_gcc-7.3_libsci-1 date 2021.09.22  08:17:59
 running on   64 total cores
 distrk:  each k-point on   64 cores,    1 groups
 distr:  one band on NCORES_PER_BAND=   8 cores,    8 groups


--------------------------------------------------------------------------------------------------------


 INCAR:
 POTCAR:    PAW_PBE Cs_sv 08Apr2002               
 POTCAR:    PAW_PBE Pb_d 06Sep2000                
 POTCAR:    PAW_PBE Br 06Sep2000                  
 POTCAR:    PAW_PBE Cs_sv 08Apr2002               
   SHA256 =  c1463496f0f6037ed62c6012a8013a89ee9ad6ffb38599dcd6c079e7ed31779b Cs
   COPYR  = (c) Copyright 08Apr2002 Georg Kresse                                
   COPYR  = This file is part of the software VASP. Any use, copying, and all ot
   COPYR  = If you do not have a valid VASP license, you may not use, copy or di
   VRHFIN =Cs: 5s5p6s                                                           
   LEXCH  = PE                                                                  
   EATOM  =   555.6835 eV,   40.8416 Ry                                         
                                                                                
   TITEL  = PAW_PBE Cs_sv 08Apr2002                                             
   LULTRA =        F    use ultrasoft PP ?                                      
   IUNSCR =        1    unscreen: 0-lin 1-nonlin 2-no                           
   RPACOR =    2.200    partial core radius                                     
   POMASS =  132.900; ZVAL   =    9.000    mass and valenz                      
   RCORE  =    2.500    outmost cutoff radius                                   
   RWIGS  =    2.500; RWIGS  =    1.323    wigner-seitz radius (au A)           
   ENMAX  =  220.318; ENMIN  =  165.238 eV                                      
   RCLOC  =    2.207    cutoff for local pot                                    
   LCOR   =        T    correct aug charges                                     
   LPAW   =        T    paw PP                                                  
   EAUG   =  407.933                                                            
   DEXC   =    0.000                                                            
   RMAX   =    2.554    core radius for proj-oper                               
   RAUG   =    1.300    factor for augmentation sphere                          
   RDEP   =    2.590    radius for radial grids                                 
   RDEPT  =    2.117    core radius for aug-charge                              
                                                                                
   Atomic configuration                                                         
   13 entries                                                                   
     n  l   j            E        occ.                                          
     1  0  0.50    -35790.1377   2.0000                                         
     2  0  0.50     -5613.6201   2.0000                                         
     2  1  1.50     -5035.0101   6.0000                                         
     3  0  0.50     -1167.0767   2.0000                                         
     3  1  1.50      -980.9754   6.0000                                         
     3  2  2.50      -708.0703  10.0000                                         
     4  0  0.50      -220.2386   2.0000                                         
     4  1  1.50      -160.7596   6.0000                                         
     4  2  2.50       -74.2354  10.0000                                         
     5  0  0.50       -26.7287   2.0000                                         
     6  0  0.50        -2.0862   1.0000                                         
     5  1  1.50       -13.5159   6.0000                                         
     5  2  2.50        -0.4136   0.0000                                         
   Description                                                                  
     l       E           TYP  RCUT    TYP  RCUT                                 
     0    -26.7287425     23  1.900                                             
     0     -2.0862306     23  1.900                                             
     1    -13.5158719     23  2.500                                             
     1     -2.7211652     23  2.500                                             
     2     -0.4136171     23  2.500                                             
  local pseudopotential read in
  partial core-charges read in
  partial kinetic energy density read in
  atomic valenz-charges read in
  non local Contribution for L=           0  read in
    real space projection operators read in
  non local Contribution for L=           0  read in
    real space projection operators read in
  non local Contribution for L=           1  read in
    real space projection operators read in
  non local Contribution for L=           1  read in
    real space projection operators read in
  non local Contribution for L=           2  read in
    real space projection operators read in
    PAW grid and wavefunctions read in

   number of l-projection  operators is LMAX  =           5
   number of lm-projection operators is LMMAX =          13

 POTCAR:    PAW_PBE Pb_d 06Sep2000                
   SHA256 =  fb885b08f0fba73a15f6a6b0e39bd200c13ec96ef97cf3ecd8e63bade5137abd Pb
   COPYR  = (c) Copyright 06Sep2000 Georg Kresse                                
   COPYR  = This file is part of the software VASP. Any use, copying, and all ot
   COPYR  = If you do not have a valid VASP license, you may not use, copy or di
   VRHFIN =Pb:                                                                  
   LEXCH  = PE                                                                  
   EATOM  =  1661.6185 eV,  122.1255 Ry                                         
                                                                                
   TITEL  = PAW_PBE Pb_d 06Sep2000                                              
   LULTRA =        F    use ultrasoft PP ?                                      
   IUNSCR =        1    unscreen: 0-lin 1-nonlin 2-no                           
   RPACOR =    2.200    partial core radius                                     
   POMASS =  207.200; ZVAL   =   14.000    mass and valenz                      
   RCORE  =    2.500    outmost cutoff radius                                   
   RWIGS  =    3.260; RWIGS  =    1.725    wigner-seitz radius (au A)           
   ENMAX  =  237.835; ENMIN  =  178.376 eV                                      
   ICORE  =        3    local potential                                         
   LCOR   =        T    correct aug charges                                     
   LPAW   =        T    paw PP                                                  
   EAUG   =  391.914                                                            
   DEXC   =    0.000                                                            
   RMAX   =    2.565    core radius for proj-oper                               
   RAUG   =    1.300    factor for augmentation sphere                          
   RDEP   =    2.643    radius for radial grids                                 
   RDEPT  =    2.092    core radius for aug-charge                              
                                                                                
   Atomic configuration                                                         
   16 entries                                                                   
     n  l   j            E        occ.                                          
     1  0  0.50    -88091.8466   2.0000                                         
     2  0  0.50    -15753.4197   2.0000                                         
     2  1  1.50    -13508.1797   6.0000                                         
     3  0  0.50     -3781.7194   2.0000                                         
     3  1  1.50     -3138.2529   6.0000                                         
     3  2  2.50     -2483.2977  10.0000                                         
     4  0  0.50      -856.2895   2.0000                                         
     4  1  1.50      -645.4942   6.0000                                         
     4  2  2.50      -401.8768  10.0000                                         
     4  3  3.50      -132.9059  14.0000                                         
     5  0  0.50      -144.0950   2.0000                                         
     5  1  1.50       -85.7879   6.0000                                         
     5  2  2.50       -21.1769  10.0000                                         
     6  0  0.50       -12.0372   2.0000                                         
     6  1  1.50        -3.4971   2.0000                                         
     5  3  2.50        -2.7212   0.0000                                         
   Description                                                                  
     l       E           TYP  RCUT    TYP  RCUT                                 
     2    -21.1768523     23  2.500                                             
     2      1.3605826     23  2.500                                             
     0    -12.0371562     23  2.500                                             
     0     13.6058260     23  2.500                                             
     1     -3.4971339     23  2.500                                             
     1     13.6058260     23  2.500                                             
     3     -1.3605826      7  2.500                                             
  local pseudopotential read in
  partial core-charges read in
  partial kinetic energy density read in
  atomic valenz-charges read in
  non local Contribution for L=           2  read in
    real space projection operators read in
  non local Contribution for L=           2  read in
    real space projection operators read in
  non local Contribution for L=           0  read in
    real space projection operators read in
  non local Contribution for L=           0  read in
    real space projection operators read in
  non local Contribution for L=           1  read in
    real space projection operators read in
  non local Contribution for L=           1  read in
    real space projection operators read in
    PAW grid and wavefunctions read in

   number of l-projection  operators is LMAX  =           6
   number of lm-projection operators is LMMAX =          18

 POTCAR:    PAW_PBE Br 06Sep2000                  
   SHA256 =  96a73d2954943bbee26f4990d676cc6c3bf44b8dd2c75cd4b3b825d8403f0103 Br
   COPYR  = (c) Copyright 06Sep2000 Georg Kresse                                
   COPYR  = This file is part of the software VASP. Any use, copying, and all ot
   COPYR  = If you do not have a valid VASP license, you may not use, copy or di
   VRHFIN =Br: s2p5                                                             
   LEXCH  = PE                                                                  
   EATOM  =   368.4488 eV,   27.0802 Ry                                         
                                                                                
   TITEL  = PAW_PBE Br 06Sep2000                                                
   LULTRA =        F    use ultrasoft PP ?                                      
   IUNSCR =        1    unscreen: 0-lin 1-nonlin 2-no                           
   RPACOR =    1.900    partial core radius                                     
   POMASS =   79.904; ZVAL   =    7.000    mass and valenz                      
   RCORE  =    2.100    outmost cutoff radius                                   
   RWIGS  =    2.200; RWIGS  =    1.164    wigner-seitz radius (au A)           
   ENMAX  =  216.285; ENMIN  =  162.214 eV                                      
   ICORE  =        3    local potential                                         
   LCOR   =        T    correct aug charges                                     
   LPAW   =        T    paw PP                                                  
   EAUG   =  503.852                                                            
   DEXC   =    0.000                                                            
   RMAX   =    2.139    core radius for proj-oper                               
   RAUG   =    1.300    factor for augmentation sphere                          
   RDEP   =    2.186    radius for radial grids                                 
   RDEPT  =    1.890    core radius for aug-charge                              
                                                                                
   Atomic configuration                                                         
   10 entries                                                                   
     n  l   j            E        occ.                                          
     1  0  0.50    -13316.2796   2.0000                                         
     2  0  0.50     -1732.8239   2.0000                                         
     2  1  1.50     -1528.2193   6.0000                                         
     3  0  0.50      -238.0460   2.0000                                         
     3  1  1.50      -173.4609   6.0000                                         
     3  2  2.50       -66.7132  10.0000                                         
     4  0  0.50       -20.1334   2.0000                                         
     4  1  0.50        -7.8591   5.0000                                         
     4  2  2.50        -8.1635   0.0000                                         
     4  3  2.50        -8.1635   0.0000                                         
   Description                                                                  
     l       E           TYP  RCUT    TYP  RCUT                                 
     0    -20.1333652     23  2.100                                             
     0    -21.4939478     23  2.100                                             
     1     -7.8591052     23  2.100                                             
     1     -3.1608434     23  2.100                                             
     2     -8.1634956     23  2.100                                             
     3     -1.3605826      7  2.100                                             
  local pseudopotential read in
  partial core-charges read in
  partial kinetic energy density read in
  atomic valenz-charges read in
  non local Contribution for L=           0  read in
    real space projection operators read in
  non local Contribution for L=           0  read in
    real space projection operators read in
  non local Contribution for L=           1  read in
    real space projection operators read in
  non local Contribution for L=           1  read in
    real space projection operators read in
  non local Contribution for L=           2  read in
    real space projection operators read in
    PAW grid and wavefunctions read in

   number of l-projection  operators is LMAX  =           5
   number of lm-projection operators is LMMAX =          13

 Optimization of the real space projectors (new method)

 maximal supplied QI-value         = 15.12
 optimisation between [QCUT,QGAM] = [  8.77, 17.69] = [ 21.53, 87.61] Ry 
 Optimized for a Real-space Cutoff    1.85 Angstroem

   l    n(q)    QCUT    max X(q) W(low)/X(q) W(high)/X(q)  e(spline) 
   0     10     8.768    25.322    0.81E-04    0.51E-04    0.48E-06
   0     10     8.768    99.187    0.78E-04    0.50E-04    0.47E-06
   1      9     8.768    11.761    0.21E-03    0.20E-03    0.37E-06
   1      9     8.768     8.275    0.24E-03    0.22E-03    0.41E-06
   2      9     8.768     3.829    0.23E-04    0.15E-03    0.18E-06
 Optimization of the real space projectors (new method)

 maximal supplied QI-value         = 15.12
 optimisation between [QCUT,QGAM] = [  8.77, 17.69] = [ 21.53, 87.61] Ry 
 Optimized for a Real-space Cutoff    1.59 Angstroem

   l    n(q)    QCUT    max X(q) W(low)/X(q) W(high)/X(q)  e(spline) 
   2      7     8.768     3.846    0.48E-04    0.11E-03    0.11E-06
   2      7     8.768     8.593    0.20E-03    0.22E-04    0.24E-06
   0      8     8.768    20.082    0.68E-04    0.88E-04    0.41E-07
   0      8     8.768     8.597    0.89E-04    0.13E-03    0.59E-07
   1      8     8.768    33.223    0.15E-03    0.53E-04    0.87E-07
   1      8     8.768    15.899    0.14E-03    0.44E-04    0.78E-07
 Optimization of the real space projectors (new method)

 maximal supplied QI-value         = 17.95
 optimisation between [QCUT,QGAM] = [  8.80, 17.59] = [ 21.67, 86.68] Ry 
 Optimized for a Real-space Cutoff    1.59 Angstroem

   l    n(q)    QCUT    max X(q) W(low)/X(q) W(high)/X(q)  e(spline) 
   0      8     8.797   175.082    0.82E-04    0.14E-03    0.89E-07
   0      8     8.797   174.004    0.79E-04    0.14E-03    0.86E-07
   1      8     8.797    54.315    0.16E-03    0.14E-04    0.30E-06
   1      8     8.797    42.441    0.16E-03    0.14E-04    0.30E-06
   2      7     8.797     3.596    0.92E-04    0.15E-03    0.85E-07
  PAW_PBE Cs_sv 08Apr2002               :
 energy of atom  1       EATOM= -555.6835
 kinetic energy error for atom=    0.0069 (will be added to EATOM!!)
  PAW_PBE Pb_d 06Sep2000                :
 energy of atom  2       EATOM=-1661.6185
 kinetic energy error for atom=    0.0498 (will be added to EATOM!!)
  PAW_PBE Br 06Sep2000                  :
 energy of atom  3       EATOM= -368.4488
 kinetic energy error for atom=    0.0072 (will be added to EATOM!!)


 POSCAR: Cs8 Pb8 Br24                            
  positions in direct lattice
  No initial velocities read in

 METAGGA = SCAN     LMAXTAU =  6    LMIXTAU =  F

 exchange correlation table for  LEXCH =        8
   RHO(1)=    0.500       N(1)  =     2000
   RHO(2)=  100.500       N(2)  =     4000

 VTST: version 3.2, (02/03/18)

 CHAIN: initializing optimizer
 
 OPT: Using VASP Conjugate-Gradient optimizer
 CHAIN: Read ICHAIN            0

 POSCAR: Cs8 Pb8 Br24                            
  positions in direct lattice
  No initial velocities read in



--------------------------------------------------------------------------------------------------------


 ion  position               nearest neighbor table
   1  0.250  0.250  0.250-
   2  0.250  0.250  0.750-
   3  0.250  0.750  0.250-
   4  0.250  0.750  0.750-
   5  0.750  0.250  0.250-
   6  0.750  0.250  0.750-
   7  0.750  0.750  0.250-
   8  0.750  0.750  0.750-
   9  0.000  0.000  0.000-  25 2.93  26 2.93  17 2.96  19 2.96  33 2.96  37 2.96
  10  0.000  0.000  0.500-  25 2.93  26 2.93  18 2.96  20 2.96  34 2.96  38 2.96
  11  0.000  0.500  0.000-  27 2.93  28 2.93  17 2.96  19 2.96  35 2.96  39 2.96
  12  0.000  0.500  0.500-  27 2.93  28 2.93  18 2.96  20 2.96  36 2.96  40 2.96
  13  0.500  0.000  0.000-  29 2.93  30 2.93  21 2.96  23 2.96  33 2.96  37 2.96
  14  0.500  0.000  0.500-  29 2.93  30 2.93  22 2.96  24 2.96  34 2.96  38 2.96
  15  0.500  0.500  0.000-  31 2.93  32 2.93  21 2.96  23 2.96  35 2.96  39 2.96
  16  0.500  0.500  0.500-  31 2.93  32 2.93  22 2.96  24 2.96  36 2.96  40 2.96
  17  0.966  0.250  0.000-   9 2.96  11 2.96
  18  0.966  0.250  0.500-  10 2.96  12 2.96
  19  0.034  0.750  0.000-   9 2.96  11 2.96
  20  0.034  0.750  0.500-  10 2.96  12 2.96
  21  0.534  0.250  0.000-  13 2.96  15 2.96
  22  0.534  0.250  0.500-  14 2.96  16 2.96
  23  0.466  0.750  0.000-  13 2.96  15 2.96
  24  0.466  0.750  0.500-  14 2.96  16 2.96
  25  0.000  0.000  0.250-   9 2.93  10 2.93
  26  0.000  0.000  0.750-   9 2.93  10 2.93
  27  0.000  0.500  0.250-  11 2.93  12 2.93
  28  0.000  0.500  0.750-  11 2.93  12 2.93
  29  0.500  0.000  0.250-  13 2.93  14 2.93
  30  0.500  0.000  0.750-  13 2.93  14 2.93
  31  0.500  0.500  0.250-  15 2.93  16 2.93
  32  0.500  0.500  0.750-  15 2.93  16 2.93
  33  0.250  0.034  0.000-   9 2.96  13 2.96
  34  0.250  0.034  0.500-  10 2.96  14 2.96
  35  0.250  0.466  0.000-  11 2.96  15 2.96
  36  0.250  0.466  0.500-  12 2.96  16 2.96
  37  0.750  0.966  0.000-   9 2.96  13 2.96
  38  0.750  0.966  0.500-  10 2.96  14 2.96
  39  0.750  0.534  0.000-  11 2.96  15 2.96
  40  0.750  0.534  0.500-  12 2.96  16 2.96

  LATTYP: Found a simple cubic cell.
 ALAT       =    11.7353520000
  
  Lattice vectors:
  
 A1 = (  11.7353520000,   0.0000000000,   0.0000000000)
 A2 = (   0.0000000000,  11.7353520000,   0.0000000000)
 A3 = (   0.0000000000,   0.0000000000,  11.7353520000)


Analysis of symmetry for initial positions (statically):
=====================================================================
 Subroutine PRICEL returns following result:
 
  LATTYP: Found a simple tetragonal cell.
 ALAT       =     8.2981469788
 C/A-ratio  =     0.7071067812
  
  Lattice vectors:
  
 A1 = (   5.8676760000,  -5.8676760000,   0.0000000000)
 A2 = (  -5.8676760000,  -5.8676760000,   0.0000000000)
 A3 = (   0.0000000000,   0.0000000000,  -5.8676760000)
 
   4 primitive cells build up your supercell.
 

 Routine SETGRP: Setting up the symmetry group for a 
 simple cubic supercell.


 Subroutine GETGRP returns: Found 16 space group operations
 (whereof  8 operations were pure point group operations)
 out of a pool of 48 trial point group operations.


The static configuration has the point symmetry C_4h.
 The point group associated with its full space group is D_4h.


Analysis of symmetry for dynamics (positions and initial velocities):
=====================================================================
 Subroutine PRICEL returns following result:
 
  LATTYP: Found a simple tetragonal cell.
 ALAT       =     8.2981469788
 C/A-ratio  =     0.7071067812
  
  Lattice vectors:
  
 A1 = (   5.8676760000,  -5.8676760000,   0.0000000000)
 A2 = (  -5.8676760000,  -5.8676760000,   0.0000000000)
 A3 = (   0.0000000000,   0.0000000000,  -5.8676760000)
 
   4 primitive cells build up your supercell.
 

 Routine SETGRP: Setting up the symmetry group for a 
 simple cubic supercell.


 Subroutine GETGRP returns: Found 16 space group operations
 (whereof  8 operations were pure point group operations)
 out of a pool of 48 trial point group operations.


The dynamic configuration has the point symmetry C_4h.
 The point group associated with its full space group is D_4h.


 Subroutine INISYM returns: Found 16 space group operations
 (whereof  8 operations are pure point group operations),
 and found     4 'primitive' translations



 KPOINTS: 1x1x1                                   

Automatic generation of k-mesh.
Space group operators:
 irot       det(A)        alpha          n_x          n_y          n_z        tau_x        tau_y        tau_z
    1     1.000000     0.000000     1.000000     0.000000     0.000000    -0.000000    -0.000000    -0.000000
    2    -1.000000     0.000000     1.000000     0.000000     0.000000    -0.000000    -0.000000    -0.000000
    3     1.000000    90.000000     0.000000     0.000000    -1.000000    -0.000000    -0.000000    -0.000000
    4    -1.000000    90.000000     0.000000     0.000000    -1.000000    -0.000000    -0.000000    -0.000000
    5     1.000000   180.000000     0.000000     0.000000     1.000000    -0.000000    -0.000000    -0.000000
    6    -1.000000   180.000000     0.000000     0.000000     1.000000    -0.000000    -0.000000    -0.000000
    7     1.000000    90.000000     0.000000     0.000000     1.000000    -0.000000    -0.000000    -0.000000
    8    -1.000000    90.000000     0.000000     0.000000     1.000000    -0.000000    -0.000000    -0.000000
    9     1.000000   180.000000     1.000000     0.000000     0.000000     0.000000    -0.500000    -0.000000
   10    -1.000000   180.000000     1.000000     0.000000     0.000000     0.000000    -0.500000    -0.000000
   11     1.000000   180.000000     0.707107     0.707107     0.000000     0.000000    -0.500000    -0.000000
   12    -1.000000   180.000000     0.707107     0.707107     0.000000     0.000000    -0.500000    -0.000000
   13     1.000000   180.000000     0.000000     1.000000     0.000000     0.000000    -0.500000    -0.000000
   14    -1.000000   180.000000     0.000000     1.000000     0.000000     0.000000    -0.500000    -0.000000
   15     1.000000   180.000000     0.707107    -0.707107     0.000000     0.000000    -0.500000    -0.000000
   16    -1.000000   180.000000     0.707107    -0.707107     0.000000     0.000000    -0.500000    -0.000000
 
 Subroutine IBZKPT returns following result:
 ===========================================
 
 Found      6 irreducible k-points:
 
 Following reciprocal coordinates:
            Coordinates               Weight
  0.000000  0.000000  0.000000      1.000000
  0.500000  0.000000  0.000000      2.000000
  0.500000  0.500000  0.000000      1.000000
  0.000000  0.000000  0.500000      1.000000
  0.500000  0.000000  0.500000      2.000000
  0.500000  0.500000  0.500000      1.000000
 
 Following cartesian coordinates:
            Coordinates               Weight
  0.000000  0.000000  0.000000      1.000000
  0.042606  0.000000  0.000000      2.000000
  0.042606  0.042606  0.000000      1.000000
  0.000000  0.000000  0.042606      1.000000
  0.042606  0.000000  0.042606      2.000000
  0.042606  0.042606  0.042606      1.000000
 


--------------------------------------------------------------------------------------------------------




 Dimension of arrays:
   k-points           NKPTS =      6   k-points in BZ     NKDIM =      6   number of bands    NBANDS=    216
   number of dos      NEDOS =    301   number of ions     NIONS =     40
   non local maximal  LDIM  =      6   non local SUM 2l+1 LMDIM =     18
   total plane-waves  NPLWV = 343000
   max r-space proj   IRMAX =   5660   max aug-charges    IRDMAX=  90331
   dimension x,y,z NGX =    70 NGY =   70 NGZ =   70
   dimension x,y,z NGXF=   140 NGYF=  140 NGZF=  140
   support grid    NGXF=   280 NGYF=  280 NGZF=  280
   ions per type =               8   8  24
   NGX,Y,Z   is equivalent  to a cutoff of   9.92,  9.92,  9.92 a.u.
   NGXF,Y,Z  is equivalent  to a cutoff of  19.83, 19.83, 19.83 a.u.

 SYSTEM =  CsPbBr3 cubic bulk                      
 POSCAR =  Cs8 Pb8 Br24                            

 Startparameter for this run:
   NWRITE =      2    write-flag & timer
   PREC   = accura    normal or accurate (medium, high low for compatibility)
   ISTART =      0    job   : 0-new  1-cont  2-samecut
   ICHARG =      2    charge: 1-file 2-atom 10-const
   ISPIN  =      1    spin polarized calculation?
   LNONCOLLINEAR =      F non collinear calculations
   LSORBIT =      F    spin-orbit coupling
   INIWAV =      1    electr: 0-lowe 1-rand  2-diag
   LASPH  =      T    aspherical Exc in radial PAW
   METAGGA=      F    non-selfconsistent MetaGGA calc.

 Electronic Relaxation 1
   ENCUT  =  300.0 eV  22.05 Ry    4.70 a.u.  16.57 16.57 16.57*2*pi/ulx,y,z
   ENINI  =  300.0     initial cutoff
   ENAUG  =  503.9 eV  augmentation charge cutoff
   NELM   =    200;   NELMIN=  2; NELMDL= -5     # of ELM steps 
   EDIFF  = 0.1E-05   stopping-criterion for ELM
   LREAL  =      T    real-space projection
   NLSPLINE    = F    spline interpolate recip. space projectors
   LCOMPAT=      F    compatible to vasp.4.4
   GGA_COMPAT  = T    GGA compatible to vasp.4.4-vasp.4.6
   LMAXPAW     = -100 max onsite density
   LMAXMIX     =    2 max onsite mixed and CHGCAR
   VOSKOWN=      0    Vosko Wilk Nusair interpolation
   ROPT   =   -0.00025  -0.00025  -0.00025
 Ionic relaxation
   EDIFFG = -.1E-01   stopping-criterion for IOM
   NSW    =      0    number of steps for IOM
   NBLOCK =      1;   KBLOCK =      1    inner block; outer block 
   IBRION =     -1    ionic relax: 0-MD 1-quasi-New 2-CG
   NFREE  =      1    steps in history (QN), initial steepest desc. (CG)
   ISIF   =      3    stress and relaxation
   IWAVPR =     10    prediction:  0-non 1-charg 2-wave 3-comb
   ISYM   =      2    0-nonsym 1-usesym 2-fastsym
   LCORR  =      T    Harris-Foulkes like correction to forces

   POTIM  = 0.5000    time-step for ionic-motion
   TEIN   =    0.0    initial temperature
   TEBEG  =    0.0;   TEEND  =   0.0 temperature during run
   SMASS  =  -3.00    Nose mass-parameter (am)
   estimated Nose-frequenzy (Omega)   =  0.10E-29 period in steps =****** mass=  -0.315E-26a.u.
   SCALEE = 1.0000    scale energy and forces
   NPACO  =    256;   APACO  = 16.0  distance and # of slots for P.C.
   PSTRESS=    0.0 pullay stress

  Mass of Ions in am
   POMASS = 132.90207.20 79.90
  Ionic Valenz
   ZVAL   =   9.00 14.00  7.00
  Atomic Wigner-Seitz radii
   RWIGS  =  -1.00 -1.00 -1.00
  virtual crystal weights 
   VCA    =   1.00  1.00  1.00
   NELECT =     352.0000    total number of electrons
   NUPDOWN=      -1.0000    fix difference up-down

 DOS related values:
   EMIN   =  10.00;   EMAX   =-10.00  energy-range for DOS
   EFERMI =   0.00
   ISMEAR =     0;   SIGMA  =   0.01  broadening in eV -4-tet -1-fermi 0-gaus

 Electronic relaxation 2 (details)
   IALGO  =     38    algorithm
   LDIAG  =      T    sub-space diagonalisation (order eigenvalues)
   LSUBROT=      F    optimize rotation matrix (better conditioning)
   TURBO    =      0    0=normal 1=particle mesh
   IRESTART =      0    0=no restart 2=restart with 2 vectors
   NREBOOT  =      0    no. of reboots
   NMIN     =      0    reboot dimension
   EREF     =   0.00    reference energy to select bands
   IMIX   =      4    mixing-type and parameters
     AMIX     =   0.40;   BMIX     =  1.00
     AMIX_MAG =   1.60;   BMIX_MAG =  1.00
     AMIN     =   0.10
     WC   =   100.;   INIMIX=   1;  MIXPRE=   1;  MAXMIX= -45

 Intra band minimization:
   WEIMIN = 0.0000     energy-eigenvalue tresh-hold
   EBREAK =  0.12E-08  absolut break condition
   DEPER  =   0.30     relativ break condition  

   TIME   =   0.40     timestep for ELM

  volume/ion in A,a.u.               =      40.40       272.66
  Fermi-wavevector in a.u.,A,eV,Ry     =   0.984977  1.861337 13.200107  0.970180
  Thomas-Fermi vector in A             =   2.116250

 Write flags
   LWAVE        =      F    write WAVECAR
   LDOWNSAMPLE  =      F    k-point downsampling of WAVECAR
   LCHARG       =      T    write CHGCAR
   LVTOT        =      F    write LOCPOT, total local potential
   LVHAR        =      T    write LOCPOT, Hartree potential only
   LELF         =      F    write electronic localiz. function (ELF)
   LORBIT       =     10    0 simple, 1 ext, 2 COOP (PROOUT), +10 PAW based schemes


 Dipole corrections
   LMONO  =      F    monopole corrections only (constant potential shift)
   LDIPOL =      F    correct potential (dipole corrections)
   IDIPOL =      0    1-x, 2-y, 3-z, 4-all directions 
   EPSILON=  1.0000000 bulk dielectric constant

 Exchange correlation treatment:
   GGA     =    --    GGA type
   LEXCH   =     8    internal setting for exchange type
   VOSKOWN=      0    Vosko Wilk Nusair interpolation
   LHFCALC =     F    Hartree Fock is set to
   LHFONE  =     F    Hartree Fock one center treatment
   AEXX    =    0.0000 exact exchange contribution

 Linear response parameters
   LEPSILON=     F    determine dielectric tensor
   LRPA    =     F    only Hartree local field effects (RPA)
   LNABLA  =     F    use nabla operator in PAW spheres
   LVEL    =     F    velocity operator in full k-point grid
   LINTERFAST=   F  fast interpolation
   KINTER  =     0    interpolate to denser k-point grid
   CSHIFT  =0.1000    complex shift for real part using Kramers Kronig
   OMEGAMAX=  -1.0    maximum frequency
   DEG_THRESHOLD= 0.2000000E-02 threshold for treating states as degnerate
   RTIME   =   -0.100 relaxation time in fs
  (WPLASMAI=    0.000 imaginary part of plasma frequency in eV, 0.658/RTIME)
   DFIELD  = 0.0000000 0.0000000 0.0000000 field for delta impulse in time

 Orbital magnetization related:
   ORBITALMAG=     F  switch on orbital magnetization
   LCHIMAG   =     F  perturbation theory with respect to B field
   DQ        =  0.001000  dq finite difference perturbation B field
   LLRAUG    =     F  two centre corrections for induced B field



--------------------------------------------------------------------------------------------------------


 Static calculation
 charge density and potential will be updated during run
 non-spin polarized calculation
 Variant of blocked Davidson
 Davidson routine will perform the subspace rotation
 perform sub-space diagonalisation
    after iterative eigenvector-optimisation
 modified Broyden-mixing scheme, WC =      100.0
 initial mixing is a Kerker type mixing with AMIX =  0.4000 and BMIX =      1.0000
 Hartree-type preconditioning will be used
 using additional bands           40
 real space projection scheme for non local part
 use partial core corrections
 calculate Harris-corrections to forces   (improved forces if not selfconsistent)
 use gradient corrections 
 use of overlap-Matrix (Vanderbilt PP)
 Gauss-broadening in eV      SIGMA  =   0.01


--------------------------------------------------------------------------------------------------------


  energy-cutoff  :      300.00
  volume of cell :     1616.17
      direct lattice vectors                 reciprocal lattice vectors
    11.735352000  0.000000000  0.000000000     0.085212612  0.000000000  0.000000000
     0.000000000 11.735352000  0.000000000     0.000000000  0.085212612  0.000000000
     0.000000000  0.000000000 11.735352000     0.000000000  0.000000000  0.085212612

  length of vectors
    11.735352000 11.735352000 11.735352000     0.085212612  0.085212612  0.085212612



 k-points in units of 2pi/SCALE and weight: 1x1x1                                   
   0.00000000  0.00000000  0.00000000       0.125
   0.04260631  0.00000000  0.00000000       0.250
   0.04260631  0.04260631  0.00000000       0.125
   0.00000000  0.00000000  0.04260631       0.125
   0.04260631  0.00000000  0.04260631       0.250
   0.04260631  0.04260631  0.04260631       0.125

 k-points in reciprocal lattice and weights: 1x1x1                                   
   0.00000000  0.00000000  0.00000000       0.125
   0.50000000  0.00000000  0.00000000       0.250
   0.50000000  0.50000000  0.00000000       0.125
   0.00000000  0.00000000  0.50000000       0.125
   0.50000000  0.00000000  0.50000000       0.250
   0.50000000  0.50000000  0.50000000       0.125

 position of ions in fractional coordinates (direct lattice) 
   0.25000000  0.25000000  0.25000000
   0.25000000  0.25000000  0.75000000
   0.25000000  0.75000000  0.25000000
   0.25000000  0.75000000  0.75000000
   0.75000000  0.25000000  0.25000000
   0.75000000  0.25000000  0.75000000
   0.75000000  0.75000000  0.25000000
   0.75000000  0.75000000  0.75000000
   0.00000000  0.00000000  0.00000000
   0.00000000  0.00000000  0.50000000
   0.00000000  0.50000000  0.00000000
   0.00000000  0.50000000  0.50000000
   0.50000000  0.00000000  0.00000000
   0.50000000  0.00000000  0.50000000
   0.50000000  0.50000000  0.00000000
   0.50000000  0.50000000  0.50000000
   0.96625000  0.25000000  0.00000000
   0.96625000  0.25000000  0.50000000
   0.03375000  0.75000000  0.00000000
   0.03375000  0.75000000  0.50000000
   0.53375000  0.25000000  0.00000000
   0.53375000  0.25000000  0.50000000
   0.46625000  0.75000000  0.00000000
   0.46625000  0.75000000  0.50000000
   0.00000000  0.00000000  0.25000000
   0.00000000  0.00000000  0.75000000
   0.00000000  0.50000000  0.25000000
   0.00000000  0.50000000  0.75000000
   0.50000000  0.00000000  0.25000000
   0.50000000  0.00000000  0.75000000
   0.50000000  0.50000000  0.25000000
   0.50000000  0.50000000  0.75000000
   0.25000000  0.03375000  0.00000000
   0.25000000  0.03375000  0.50000000
   0.25000000  0.46625000  0.00000000
   0.25000000  0.46625000  0.50000000
   0.75000000  0.96625000  0.00000000
   0.75000000  0.96625000  0.50000000
   0.75000000  0.53375000  0.00000000
   0.75000000  0.53375000  0.50000000

 position of ions in cartesian coordinates  (Angst):
   2.93383800  2.93383800  2.93383800
   2.93383800  2.93383800  8.80151400
   2.93383800  8.80151400  2.93383800
   2.93383800  8.80151400  8.80151400
   8.80151400  2.93383800  2.93383800
   8.80151400  2.93383800  8.80151400
   8.80151400  8.80151400  2.93383800
   8.80151400  8.80151400  8.80151400
   0.00000000  0.00000000  0.00000000
   0.00000000  0.00000000  5.86767600
   0.00000000  5.86767600  0.00000000
   0.00000000  5.86767600  5.86767600
   5.86767600  0.00000000  0.00000000
   5.86767600  0.00000000  5.86767600
   5.86767600  5.86767600  0.00000000
   5.86767600  5.86767600  5.86767600
  11.33928387  2.93383800  0.00000000
  11.33928387  2.93383800  5.86767600
   0.39606813  8.80151400  0.00000000
   0.39606813  8.80151400  5.86767600
   6.26374413  2.93383800  0.00000000
   6.26374413  2.93383800  5.86767600
   5.47160787  8.80151400  0.00000000
   5.47160787  8.80151400  5.86767600
   0.00000000  0.00000000  2.93383800
   0.00000000  0.00000000  8.80151400
   0.00000000  5.86767600  2.93383800
   0.00000000  5.86767600  8.80151400
   5.86767600  0.00000000  2.93383800
   5.86767600  0.00000000  8.80151400
   5.86767600  5.86767600  2.93383800
   5.86767600  5.86767600  8.80151400
   2.93383800  0.39606813  0.00000000
   2.93383800  0.39606813  5.86767600
   2.93383800  5.47160787  0.00000000
   2.93383800  5.47160787  5.86767600
   8.80151400 11.33928387  0.00000000
   8.80151400 11.33928387  5.86767600
   8.80151400  6.26374413  0.00000000
   8.80151400  6.26374413  5.86767600



--------------------------------------------------------------------------------------------------------


 k-point  1 :   0.0000 0.0000 0.0000  plane waves:   19093
 k-point  2 :   0.5000 0.0000 0.0000  plane waves:   19066
 k-point  3 :   0.5000 0.5000 0.0000  plane waves:   19072
 k-point  4 :   0.0000 0.0000 0.5000  plane waves:   19066
 k-point  5 :   0.5000 0.0000 0.5000  plane waves:   19072
 k-point  6 :   0.5000 0.5000 0.5000  plane waves:   19064

 maximum and minimum number of plane-waves per node :      2417     2354

 maximum number of plane-waves:     19093
 maximum index in each direction: 
   IXMAX=   16   IYMAX=   16   IZMAX=   16
   IXMIN=  -17   IYMIN=  -17   IZMIN=  -17


 real space projection operators:
  total allocation   :      16871.25 KBytes
  max/ min on nodes  :       2213.66       1838.47


 parallel 3D FFT for wavefunctions:
    minimum data exchange during FFTs selected (reduces bandwidth)
 parallel 3D FFT for charge:
    minimum data exchange during FFTs selected (reduces bandwidth)


 total amount of memory used by VASP MPI-rank0    58978. kBytes
=======================================================================

   base      :      30000. kBytes
   nonlr-proj:       6606. kBytes
   fftplans  :       8423. kBytes
   grid      :       7465. kBytes
   one-center:         77. kBytes
   wavefun   :       6407. kBytes

     INWAV:  cpu time    0.0001: real time    0.0001
 Broyden mixing: mesh for mixing (old mesh)
   NGX = 33   NGY = 33   NGZ = 33
  (NGX  =140   NGY  =140   NGZ  =140)
  gives a total of  35937 points

 initial charge density was supplied:
 charge density of overlapping atoms calculated
 number of electron     352.0000000 magnetization 
 keeping initial charge density in first step


--------------------------------------------------------------------------------------------------------


 Maximum index for non-local projection operator          712
 Maximum index for augmentation-charges         2962 (set IRDMAX)


--------------------------------------------------------------------------------------------------------


 First call to EWALD:  gamma=   0.151
 Maximum number of real-space cells 3x 3x 3
 Maximum number of reciprocal cells 3x 3x 3

    FEWALD:  cpu time    0.0037: real time    0.0037


--------------------------------------- Iteration      1(   1)  ---------------------------------------


    POTLOK:  cpu time    0.2608: real time    0.2637
    SETDIJ:  cpu time    1.2029: real time    1.2029
     EDDAV:  cpu time   12.7761: real time   12.7819
       DOS:  cpu time    0.0007: real time    0.0007
    --------------------------------------------
      LOOP:  cpu time   14.2405: real time   14.2492

 eigenvalue-minimisations  :  2672
 total energy-change (2. order) : 0.1344275E+04  (-0.1129193E+05)
 number of electron     352.0000000 magnetization 
 augmentation part      352.0000000 magnetization 

 Free energy of the ion-electron system (eV)
  ---------------------------------------------------
  alpha Z        PSCENC =       892.99476195
  Ewald energy   TEWEN  =    -18259.97844195
  -Hartree energ DENC   =     -7489.29228945
  -exchange      EXHF   =         0.00000000
  -V(xc)+E(xc)   XCENC  =       924.58820247
  PAW double counting   =     21633.96174531   -22707.92185401
  entropy T*S    EENTRO =        -0.00141386
  eigenvalues    EBANDS =      -230.63541790
  atomic energy  EATOM  =     26580.56019858
  Solvation  Ediel_sol  =         0.00000000
  ---------------------------------------------------
  free energy    TOTEN  =      1344.27549115 eV

  energy without entropy =     1344.27690501  energy(sigma->0) =     1344.27619808


--------------------------------------------------------------------------------------------------------




--------------------------------------- Iteration      1(   2)  ---------------------------------------


     EDDAV:  cpu time   14.1056: real time   14.1179
       DOS:  cpu time    0.0003: real time    0.0003
    --------------------------------------------
      LOOP:  cpu time   14.1060: real time   14.1182

 eigenvalue-minimisations  :  3112
 total energy-change (2. order) :-0.2473939E+04  (-0.2384666E+04)
 number of electron     352.0000000 magnetization 
 augmentation part      352.0000000 magnetization 

 Free energy of the ion-electron system (eV)
  ---------------------------------------------------
  alpha Z        PSCENC =       892.99476195
  Ewald energy   TEWEN  =    -18259.97844195
  -Hartree energ DENC   =     -7489.29228945
  -exchange      EXHF   =         0.00000000
  -V(xc)+E(xc)   XCENC  =       924.58820247
  PAW double counting   =     21633.96174531   -22707.92185401
  entropy T*S    EENTRO =        -0.00000000
  eigenvalues    EBANDS =     -2704.57595074
  atomic energy  EATOM  =     26580.56019858
  Solvation  Ediel_sol  =         0.00000000
  ---------------------------------------------------
  free energy    TOTEN  =     -1129.66362784 eV

  energy without entropy =    -1129.66362784  energy(sigma->0) =    -1129.66362784


--------------------------------------------------------------------------------------------------------




--------------------------------------- Iteration      1(   3)  ---------------------------------------


     EDDAV:  cpu time   15.1772: real time   15.2010
       DOS:  cpu time    0.0004: real time    0.0004
    --------------------------------------------
      LOOP:  cpu time   15.1775: real time   15.2013

 eigenvalue-minimisations  :  3488
 total energy-change (2. order) :-0.3653747E+03  (-0.3631719E+03)
 number of electron     352.0000000 magnetization 
 augmentation part      352.0000000 magnetization 

 Free energy of the ion-electron system (eV)
  ---------------------------------------------------
  alpha Z        PSCENC =       892.99476195
  Ewald energy   TEWEN  =    -18259.97844195
  -Hartree energ DENC   =     -7489.29228945
  -exchange      EXHF   =         0.00000000
  -V(xc)+E(xc)   XCENC  =       924.58820247
  PAW double counting   =     21633.96174531   -22707.92185401
  entropy T*S    EENTRO =        -0.00000000
  eigenvalues    EBANDS =     -3069.95062675
  atomic energy  EATOM  =     26580.56019858
  Solvation  Ediel_sol  =         0.00000000
  ---------------------------------------------------
  free energy    TOTEN  =     -1495.03830384 eV

  energy without entropy =    -1495.03830384  energy(sigma->0) =    -1495.03830384


--------------------------------------------------------------------------------------------------------




--------------------------------------- Iteration      1(   4)  ---------------------------------------


     EDDAV:  cpu time   14.0142: real time   14.0338
       DOS:  cpu time    0.0003: real time    0.0003
    --------------------------------------------
      LOOP:  cpu time   14.0145: real time   14.0341

 eigenvalue-minimisations  :  3088
 total energy-change (2. order) :-0.1254746E+02  (-0.1250030E+02)
 number of electron     352.0000000 magnetization 
 augmentation part      352.0000000 magnetization 

 Free energy of the ion-electron system (eV)
  ---------------------------------------------------
  alpha Z        PSCENC =       892.99476195
  Ewald energy   TEWEN  =    -18259.97844195
  -Hartree energ DENC   =     -7489.29228945
  -exchange      EXHF   =         0.00000000
  -V(xc)+E(xc)   XCENC  =       924.58820247
  PAW double counting   =     21633.96174531   -22707.92185401
  entropy T*S    EENTRO =        -0.00000000
  eigenvalues    EBANDS =     -3082.49808723
  atomic energy  EATOM  =     26580.56019858
  Solvation  Ediel_sol  =         0.00000000
  ---------------------------------------------------
  free energy    TOTEN  =     -1507.58576433 eV

  energy without entropy =    -1507.58576433  energy(sigma->0) =    -1507.58576433


--------------------------------------------------------------------------------------------------------




--------------------------------------- Iteration      1(   5)  ---------------------------------------


     EDDAV:  cpu time   14.9520: real time   14.9703
       DOS:  cpu time    0.0009: real time    0.0009
    CHARGE:  cpu time    3.0659: real time    3.0660
    MIXING:  cpu time    0.0015: real time    0.0015
    --------------------------------------------
      LOOP:  cpu time   18.0203: real time   18.0387

 eigenvalue-minimisations  :  3424
 total energy-change (2. order) :-0.5630207E+00  (-0.5626965E+00)
 number of electron     351.9999990 magnetization 
 augmentation part       -6.5236323 magnetization 

 Broyden mixing:
  rms(total) = 0.10472E+01    rms(broyden)= 0.10469E+01
  rms(prec ) = 0.13909E+01
  weight for this iteration     100.00

 Free energy of the ion-electron system (eV)
  ---------------------------------------------------
  alpha Z        PSCENC =       892.99476195
  Ewald energy   TEWEN  =    -18259.97844195
  -Hartree energ DENC   =     -7489.29228945
  -exchange      EXHF   =         0.00000000
  -V(xc)+E(xc)   XCENC  =       924.58820247
  PAW double counting   =     21633.96174531   -22707.92185401
  entropy T*S    EENTRO =        -0.00000000
  eigenvalues    EBANDS =     -3083.06110789
  atomic energy  EATOM  =     26580.56019858
  Solvation  Ediel_sol  =         0.00000000
  ---------------------------------------------------
  free energy    TOTEN  =     -1508.14878498 eV

  energy without entropy =    -1508.14878498  energy(sigma->0) =    -1508.14878498


--------------------------------------------------------------------------------------------------------




--------------------------------------- Iteration      1(   6)  ---------------------------------------


    POTLOK:  cpu time    0.2830: real time    0.2968
    SETDIJ:  cpu time    1.2035: real time    1.2035
     EDDAV:  cpu time   14.7004: real time   14.7011
       DOS:  cpu time    0.0004: real time    0.0004
    CHARGE:  cpu time    3.1014: real time    3.1015
    MIXING:  cpu time    0.0016: real time    0.0016
    --------------------------------------------
      LOOP:  cpu time   19.2904: real time   19.3048

 eigenvalue-minimisations  :  3344
 total energy-change (2. order) : 0.7869779E+02  (-0.2276155E+01)
 number of electron     351.9999990 magnetization 
 augmentation part       -5.1107485 magnetization 

 Broyden mixing:
  rms(total) = 0.74270E+00    rms(broyden)= 0.74261E+00
  rms(prec ) = 0.90153E+00
  weight for this iteration     100.00

 eigenvalues of (default mixing * dielectric matrix)
  average eigenvalue GAMMA=   1.2537
  1.2537

 Free energy of the ion-electron system (eV)
  ---------------------------------------------------
  alpha Z        PSCENC =       892.99476195
  Ewald energy   TEWEN  =    -18259.97844195
  -Hartree energ DENC   =     -7474.53484479
  -exchange      EXHF   =         0.00000000
  -V(xc)+E(xc)   XCENC  =       955.64392399
  PAW double counting   =     22011.44440869   -23084.78701172
  entropy T*S    EENTRO =        -0.00000000
  eigenvalues    EBANDS =     -3050.79398874
  atomic energy  EATOM  =     26580.56019858
  Solvation  Ediel_sol  =         0.00000000
  ---------------------------------------------------
  free energy    TOTEN  =     -1429.45099398 eV

  energy without entropy =    -1429.45099398  energy(sigma->0) =    -1429.45099398


--------------------------------------------------------------------------------------------------------




--------------------------------------- Iteration      1(   7)  ---------------------------------------


    POTLOK:  cpu time    0.2511: real time    0.3025
    SETDIJ:  cpu time    1.2009: real time    1.2009
     EDDAV:  cpu time   14.3401: real time   14.3407
       DOS:  cpu time    0.0004: real time    0.0004
    CHARGE:  cpu time    3.1069: real time    3.1070
    MIXING:  cpu time    0.0015: real time    0.0015
    --------------------------------------------
      LOOP:  cpu time   18.9009: real time   18.9530

 eigenvalue-minimisations  :  3216
 total energy-change (2. order) : 0.4898487E+00  (-0.7576236E+00)
 number of electron     351.9999991 magnetization 
 augmentation part       -4.5977455 magnetization 

 Broyden mixing:
  rms(total) = 0.36250E+00    rms(broyden)= 0.36250E+00
  rms(prec ) = 0.39670E+00
  weight for this iteration     100.00

 eigenvalues of (default mixing * dielectric matrix)
  average eigenvalue GAMMA=   1.3312
  1.3312  1.3312

 Free energy of the ion-electron system (eV)
  ---------------------------------------------------
  alpha Z        PSCENC =       892.99476195
  Ewald energy   TEWEN  =    -18259.97844195
  -Hartree energ DENC   =     -7518.85997136
  -exchange      EXHF   =         0.00000000
  -V(xc)+E(xc)   XCENC  =       961.23130577
  PAW double counting   =     22696.13429728   -23768.50153842
  entropy T*S    EENTRO =        -0.00000000
  eigenvalues    EBANDS =     -3012.54175717
  atomic energy  EATOM  =     26580.56019858
  Solvation  Ediel_sol  =         0.00000000
  ---------------------------------------------------
  free energy    TOTEN  =     -1428.96114532 eV

  energy without entropy =    -1428.96114532  energy(sigma->0) =    -1428.96114532


--------------------------------------------------------------------------------------------------------




--------------------------------------- Iteration      1(   8)  ---------------------------------------


    POTLOK:  cpu time    0.2487: real time    0.3041
    SETDIJ:  cpu time    1.1971: real time    1.1971
     EDDAV:  cpu time   14.1589: real time   14.1594
       DOS:  cpu time    0.0004: real time    0.0004
    CHARGE:  cpu time    3.1077: real time    3.1078
    MIXING:  cpu time    0.0017: real time    0.0017
    --------------------------------------------
      LOOP:  cpu time   18.7145: real time   18.7705

 eigenvalue-minimisations  :  3152
 total energy-change (2. order) :-0.1784141E+00  (-0.3744673E-01)
 number of electron     351.9999991 magnetization 
 augmentation part       -4.6715118 magnetization 

 Broyden mixing:
  rms(total) = 0.20915E+00    rms(broyden)= 0.20915E+00
  rms(prec ) = 0.22969E+00
  weight for this iteration     100.00

 eigenvalues of (default mixing * dielectric matrix)
  average eigenvalue GAMMA=   1.7499
  1.0933  1.3307  2.8257

 Free energy of the ion-electron system (eV)
  ---------------------------------------------------
  alpha Z        PSCENC =       892.99476195
  Ewald energy   TEWEN  =    -18259.97844195
  -Hartree energ DENC   =     -7524.69640314
  -exchange      EXHF   =         0.00000000
  -V(xc)+E(xc)   XCENC  =       962.08359543
  PAW double counting   =     22968.19537313   -24040.98757622
  entropy T*S    EENTRO =        -0.00000000
  eigenvalues    EBANDS =     -3007.31106722
  atomic energy  EATOM  =     26580.56019858
  Solvation  Ediel_sol  =         0.00000000
  ---------------------------------------------------
  free energy    TOTEN  =     -1429.13955944 eV

  energy without entropy =    -1429.13955944  energy(sigma->0) =    -1429.13955944


--------------------------------------------------------------------------------------------------------




--------------------------------------- Iteration      1(   9)  ---------------------------------------


    POTLOK:  cpu time    0.2760: real time    0.2949
    SETDIJ:  cpu time    1.1935: real time    1.1935
     EDDAV:  cpu time   13.2695: real time   13.2700
       DOS:  cpu time    0.0006: real time    0.0006
    CHARGE:  cpu time    3.1082: real time    3.1083
    MIXING:  cpu time    0.0015: real time    0.0015
    --------------------------------------------
      LOOP:  cpu time   17.8494: real time   17.8689

 eigenvalue-minimisations  :  2840
 total energy-change (2. order) :-0.8067704E-01  (-0.1519978E-01)
 number of electron     351.9999991 magnetization 
 augmentation part       -4.7165765 magnetization 

 Broyden mixing:
  rms(total) = 0.46925E-01    rms(broyden)= 0.46923E-01
  rms(prec ) = 0.49935E-01
  weight for this iteration     100.00

 eigenvalues of (default mixing * dielectric matrix)
  average eigenvalue GAMMA=   1.4787
  2.5656  1.2544  1.2544  0.8404

 Free energy of the ion-electron system (eV)
  ---------------------------------------------------
  alpha Z        PSCENC =       892.99476195
  Ewald energy   TEWEN  =    -18259.97844195
  -Hartree energ DENC   =     -7531.23355212
  -exchange      EXHF   =         0.00000000
  -V(xc)+E(xc)   XCENC  =       964.08692960
  PAW double counting   =     23341.84710478   -24415.55821618
  entropy T*S    EENTRO =        -0.00000000
  eigenvalues    EBANDS =     -3001.93902115
  atomic energy  EATOM  =     26580.56019858
  Solvation  Ediel_sol  =         0.00000000
  ---------------------------------------------------
  free energy    TOTEN  =     -1429.22023649 eV

  energy without entropy =    -1429.22023649  energy(sigma->0) =    -1429.22023649


--------------------------------------------------------------------------------------------------------




--------------------------------------- Iteration      1(  10)  ---------------------------------------


    POTLOK:  cpu time    0.2768: real time    0.2918
    SETDIJ:  cpu time    1.1950: real time    1.1951
     EDDAV:  cpu time   15.5828: real time   15.5834
       DOS:  cpu time    0.0005: real time    0.0005
    CHARGE:  cpu time    3.1090: real time    3.1093
    MIXING:  cpu time    0.0016: real time    0.0016
    --------------------------------------------
      LOOP:  cpu time   20.1656: real time   20.1816

 eigenvalue-minimisations  :  3648
 total energy-change (2. order) :-0.1191857E-02  (-0.9251346E-03)
 number of electron     351.9999991 magnetization 
 augmentation part       -4.7021420 magnetization 

 Broyden mixing:
  rms(total) = 0.26838E-01    rms(broyden)= 0.26838E-01
  rms(prec ) = 0.29507E-01
  weight for this iteration     100.00

 eigenvalues of (default mixing * dielectric matrix)
  average eigenvalue GAMMA=   1.5462
  2.3227  2.3227  1.1149  1.1149  0.8560

 Free energy of the ion-electron system (eV)
  ---------------------------------------------------
  alpha Z        PSCENC =       892.99476195
  Ewald energy   TEWEN  =    -18259.97844195
  -Hartree energ DENC   =     -7529.51406328
  -exchange      EXHF   =         0.00000000
  -V(xc)+E(xc)   XCENC  =       963.86173745
  PAW double counting   =     23296.95823663   -24370.68108856
  entropy T*S    EENTRO =        -0.00000000
  eigenvalues    EBANDS =     -3003.42276917
  atomic energy  EATOM  =     26580.56019858
  Solvation  Ediel_sol  =         0.00000000
  ---------------------------------------------------
  free energy    TOTEN  =     -1429.22142834 eV

  energy without entropy =    -1429.22142834  energy(sigma->0) =    -1429.22142834


--------------------------------------------------------------------------------------------------------




--------------------------------------- Iteration      1(  11)  ---------------------------------------


    POTLOK:  cpu time    0.3033: real time    0.3049
    SETDIJ:  cpu time    1.1998: real time    1.1999
     EDDAV:  cpu time   13.5526: real time   13.5531
       DOS:  cpu time    0.0004: real time    0.0004
    CHARGE:  cpu time    3.1158: real time    3.1173
    MIXING:  cpu time    0.0016: real time    0.0016
    --------------------------------------------
      LOOP:  cpu time   18.1735: real time   18.1772

 eigenvalue-minimisations  :  2936
 total energy-change (2. order) :-0.2771653E-02  (-0.2476053E-03)
 number of electron     351.9999991 magnetization 
 augmentation part       -4.6996770 magnetization 

 Broyden mixing:
  rms(total) = 0.95039E-02    rms(broyden)= 0.95038E-02
  rms(prec ) = 0.11758E-01
  weight for this iteration     100.00

 eigenvalues of (default mixing * dielectric matrix)
  average eigenvalue GAMMA=   1.5984
  2.6394  2.6394  1.2468  1.2468  0.9091  0.9091

 Free energy of the ion-electron system (eV)
  ---------------------------------------------------
  alpha Z        PSCENC =       892.99476195
  Ewald energy   TEWEN  =    -18259.97844195
  -Hartree energ DENC   =     -7527.40727147
  -exchange      EXHF   =         0.00000000
  -V(xc)+E(xc)   XCENC  =       963.77648853
  PAW double counting   =     23263.80174027   -24337.67948035
  entropy T*S    EENTRO =        -0.00000000
  eigenvalues    EBANDS =     -3005.29219557
  atomic energy  EATOM  =     26580.56019858
  Solvation  Ediel_sol  =         0.00000000
  ---------------------------------------------------
  free energy    TOTEN  =     -1429.22420000 eV

  energy without entropy =    -1429.22420000  energy(sigma->0) =    -1429.22420000


--------------------------------------------------------------------------------------------------------




--------------------------------------- Iteration      1(  12)  ---------------------------------------


    POTLOK:  cpu time    0.2644: real time    0.3053
    SETDIJ:  cpu time    1.1970: real time    1.1970
     EDDAV:  cpu time   13.5130: real time   13.5137
       DOS:  cpu time    0.0004: real time    0.0004
    CHARGE:  cpu time    3.1185: real time    3.1186
    MIXING:  cpu time    0.0017: real time    0.0017
    --------------------------------------------
      LOOP:  cpu time   18.0950: real time   18.1367

 eigenvalue-minimisations  :  2920
 total energy-change (2. order) :-0.8373528E-03  (-0.9466010E-04)
 number of electron     351.9999991 magnetization 
 augmentation part       -4.7032695 magnetization 

 Broyden mixing:
  rms(total) = 0.38732E-02    rms(broyden)= 0.38730E-02
  rms(prec ) = 0.44011E-02
  weight for this iteration     100.00

 eigenvalues of (default mixing * dielectric matrix)
  average eigenvalue GAMMA=   1.6352
  2.9820  2.5505  1.7407  1.2225  0.9813  0.9846  0.9846

 Free energy of the ion-electron system (eV)
  ---------------------------------------------------
  alpha Z        PSCENC =       892.99476195
  Ewald energy   TEWEN  =    -18259.97844195
  -Hartree energ DENC   =     -7527.51140971
  -exchange      EXHF   =         0.00000000
  -V(xc)+E(xc)   XCENC  =       963.91010908
  PAW double counting   =     23270.24036092   -24344.23502873
  entropy T*S    EENTRO =        -0.00000000
  eigenvalues    EBANDS =     -3005.20558750
  atomic energy  EATOM  =     26580.56019858
  Solvation  Ediel_sol  =         0.00000000
  ---------------------------------------------------
  free energy    TOTEN  =     -1429.22503735 eV

  energy without entropy =    -1429.22503735  energy(sigma->0) =    -1429.22503735


--------------------------------------------------------------------------------------------------------




--------------------------------------- Iteration      1(  13)  ---------------------------------------


    POTLOK:  cpu time    0.2557: real time    0.2965
    SETDIJ:  cpu time    1.2015: real time    1.2015
     EDDAV:  cpu time   14.4636: real time   14.4642
       DOS:  cpu time    0.0005: real time    0.0005
    CHARGE:  cpu time    3.1193: real time    3.1194
    MIXING:  cpu time    0.0023: real time    0.0023
    --------------------------------------------
      LOOP:  cpu time   19.0428: real time   19.0843

 eigenvalue-minimisations  :  3256
 total energy-change (2. order) :-0.1143769E-04  (-0.9116976E-05)
 number of electron     351.9999991 magnetization 
 augmentation part       -4.7028503 magnetization 

 Broyden mixing:
  rms(total) = 0.14295E-02    rms(broyden)= 0.14295E-02
  rms(prec ) = 0.15006E-02
  weight for this iteration     100.00

 eigenvalues of (default mixing * dielectric matrix)
  average eigenvalue GAMMA=   1.5830
  2.9941  2.5713  1.7508  1.2896  1.1206  1.1206  0.9655  0.8513

 Free energy of the ion-electron system (eV)
  ---------------------------------------------------
  alpha Z        PSCENC =       892.99476195
  Ewald energy   TEWEN  =    -18259.97844195
  -Hartree energ DENC   =     -7527.88371606
  -exchange      EXHF   =         0.00000000
  -V(xc)+E(xc)   XCENC  =       963.93804659
  PAW double counting   =     23267.42620397   -24341.41817765
  entropy T*S    EENTRO =        -0.00000000
  eigenvalues    EBANDS =     -3004.86392422
  atomic energy  EATOM  =     26580.56019858
  Solvation  Ediel_sol  =         0.00000000
  ---------------------------------------------------
  free energy    TOTEN  =     -1429.22504879 eV

  energy without entropy =    -1429.22504879  energy(sigma->0) =    -1429.22504879


--------------------------------------------------------------------------------------------------------




--------------------------------------- Iteration      1(  14)  ---------------------------------------


    POTLOK:  cpu time    0.2522: real time    0.2923
    SETDIJ:  cpu time    1.2031: real time    1.2032
     EDDAV:  cpu time   13.2058: real time   13.2062
       DOS:  cpu time    0.0005: real time    0.0005
    CHARGE:  cpu time    3.1176: real time    3.1177
    MIXING:  cpu time    0.0017: real time    0.0017
    --------------------------------------------
      LOOP:  cpu time   17.7809: real time   17.8216

 eigenvalue-minimisations  :  2808
 total energy-change (2. order) :-0.2015943E-04  (-0.9528074E-06)
 number of electron     351.9999991 magnetization 
 augmentation part       -4.7023605 magnetization 

 Broyden mixing:
  rms(total) = 0.62784E-03    rms(broyden)= 0.62783E-03
  rms(prec ) = 0.65764E-03
  weight for this iteration     100.00

 eigenvalues of (default mixing * dielectric matrix)
  average eigenvalue GAMMA=   1.6685
  2.9031  2.7434  2.1398  2.1398  1.1176  1.1176  0.9919  0.9919  0.8712

 Free energy of the ion-electron system (eV)
  ---------------------------------------------------
  alpha Z        PSCENC =       892.99476195
  Ewald energy   TEWEN  =    -18259.97844195
  -Hartree energ DENC   =     -7527.91476245
  -exchange      EXHF   =         0.00000000
  -V(xc)+E(xc)   XCENC  =       963.93897515
  PAW double counting   =     23267.16271466   -24341.15140459
  entropy T*S    EENTRO =        -0.00000000
  eigenvalues    EBANDS =     -3004.83711030
  atomic energy  EATOM  =     26580.56019858
  Solvation  Ediel_sol  =         0.00000000
  ---------------------------------------------------
  free energy    TOTEN  =     -1429.22506895 eV

  energy without entropy =    -1429.22506895  energy(sigma->0) =    -1429.22506895


--------------------------------------------------------------------------------------------------------




--------------------------------------- Iteration      1(  15)  ---------------------------------------


    POTLOK:  cpu time    0.2495: real time    0.2955
    SETDIJ:  cpu time    1.1975: real time    1.1975
     EDDAV:  cpu time   10.2855: real time   10.2859
       DOS:  cpu time    0.0004: real time    0.0004
    CHARGE:  cpu time    3.1179: real time    3.1179
    MIXING:  cpu time    0.0020: real time    0.0020
    --------------------------------------------
      LOOP:  cpu time   14.8528: real time   14.8993

 eigenvalue-minimisations  :  1776
 total energy-change (2. order) : 0.1851088E-05  (-0.8850673E-07)
 number of electron     351.9999991 magnetization 
 augmentation part       -4.7025286 magnetization 

 Broyden mixing:
  rms(total) = 0.11050E-03    rms(broyden)= 0.11048E-03
  rms(prec ) = 0.13763E-03
  weight for this iteration     100.00

 eigenvalues of (default mixing * dielectric matrix)
  average eigenvalue GAMMA=   1.6169
  3.0861  2.5482  2.5482  1.8710  1.2263  1.0768  1.0768  0.9542  0.9542  0.8276

 Free energy of the ion-electron system (eV)
  ---------------------------------------------------
  alpha Z        PSCENC =       892.99476195
  Ewald energy   TEWEN  =    -18259.97844195
  -Hartree energ DENC   =     -7527.92084583
  -exchange      EXHF   =         0.00000000
  -V(xc)+E(xc)   XCENC  =       963.93949746
  PAW double counting   =     23267.56125802   -24341.54774550
  entropy T*S    EENTRO =        -0.00000000
  eigenvalues    EBANDS =     -3004.83374981
  atomic energy  EATOM  =     26580.56019858
  Solvation  Ediel_sol  =         0.00000000
  ---------------------------------------------------
  free energy    TOTEN  =     -1429.22506710 eV

  energy without entropy =    -1429.22506710  energy(sigma->0) =    -1429.22506710


--------------------------------------------------------------------------------------------------------




--------------------------------------- Iteration      1(  16)  ---------------------------------------


    POTLOK:  cpu time    0.2508: real time    0.3051
    SETDIJ:  cpu time    1.1975: real time    1.1976
     EDDAV:  cpu time   10.0006: real time   10.0011
       DOS:  cpu time    0.0004: real time    0.0004
    CHARGE:  cpu time    3.1230: real time    3.1231
    MIXING:  cpu time    0.0021: real time    0.0021
    --------------------------------------------
      LOOP:  cpu time   14.5744: real time   14.6293

 eigenvalue-minimisations  :  1672
 total energy-change (2. order) : 0.5478050E-05  (-0.4329575E-07)
 number of electron     351.9999991 magnetization 
 augmentation part       -4.7025147 magnetization 

 Broyden mixing:
  rms(total) = 0.93419E-04    rms(broyden)= 0.93410E-04
  rms(prec ) = 0.10093E-03
  weight for this iteration     100.00

 eigenvalues of (default mixing * dielectric matrix)
  average eigenvalue GAMMA=   1.4763
  3.0832  2.5418  2.5418  1.8726  1.2282  1.0807  1.0807  0.9569  0.9569  0.8141
  0.0824

 Free energy of the ion-electron system (eV)
  ---------------------------------------------------
  alpha Z        PSCENC =       892.99476195
  Ewald energy   TEWEN  =    -18259.97844195
  -Hartree energ DENC   =     -7527.93915665
  -exchange      EXHF   =         0.00000000
  -V(xc)+E(xc)   XCENC  =       963.93974182
  PAW double counting   =     23267.51201859   -24341.49785379
  entropy T*S    EENTRO =        -0.00000000
  eigenvalues    EBANDS =     -3004.81633017
  atomic energy  EATOM  =     26580.56019858
  Solvation  Ediel_sol  =         0.00000000
  ---------------------------------------------------
  free energy    TOTEN  =     -1429.22506162 eV

  energy without entropy =    -1429.22506162  energy(sigma->0) =    -1429.22506162


--------------------------------------------------------------------------------------------------------




--------------------------------------- Iteration      1(  17)  ---------------------------------------


    POTLOK:  cpu time    0.2587: real time    0.2908
    SETDIJ:  cpu time    1.1943: real time    1.1943
     EDDAV:  cpu time    9.9448: real time    9.9453
       DOS:  cpu time    0.0004: real time    0.0004
    CHARGE:  cpu time    3.1204: real time    3.1205
    MIXING:  cpu time    0.0023: real time    0.0023
    --------------------------------------------
      LOOP:  cpu time   14.5210: real time   14.5537

 eigenvalue-minimisations  :  1656
 total energy-change (2. order) : 0.2858390E-05  (-0.2243730E-07)
 number of electron     351.9999991 magnetization 
 augmentation part       -4.7025297 magnetization 

 Broyden mixing:
  rms(total) = 0.10640E-03    rms(broyden)= 0.10639E-03
  rms(prec ) = 0.11126E-03
  weight for this iteration     100.00

 eigenvalues of (default mixing * dielectric matrix)
  average eigenvalue GAMMA=   1.4949
  3.1219  2.5518  2.5518  1.8025  1.2871  1.0991  1.0991  0.9575  0.9575  0.8534
  0.8287  0.8287

 Free energy of the ion-electron system (eV)
  ---------------------------------------------------
  alpha Z        PSCENC =       892.99476195
  Ewald energy   TEWEN  =    -18259.97844195
  -Hartree energ DENC   =     -7527.93980582
  -exchange      EXHF   =         0.00000000
  -V(xc)+E(xc)   XCENC  =       963.93809981
  PAW double counting   =     23267.49081381   -24341.47658807
  entropy T*S    EENTRO =        -0.00000000
  eigenvalues    EBANDS =     -3004.81409707
  atomic energy  EATOM  =     26580.56019858
  Solvation  Ediel_sol  =         0.00000000
  ---------------------------------------------------
  free energy    TOTEN  =     -1429.22505876 eV

  energy without entropy =    -1429.22505876  energy(sigma->0) =    -1429.22505876


--------------------------------------------------------------------------------------------------------




--------------------------------------- Iteration      1(  18)  ---------------------------------------


    POTLOK:  cpu time    0.2729: real time    0.3251
    SETDIJ:  cpu time    1.1968: real time    1.1968
     EDDAV:  cpu time    9.9623: real time    9.9627
       DOS:  cpu time    0.0005: real time    0.0005
    CHARGE:  cpu time    3.1218: real time    3.1218
    MIXING:  cpu time    0.0024: real time    0.0024
    --------------------------------------------
      LOOP:  cpu time   14.5567: real time   14.6094

 eigenvalue-minimisations  :  1656
 total energy-change (2. order) : 0.1513305E-05  (-0.9235434E-08)
 number of electron     351.9999991 magnetization 
 augmentation part       -4.7025251 magnetization 

 Broyden mixing:
  rms(total) = 0.10481E-03    rms(broyden)= 0.10481E-03
  rms(prec ) = 0.10963E-03
  weight for this iteration     100.00

 eigenvalues of (default mixing * dielectric matrix)
  average eigenvalue GAMMA=   1.5606
  3.1151  2.5567  2.5567  1.6888  1.6888  1.7728  1.3098  1.1002  1.1002  0.9560
  0.9560  0.8387  0.6484

 Free energy of the ion-electron system (eV)
  ---------------------------------------------------
  alpha Z        PSCENC =       892.99476195
  Ewald energy   TEWEN  =    -18259.97844195
  -Hartree energ DENC   =     -7527.94124595
  -exchange      EXHF   =         0.00000000
  -V(xc)+E(xc)   XCENC  =       963.93732892
  PAW double counting   =     23267.46432355   -24341.44975985
  entropy T*S    EENTRO =        -0.00000000
  eigenvalues    EBANDS =     -3004.81222248
  atomic energy  EATOM  =     26580.56019858
  Solvation  Ediel_sol  =         0.00000000
  ---------------------------------------------------
  free energy    TOTEN  =     -1429.22505725 eV

  energy without entropy =    -1429.22505725  energy(sigma->0) =    -1429.22505725


--------------------------------------------------------------------------------------------------------




--------------------------------------- Iteration      1(  19)  ---------------------------------------


    POTLOK:  cpu time    0.2559: real time    0.3013
    SETDIJ:  cpu time    1.1969: real time    1.1970
     EDDAV:  cpu time    9.9834: real time    9.9840
       DOS:  cpu time    0.0004: real time    0.0004
    CHARGE:  cpu time    3.1277: real time    3.1277
    MIXING:  cpu time    0.0021: real time    0.0021
    --------------------------------------------
      LOOP:  cpu time   14.5663: real time   14.6124

 eigenvalue-minimisations  :  1664
 total energy-change (2. order) : 0.5259747E-05  (-0.2029056E-07)
 number of electron     351.9999991 magnetization 
 augmentation part       -4.7025221 magnetization 

 Broyden mixing:
  rms(total) = 0.66350E-04    rms(broyden)= 0.66334E-04
  rms(prec ) = 0.73270E-04
  weight for this iteration     100.00

 eigenvalues of (default mixing * dielectric matrix)
  average eigenvalue GAMMA=   1.7159
  2.8158  2.8158  3.2232  2.6902  2.4421  1.5540  1.3572  1.1512  1.1512  0.8927
  0.9983  0.9983  0.9662  0.9662

 Free energy of the ion-electron system (eV)
  ---------------------------------------------------
  alpha Z        PSCENC =       892.99476195
  Ewald energy   TEWEN  =    -18259.97844195
  -Hartree energ DENC   =     -7527.93767726
  -exchange      EXHF   =         0.00000000
  -V(xc)+E(xc)   XCENC  =       963.93486800
  PAW double counting   =     23267.35252850   -24341.33645528
  entropy T*S    EENTRO =        -0.00000000
  eigenvalues    EBANDS =     -3004.81483452
  atomic energy  EATOM  =     26580.56019858
  Solvation  Ediel_sol  =         0.00000000
  ---------------------------------------------------
  free energy    TOTEN  =     -1429.22505199 eV

  energy without entropy =    -1429.22505199  energy(sigma->0) =    -1429.22505199


--------------------------------------------------------------------------------------------------------




--------------------------------------- Iteration      1(  20)  ---------------------------------------


    POTLOK:  cpu time    0.2954: real time    0.3083
    SETDIJ:  cpu time    1.1961: real time    1.1961
     EDDAV:  cpu time    9.9599: real time    9.9604
       DOS:  cpu time    0.0009: real time    0.0009
    CHARGE:  cpu time    3.1214: real time    3.1215
    MIXING:  cpu time    0.0021: real time    0.0022
    --------------------------------------------
      LOOP:  cpu time   14.5758: real time   14.5894

 eigenvalue-minimisations  :  1656
 total energy-change (2. order) : 0.8060817E-05  (-0.1364578E-07)
 number of electron     351.9999991 magnetization 
 augmentation part       -4.7025174 magnetization 

 Broyden mixing:
  rms(total) = 0.17214E-03    rms(broyden)= 0.17214E-03
  rms(prec ) = 0.17594E-03
  weight for this iteration     100.00

 eigenvalues of (default mixing * dielectric matrix)
  average eigenvalue GAMMA=   1.5960
  3.3436  2.6768  2.6768  1.6170  1.6170  1.8282  1.8282  1.6701  1.0786  1.0786
  1.0048  1.0048  0.9050  0.9050  0.7051

 Free energy of the ion-electron system (eV)
  ---------------------------------------------------
  alpha Z        PSCENC =       892.99476195
  Ewald energy   TEWEN  =    -18259.97844195
  -Hartree energ DENC   =     -7527.93493770
  -exchange      EXHF   =         0.00000000
  -V(xc)+E(xc)   XCENC  =       963.93246172
  PAW double counting   =     23267.09024989   -24341.07208697
  entropy T*S    EENTRO =        -0.00000000
  eigenvalues    EBANDS =     -3004.81724944
  atomic energy  EATOM  =     26580.56019858
  Solvation  Ediel_sol  =         0.00000000
  ---------------------------------------------------
  free energy    TOTEN  =     -1429.22504393 eV

  energy without entropy =    -1429.22504393  energy(sigma->0) =    -1429.22504393


--------------------------------------------------------------------------------------------------------




--------------------------------------- Iteration      1(  21)  ---------------------------------------


    POTLOK:  cpu time    0.2912: real time    0.3089
    SETDIJ:  cpu time    1.1926: real time    1.1926
     EDDAV:  cpu time    9.8604: real time    9.8608
       DOS:  cpu time    0.0006: real time    0.0006
    CHARGE:  cpu time    3.1239: real time    3.1239
    MIXING:  cpu time    0.0022: real time    0.0022
    --------------------------------------------
      LOOP:  cpu time   14.4709: real time   14.4891

 eigenvalue-minimisations  :  1616
 total energy-change (2. order) :-0.4071495E-05  (-0.3246942E-08)
 number of electron     351.9999991 magnetization 
 augmentation part       -4.7025016 magnetization 

 Broyden mixing:
  rms(total) = 0.72574E-04    rms(broyden)= 0.72574E-04
  rms(prec ) = 0.75116E-04
  weight for this iteration     100.00

 eigenvalues of (default mixing * dielectric matrix)
  average eigenvalue GAMMA=   1.5203
  3.3489  2.6847  2.6847  1.5723  1.5723  1.8437  1.8437  1.7789  1.0734  1.0734
  1.0117  1.0117  0.9011  0.9011  0.7404  0.2819

 Free energy of the ion-electron system (eV)
  ---------------------------------------------------
  alpha Z        PSCENC =       892.99476195
  Ewald energy   TEWEN  =    -18259.97844195
  -Hartree energ DENC   =     -7527.93885989
  -exchange      EXHF   =         0.00000000
  -V(xc)+E(xc)   XCENC  =       963.93392752
  PAW double counting   =     23267.20003023   -24341.18317028
  entropy T*S    EENTRO =        -0.00000000
  eigenvalues    EBANDS =     -3004.81349416
  atomic energy  EATOM  =     26580.56019858
  Solvation  Ediel_sol  =         0.00000000
  ---------------------------------------------------
  free energy    TOTEN  =     -1429.22504800 eV

  energy without entropy =    -1429.22504800  energy(sigma->0) =    -1429.22504800


--------------------------------------------------------------------------------------------------------




--------------------------------------- Iteration      1(  22)  ---------------------------------------


    POTLOK:  cpu time    0.2933: real time    0.3083
    SETDIJ:  cpu time    1.1995: real time    1.1995
     EDDAV:  cpu time    9.7444: real time    9.7450
       DOS:  cpu time    0.0003: real time    0.0003
    --------------------------------------------
      LOOP:  cpu time   11.2375: real time   11.2531

 eigenvalue-minimisations  :  1584
 total energy-change (2. order) : 0.6399086E-06  (-0.9540185E-09)
 number of electron     351.9999991 magnetization 
 augmentation part       -4.7025016 magnetization 

 Free energy of the ion-electron system (eV)
  ---------------------------------------------------
  alpha Z        PSCENC =       892.99476195
  Ewald energy   TEWEN  =    -18259.97844195
  -Hartree energ DENC   =     -7527.93822212
  -exchange      EXHF   =         0.00000000
  -V(xc)+E(xc)   XCENC  =       963.93372242
  PAW double counting   =     23267.18850596   -24341.17149004
  entropy T*S    EENTRO =        -0.00000000
  eigenvalues    EBANDS =     -3004.81408215
  atomic energy  EATOM  =     26580.56019858
  Solvation  Ediel_sol  =         0.00000000
  ---------------------------------------------------
  free energy    TOTEN  =     -1429.22504736 eV

  energy without entropy =    -1429.22504736  energy(sigma->0) =    -1429.22504736


--------------------------------------------------------------------------------------------------------




 average (electrostatic) potential at core
  the test charge radii are     1.1312  1.1541  1.0178
  (the norm of the test charge is              1.0000)
       1 -55.5174       2 -55.5174       3 -55.5174       4 -55.5174       5 -55.5174
       6 -55.5174       7 -55.5174       8 -55.5174       9-101.4509      10-101.4509
      11-101.4509      12-101.4509      13-101.4509      14-101.4509      15-101.4509
      16-101.4509      17 -68.9369      18 -68.9369      19 -68.9369      20 -68.9369
      21 -68.9369      22 -68.9369      23 -68.9369      24 -68.9369      25 -68.9694
      26 -68.9694      27 -68.9694      28 -68.9694      29 -68.9694      30 -68.9694
      31 -68.9694      32 -68.9694      33 -68.9369      34 -68.9369      35 -68.9369
      36 -68.9369      37 -68.9369      38 -68.9369      39 -68.9369      40 -68.9369



 E-fermi :   0.9461     XC(G=0):  -8.0389     alpha+bet : -7.0048


 k-point     1 :       0.0000    0.0000    0.0000
[...]
 total charge-density along one line

 pseudopotential strength for first ion, spin component:           1
 18.073  -4.731  -0.000  -0.000   0.000   0.000   0.000  -0.000
 -4.731   1.247   0.000   0.000  -0.000  -0.000  -0.000   0.000
 -0.000   0.000   2.305   0.000  -0.000  -2.766  -0.000   0.000
 -0.000   0.000   0.000   2.305   0.000  -0.000  -2.766  -0.000
  0.000  -0.000  -0.000   0.000   2.308   0.000  -0.000  -2.769
  0.000  -0.000  -2.766  -0.000   0.000   3.290   0.000  -0.000
  0.000  -0.000  -0.000  -2.766  -0.000   0.000   3.290   0.000
 -0.000   0.000   0.000  -0.000  -2.769  -0.000   0.000   3.294
 -0.000   0.000  -0.000   0.000  -0.000   0.000  -0.000   0.000
  0.000  -0.000  -0.000  -0.000   0.000   0.000   0.000  -0.000
 -0.001   0.000   0.000  -0.000   0.000  -0.000   0.000  -0.000
  0.000  -0.000   0.000  -0.000  -0.000  -0.000   0.000   0.000
  0.001  -0.000   0.000  -0.000  -0.000  -0.000   0.000   0.000
 total augmentation occupancy for first ion, spin component:           1
  1.906  -0.149   0.000   0.000   0.000   0.000   0.000   0.000  -0.000   0.000  -0.001   0.000   0.002
 -0.149   0.086   0.000   0.000   0.000   0.000   0.000   0.000  -0.000  -0.000   0.003  -0.000  -0.005
  0.000   0.000   2.011   0.000   0.000  -0.001   0.000   0.000   0.000  -0.000  -0.000  -0.000  -0.000
  0.000   0.000   0.000   2.011   0.000   0.000  -0.001   0.000   0.000  -0.000   0.000  -0.000   0.000
  0.000   0.000   0.000   0.000   2.018   0.000   0.000   0.004   0.000  -0.000   0.000  -0.000  -0.000
  0.000   0.000  -0.001   0.000   0.000   0.006   0.000   0.000  -0.000  -0.000   0.000   0.000   0.000
  0.000   0.000   0.000  -0.001   0.000   0.000   0.006   0.000   0.000   0.000   0.000   0.000   0.000
  0.000   0.000   0.000   0.000   0.004   0.000   0.000   0.003   0.000  -0.000   0.000   0.000  -0.000
 -0.000  -0.000   0.000   0.000   0.000  -0.000   0.000   0.000   0.003   0.000   0.000  -0.000   0.000
  0.000  -0.000  -0.000  -0.000  -0.000  -0.000   0.000  -0.000   0.000   0.006   0.000  -0.000   0.000
 -0.001   0.003  -0.000   0.000   0.000   0.000   0.000   0.000   0.000   0.000   0.003  -0.000  -0.001
  0.000  -0.000  -0.000  -0.000  -0.000   0.000   0.000   0.000  -0.000  -0.000  -0.000   0.002  -0.000
  0.002  -0.005  -0.000   0.000  -0.000   0.000   0.000  -0.000   0.000   0.000  -0.001  -0.000   0.002


------------------------ aborting loop because EDIFF is reached ----------------------------------------





 total charge     

# of ion       s       p       d       tot
------------------------------------------
    1        1.782   4.718   0.012   6.511
    2        1.782   4.718   0.012   6.511
    3        1.782   4.718   0.012   6.511
    4        1.782   4.718   0.012   6.511
    5        1.782   4.718   0.012   6.511
    6        1.782   4.718   0.012   6.511
    7        1.782   4.718   0.012   6.511
    8        1.782   4.718   0.012   6.511
    9        1.555   0.441   9.839  11.835
   10        1.555   0.441   9.839  11.835
   11        1.555   0.441   9.839  11.835
   12        1.555   0.441   9.839  11.835
   13        1.555   0.441   9.839  11.835
   14        1.555   0.441   9.839  11.835
   15        1.555   0.441   9.839  11.835
   16        1.555   0.441   9.839  11.835
   17        1.613   3.308   0.006   4.927
   18        1.613   3.308   0.006   4.927
   19        1.613   3.308   0.006   4.927
   20        1.613   3.308   0.006   4.927
   21        1.613   3.308   0.006   4.927
   22        1.613   3.308   0.006   4.927
   23        1.613   3.308   0.006   4.927
   24        1.613   3.308   0.006   4.927
   25        1.615   3.288   0.007   4.911
   26        1.615   3.288   0.007   4.911
   27        1.615   3.288   0.007   4.911
   28        1.615   3.288   0.007   4.911
   29        1.615   3.288   0.007   4.911
   30        1.615   3.288   0.007   4.911
   31        1.615   3.288   0.007   4.911
   32        1.615   3.288   0.007   4.911
   33        1.616   3.266   0.008   4.890
   34        1.616   3.266   0.008   4.890
   35        1.616   3.266   0.008   4.890
   36        1.616   3.266   0.008   4.890
   37        1.616   3.266   0.008   4.890
   38        1.616   3.266   0.008   4.890
   39        1.616   3.266   0.008   4.890
   40        1.616   3.266   0.008   4.890
--------------------------------------------------
tot         65.452 120.160  78.979 264.591

    CHARGE:  cpu time    0.4184: real time    0.4184
    FORLOC:  cpu time    0.0115: real time    0.0115
    FORNL :  cpu time    1.5719: real time    1.5719
    STRESS:  cpu time   39.9616: real time   39.9629
    FORCOR:  cpu time    0.2401: real time    0.2401
    FORHAR:  cpu time    0.0274: real time    0.0274
    MIXING:  cpu time    0.0025: real time    0.0025
    OFIELD:  cpu time    0.0000: real time    0.0000

  FORCE on cell =-STRESS in cart. coord.  units (eV):
  Direction    XX          YY          ZZ          XY          YZ          ZX
  --------------------------------------------------------------------------------------
  Alpha Z   892.99476   892.99476   892.99476
  Ewald   -6142.87701 -6142.87701 -5974.31088     0.00000     0.00000    -0.00000
  Hartree  2489.44181  2489.44181  2549.05639    -0.00000    -0.00000    -0.00000
  E(xc)   -1478.85206 -1478.57477 -1478.20425     0.00000    -0.00000    -0.00000
  Local   -2880.03294 -2880.03294 -3108.21545     0.00000     0.00000    -0.00000
  n-local  1805.92160  1804.03234  1807.86531    -0.00000    -0.00000    -0.00000
  augment   811.64554   811.64554   811.53698     0.00000    -0.00005    -0.00006
  Kinetic  4497.33010  4509.40726  4505.33804     0.00000    -0.00000    -0.00000
  Fock        0.00000     0.00000     0.00000     0.00000     0.00000     0.00000
  -------------------------------------------------------------------------------------
  Total       0.80440     0.80440     6.06089     0.00000    -0.00000    -0.00000
  in kB       0.79743     0.79743     6.00840     0.00000    -0.00000    -0.00000
  external pressure =        2.53 kB  Pullay stress =        0.00 kB


 VOLUME and BASIS-vectors are now :
 -----------------------------------------------------------------------------
  energy-cutoff  :      300.00
  volume of cell :     1616.17
      direct lattice vectors                 reciprocal lattice vectors
    11.735352000  0.000000000  0.000000000     0.085212612  0.000000000  0.000000000
     0.000000000 11.735352000  0.000000000     0.000000000  0.085212612  0.000000000
     0.000000000  0.000000000 11.735352000     0.000000000  0.000000000  0.085212612

  length of vectors
    11.735352000 11.735352000 11.735352000     0.085212612  0.085212612  0.085212612


 FORCES acting on ions
    electron-ion (+dipol)            ewald-force                    non-local-force                 convergence-correction
 -----------------------------------------------------------------------------------------------
   0.694E-13 -.574E-12 -.691E-12   0.885E-14 -.409E-13 -.160E-13   0.000E+00 0.000E+00 -.131E-26   -.736E-14 0.348E-13 0.184E-12
   -.461E-13 0.658E-12 -.108E-11   0.168E-13 -.409E-13 -.888E-14   0.000E+00 0.646E-26 0.891E-25   -.384E-13 0.847E-13 -.138E-12
   -.304E-14 0.328E-12 -.568E-12   -.234E-13 -.302E-13 -.178E-13   0.323E-26 -.258E-25 0.111E-24   -.324E-13 0.225E-13 0.178E-12
   0.313E-13 -.103E-11 -.123E-11   -.447E-13 -.302E-13 -.107E-13   0.000E+00 0.000E+00 0.232E-25   -.691E-13 -.283E-13 -.135E-12
   -.254E-12 0.239E-11 -.267E-11   -.320E-13 -.213E-13 -.178E-13   0.000E+00 0.129E-25 0.214E-24   0.626E-13 0.221E-13 0.210E-12
   -.143E-12 0.130E-11 0.606E-12   0.168E-13 -.213E-13 -.107E-13   0.000E+00 -.258E-25 0.942E-26   0.933E-13 0.866E-13 -.166E-12
   -.358E-12 -.166E-11 0.290E-11   -.693E-14 -.284E-13 -.213E-13   0.000E+00 0.000E+00 0.801E-26   0.944E-13 0.364E-13 0.189E-12
   -.481E-13 -.221E-11 -.517E-11   0.144E-13 -.284E-13 -.142E-13   0.000E+00 0.129E-25 0.187E-24   0.128E-12 -.295E-13 -.140E-12
   -.720E-14 0.109E-13 0.189E-14   0.595E-13 -.853E-13 0.330E-13   0.000E+00 -.165E-23 -.638E-26   -.292E-13 0.538E-13 -.272E-12
   -.175E-13 -.217E-13 0.116E-11   0.533E-13 -.924E-13 0.348E-13   0.165E-23 0.000E+00 0.648E-25   -.420E-13 0.680E-13 -.113E-12
   -.152E-13 0.117E-11 -.117E-13   -.195E-13 0.153E-12 0.312E-13   0.000E+00 0.000E+00 0.116E-24   -.200E-13 -.497E-13 -.401E-12
   -.140E-13 0.115E-11 0.114E-11   -.284E-13 0.139E-12 0.329E-13   0.000E+00 -.165E-23 0.118E-24   -.454E-13 -.773E-13 0.106E-13
   0.111E-11 -.355E-13 0.626E-11   -.364E-13 0.150E-12 0.294E-13   0.000E+00 0.000E+00 0.313E-24   -.243E-12 0.970E-13 -.223E-12
   0.114E-11 -.193E-13 -.766E-11   -.249E-13 0.143E-12 0.312E-13   0.000E+00 -.165E-23 0.179E-24   -.230E-12 0.112E-12 -.165E-12
   0.306E-11 -.329E-11 0.192E-11   0.711E-13 -.107E-12 0.277E-13   0.000E+00 -.165E-23 -.826E-24   -.260E-12 -.170E-12 -.325E-12
   0.149E-11 -.162E-11 -.141E-11   0.853E-13 -.675E-13 0.579E-13   0.165E-23 0.000E+00 0.692E-25   -.227E-12 -.203E-12 -.683E-13
   0.211E+02 -.593E-11 -.550E-07   -.212E+02 -.622E-14 0.457E-14   0.866E-01 0.414E-24 0.248E-24   -.259E-04 -.243E-12 -.523E-13
   0.211E+02 -.421E-11 -.550E-07   -.212E+02 0.355E-14 0.902E-14   0.866E-01 0.000E+00 0.721E-24   -.259E-04 -.233E-12 -.147E-13
   -.211E+02 -.156E-12 0.550E-07   0.212E+02 -.107E-13 0.277E-14   -.866E-01 0.207E-24 0.130E-22   0.259E-04 0.169E-12 -.613E-13
   -.211E+02 -.932E-13 0.550E-07   0.212E+02 -.249E-13 0.107E-13   -.866E-01 0.000E+00 -.700E-24   0.259E-04 0.162E-12 -.583E-14
   -.211E+02 0.309E-11 0.550E-07   0.212E+02 -.444E-13 0.808E-14   -.866E-01 0.207E-24 0.211E-24   0.259E-04 0.227E-12 -.320E-13
   -.211E+02 0.252E-11 0.550E-07   0.212E+02 -.320E-13 0.125E-13   -.866E-01 0.000E+00 -.746E-24   0.259E-04 0.254E-12 -.438E-13
   0.211E+02 0.205E-11 -.550E-07   -.212E+02 0.133E-13 0.815E-14   0.866E-01 0.414E-24 0.124E-24   -.259E-04 -.248E-12 -.412E-13
   0.211E+02 0.995E-12 -.550E-07   -.212E+02 0.000E+00 0.899E-14   0.866E-01 0.000E+00 0.115E-23   -.259E-04 -.274E-12 -.447E-13
   0.780E-14 -.862E-14 -.172E-13   -.515E-13 -.133E-13 -.382E-13   -.646E-26 0.000E+00 0.195E-25   0.666E-13 0.594E-13 0.194E-12
   0.433E-14 -.226E-14 0.966E-13   -.586E-13 -.133E-13 -.346E-13   0.000E+00 0.000E+00 0.498E-26   0.883E-13 0.523E-13 -.414E-13
   0.690E-14 0.123E-12 0.186E-13   -.355E-13 -.178E-14 -.320E-13   0.517E-25 -.517E-25 -.133E-24   0.811E-13 -.212E-13 0.198E-12
   0.338E-14 0.851E-13 0.330E-13   -.213E-13 0.000E+00 -.320E-13   0.517E-25 0.000E+00 -.107E-24   0.877E-13 -.135E-13 -.559E-13
   0.111E-12 -.703E-14 -.711E-11   -.204E-13 -.355E-14 -.320E-13   0.310E-24 -.258E-24 0.106E-24   -.460E-13 0.796E-13 0.163E-12
   0.111E-12 -.726E-14 0.200E-11   -.346E-13 -.355E-14 -.320E-13   0.103E-24 0.000E+00 -.162E-25   -.644E-13 0.770E-13 -.177E-13
   0.456E-12 -.192E-11 -.419E-11   -.320E-13 -.133E-13 -.284E-13   0.969E-25 0.000E+00 -.337E-25   -.614E-13 -.492E-13 0.203E-12
   0.773E-12 -.422E-12 -.247E-12   -.391E-13 -.133E-13 -.249E-13   0.103E-24 0.207E-24 -.401E-24   -.691E-13 -.483E-13 -.427E-13
   0.738E-13 -.211E+02 0.550E-07   -.237E-13 0.212E+02 -.229E-14   0.620E-24 -.866E-01 0.523E-23   -.179E-12 0.259E-04 -.472E-13
   0.764E-13 -.211E+02 0.550E-07   -.236E-13 0.212E+02 0.372E-14   0.000E+00 -.866E-01 -.167E-23   -.205E-12 0.259E-04 -.578E-13
   -.387E-13 0.211E+02 -.550E-07   -.163E-13 -.212E+02 0.232E-14   -.207E-24 0.866E-01 0.103E-23   0.443E-13 -.259E-04 -.570E-13
   -.404E-13 0.211E+02 -.550E-07   -.304E-13 -.212E+02 0.833E-14   -.155E-24 0.866E-01 0.149E-23   0.346E-13 -.259E-04 0.156E-13
   -.186E-13 0.211E+02 -.550E-07   -.832E-14 -.212E+02 0.153E-14   -.207E-24 0.866E-01 0.791E-24   0.204E-12 -.259E-04 -.453E-14
   -.309E-13 0.211E+02 -.550E-07   -.825E-14 -.212E+02 0.753E-14   -.207E-24 0.866E-01 -.523E-23   0.228E-12 -.259E-04 -.551E-13
   0.974E-13 -.211E+02 0.550E-07   -.160E-14 0.212E+02 -.483E-14   0.620E-24 -.866E-01 0.534E-25   -.120E-13 0.259E-04 -.887E-13
   0.956E-13 -.211E+02 0.550E-07   0.127E-13 0.212E+02 0.829E-14   0.000E+00 -.866E-01 0.500E-23   -.580E-14 0.259E-04 -.288E-13
 -----------------------------------------------------------------------------------------------
   0.881E-11 -.379E-11 -.994E-11   0.896E-14 -.711E-13 -.376E-14   -.555E-16 0.139E-16 0.208E-22   -.911E-12 -.196E-13 -.139E-11


 POSITION                                       TOTAL-FORCE (eV/Angst)
 -----------------------------------------------------------------------------------
      2.93384      2.93384      2.93384         0.000000      0.000000      0.000000
      2.93384      2.93384      8.80151         0.000000      0.000000      0.000000
      2.93384      8.80151      2.93384         0.000000      0.000000      0.000000
      2.93384      8.80151      8.80151         0.000000      0.000000      0.000000
      8.80151      2.93384      2.93384         0.000000      0.000000      0.000000
      8.80151      2.93384      8.80151         0.000000      0.000000      0.000000
      8.80151      8.80151      2.93384         0.000000      0.000000      0.000000
      8.80151      8.80151      8.80151         0.000000      0.000000      0.000000
      0.00000      0.00000      0.00000         0.000000      0.000000      0.000000
      0.00000      0.00000      5.86768         0.000000      0.000000      0.000000
      0.00000      5.86768      0.00000         0.000000      0.000000      0.000000
      0.00000      5.86768      5.86768         0.000000      0.000000      0.000000
      5.86768      0.00000      0.00000         0.000000      0.000000      0.000000
      5.86768      0.00000      5.86768         0.000000      0.000000      0.000000
      5.86768      5.86768      0.00000         0.000000      0.000000      0.000000
      5.86768      5.86768      5.86768         0.000000      0.000000      0.000000
     11.33928      2.93384      0.00000        -0.087649      0.000000      0.000000
     11.33928      2.93384      5.86768        -0.087649      0.000000      0.000000
      0.39607      8.80151      0.00000         0.087649      0.000000     -0.000000
      0.39607      8.80151      5.86768         0.087649      0.000000     -0.000000
      6.26374      2.93384      0.00000         0.087649      0.000000     -0.000000
      6.26374      2.93384      5.86768         0.087649      0.000000     -0.000000
      5.47161      8.80151      0.00000        -0.087649      0.000000      0.000000
      5.47161      8.80151      5.86768        -0.087649      0.000000      0.000000
      0.00000      0.00000      2.93384         0.000000      0.000000      0.000000
      0.00000      0.00000      8.80151         0.000000      0.000000      0.000000
      0.00000      5.86768      2.93384         0.000000      0.000000      0.000000
      0.00000      5.86768      8.80151         0.000000      0.000000      0.000000
      5.86768      0.00000      2.93384         0.000000      0.000000      0.000000
      5.86768      0.00000      8.80151         0.000000      0.000000      0.000000
      5.86768      5.86768      2.93384         0.000000      0.000000      0.000000
      5.86768      5.86768      8.80151         0.000000      0.000000      0.000000
      2.93384      0.39607      0.00000         0.000000      0.087649     -0.000000
      2.93384      0.39607      5.86768         0.000000      0.087649     -0.000000
      2.93384      5.47161      0.00000         0.000000     -0.087649      0.000000
      2.93384      5.47161      5.86768         0.000000     -0.087649      0.000000
      8.80151     11.33928      0.00000         0.000000     -0.087649      0.000000
      8.80151     11.33928      5.86768         0.000000     -0.087649      0.000000
      8.80151      6.26374      0.00000         0.000000      0.087649     -0.000000
      8.80151      6.26374      5.86768         0.000000      0.087649     -0.000000
 -----------------------------------------------------------------------------------
    total drift:                                0.000000     -0.000000     -0.000000


--------------------------------------------------------------------------------------------------------



  FREE ENERGIE OF THE ION-ELECTRON SYSTEM (eV)
  ---------------------------------------------------
  free  energy   TOTEN  =     -1429.22504736 eV

  energy  without entropy=    -1429.22504736  energy(sigma->0) =    -1429.22504736



--------------------------------------------------------------------------------------------------------


    POTLOK:  cpu time    1.4300: real time    1.4300


--------------------------------------------------------------------------------------------------------


 stress matrix after NEB project (eV)
      0.80440      0.00000     -0.00000
      0.00000      0.80440     -0.00000
      0.00000     -0.00000      6.06089
  FORCES: max atom, RMS     0.087649    0.055434
  FORCE total and by dimension    0.350595    0.087649
  Stress total and by dimension    6.166726    6.060891
     LOOP+:  cpu time  406.6496: real time  407.9026
    4ORBIT:  cpu time    0.0000: real time    0.0000



 total charge     

# of ion       s       p       d       tot
------------------------------------------
    1        1.782   4.718   0.012   6.511
    2        1.782   4.718   0.012   6.511
    3        1.782   4.718   0.012   6.511
    4        1.782   4.718   0.012   6.511
    5        1.782   4.718   0.012   6.511
    6        1.782   4.718   0.012   6.511
    7        1.782   4.718   0.012   6.511
    8        1.782   4.718   0.012   6.511
    9        1.555   0.441   9.839  11.835
   10        1.555   0.441   9.839  11.835
   11        1.555   0.441   9.839  11.835
   12        1.555   0.441   9.839  11.835
   13        1.555   0.441   9.839  11.835
   14        1.555   0.441   9.839  11.835
   15        1.555   0.441   9.839  11.835
   16        1.555   0.441   9.839  11.835
   17        1.613   3.308   0.006   4.927
   18        1.613   3.308   0.006   4.927
   19        1.613   3.308   0.006   4.927
   20        1.613   3.308   0.006   4.927
   21        1.613   3.308   0.006   4.927
   22        1.613   3.308   0.006   4.927
   23        1.613   3.308   0.006   4.927
   24        1.613   3.308   0.006   4.927
   25        1.615   3.288   0.007   4.911
   26        1.615   3.288   0.007   4.911
   27        1.615   3.288   0.007   4.911
   28        1.615   3.288   0.007   4.911
   29        1.615   3.288   0.007   4.911
   30        1.615   3.288   0.007   4.911
   31        1.615   3.288   0.007   4.911
   32        1.615   3.288   0.007   4.911
   33        1.616   3.266   0.008   4.890
   34        1.616   3.266   0.008   4.890
   35        1.616   3.266   0.008   4.890
   36        1.616   3.266   0.008   4.890
   37        1.616   3.266   0.008   4.890
   38        1.616   3.266   0.008   4.890
   39        1.616   3.266   0.008   4.890
   40        1.616   3.266   0.008   4.890
--------------------------------------------------
tot         65.452 120.160  78.979 264.591


 total amount of memory used by VASP MPI-rank0    58978. kBytes
=======================================================================

   base      :      30000. kBytes
   nonlr-proj:       6606. kBytes
   fftplans  :       8423. kBytes
   grid      :       7465. kBytes
   one-center:         77. kBytes
   wavefun   :       6407. kBytes

  
  
 General timing and accounting informations for this job:
 ========================================================
  
                  Total CPU time used (sec):      425.447
                            User time (sec):      421.315
                          System time (sec):        4.132
                         Elapsed time (sec):      427.026
  
                   Maximum memory used (kb):      128220.
                   Average memory used (kb):           0.
  
                          Minor page faults:       305636
                          Major page faults:            0
                 Voluntary context switches:         2156
