<?xml version="1.0" encoding="ISO-8859-1"?>
<modeling>
 <generator>
  <i name="program" type="string">vasp </i>
  <i name="version" type="string">5.4.4.18Apr17-6-g9f103f2a35  </i>
  <i name="subversion" type="string">(build Jun 22 2020 09:27:21) complex            parallel </i>
  <i name="platform" type="string">tx2_gcc-7.3_libsci-18.07_cray-fftw-3.3.8 </i>
  <i name="date" type="string">2021 09 22 </i>
  <i name="time" type="string">11:30:07 </i>
 </generator>
 <incar>
  <i type="string" name="SYSTEM"> CsPbBr3 cubic bulk</i>
  <i type="string" name="PREC">accurate</i>
  <i type="string" name="ALGO"> Normal   ! Electronic minimisation algo</i>
  <i type="logical" name="ADDGRID"> T  </i>
  <i type="int" name="NELM">   200</i>
  <i type="int" name="IBRION">     2</i>
  <i name="EDIFF">      0.00000100</i>
  <i name="EDIFFG">     -0.01000000</i>
  <i type="int" name="NSW">     0</i>
  <i type="int" name="ISIF">     3</i>
  <i type="int" name="ISYM">     2</i>
  <i name="ENCUT">    300.00000000</i>
  <i name="POTIM">      0.50000000</i>
  <i type="string" name="LREAL"> AUTO</i>
  <i type="int" name="ISMEAR">     0</i>
  <i name="SIGMA">      0.01000000</i>
  <i name="PSTRESS">      0.00000000</i>
  <i type="logical" name="LWAVE"> F  </i>
  <i type="logical" name="LCHARG"> F  </i>
  <i type="logical" name="LVHAR"> T  </i>
  <i type="int" name="LORBIT">    10</i>
  <i type="logical" name="LASPH"> T  </i>
  <v type="int" name="KPOINT_BSE">    -1     0     0     0</v>
  <i type="int" name="NELM">   200</i>
  <i type="string" name="METAGGA"> SCAN       ! PBE exchange-correlation</i>
  <i type="logical" name="LASPH"> T  </i>
 </incar>
 <structure name="primitive_cell" >
  <crystal>
   <varray name="basis" >
    <v>       8.42001800       0.00000000       8.07798100 </v>
    <v>       0.00000000      11.76380800       0.00000000 </v>
    <v>      -8.42001800       0.00000000       8.07798100 </v>
   </varray>
   <i name="volume">   1600.27186790 </i>
   <varray name="rec_basis" >
    <v>       0.05938230      -0.00000000       0.06189665 </v>
    <v>       0.00000000       0.08500649      -0.00000000 </v>
    <v>      -0.05938230       0.00000000       0.06189665 </v>
   </varray>
  </crystal>
  <varray name="positions" >
   <v>       0.27212500       0.25000000       0.20823600 </v>
   <v>       0.24440972      -0.49801791       0.37586133 </v>
   <v>       0.07990172       0.21954759       0.43803021 </v>
   <v>       0.09351677       0.00195161       0.20922416 </v>
   <v>       0.48684015       0.21758067      -0.01583276 </v>
   <v>      -0.47018162       0.43905137       0.21221163 </v>
   <v>       0.02396500       0.22739455      -0.01471103 </v>
   <v>       0.28944487      -0.47894543       0.00623364 </v>
   <v>       0.48843331      -0.01844762       0.24295583 </v>
   <v>       0.46087190       0.41142282       0.47977652 </v>
   <v>      -0.05856251       0.41998119       0.23724475 </v>
   <v>      -0.41871015       0.17876117       0.47608896 </v>
   <v>       0.01539933       0.48273139      -0.01483316 </v>
   <v>       0.24322800      -0.04318846      -0.07735340 </v>
   <v>       0.30957931      -0.05433920      -0.49774437 </v>
   <v>      -0.49490211      -0.03043471      -0.01173975 </v>
   <v>      -0.00501289      -0.01315703      -0.01768102 </v>
   <v>       0.01955751       0.47889789       0.47801297 </v>
   <v>       0.01996607      -0.01520535       0.44869330 </v>
   <v>      -0.45723142       0.47391956      -0.05320832 </v>
   <v>       0.22107889       0.16886601      -0.26546222 </v>
   <v>      -0.23963058       0.16959680       0.21300445 </v>
   <v>       0.29341298      -0.24432042       0.23497221 </v>
   <v>      -0.43504537      -0.07769559       0.49880668 </v>
   <v>       0.45381811       0.37189160      -0.29070496 </v>
   <v>       0.10790495       0.48504187      -0.25992130 </v>
   <v>      -0.00272814      -0.27806714       0.02816376 </v>
   <v>      -0.46996693      -0.32152362      -0.48195822 </v>
   <v>      -0.48054860       0.00758801      -0.26493469 </v>
   <v>      -0.25264724       0.01046448      -0.04223144 </v>
   <v>      -0.19859715      -0.07322488       0.39648063 </v>
   <v>      -0.22123620       0.43537001      -0.11709170 </v>
   <v>       0.05655789      -0.26935432      -0.49316604 </v>
   <v>      -0.21657569       0.44592937      -0.49389555 </v>
   <v>      -0.42173530      -0.28506774      -0.04316425 </v>
   <v>      -0.27008130      -0.33389836       0.23590176 </v>
   <v>      -0.04137665      -0.06313085      -0.26618042 </v>
   <v>       0.30247011      -0.28665730      -0.26861290 </v>
   <v>      -0.20994651       0.19998275      -0.29250811 </v>
   <v>      -0.25180854      -0.32093592      -0.28503501 </v>
  </varray>
 </structure>
 <varray name="primitive_index" >
  <v type="int" >        1 </v>
  <v type="int" >       38 </v>
  <v type="int" >       24 </v>
  <v type="int" >       30 </v>
  <v type="int" >       23 </v>
  <v type="int" >       27 </v>
  <v type="int" >       19 </v>
  <v type="int" >       25 </v>
  <v type="int" >       35 </v>
  <v type="int" >       16 </v>
  <v type="int" >       40 </v>
  <v type="int" >       20 </v>
  <v type="int" >       15 </v>
  <v type="int" >       33 </v>
  <v type="int" >       32 </v>
  <v type="int" >       11 </v>
  <v type="int" >        9 </v>
  <v type="int" >       14 </v>
  <v type="int" >       12 </v>
  <v type="int" >       13 </v>
  <v type="int" >        5 </v>
  <v type="int" >        6 </v>
  <v type="int" >        8 </v>
  <v type="int" >       10 </v>
  <v type="int" >       39 </v>
  <v type="int" >       28 </v>
  <v type="int" >       21 </v>
  <v type="int" >       22 </v>
  <v type="int" >       29 </v>
  <v type="int" >       31 </v>
  <v type="int" >       34 </v>
  <v type="int" >       37 </v>
  <v type="int" >       18 </v>
  <v type="int" >       26 </v>
  <v type="int" >       17 </v>
  <v type="int" >        3 </v>
  <v type="int" >       36 </v>
  <v type="int" >        4 </v>
  <v type="int" >        2 </v>
  <v type="int" >        7 </v>
 </varray>
 <kpoints>
  <generation param="Gamma">
   <v type="int" name="divisions">       2        2        2 </v>
   <v name="usershift">      0.00000000       0.00000000       0.00000000 </v>
   <v name="genvec1">      0.50000000       0.00000000       0.00000000 </v>
   <v name="genvec2">      0.00000000       0.50000000       0.00000000 </v>
   <v name="genvec3">      0.00000000       0.00000000       0.50000000 </v>
   <v name="shift">      0.00000000       0.00000000       0.00000000 </v>
  </generation>
  <varray name="kpointlist" >
   <v>       0.00000000       0.00000000       0.00000000 </v>
   <v>       0.50000000       0.00000000       0.00000000 </v>
   <v>       0.00000000       0.50000000       0.00000000 </v>
   <v>       0.50000000       0.50000000       0.00000000 </v>
   <v>       0.00000000       0.00000000       0.50000000 </v>
   <v>       0.50000000       0.00000000       0.50000000 </v>
   <v>       0.00000000       0.50000000       0.50000000 </v>
   <v>       0.50000000       0.50000000       0.50000000 </v>
  </varray>
  <varray name="weights" >
   <v>       0.12500000 </v>
   <v>       0.12500000 </v>
   <v>       0.12500000 </v>
   <v>       0.12500000 </v>
   <v>       0.12500000 </v>
   <v>       0.12500000 </v>
   <v>       0.12500000 </v>
   <v>       0.12500000 </v>
  </varray>
 </kpoints>
 <parameters>
  <separator name="general" >
   <i type="string" name="SYSTEM">CsPbBr3 cubic bulk</i>
   <i type="logical" name="LCOMPAT"> F  </i>
  </separator>
  <separator name="electronic" >
   <i type="string" name="PREC">accura</i>
   <i name="ENMAX">    300.00000000</i>
   <i name="ENAUG">    503.85200000</i>
   <i name="EDIFF">      0.00000100</i>
   <i type="int" name="IALGO">    38</i>
   <i type="int" name="IWAVPR">    10</i>
   <i type="int" name="NBANDS">   216</i>
   <i name="NELECT">    352.00000000</i>
   <i type="int" name="TURBO">     0</i>
   <i type="int" name="IRESTART">     0</i>
   <i type="int" name="NREBOOT">     0</i>
   <i type="int" name="NMIN">     0</i>
   <i name="EREF">      0.00000000</i>
   <separator name="electronic smearing" >
    <i type="int" name="ISMEAR">     0</i>
    <i name="SIGMA">      0.01000000</i>
    <i name="KSPACING">      0.50000000</i>
    <i type="logical" name="KGAMMA"> T  </i>
   </separator>
   <separator name="electronic projectors" >
    <i type="logical" name="LREAL"> T  </i>
    <v name="ROPT">     -0.00025000     -0.00025000     -0.00025000</v>
    <i type="int" name="LMAXPAW">  -100</i>
    <i type="int" name="LMAXMIX">     2</i>
    <i type="logical" name="NLSPLINE"> F  </i>
   </separator>
   <separator name="electronic startup" >
    <i type="int" name="ISTART">     0</i>
    <i type="int" name="ICHARG">     2</i>
    <i type="int" name="INIWAV">     1</i>
   </separator>
   <separator name="electronic spin" >
    <i type="int" name="ISPIN">     1</i>
    <i type="logical" name="LNONCOLLINEAR"> F  </i>
    <v name="MAGMOM">      1.00000000      1.00000000      1.00000000      1.00000000      1.00000000      1.00000000      1.00000000      1.00000000      1.00000000      1.00000000      1.00000000      1.00000000      1.00000000      1.00000000      1.00000000      1.00000000      1.00000000      1.00000000      1.00000000      1.00000000
      1.00000000      1.00000000      1.00000000      1.00000000      1.00000000      1.00000000      1.00000000      1.00000000      1.00000000      1.00000000      1.00000000      1.00000000      1.00000000      1.00000000      1.00000000      1.00000000      1.00000000      1.00000000      1.00000000      1.00000000
</v>
    <i name="NUPDOWN">     -1.00000000</i>
    <i type="logical" name="LSORBIT"> F  </i>
    <v name="SAXIS">      0.00000000      0.00000000      1.00000000</v>
    <i type="logical" name="LSPIRAL"> F  </i>
    <v name="QSPIRAL">      0.00000000      0.00000000      0.00000000</v>
    <i type="logical" name="LZEROZ"> F  </i>
   </separator>
   <separator name="electronic exchange-correlation" >
    <i type="logical" name="LASPH"> T  </i>
    <i type="logical" name="LMETAGGA"> F  </i>
   </separator>
   <separator name="electronic convergence" >
    <i type="int" name="NELM">   200</i>
    <i type="int" name="NELMDL">    -5</i>
    <i type="int" name="NELMIN">     2</i>
    <i name="ENINI">    300.00000000</i>
    <separator name="electronic convergence detail" >
     <i type="logical" name="LDIAG"> T  </i>
     <i type="logical" name="LSUBROT"> F  </i>
     <i name="WEIMIN">      0.00000000</i>
     <i name="EBREAK">      0.00000000</i>
     <i name="DEPER">      0.30000000</i>
     <i type="int" name="NRMM">     4</i>
     <i name="TIME">      0.40000000</i>
    </separator>
   </separator>
   <separator name="electronic mixer" >
    <i name="AMIX">      0.40000000</i>
    <i name="BMIX">      1.00000000</i>
    <i name="AMIN">      0.10000000</i>
    <i name="AMIX_MAG">      1.60000000</i>
    <i name="BMIX_MAG">      1.00000000</i>
    <separator name="electronic mixer details" >
     <i type="int" name="IMIX">     4</i>
     <i type="logical" name="MIXFIRST"> F  </i>
     <i type="int" name="MAXMIX">   -45</i>
     <i name="WC">    100.00000000</i>
     <i type="int" name="INIMIX">     1</i>
     <i type="int" name="MIXPRE">     1</i>
     <i type="int" name="MREMOVE">     5</i>
    </separator>
   </separator>
   <separator name="electronic dipolcorrection" >
    <i type="logical" name="LDIPOL"> F  </i>
    <i type="logical" name="LMONO"> F  </i>
    <i type="int" name="IDIPOL">     0</i>
    <i name="EPSILON">      1.00000000</i>
    <v name="DIPOL">   -100.00000000   -100.00000000   -100.00000000</v>
    <i name="EFIELD">      0.00000000</i>
   </separator>
  </separator>
  <separator name="grids" >
   <i type="int" name="NGX">    70</i>
   <i type="int" name="NGY">    70</i>
   <i type="int" name="NGZ">    70</i>
   <i type="int" name="NGXF">   140</i>
   <i type="int" name="NGYF">   140</i>
   <i type="int" name="NGZF">   140</i>
   <i type="logical" name="ADDGRID"> T  </i>
  </separator>
  <separator name="ionic" >
   <i type="int" name="NSW">     0</i>
   <i type="int" name="IBRION">    -1</i>
   <i type="int" name="MDALGO">     0</i>
   <i type="int" name="ISIF">     3</i>
   <i name="PSTRESS">      0.00000000</i>
   <i name="EDIFFG">     -0.01000000</i>
   <i type="int" name="NFREE">     1</i>
   <i name="POTIM">      0.50000000</i>
   <i name="SMASS">     -3.00000000</i>
   <i name="SCALEE">      1.00000000</i>
  </separator>
  <separator name="ionic md" >
   <i name="TEBEG">      0.00010000</i>
   <i name="TEEND">      0.00010000</i>
   <i type="int" name="NBLOCK">     1</i>
   <i type="int" name="KBLOCK">     1</i>
   <i type="int" name="NPACO">   256</i>
   <i name="APACO">     16.00000000</i>
  </separator>
  <separator name="symmetry" >
   <i type="int" name="ISYM">     2</i>
   <i name="SYMPREC">      0.00001000</i>
  </separator>
  <separator name="dos" >
   <i type="int" name="LORBIT">    10</i>
   <v name="RWIGS">     -1.00000000     -1.00000000     -1.00000000</v>
   <i type="int" name="NEDOS">   301</i>
   <i name="EMIN">     10.00000000</i>
   <i name="EMAX">    -10.00000000</i>
   <i name="EFERMI">      0.00000000</i>
  </separator>
  <separator name="writing" >
   <i type="int" name="NWRITE">     2</i>
   <i type="logical" name="LWAVE"> F  </i>
   <i type="logical" name="LDOWNSAMPLE"> F  </i>
   <i type="logical" name="LCHARG"> F  </i>
   <i type="logical" name="LPARD"> F  </i>
   <i type="logical" name="LVTOT"> F  </i>
   <i type="logical" name="LVHAR"> T  </i>
   <i type="logical" name="LELF"> F  </i>
   <i type="logical" name="LOPTICS"> F  </i>
   <v name="STM">      0.00000000      0.00000000      0.00000000      0.00000000      0.00000000      0.00000000      0.00000000</v>
  </separator>
  <separator name="performance" >
   <i type="int" name="NPAR">     8</i>
   <i type="int" name="NSIM">     4</i>
   <i type="int" name="NBLK">    -1</i>
   <i type="logical" name="LPLANE"> T  </i>
   <i type="logical" name="LSCALAPACK"> T  </i>
   <i type="logical" name="LSCAAWARE"> F  </i>
   <i type="logical" name="LSCALU"> F  </i>
   <i type="logical" name="LASYNC"> F  </i>
   <i type="logical" name="LORBITALREAL"> F  </i>
  </separator>
  <separator name="miscellaneous" >
   <i type="int" name="IDIOT">     3</i>
   <i type="int" name="ISPECIAL">     0</i>
   <i type="logical" name="LMUSIC"> F  </i>
   <v name="POMASS">    132.90000000    207.20000000     79.90400000</v>
   <v name="DARWINR">      0.00000000      0.00000000      0.00000000</v>
   <v name="DARWINV">      1.00000000      1.00000000      1.00000000</v>
   <i type="logical" name="LCORR"> T  </i>
  </separator>
  <i type="logical" name="GGA_COMPAT"> T  </i>
  <i type="logical" name="LBERRY"> F  </i>
  <i type="int" name="ICORELEVEL">     0</i>
  <i type="logical" name="LDAU"> F  </i>
  <i type="int" name="I_CONSTRAINED_M">     0</i>
  <separator name="electronic exchange-correlation" >
   <i type="string" name="GGA">--</i>
   <i type="int" name="VOSKOWN">     0</i>
   <i type="logical" name="LHFCALC"> F  </i>
   <i type="string" name="PRECFOCK"></i>
   <i type="logical" name="LSYMGRAD"> F  </i>
   <i type="logical" name="LHFONE"> F  </i>
   <i type="logical" name="LRHFCALC"> F  </i>
   <i type="logical" name="LTHOMAS"> F  </i>
   <i type="logical" name="LMODELHF"> F  </i>
   <i name="ENCUT4O">     -1.00000000</i>
   <i type="int" name="EXXOEP">     0</i>
   <i type="int" name="FOURORBIT">     0</i>
   <i name="AEXX">      0.00000000</i>
   <i name="HFALPHA">      0.00000000</i>
   <i name="MCALPHA">      0.00000000</i>
   <i name="ALDAX">      1.00000000</i>
   <i name="AGGAX">      1.00000000</i>
   <i name="ALDAC">      1.00000000</i>
   <i name="AGGAC">      1.00000000</i>
   <i type="int" name="NKREDX">     1</i>
   <i type="int" name="NKREDY">     1</i>
   <i type="int" name="NKREDZ">     1</i>
   <i type="logical" name="SHIFTRED"> F  </i>
   <i type="logical" name="ODDONLY"> F  </i>
   <i type="logical" name="EVENONLY"> F  </i>
   <i type="int" name="LMAXFOCK">     0</i>
   <i type="int" name="NMAXFOCKAE">     0</i>
   <i type="logical" name="LFOCKAEDFT"> F  </i>
   <i name="HFSCREEN">      0.00000000</i>
   <i name="HFSCREENC">      0.00000000</i>
   <i type="int" name="NBANDSGWLOW">     0</i>
  </separator>
  <separator name="vdW DFT" >
   <i type="logical" name="LUSE_VDW"> F  </i>
   <i name="Zab_VDW">     -0.84910000</i>
   <i name="PARAM1">      0.12340000</i>
   <i name="PARAM2">      1.00000000</i>
   <i name="PARAM3">      0.00000000</i>
  </separator>
  <separator name="model GW" >
   <i type="int" name="MODEL_GW">     0</i>
   <i name="MODEL_EPS0">     24.00407802</i>
   <i name="MODEL_ALPHA">      1.00000000</i>
  </separator>
  <separator name="linear response parameters" >
   <i type="logical" name="LEPSILON"> F  </i>
   <i type="logical" name="LRPA"> F  </i>
   <i type="logical" name="LNABLA"> F  </i>
   <i type="logical" name="LVEL"> F  </i>
   <i type="int" name="KINTER">     0</i>
   <i name="CSHIFT">      0.10000000</i>
   <i name="OMEGAMAX">     -1.00000000</i>
   <i name="DEG_THRESHOLD">      0.00200000</i>
   <i name="RTIME">     -0.10000000</i>
   <i name="WPLASMAI">      0.00000000</i>
   <v name="DFIELD">      0.00000000      0.00000000      0.00000000</v>
   <v name="WPLASMA">      0.00000000      0.00000000      0.00000000      0.00000000      0.00000000      0.00000000      0.00000000      0.00000000      0.00000000</v>
  </separator>
  <separator name="orbital magnetization" >
   <i type="logical" name="NUCIND"> F  </i>
   <v name="MAGPOS">      0.00000000      0.00000000      0.00000000</v>
   <i type="logical" name="LNICSALL"> T  </i>
   <i type="logical" name="ORBITALMAG"> F  </i>
   <i type="logical" name="LMAGBLOCH"> F  </i>
   <i type="logical" name="LCHIMAG"> F  </i>
   <i type="logical" name="LGAUGE"> T  </i>
   <i type="int" name="MAGATOM">     0</i>
   <v name="MAGDIPOL">      0.00000000      0.00000000      0.00000000</v>
   <v name="AVECCONST">      0.00000000      0.00000000      0.00000000</v>
  </separator>
  <separator name="response functions" >
   <i type="logical" name="LADDER"> F  </i>
   <i type="logical" name="LRPAFORCE"> F  </i>
   <i type="logical" name="LFXC"> F  </i>
   <i type="logical" name="LHARTREE"> T  </i>
   <i type="int" name="IBSE">     0</i>
   <v type="int" name="KPOINT">    -1     0     0     0</v>
   <i type="logical" name="LTCTE"> F  </i>
   <i type="logical" name="LTETE"> F  </i>
   <i type="logical" name="LTRIPLET"> F  </i>
   <i type="logical" name="LFXCEPS"> F  </i>
   <i type="logical" name="LFXHEG"> F  </i>
   <i type="int" name="NATURALO">     2</i>
   <i type="logical" name="L2ORDER"> F  </i>
   <i type="logical" name="LMP2LT"> F  </i>
   <i type="logical" name="LUSEW"> F  </i>
   <i name="ENCUTGW">     -2.00000000</i>
   <i name="ENCUTGWSOFT">     -2.00000000</i>
   <i name="ENCUTLF">     -1.00000000</i>
   <i type="int" name="LMAXMP2">    -1</i>
   <i name="SCISSOR">      0.00000000</i>
   <i type="int" name="NOMEGA">     0</i>
   <i type="int" name="NOMEGAR">     0</i>
   <i type="int" name="NBANDSGW">    -1</i>
   <i type="int" name="NBANDSO">    -1</i>
   <i type="int" name="NBANDSV">    -1</i>
   <i type="int" name="NELM">   200</i>
   <i type="int" name="NELMHF">     1</i>
   <i type="int" name="DIM">     3</i>
   <i type="int" name="ANTIRES">     0</i>
   <i name="OMEGAMAX">    -30.00000000</i>
   <i name="OMEGAMIN">    -30.00000000</i>
   <i name="OMEGATL">   -200.00000000</i>
   <i type="int" name="OMEGAGRID">   140</i>
   <i name="CSHIFT">     -0.10000000</i>
   <i type="logical" name="SELFENERGY"> F  </i>
   <i type="logical" name="LSPECTRAL"> F  </i>
   <i type="logical" name="LSPECTRALGW"> F  </i>
   <i type="logical" name="LSINGLES"> F  </i>
   <i type="logical" name="LFERMIGW"> F  </i>
   <i type="logical" name="ODDONLYGW"> F  </i>
   <i type="logical" name="EVENONLYGW"> F  </i>
   <i type="int" name="NKREDLFX">     1</i>
   <i type="int" name="NKREDLFY">     1</i>
   <i type="int" name="NKREDLFZ">     1</i>
   <i type="int" name="MAXMEM">  2800</i>
   <i type="int" name="TELESCOPE">     0</i>
   <i type="int" name="TAUPAR">     1</i>
   <i type="int" name="OMEGAPAR">    -1</i>
   <i name="LAMBDA">      1.00000000</i>
  </separator>
  <separator name="External order field" >
   <i name="OFIELD_KAPPA">      0.00000000</i>
   <v name="OFIELD_K">      0.00000000      0.00000000      0.00000000</v>
   <i name="OFIELD_Q6_NEAR">      0.00000000</i>
   <i name="OFIELD_Q6_FAR">      0.00000000</i>
   <i name="OFIELD_A">      0.00000000</i>
  </separator>
 </parameters>
 <atominfo>
  <atoms>      40 </atoms>
  <types>       3 </types>
  <array name="atoms" >
   <dimension dim="1">ion</dimension>
   <field type="string">element</field>
   <field type="int">atomtype</field>
   <set>
    <rc><c>Cs</c><c>   1</c></rc>
    <rc><c>Cs</c><c>   1</c></rc>
    <rc><c>Cs</c><c>   1</c></rc>
    <rc><c>Cs</c><c>   1</c></rc>
    <rc><c>Cs</c><c>   1</c></rc>
    <rc><c>Cs</c><c>   1</c></rc>
    <rc><c>Cs</c><c>   1</c></rc>
    <rc><c>Cs</c><c>   1</c></rc>
    <rc><c>Pb</c><c>   2</c></rc>
    <rc><c>Pb</c><c>   2</c></rc>
    <rc><c>Pb</c><c>   2</c></rc>
    <rc><c>Pb</c><c>   2</c></rc>
    <rc><c>Pb</c><c>   2</c></rc>
    <rc><c>Pb</c><c>   2</c></rc>
    <rc><c>Pb</c><c>   2</c></rc>
    <rc><c>Pb</c><c>   2</c></rc>
    <rc><c>Br</c><c>   3</c></rc>
    <rc><c>Br</c><c>   3</c></rc>
    <rc><c>Br</c><c>   3</c></rc>
    <rc><c>Br</c><c>   3</c></rc>
    <rc><c>Br</c><c>   3</c></rc>
    <rc><c>Br</c><c>   3</c></rc>
    <rc><c>Br</c><c>   3</c></rc>
    <rc><c>Br</c><c>   3</c></rc>
    <rc><c>Br</c><c>   3</c></rc>
    <rc><c>Br</c><c>   3</c></rc>
    <rc><c>Br</c><c>   3</c></rc>
    <rc><c>Br</c><c>   3</c></rc>
    <rc><c>Br</c><c>   3</c></rc>
    <rc><c>Br</c><c>   3</c></rc>
    <rc><c>Br</c><c>   3</c></rc>
    <rc><c>Br</c><c>   3</c></rc>
    <rc><c>Br</c><c>   3</c></rc>
    <rc><c>Br</c><c>   3</c></rc>
    <rc><c>Br</c><c>   3</c></rc>
    <rc><c>Br</c><c>   3</c></rc>
    <rc><c>Br</c><c>   3</c></rc>
    <rc><c>Br</c><c>   3</c></rc>
    <rc><c>Br</c><c>   3</c></rc>
    <rc><c>Br</c><c>   3</c></rc>
   </set>
  </array>
  <array name="atomtypes" >
   <dimension dim="1">type</dimension>
   <field type="int">atomspertype</field>
   <field type="string">element</field>
   <field>mass</field>
   <field>valence</field>
   <field type="string">pseudopotential</field>
   <set>
    <rc><c>   8</c><c>Cs</c><c>    132.90000000</c><c>      9.00000000</c><c>  PAW_PBE Cs_sv 08Apr2002               </c></rc>
    <rc><c>   8</c><c>Pb</c><c>    207.20000000</c><c>     14.00000000</c><c>  PAW_PBE Pb_d 06Sep2000                </c></rc>
    <rc><c>  24</c><c>Br</c><c>     79.90400000</c><c>      7.00000000</c><c>  PAW_PBE Br 06Sep2000                  </c></rc>
   </set>
  </array>
 </atominfo>
 <structure name="initialpos" >
  <crystal>
   <varray name="basis" >
    <v>       8.42001800       0.00000000       8.07798100 </v>
    <v>       0.00000000      11.76380800       0.00000000 </v>
    <v>      -8.42001800       0.00000000       8.07798100 </v>
   </varray>
   <i name="volume">   1600.27186790 </i>
   <varray name="rec_basis" >
    <v>       0.05938230      -0.00000000       0.06189665 </v>
    <v>       0.00000000       0.08500649      -0.00000000 </v>
    <v>      -0.05938230       0.00000000       0.06189665 </v>
   </varray>
  </crystal>
  <varray name="positions" >
   <v>       0.27212500       0.25000000       0.20823600 </v>
   <v>       0.79005349       0.19998275       0.70749189 </v>
   <v>       0.72991870       0.66610164       0.23590176 </v>
   <v>       0.30247011       0.71334270       0.73138710 </v>
   <v>       0.22107889       0.16886601       0.73453778 </v>
   <v>       0.76036942       0.16959680       0.21300445 </v>
   <v>       0.74819146       0.67906408       0.71496499 </v>
   <v>       0.29341298       0.75567958       0.23497221 </v>
   <v>       0.99498711       0.98684297       0.98231898 </v>
   <v>       0.56495463       0.92230441       0.49880668 </v>
   <v>       0.50509789       0.96956529       0.98826025 </v>
   <v>       0.01996607       0.98479465       0.44869330 </v>
   <v>       0.54276858       0.47391956       0.94679168 </v>
   <v>       0.01955751       0.47889789       0.47801297 </v>
   <v>       0.01539933       0.48273139       0.98516684 </v>
   <v>       0.46087190       0.41142282       0.47977652 </v>
   <v>       0.57826470       0.71493226       0.95683575 </v>
   <v>       0.05655789       0.73064568       0.50683396 </v>
   <v>       0.02396500       0.22739455       0.98528897 </v>
   <v>       0.58128985       0.17876117       0.47608896 </v>
   <v>       0.99727186       0.72193286       0.02816376 </v>
   <v>       0.53003307       0.67847638       0.51804178 </v>
   <v>       0.48684015       0.21758067       0.98416724 </v>
   <v>       0.07990172       0.21954759       0.43803021 </v>
   <v>       0.28944487       0.52105457       0.00623364 </v>
   <v>       0.78342431       0.44592937       0.50610445 </v>
   <v>       0.52981838       0.43905137       0.21221163 </v>
   <v>       0.10790495       0.48504187       0.74007870 </v>
   <v>       0.51945140       0.00758801       0.73506531 </v>
   <v>       0.09351677       0.00195161       0.20922416 </v>
   <v>       0.74735276       0.01046448       0.95776856 </v>
   <v>       0.30957931       0.94566080       0.50225563 </v>
   <v>       0.24322800       0.95681154       0.92264660 </v>
   <v>       0.80140285       0.92677512       0.39648063 </v>
   <v>       0.48843331       0.98155238       0.24295583 </v>
   <v>       0.95862335       0.93686915       0.73381958 </v>
   <v>       0.77876380       0.43537001       0.88290830 </v>
   <v>       0.24440972       0.50198209       0.37586133 </v>
   <v>       0.45381811       0.37189160       0.70929504 </v>
   <v>       0.94143749       0.41998119       0.23724475 </v>
  </varray>
  <varray name="selective"  type="logical" >
   <v type="logical" >  F  F  F </v>
   <v type="logical" >  T  T  T </v>
   <v type="logical" >  T  T  T </v>
   <v type="logical" >  T  T  T </v>
   <v type="logical" >  T  T  T </v>
   <v type="logical" >  T  T  T </v>
   <v type="logical" >  T  T  T </v>
   <v type="logical" >  T  T  T </v>
   <v type="logical" >  T  T  T </v>
   <v type="logical" >  T  T  T </v>
   <v type="logical" >  T  T  T </v>
   <v type="logical" >  T  T  T </v>
   <v type="logical" >  T  T  T </v>
   <v type="logical" >  T  T  T </v>
   <v type="logical" >  T  T  T </v>
   <v type="logical" >  T  T  T </v>
   <v type="logical" >  T  T  T </v>
   <v type="logical" >  T  T  T </v>
   <v type="logical" >  T  T  T </v>
   <v type="logical" >  T  T  T </v>
   <v type="logical" >  T  T  T </v>
   <v type="logical" >  T  T  T </v>
   <v type="logical" >  T  T  T </v>
   <v type="logical" >  T  T  T </v>
   <v type="logical" >  T  T  T </v>
   <v type="logical" >  T  T  T </v>
   <v type="logical" >  T  T  T </v>
   <v type="logical" >  T  T  T </v>
   <v type="logical" >  T  T  T </v>
   <v type="logical" >  T  T  T </v>
   <v type="logical" >  T  T  T </v>
   <v type="logical" >  T  T  T </v>
   <v type="logical" >  T  T  T </v>
   <v type="logical" >  T  T  T </v>
   <v type="logical" >  T  T  T </v>
   <v type="logical" >  T  T  T </v>
   <v type="logical" >  T  T  T </v>
   <v type="logical" >  T  T  T </v>
   <v type="logical" >  T  T  T </v>
   <v type="logical" >  T  T  T </v>
  </varray>
  <nose>
   <v>      -3.00000000       0.00000000       0.00010000       0.00010000 </v>
  </nose>
 </structure>
 <calculation>
  <scstep>
   <time name="dav">   16.86   16.87</time>
   <time name="total">   18.31   18.34</time>
   <energy>
    <i name="alphaZ">    901.86909112 </i>
    <i name="ewald"> -18477.15961985 </i>
    <i name="hartreedc">  -7297.51761712 </i>
    <i name="XCdc">    924.19282198 </i>
    <i name="pawpsdc">  21633.96174531 </i>
    <i name="pawaedc"> -22707.92185401 </i>
    <i name="eentropy">     -0.00113053 </i>
    <i name="bandstr">   -172.54000669 </i>
    <i name="atom">  26580.56019858 </i>
    <i name="e_fr_energy">   1385.44362878 </i>
    <i name="e_wo_entrp">   1385.44475931 </i>
    <i name="e_0_energy">   1385.44419404 </i>
   </energy>
  </scstep>
  <scstep>
   <time name="dav">   18.83   18.85</time>
   <time name="total">   18.83   18.85</time>
   <energy>
    <i name="e_fr_energy">  -1120.06725275 </i>
    <i name="e_wo_entrp">  -1120.06725275 </i>
    <i name="e_0_energy">  -1120.06725275 </i>
   </energy>
  </scstep>
  <scstep>
   <time name="dav">   20.07   20.08</time>
   <time name="total">   20.07   20.08</time>
   <energy>
    <i name="e_fr_energy">  -1494.18081175 </i>
    <i name="e_wo_entrp">  -1494.18081175 </i>
    <i name="e_0_energy">  -1494.18081175 </i>
   </energy>
  </scstep>
  <scstep>
   <time name="dav">   18.47   18.50</time>
   <time name="total">   18.47   18.50</time>
   <energy>
    <i name="e_fr_energy">  -1506.68111712 </i>
    <i name="e_wo_entrp">  -1506.68111712 </i>
    <i name="e_0_energy">  -1506.68111712 </i>
   </energy>
  </scstep>
  <scstep>
   <time name="dav">   19.75   19.78</time>
   <time name="total">   22.53   22.56</time>
   <energy>
    <i name="e_fr_energy">  -1507.24017739 </i>
    <i name="e_wo_entrp">  -1507.24017739 </i>
    <i name="e_0_energy">  -1507.24017739 </i>
   </energy>
  </scstep>
  <scstep>
   <time name="dav">   19.61   19.61</time>
   <time name="total">   23.83   23.86</time>
   <energy>
    <i name="e_fr_energy">  -1426.41757575 </i>
    <i name="e_wo_entrp">  -1426.41757575 </i>
    <i name="e_0_energy">  -1426.41757575 </i>
   </energy>
  </scstep>
  <scstep>
   <time name="dav">   18.48   18.48</time>
   <time name="total">   22.72   22.73</time>
   <energy>
    <i name="e_fr_energy">  -1425.83968295 </i>
    <i name="e_wo_entrp">  -1425.83968295 </i>
    <i name="e_0_energy">  -1425.83968295 </i>
   </energy>
  </scstep>
  <scstep>
   <time name="dav">   18.26   18.26</time>
   <time name="total">   22.46   22.51</time>
   <energy>
    <i name="e_fr_energy">  -1426.01743784 </i>
    <i name="e_wo_entrp">  -1426.01743784 </i>
    <i name="e_0_energy">  -1426.01743784 </i>
   </energy>
  </scstep>
  <scstep>
   <time name="dav">   18.07   18.07</time>
   <time name="total">   22.31   22.33</time>
   <energy>
    <i name="e_fr_energy">  -1426.07889518 </i>
    <i name="e_wo_entrp">  -1426.07889518 </i>
    <i name="e_0_energy">  -1426.07889518 </i>
   </energy>
  </scstep>
  <scstep>
   <time name="dav">   21.05   21.05</time>
   <time name="total">   25.28   25.30</time>
   <energy>
    <i name="e_fr_energy">  -1426.08352922 </i>
    <i name="e_wo_entrp">  -1426.08352922 </i>
    <i name="e_0_energy">  -1426.08352922 </i>
   </energy>
  </scstep>
  <scstep>
   <time name="dav">   18.00   18.00</time>
   <time name="total">   22.21   22.24</time>
   <energy>
    <i name="e_fr_energy">  -1426.08582497 </i>
    <i name="e_wo_entrp">  -1426.08582497 </i>
    <i name="e_0_energy">  -1426.08582497 </i>
   </energy>
  </scstep>
  <scstep>
   <time name="dav">   17.93   17.93</time>
   <time name="total">   22.13   22.18</time>
   <energy>
    <i name="e_fr_energy">  -1426.08852306 </i>
    <i name="e_wo_entrp">  -1426.08852306 </i>
    <i name="e_0_energy">  -1426.08852306 </i>
   </energy>
  </scstep>
  <scstep>
   <time name="dav">   20.27   20.27</time>
   <time name="total">   24.48   24.53</time>
   <energy>
    <i name="e_fr_energy">  -1426.08815153 </i>
    <i name="e_wo_entrp">  -1426.08815153 </i>
    <i name="e_0_energy">  -1426.08815153 </i>
   </energy>
  </scstep>
  <scstep>
   <time name="dav">   18.92   18.92</time>
   <time name="total">   23.12   23.17</time>
   <energy>
    <i name="e_fr_energy">  -1426.08805384 </i>
    <i name="e_wo_entrp">  -1426.08805384 </i>
    <i name="e_0_energy">  -1426.08805384 </i>
   </energy>
  </scstep>
  <scstep>
   <time name="dav">   19.25   19.25</time>
   <time name="total">   23.47   23.50</time>
   <energy>
    <i name="e_fr_energy">  -1426.08801556 </i>
    <i name="e_wo_entrp">  -1426.08801556 </i>
    <i name="e_0_energy">  -1426.08801556 </i>
   </energy>
  </scstep>
  <scstep>
   <time name="dav">   17.65   17.65</time>
   <time name="total">   21.90   21.91</time>
   <energy>
    <i name="e_fr_energy">  -1426.08799695 </i>
    <i name="e_wo_entrp">  -1426.08799695 </i>
    <i name="e_0_energy">  -1426.08799695 </i>
   </energy>
  </scstep>
  <scstep>
   <time name="dav">   16.75   16.75</time>
   <time name="total">   20.99   21.01</time>
   <energy>
    <i name="e_fr_energy">  -1426.08798938 </i>
    <i name="e_wo_entrp">  -1426.08798938 </i>
    <i name="e_0_energy">  -1426.08798938 </i>
   </energy>
  </scstep>
  <scstep>
   <time name="dav">   13.09   13.10</time>
   <time name="total">   17.35   17.35</time>
   <energy>
    <i name="e_fr_energy">  -1426.08798713 </i>
    <i name="e_wo_entrp">  -1426.08798713 </i>
    <i name="e_0_energy">  -1426.08798713 </i>
   </energy>
  </scstep>
  <scstep>
   <time name="dav">   12.93   12.93</time>
   <time name="total">   17.14   17.19</time>
   <energy>
    <i name="e_fr_energy">  -1426.08798511 </i>
    <i name="e_wo_entrp">  -1426.08798511 </i>
    <i name="e_0_energy">  -1426.08798511 </i>
   </energy>
  </scstep>
  <scstep>
   <time name="dav">   12.89   12.89</time>
   <time name="total">   17.10   17.15</time>
   <energy>
    <i name="e_fr_energy">  -1426.08798717 </i>
    <i name="e_wo_entrp">  -1426.08798717 </i>
    <i name="e_0_energy">  -1426.08798717 </i>
   </energy>
  </scstep>
  <scstep>
   <time name="dav">   13.06   13.06</time>
   <time name="total">   14.50   14.54</time>
   <energy>
    <i name="alphaZ">    901.86909112 </i>
    <i name="ewald"> -18477.15961985 </i>
    <i name="hartreedc">  -7332.87232793 </i>
    <i name="XCdc">    963.04142392 </i>
    <i name="pawpsdc">  23200.46992311 </i>
    <i name="pawaedc"> -24273.18262199 </i>
    <i name="eentropy">     -0.00000000 </i>
    <i name="bandstr">  -2988.81405476 </i>
    <i name="atom">  26580.56019858 </i>
    <i name="e_fr_energy">  -1426.08798781 </i>
    <i name="e_wo_entrp">  -1426.08798781 </i>
    <i name="e_0_energy">  -1426.08798781 </i>
   </energy>
  </scstep>
  <structure>
   <crystal>
    <varray name="basis" >
     <v>       8.42001800       0.00000000       8.07798100 </v>
     <v>       0.00000000      11.76380800       0.00000000 </v>
     <v>      -8.42001800       0.00000000       8.07798100 </v>
    </varray>
    <i name="volume">   1600.27186790 </i>
    <varray name="rec_basis" >
     <v>       0.05938230      -0.00000000       0.06189665 </v>
     <v>       0.00000000       0.08500649      -0.00000000 </v>
     <v>      -0.05938230       0.00000000       0.06189665 </v>
    </varray>
   </crystal>
   <varray name="positions" >
    <v>       0.27212500       0.25000000       0.20823600 </v>
    <v>       0.79005349       0.19998275       0.70749189 </v>
    <v>       0.72991870       0.66610164       0.23590176 </v>
    <v>       0.30247011       0.71334270       0.73138710 </v>
    <v>       0.22107889       0.16886601       0.73453778 </v>
    <v>       0.76036942       0.16959680       0.21300445 </v>
    <v>       0.74819146       0.67906408       0.71496499 </v>
    <v>       0.29341298       0.75567958       0.23497221 </v>
    <v>       0.99498711       0.98684297       0.98231898 </v>
    <v>       0.56495463       0.92230441       0.49880668 </v>
    <v>       0.50509789       0.96956529       0.98826025 </v>
    <v>       0.01996607       0.98479465       0.44869330 </v>
    <v>       0.54276858       0.47391956       0.94679168 </v>
    <v>       0.01955751       0.47889789       0.47801297 </v>
    <v>       0.01539933       0.48273139       0.98516684 </v>
    <v>       0.46087190       0.41142282       0.47977652 </v>
    <v>       0.57826470       0.71493226       0.95683575 </v>
    <v>       0.05655789       0.73064568       0.50683396 </v>
    <v>       0.02396500       0.22739455       0.98528897 </v>
    <v>       0.58128985       0.17876117       0.47608896 </v>
    <v>       0.99727186       0.72193286       0.02816376 </v>
    <v>       0.53003307       0.67847638       0.51804178 </v>
    <v>       0.48684015       0.21758067       0.98416724 </v>
    <v>       0.07990172       0.21954759       0.43803021 </v>
    <v>       0.28944487       0.52105457       0.00623364 </v>
    <v>       0.78342431       0.44592937       0.50610445 </v>
    <v>       0.52981838       0.43905137       0.21221163 </v>
    <v>       0.10790495       0.48504187       0.74007870 </v>
    <v>       0.51945140       0.00758801       0.73506531 </v>
    <v>       0.09351677       0.00195161       0.20922416 </v>
    <v>       0.74735276       0.01046448       0.95776856 </v>
    <v>       0.30957931       0.94566080       0.50225563 </v>
    <v>       0.24322800       0.95681154       0.92264660 </v>
    <v>       0.80140285       0.92677512       0.39648063 </v>
    <v>       0.48843331       0.98155238       0.24295583 </v>
    <v>       0.95862335       0.93686915       0.73381958 </v>
    <v>       0.77876380       0.43537001       0.88290830 </v>
    <v>       0.24440972       0.50198209       0.37586133 </v>
    <v>       0.45381811       0.37189160       0.70929504 </v>
    <v>       0.94143749       0.41998119       0.23724475 </v>
   </varray>
  </structure>
  <varray name="forces" >
   <v>       0.24940455      -0.05311708      -0.12789091 </v>
   <v>      -0.04562455      -0.11846809      -0.08145689 </v>
   <v>       0.10117864      -0.10890667       0.21056159 </v>
   <v>      -0.10317258       0.15188589      -0.12022236 </v>
   <v>       0.21329024       0.23379695      -0.07502233 </v>
   <v>      -0.17221278       0.40291119      -0.04734292 </v>
   <v>       0.45002200       0.25126415       0.52304456 </v>
   <v>      -0.10715419      -0.03457563      -0.24001073 </v>
   <v>       0.55526135      -0.69073292      -0.28021867 </v>
   <v>      -0.87833918       0.98491647      -0.74052029 </v>
   <v>       0.09493699       0.35467703      -0.38914746 </v>
   <v>       0.61143541      -0.59376401       1.33550060 </v>
   <v>      -1.13353417      -0.63786853      -0.14550706 </v>
   <v>      -0.04666319       0.04584542       0.25945063 </v>
   <v>       0.39076585       0.10395686       0.31873814 </v>
   <v>       0.99272950       0.29122827       0.04657117 </v>
   <v>      -0.06510759       0.13274476      -0.00490961 </v>
   <v>       0.04763155      -0.14441187      -0.29108106 </v>
   <v>       0.21687035       0.05292183      -0.09066542 </v>
   <v>       0.05804246       0.20571791      -0.19485188 </v>
   <v>      -0.20169673       0.06344113      -0.07213134 </v>
   <v>      -0.00075042      -0.56555944      -0.43726430 </v>
   <v>      -0.07153138      -0.19401820       0.04401609 </v>
   <v>      -0.40793397       0.39375151       0.26461222 </v>
   <v>      -0.06826298       0.00895614      -0.08441557 </v>
   <v>      -0.61412958       0.06597771      -0.32480563 </v>
   <v>       0.31980075       0.12434648       0.14577073 </v>
   <v>      -0.24297002      -0.26256180      -0.35849990 </v>
   <v>       0.14261618      -0.28672447       0.03348586 </v>
   <v>      -0.59023554      -0.22765730       0.59418394 </v>
   <v>      -0.26266293      -0.02762970       0.07710435 </v>
   <v>       0.10423144      -0.06743912      -0.01257143 </v>
   <v>      -0.06654674      -0.33053402       0.41542608 </v>
   <v>      -0.28895570      -0.19065981      -0.78034703 </v>
   <v>       0.21127954      -0.13829465       0.17428982 </v>
   <v>       0.35769075       0.26080964      -0.26303938 </v>
   <v>      -0.04069484       0.09538662       0.24461930 </v>
   <v>       0.30018758      -0.19774587       0.46212570 </v>
   <v>      -0.35763065       0.24310863       0.30040093 </v>
   <v>       0.34843458       0.40302456      -0.28797953 </v>
  </varray>
  <varray name="stress" >
   <v>      -0.68353255       0.24138890       0.54022628 </v>
   <v>       0.24129294       2.99758994       1.65785557 </v>
   <v>       0.54036944       1.65775354       5.03360175 </v>
  </varray>
  <energy>
   <i name="e_fr_energy">  -1426.08798781 </i>
   <i name="e_wo_entrp">  -1426.08798781 </i>
   <i name="e_0_energy">     -0.00000000 </i>
  </energy>
  <time name="totalsc">  495.88  496.53</time>
  <eigenvalues>
   <array>
    <dimension dim="1">band</dimension>
    <dimension dim="2">kpoint</dimension>
    <dimension dim="3">spin</dimension>
    <field>eigene</field>
    <field>occ</field>
    <set>
     <set comment="spin 1">
      <set comment="kpoint 1">
       <r>  -21.1267    1.0000 </r>
       <r>  -20.9599    1.0000 </r>
       <r>  -20.8032    1.0000 </r>
       <r>  -20.7798    1.0000 </r>
       <r>  -20.7166    1.0000 </r>
       <r>  -20.6871    1.0000 </r>
       <r>  -20.6796    1.0000 </r>
       <r>  -20.6151    1.0000 </r>
       <r>  -16.8500    1.0000 </r>
       <r>  -16.7890    1.0000 </r>
       <r>  -16.7716    1.0000 </r>
       <r>  -16.7399    1.0000 </r>
       <r>  -16.6722    1.0000 </r>
       <r>  -16.6416    1.0000 </r>
       <r>  -16.6177    1.0000 </r>
       <r>  -16.5937    1.0000 </r>
       <r>  -16.5648    1.0000 </r>
       <r>  -16.5548    1.0000 </r>
       <r>  -16.5447    1.0000 </r>
       <r>  -16.5006    1.0000 </r>
       <r>  -16.5001    1.0000 </r>
       <r>  -16.4737    1.0000 </r>
       <r>  -16.4612    1.0000 </r>
       <r>  -16.4455    1.0000 </r>
       <r>  -16.4260    1.0000 </r>
       <r>  -16.4125    1.0000 </r>
       <r>  -16.3954    1.0000 </r>
       <r>  -16.3730    1.0000 </r>
       <r>  -16.3728    1.0000 </r>
       <r>  -16.3647    1.0000 </r>
       <r>  -16.3487    1.0000 </r>
       <r>  -16.3413    1.0000 </r>
       <r>  -16.3238    1.0000 </r>
       <r>  -16.3087    1.0000 </r>
       <r>  -16.2767    1.0000 </r>
       <r>  -16.2700    1.0000 </r>
       <r>  -16.2583    1.0000 </r>
       <r>  -16.2515    1.0000 </r>
       <r>  -16.1909    1.0000 </r>
       <r>  -16.1701    1.0000 </r>
       <r>  -16.1318    1.0000 </r>
       <r>  -16.0800    1.0000 </r>
       <r>  -16.0677    1.0000 </r>
       <r>  -16.0512    1.0000 </r>
       <r>  -16.0335    1.0000 </r>
       <r>  -16.0221    1.0000 </r>
       <r>  -16.0085    1.0000 </r>
       <r>  -15.9721    1.0000 </r>
       <r>  -14.6644    1.0000 </r>
       <r>  -14.5005    1.0000 </r>
       <r>  -14.3992    1.0000 </r>
       <r>  -14.3239    1.0000 </r>
       <r>  -14.2912    1.0000 </r>
       <r>  -14.2756    1.0000 </r>
       <r>  -14.1478    1.0000 </r>
       <r>  -14.1001    1.0000 </r>
       <r>  -14.0015    1.0000 </r>
       <r>  -13.9261    1.0000 </r>
       <r>  -13.9074    1.0000 </r>
       <r>  -13.7920    1.0000 </r>
       <r>  -13.7458    1.0000 </r>
       <r>  -13.7282    1.0000 </r>
       <r>  -13.6747    1.0000 </r>
       <r>  -13.6333    1.0000 </r>
       <r>  -13.5767    1.0000 </r>
       <r>  -13.5385    1.0000 </r>
       <r>  -13.4682    1.0000 </r>
       <r>  -13.4489    1.0000 </r>
       <r>  -13.4170    1.0000 </r>
       <r>  -13.3302    1.0000 </r>
       <r>  -13.2542    1.0000 </r>
       <r>  -13.2334    1.0000 </r>
       <r>   -8.1272    1.0000 </r>
       <r>   -7.7983    1.0000 </r>
       <r>   -7.7543    1.0000 </r>
       <r>   -7.5569    1.0000 </r>
       <r>   -7.5209    1.0000 </r>
       <r>   -7.5146    1.0000 </r>
       <r>   -7.4634    1.0000 </r>
       <r>   -7.4315    1.0000 </r>
       <r>   -7.3822    1.0000 </r>
       <r>   -7.3418    1.0000 </r>
       <r>   -7.3171    1.0000 </r>
       <r>   -7.2472    1.0000 </r>
       <r>   -7.2363    1.0000 </r>
       <r>   -7.2106    1.0000 </r>
       <r>   -7.2039    1.0000 </r>
       <r>   -7.1907    1.0000 </r>
       <r>   -7.1586    1.0000 </r>
       <r>   -7.1545    1.0000 </r>
       <r>   -7.1446    1.0000 </r>
       <r>   -7.1295    1.0000 </r>
       <r>   -7.1153    1.0000 </r>
       <r>   -7.1112    1.0000 </r>
       <r>   -7.0991    1.0000 </r>
       <r>   -7.0787    1.0000 </r>
       <r>   -7.0749    1.0000 </r>
       <r>   -7.0632    1.0000 </r>
       <r>   -7.0528    1.0000 </r>
       <r>   -7.0355    1.0000 </r>
       <r>   -7.0229    1.0000 </r>
       <r>   -6.9724    1.0000 </r>
       <r>   -6.9481    1.0000 </r>
       <r>   -6.6136    1.0000 </r>
       <r>   -3.3959    1.0000 </r>
       <r>   -3.3470    1.0000 </r>
       <r>   -3.2545    1.0000 </r>
       <r>   -3.1777    1.0000 </r>
       <r>   -3.1532    1.0000 </r>
       <r>   -3.0529    1.0000 </r>
       <r>   -2.9832    1.0000 </r>
       <r>   -2.8961    1.0000 </r>
       <r>   -2.8643    1.0000 </r>
       <r>   -2.8032    1.0000 </r>
       <r>   -2.6777    1.0000 </r>
       <r>   -2.5275    1.0000 </r>
       <r>   -2.3328    1.0000 </r>
       <r>   -2.2741    1.0000 </r>
       <r>   -2.2203    1.0000 </r>
       <r>   -2.1937    1.0000 </r>
       <r>   -2.0597    1.0000 </r>
       <r>   -2.0482    1.0000 </r>
       <r>   -1.9888    1.0000 </r>
       <r>   -1.9458    1.0000 </r>
       <r>   -1.9115    1.0000 </r>
       <r>   -1.8726    1.0000 </r>
       <r>   -1.8475    1.0000 </r>
       <r>   -1.8116    1.0000 </r>
       <r>   -1.7837    1.0000 </r>
       <r>   -1.7366    1.0000 </r>
       <r>   -1.6656    1.0000 </r>
       <r>   -1.6305    1.0000 </r>
       <r>   -1.5889    1.0000 </r>
       <r>   -1.5398    1.0000 </r>
       <r>   -1.4946    1.0000 </r>
       <r>   -1.4796    1.0000 </r>
       <r>   -1.4327    1.0000 </r>
       <r>   -1.4128    1.0000 </r>
       <r>   -1.3835    1.0000 </r>
       <r>   -1.3350    1.0000 </r>
       <r>   -1.3290    1.0000 </r>
       <r>   -1.3117    1.0000 </r>
       <r>   -1.2928    1.0000 </r>
       <r>   -1.2849    1.0000 </r>
       <r>   -1.2244    1.0000 </r>
       <r>   -1.2019    1.0000 </r>
       <r>   -1.1787    1.0000 </r>
       <r>   -1.1355    1.0000 </r>
       <r>   -1.1233    1.0000 </r>
       <r>   -1.1116    1.0000 </r>
       <r>   -1.0780    1.0000 </r>
       <r>   -1.0552    1.0000 </r>
       <r>   -1.0280    1.0000 </r>
       <r>   -1.0087    1.0000 </r>
       <r>   -0.9734    1.0000 </r>
       <r>   -0.9480    1.0000 </r>
       <r>   -0.9314    1.0000 </r>
       <r>   -0.9051    1.0000 </r>
       <r>   -0.8042    1.0000 </r>
       <r>   -0.7866    1.0000 </r>
       <r>   -0.7691    1.0000 </r>
       <r>   -0.7381    1.0000 </r>
       <r>   -0.6904    1.0000 </r>
       <r>   -0.6628    1.0000 </r>
       <r>   -0.6237    1.0000 </r>
       <r>   -0.6024    1.0000 </r>
       <r>   -0.5628    1.0000 </r>
       <r>   -0.4991    1.0000 </r>
       <r>   -0.4096    1.0000 </r>
       <r>   -0.3319    1.0000 </r>
       <r>   -0.3205    1.0000 </r>
       <r>   -0.2771    1.0000 </r>
       <r>   -0.2473    1.0000 </r>
       <r>   -0.1616    1.0000 </r>
       <r>    0.0399    1.0000 </r>
       <r>    0.2791    1.0000 </r>
       <r>    2.5288    0.0000 </r>
       <r>    2.8110    0.0000 </r>
       <r>    2.9689    0.0000 </r>
       <r>    3.0020    0.0000 </r>
       <r>    3.1461    0.0000 </r>
       <r>    3.2280    0.0000 </r>
       <r>    3.2408    0.0000 </r>
       <r>    3.3572    0.0000 </r>
       <r>    3.4027    0.0000 </r>
       <r>    3.5521    0.0000 </r>
       <r>    3.6245    0.0000 </r>
       <r>    3.6755    0.0000 </r>
       <r>    4.6826    0.0000 </r>
       <r>    4.7561    0.0000 </r>
       <r>    4.8011    0.0000 </r>
       <r>    4.9274    0.0000 </r>
       <r>    5.1350    0.0000 </r>
       <r>    5.2367    0.0000 </r>
       <r>    5.3064    0.0000 </r>
       <r>    5.4840    0.0000 </r>
       <r>    5.6040    0.0000 </r>
       <r>    5.7445    0.0000 </r>
       <r>    5.8289    0.0000 </r>
       <r>    5.9233    0.0000 </r>
       <r>    5.9882    0.0000 </r>
       <r>    6.0316    0.0000 </r>
       <r>    6.1659    0.0000 </r>
       <r>    6.2897    0.0000 </r>
       <r>    6.2963    0.0000 </r>
       <r>    6.3780    0.0000 </r>
       <r>    6.4498    0.0000 </r>
       <r>    6.4983    0.0000 </r>
       <r>    6.5515    0.0000 </r>
       <r>    6.6116    0.0000 </r>
       <r>    6.6697    0.0000 </r>
       <r>    6.7449    0.0000 </r>
       <r>    6.7921    0.0000 </r>
       <r>    6.8343    0.0000 </r>
       <r>    6.9071    0.0000 </r>
       <r>    6.9310    0.0000 </r>
      </set>
      <set comment="kpoint 2">
       <r>  -21.1267    1.0000 </r>
       <r>  -20.9599    1.0000 </r>
       <r>  -20.8032    1.0000 </r>
       <r>  -20.7798    1.0000 </r>
       <r>  -20.7166    1.0000 </r>
       <r>  -20.6871    1.0000 </r>
       <r>  -20.6796    1.0000 </r>
       <r>  -20.6151    1.0000 </r>
       <r>  -16.8500    1.0000 </r>
       <r>  -16.7888    1.0000 </r>
       <r>  -16.7716    1.0000 </r>
       <r>  -16.7399    1.0000 </r>
       <r>  -16.6722    1.0000 </r>
       <r>  -16.6413    1.0000 </r>
       <r>  -16.6166    1.0000 </r>
       <r>  -16.5899    1.0000 </r>
       <r>  -16.5648    1.0000 </r>
       <r>  -16.5553    1.0000 </r>
       <r>  -16.5447    1.0000 </r>
       <r>  -16.5038    1.0000 </r>
       <r>  -16.5005    1.0000 </r>
       <r>  -16.4736    1.0000 </r>
       <r>  -16.4611    1.0000 </r>
       <r>  -16.4455    1.0000 </r>
       <r>  -16.4259    1.0000 </r>
       <r>  -16.4136    1.0000 </r>
       <r>  -16.3954    1.0000 </r>
       <r>  -16.3729    1.0000 </r>
       <r>  -16.3694    1.0000 </r>
       <r>  -16.3652    1.0000 </r>
       <r>  -16.3480    1.0000 </r>
       <r>  -16.3413    1.0000 </r>
       <r>  -16.3238    1.0000 </r>
       <r>  -16.3087    1.0000 </r>
       <r>  -16.2767    1.0000 </r>
       <r>  -16.2700    1.0000 </r>
       <r>  -16.2593    1.0000 </r>
       <r>  -16.2516    1.0000 </r>
       <r>  -16.1921    1.0000 </r>
       <r>  -16.1724    1.0000 </r>
       <r>  -16.1319    1.0000 </r>
       <r>  -16.0800    1.0000 </r>
       <r>  -16.0677    1.0000 </r>
       <r>  -16.0512    1.0000 </r>
       <r>  -16.0335    1.0000 </r>
       <r>  -16.0221    1.0000 </r>
       <r>  -16.0085    1.0000 </r>
       <r>  -15.9720    1.0000 </r>
       <r>  -14.6633    1.0000 </r>
       <r>  -14.4982    1.0000 </r>
       <r>  -14.4040    1.0000 </r>
       <r>  -14.3303    1.0000 </r>
       <r>  -14.2898    1.0000 </r>
       <r>  -14.2721    1.0000 </r>
       <r>  -14.1353    1.0000 </r>
       <r>  -14.1237    1.0000 </r>
       <r>  -14.0015    1.0000 </r>
       <r>  -13.9168    1.0000 </r>
       <r>  -13.9068    1.0000 </r>
       <r>  -13.7915    1.0000 </r>
       <r>  -13.7586    1.0000 </r>
       <r>  -13.6960    1.0000 </r>
       <r>  -13.6688    1.0000 </r>
       <r>  -13.6509    1.0000 </r>
       <r>  -13.5679    1.0000 </r>
       <r>  -13.5391    1.0000 </r>
       <r>  -13.4694    1.0000 </r>
       <r>  -13.4446    1.0000 </r>
       <r>  -13.4194    1.0000 </r>
       <r>  -13.3360    1.0000 </r>
       <r>  -13.2573    1.0000 </r>
       <r>  -13.2353    1.0000 </r>
       <r>   -8.0337    1.0000 </r>
       <r>   -7.8391    1.0000 </r>
       <r>   -7.6831    1.0000 </r>
       <r>   -7.5476    1.0000 </r>
       <r>   -7.5309    1.0000 </r>
       <r>   -7.5176    1.0000 </r>
       <r>   -7.4749    1.0000 </r>
       <r>   -7.4327    1.0000 </r>
       <r>   -7.4011    1.0000 </r>
       <r>   -7.3767    1.0000 </r>
       <r>   -7.3135    1.0000 </r>
       <r>   -7.2528    1.0000 </r>
       <r>   -7.2405    1.0000 </r>
       <r>   -7.2232    1.0000 </r>
       <r>   -7.2079    1.0000 </r>
       <r>   -7.2002    1.0000 </r>
       <r>   -7.1773    1.0000 </r>
       <r>   -7.1566    1.0000 </r>
       <r>   -7.1456    1.0000 </r>
       <r>   -7.1324    1.0000 </r>
       <r>   -7.1222    1.0000 </r>
       <r>   -7.1014    1.0000 </r>
       <r>   -7.1000    1.0000 </r>
       <r>   -7.0775    1.0000 </r>
       <r>   -7.0642    1.0000 </r>
       <r>   -7.0528    1.0000 </r>
       <r>   -7.0374    1.0000 </r>
       <r>   -7.0357    1.0000 </r>
       <r>   -7.0016    1.0000 </r>
       <r>   -6.9898    1.0000 </r>
       <r>   -6.9687    1.0000 </r>
       <r>   -6.7724    1.0000 </r>
       <r>   -3.3477    1.0000 </r>
       <r>   -3.2878    1.0000 </r>
       <r>   -3.2055    1.0000 </r>
       <r>   -3.1528    1.0000 </r>
       <r>   -3.0679    1.0000 </r>
       <r>   -3.0401    1.0000 </r>
       <r>   -2.8733    1.0000 </r>
       <r>   -2.7275    1.0000 </r>
       <r>   -2.6466    1.0000 </r>
       <r>   -2.5611    1.0000 </r>
       <r>   -2.4838    1.0000 </r>
       <r>   -2.4330    1.0000 </r>
       <r>   -2.3747    1.0000 </r>
       <r>   -2.3194    1.0000 </r>
       <r>   -2.2879    1.0000 </r>
       <r>   -2.1918    1.0000 </r>
       <r>   -2.1363    1.0000 </r>
       <r>   -2.0925    1.0000 </r>
       <r>   -2.0220    1.0000 </r>
       <r>   -2.0082    1.0000 </r>
       <r>   -1.9477    1.0000 </r>
       <r>   -1.8984    1.0000 </r>
       <r>   -1.8651    1.0000 </r>
       <r>   -1.8416    1.0000 </r>
       <r>   -1.7935    1.0000 </r>
       <r>   -1.7799    1.0000 </r>
       <r>   -1.7259    1.0000 </r>
       <r>   -1.6669    1.0000 </r>
       <r>   -1.6528    1.0000 </r>
       <r>   -1.5882    1.0000 </r>
       <r>   -1.5666    1.0000 </r>
       <r>   -1.5493    1.0000 </r>
       <r>   -1.5327    1.0000 </r>
       <r>   -1.4692    1.0000 </r>
       <r>   -1.4171    1.0000 </r>
       <r>   -1.3985    1.0000 </r>
       <r>   -1.3853    1.0000 </r>
       <r>   -1.3297    1.0000 </r>
       <r>   -1.3134    1.0000 </r>
       <r>   -1.2900    1.0000 </r>
       <r>   -1.2572    1.0000 </r>
       <r>   -1.2427    1.0000 </r>
       <r>   -1.1852    1.0000 </r>
       <r>   -1.1526    1.0000 </r>
       <r>   -1.1296    1.0000 </r>
       <r>   -1.1121    1.0000 </r>
       <r>   -1.0912    1.0000 </r>
       <r>   -1.0652    1.0000 </r>
       <r>   -1.0186    1.0000 </r>
       <r>   -0.9862    1.0000 </r>
       <r>   -0.9714    1.0000 </r>
       <r>   -0.9552    1.0000 </r>
       <r>   -0.9045    1.0000 </r>
       <r>   -0.8459    1.0000 </r>
       <r>   -0.8096    1.0000 </r>
       <r>   -0.7813    1.0000 </r>
       <r>   -0.7513    1.0000 </r>
       <r>   -0.7452    1.0000 </r>
       <r>   -0.7036    1.0000 </r>
       <r>   -0.6683    1.0000 </r>
       <r>   -0.6357    1.0000 </r>
       <r>   -0.6212    1.0000 </r>
       <r>   -0.6055    1.0000 </r>
       <r>   -0.5482    1.0000 </r>
       <r>   -0.4647    1.0000 </r>
       <r>   -0.3901    1.0000 </r>
       <r>   -0.3626    1.0000 </r>
       <r>   -0.3102    1.0000 </r>
       <r>   -0.2727    1.0000 </r>
       <r>   -0.1650    1.0000 </r>
       <r>    0.0340    1.0000 </r>
       <r>    0.1430    1.0000 </r>
       <r>    2.5176    0.0000 </r>
       <r>    2.7956    0.0000 </r>
       <r>    3.0572    0.0000 </r>
       <r>    3.1193    0.0000 </r>
       <r>    3.1404    0.0000 </r>
       <r>    3.2101    0.0000 </r>
       <r>    3.4085    0.0000 </r>
       <r>    3.5371    0.0000 </r>
       <r>    3.7094    0.0000 </r>
       <r>    4.0258    0.0000 </r>
       <r>    4.1684    0.0000 </r>
       <r>    4.2571    0.0000 </r>
       <r>    4.3713    0.0000 </r>
       <r>    4.5515    0.0000 </r>
       <r>    4.5792    0.0000 </r>
       <r>    4.8295    0.0000 </r>
       <r>    4.9600    0.0000 </r>
       <r>    5.1250    0.0000 </r>
       <r>    5.3600    0.0000 </r>
       <r>    5.3860    0.0000 </r>
       <r>    5.5660    0.0000 </r>
       <r>    5.6287    0.0000 </r>
       <r>    5.6904    0.0000 </r>
       <r>    5.7899    0.0000 </r>
       <r>    5.9228    0.0000 </r>
       <r>    6.0858    0.0000 </r>
       <r>    6.1308    0.0000 </r>
       <r>    6.2476    0.0000 </r>
       <r>    6.3453    0.0000 </r>
       <r>    6.3630    0.0000 </r>
       <r>    6.3974    0.0000 </r>
       <r>    6.4786    0.0000 </r>
       <r>    6.5383    0.0000 </r>
       <r>    6.6149    0.0000 </r>
       <r>    6.6675    0.0000 </r>
       <r>    6.6842    0.0000 </r>
       <r>    6.7362    0.0000 </r>
       <r>    6.7810    0.0000 </r>
       <r>    6.8289    0.0000 </r>
       <r>    6.8550    0.0000 </r>
      </set>
      <set comment="kpoint 3">
       <r>  -21.1266    1.0000 </r>
       <r>  -20.9599    1.0000 </r>
       <r>  -20.8032    1.0000 </r>
       <r>  -20.7798    1.0000 </r>
       <r>  -20.7165    1.0000 </r>
       <r>  -20.6870    1.0000 </r>
       <r>  -20.6796    1.0000 </r>
       <r>  -20.6151    1.0000 </r>
       <r>  -16.8499    1.0000 </r>
       <r>  -16.7885    1.0000 </r>
       <r>  -16.7718    1.0000 </r>
       <r>  -16.7398    1.0000 </r>
       <r>  -16.6721    1.0000 </r>
       <r>  -16.6394    1.0000 </r>
       <r>  -16.6177    1.0000 </r>
       <r>  -16.5938    1.0000 </r>
       <r>  -16.5648    1.0000 </r>
       <r>  -16.5552    1.0000 </r>
       <r>  -16.5446    1.0000 </r>
       <r>  -16.5006    1.0000 </r>
       <r>  -16.5001    1.0000 </r>
       <r>  -16.4736    1.0000 </r>
       <r>  -16.4612    1.0000 </r>
       <r>  -16.4445    1.0000 </r>
       <r>  -16.4260    1.0000 </r>
       <r>  -16.4091    1.0000 </r>
       <r>  -16.3954    1.0000 </r>
       <r>  -16.3740    1.0000 </r>
       <r>  -16.3731    1.0000 </r>
       <r>  -16.3638    1.0000 </r>
       <r>  -16.3497    1.0000 </r>
       <r>  -16.3412    1.0000 </r>
       <r>  -16.3238    1.0000 </r>
       <r>  -16.3085    1.0000 </r>
       <r>  -16.2769    1.0000 </r>
       <r>  -16.2699    1.0000 </r>
       <r>  -16.2583    1.0000 </r>
       <r>  -16.2514    1.0000 </r>
       <r>  -16.1963    1.0000 </r>
       <r>  -16.1701    1.0000 </r>
       <r>  -16.1322    1.0000 </r>
       <r>  -16.0807    1.0000 </r>
       <r>  -16.0677    1.0000 </r>
       <r>  -16.0512    1.0000 </r>
       <r>  -16.0333    1.0000 </r>
       <r>  -16.0221    1.0000 </r>
       <r>  -16.0084    1.0000 </r>
       <r>  -15.9720    1.0000 </r>
       <r>  -14.6634    1.0000 </r>
       <r>  -14.4941    1.0000 </r>
       <r>  -14.4029    1.0000 </r>
       <r>  -14.3525    1.0000 </r>
       <r>  -14.2982    1.0000 </r>
       <r>  -14.2554    1.0000 </r>
       <r>  -14.1427    1.0000 </r>
       <r>  -14.1004    1.0000 </r>
       <r>  -13.9943    1.0000 </r>
       <r>  -13.9289    1.0000 </r>
       <r>  -13.9075    1.0000 </r>
       <r>  -13.7898    1.0000 </r>
       <r>  -13.7481    1.0000 </r>
       <r>  -13.7104    1.0000 </r>
       <r>  -13.6721    1.0000 </r>
       <r>  -13.6371    1.0000 </r>
       <r>  -13.5699    1.0000 </r>
       <r>  -13.5365    1.0000 </r>
       <r>  -13.4848    1.0000 </r>
       <r>  -13.4406    1.0000 </r>
       <r>  -13.4195    1.0000 </r>
       <r>  -13.3368    1.0000 </r>
       <r>  -13.2518    1.0000 </r>
       <r>  -13.2380    1.0000 </r>
       <r>   -7.9462    1.0000 </r>
       <r>   -7.9229    1.0000 </r>
       <r>   -7.6015    1.0000 </r>
       <r>   -7.5650    1.0000 </r>
       <r>   -7.5254    1.0000 </r>
       <r>   -7.5116    1.0000 </r>
       <r>   -7.4846    1.0000 </r>
       <r>   -7.4370    1.0000 </r>
       <r>   -7.3982    1.0000 </r>
       <r>   -7.3672    1.0000 </r>
       <r>   -7.3156    1.0000 </r>
       <r>   -7.3044    1.0000 </r>
       <r>   -7.2434    1.0000 </r>
       <r>   -7.2322    1.0000 </r>
       <r>   -7.2064    1.0000 </r>
       <r>   -7.2012    1.0000 </r>
       <r>   -7.1888    1.0000 </r>
       <r>   -7.1502    1.0000 </r>
       <r>   -7.1397    1.0000 </r>
       <r>   -7.1320    1.0000 </r>
       <r>   -7.1251    1.0000 </r>
       <r>   -7.1100    1.0000 </r>
       <r>   -7.0935    1.0000 </r>
       <r>   -7.0811    1.0000 </r>
       <r>   -7.0688    1.0000 </r>
       <r>   -7.0625    1.0000 </r>
       <r>   -7.0532    1.0000 </r>
       <r>   -7.0247    1.0000 </r>
       <r>   -7.0101    1.0000 </r>
       <r>   -6.9808    1.0000 </r>
       <r>   -6.9281    1.0000 </r>
       <r>   -6.8574    1.0000 </r>
       <r>   -3.3662    1.0000 </r>
       <r>   -3.2301    1.0000 </r>
       <r>   -3.1919    1.0000 </r>
       <r>   -3.0764    1.0000 </r>
       <r>   -2.9581    1.0000 </r>
       <r>   -2.9352    1.0000 </r>
       <r>   -2.8599    1.0000 </r>
       <r>   -2.6775    1.0000 </r>
       <r>   -2.6017    1.0000 </r>
       <r>   -2.5075    1.0000 </r>
       <r>   -2.4693    1.0000 </r>
       <r>   -2.4407    1.0000 </r>
       <r>   -2.4056    1.0000 </r>
       <r>   -2.3178    1.0000 </r>
       <r>   -2.2698    1.0000 </r>
       <r>   -2.1541    1.0000 </r>
       <r>   -2.1391    1.0000 </r>
       <r>   -2.1105    1.0000 </r>
       <r>   -2.0951    1.0000 </r>
       <r>   -2.0407    1.0000 </r>
       <r>   -2.0138    1.0000 </r>
       <r>   -1.9745    1.0000 </r>
       <r>   -1.8845    1.0000 </r>
       <r>   -1.8581    1.0000 </r>
       <r>   -1.8258    1.0000 </r>
       <r>   -1.7863    1.0000 </r>
       <r>   -1.7702    1.0000 </r>
       <r>   -1.7138    1.0000 </r>
       <r>   -1.6849    1.0000 </r>
       <r>   -1.6739    1.0000 </r>
       <r>   -1.6288    1.0000 </r>
       <r>   -1.5556    1.0000 </r>
       <r>   -1.4776    1.0000 </r>
       <r>   -1.4571    1.0000 </r>
       <r>   -1.4040    1.0000 </r>
       <r>   -1.3636    1.0000 </r>
       <r>   -1.3312    1.0000 </r>
       <r>   -1.3011    1.0000 </r>
       <r>   -1.2816    1.0000 </r>
       <r>   -1.2710    1.0000 </r>
       <r>   -1.2338    1.0000 </r>
       <r>   -1.2075    1.0000 </r>
       <r>   -1.1931    1.0000 </r>
       <r>   -1.1670    1.0000 </r>
       <r>   -1.1400    1.0000 </r>
       <r>   -1.1107    1.0000 </r>
       <r>   -1.0922    1.0000 </r>
       <r>   -1.0376    1.0000 </r>
       <r>   -1.0333    1.0000 </r>
       <r>   -0.9952    1.0000 </r>
       <r>   -0.9526    1.0000 </r>
       <r>   -0.9376    1.0000 </r>
       <r>   -0.9084    1.0000 </r>
       <r>   -0.8749    1.0000 </r>
       <r>   -0.8292    1.0000 </r>
       <r>   -0.8065    1.0000 </r>
       <r>   -0.7675    1.0000 </r>
       <r>   -0.7555    1.0000 </r>
       <r>   -0.7235    1.0000 </r>
       <r>   -0.6785    1.0000 </r>
       <r>   -0.6386    1.0000 </r>
       <r>   -0.6200    1.0000 </r>
       <r>   -0.5904    1.0000 </r>
       <r>   -0.5560    1.0000 </r>
       <r>   -0.4664    1.0000 </r>
       <r>   -0.4402    1.0000 </r>
       <r>   -0.3719    1.0000 </r>
       <r>   -0.3363    1.0000 </r>
       <r>   -0.2713    1.0000 </r>
       <r>   -0.2525    1.0000 </r>
       <r>   -0.0431    1.0000 </r>
       <r>    0.0050    1.0000 </r>
       <r>    2.5506    0.0000 </r>
       <r>    3.0071    0.0000 </r>
       <r>    3.0569    0.0000 </r>
       <r>    3.1589    0.0000 </r>
       <r>    3.1671    0.0000 </r>
       <r>    3.2962    0.0000 </r>
       <r>    3.4418    0.0000 </r>
       <r>    3.4694    0.0000 </r>
       <r>    3.8178    0.0000 </r>
       <r>    4.2430    0.0000 </r>
       <r>    4.3557    0.0000 </r>
       <r>    4.3927    0.0000 </r>
       <r>    4.4739    0.0000 </r>
       <r>    4.6026    0.0000 </r>
       <r>    4.6542    0.0000 </r>
       <r>    4.7174    0.0000 </r>
       <r>    4.9166    0.0000 </r>
       <r>    5.0123    0.0000 </r>
       <r>    5.2672    0.0000 </r>
       <r>    5.4084    0.0000 </r>
       <r>    5.4483    0.0000 </r>
       <r>    5.5323    0.0000 </r>
       <r>    5.5899    0.0000 </r>
       <r>    5.8317    0.0000 </r>
       <r>    5.8796    0.0000 </r>
       <r>    5.9218    0.0000 </r>
       <r>    6.0770    0.0000 </r>
       <r>    6.1391    0.0000 </r>
       <r>    6.2724    0.0000 </r>
       <r>    6.2852    0.0000 </r>
       <r>    6.4547    0.0000 </r>
       <r>    6.4745    0.0000 </r>
       <r>    6.5372    0.0000 </r>
       <r>    6.5904    0.0000 </r>
       <r>    6.6133    0.0000 </r>
       <r>    6.6773    0.0000 </r>
       <r>    6.7183    0.0000 </r>
       <r>    6.8026    0.0000 </r>
       <r>    6.8262    0.0000 </r>
       <r>    6.9365    0.0000 </r>
      </set>
      <set comment="kpoint 4">
       <r>  -21.1267    1.0000 </r>
       <r>  -20.9599    1.0000 </r>
       <r>  -20.8032    1.0000 </r>
       <r>  -20.7798    1.0000 </r>
       <r>  -20.7165    1.0000 </r>
       <r>  -20.6870    1.0000 </r>
       <r>  -20.6797    1.0000 </r>
       <r>  -20.6151    1.0000 </r>
       <r>  -16.8500    1.0000 </r>
       <r>  -16.7884    1.0000 </r>
       <r>  -16.7718    1.0000 </r>
       <r>  -16.7398    1.0000 </r>
       <r>  -16.6721    1.0000 </r>
       <r>  -16.6392    1.0000 </r>
       <r>  -16.6166    1.0000 </r>
       <r>  -16.5900    1.0000 </r>
       <r>  -16.5648    1.0000 </r>
       <r>  -16.5557    1.0000 </r>
       <r>  -16.5447    1.0000 </r>
       <r>  -16.5039    1.0000 </r>
       <r>  -16.5007    1.0000 </r>
       <r>  -16.4736    1.0000 </r>
       <r>  -16.4611    1.0000 </r>
       <r>  -16.4446    1.0000 </r>
       <r>  -16.4260    1.0000 </r>
       <r>  -16.4103    1.0000 </r>
       <r>  -16.3954    1.0000 </r>
       <r>  -16.3730    1.0000 </r>
       <r>  -16.3709    1.0000 </r>
       <r>  -16.3642    1.0000 </r>
       <r>  -16.3489    1.0000 </r>
       <r>  -16.3412    1.0000 </r>
       <r>  -16.3238    1.0000 </r>
       <r>  -16.3085    1.0000 </r>
       <r>  -16.2770    1.0000 </r>
       <r>  -16.2700    1.0000 </r>
       <r>  -16.2594    1.0000 </r>
       <r>  -16.2515    1.0000 </r>
       <r>  -16.1975    1.0000 </r>
       <r>  -16.1724    1.0000 </r>
       <r>  -16.1323    1.0000 </r>
       <r>  -16.0808    1.0000 </r>
       <r>  -16.0678    1.0000 </r>
       <r>  -16.0512    1.0000 </r>
       <r>  -16.0334    1.0000 </r>
       <r>  -16.0221    1.0000 </r>
       <r>  -16.0085    1.0000 </r>
       <r>  -15.9720    1.0000 </r>
       <r>  -14.6630    1.0000 </r>
       <r>  -14.4930    1.0000 </r>
       <r>  -14.4039    1.0000 </r>
       <r>  -14.3492    1.0000 </r>
       <r>  -14.3054    1.0000 </r>
       <r>  -14.2566    1.0000 </r>
       <r>  -14.1445    1.0000 </r>
       <r>  -14.1061    1.0000 </r>
       <r>  -13.9993    1.0000 </r>
       <r>  -13.9202    1.0000 </r>
       <r>  -13.9038    1.0000 </r>
       <r>  -13.7861    1.0000 </r>
       <r>  -13.7470    1.0000 </r>
       <r>  -13.6997    1.0000 </r>
       <r>  -13.6702    1.0000 </r>
       <r>  -13.6393    1.0000 </r>
       <r>  -13.5687    1.0000 </r>
       <r>  -13.5385    1.0000 </r>
       <r>  -13.4825    1.0000 </r>
       <r>  -13.4417    1.0000 </r>
       <r>  -13.4188    1.0000 </r>
       <r>  -13.3423    1.0000 </r>
       <r>  -13.2543    1.0000 </r>
       <r>  -13.2395    1.0000 </r>
       <r>   -7.8913    1.0000 </r>
       <r>   -7.8294    1.0000 </r>
       <r>   -7.6131    1.0000 </r>
       <r>   -7.5474    1.0000 </r>
       <r>   -7.5406    1.0000 </r>
       <r>   -7.5179    1.0000 </r>
       <r>   -7.4715    1.0000 </r>
       <r>   -7.4414    1.0000 </r>
       <r>   -7.4045    1.0000 </r>
       <r>   -7.3611    1.0000 </r>
       <r>   -7.3402    1.0000 </r>
       <r>   -7.3124    1.0000 </r>
       <r>   -7.2480    1.0000 </r>
       <r>   -7.2328    1.0000 </r>
       <r>   -7.2072    1.0000 </r>
       <r>   -7.1995    1.0000 </r>
       <r>   -7.1948    1.0000 </r>
       <r>   -7.1597    1.0000 </r>
       <r>   -7.1483    1.0000 </r>
       <r>   -7.1343    1.0000 </r>
       <r>   -7.1261    1.0000 </r>
       <r>   -7.1124    1.0000 </r>
       <r>   -7.0989    1.0000 </r>
       <r>   -7.0903    1.0000 </r>
       <r>   -7.0799    1.0000 </r>
       <r>   -7.0675    1.0000 </r>
       <r>   -7.0485    1.0000 </r>
       <r>   -7.0435    1.0000 </r>
       <r>   -7.0180    1.0000 </r>
       <r>   -7.0142    1.0000 </r>
       <r>   -6.9828    1.0000 </r>
       <r>   -6.9242    1.0000 </r>
       <r>   -3.2277    1.0000 </r>
       <r>   -3.2050    1.0000 </r>
       <r>   -3.1221    1.0000 </r>
       <r>   -2.8924    1.0000 </r>
       <r>   -2.8340    1.0000 </r>
       <r>   -2.7582    1.0000 </r>
       <r>   -2.7261    1.0000 </r>
       <r>   -2.6121    1.0000 </r>
       <r>   -2.5510    1.0000 </r>
       <r>   -2.5192    1.0000 </r>
       <r>   -2.4578    1.0000 </r>
       <r>   -2.4025    1.0000 </r>
       <r>   -2.3583    1.0000 </r>
       <r>   -2.3214    1.0000 </r>
       <r>   -2.2797    1.0000 </r>
       <r>   -2.2561    1.0000 </r>
       <r>   -2.1851    1.0000 </r>
       <r>   -2.1699    1.0000 </r>
       <r>   -2.0804    1.0000 </r>
       <r>   -1.9963    1.0000 </r>
       <r>   -1.9850    1.0000 </r>
       <r>   -1.9643    1.0000 </r>
       <r>   -1.9189    1.0000 </r>
       <r>   -1.8541    1.0000 </r>
       <r>   -1.8051    1.0000 </r>
       <r>   -1.7918    1.0000 </r>
       <r>   -1.7599    1.0000 </r>
       <r>   -1.7382    1.0000 </r>
       <r>   -1.7210    1.0000 </r>
       <r>   -1.6769    1.0000 </r>
       <r>   -1.6625    1.0000 </r>
       <r>   -1.6024    1.0000 </r>
       <r>   -1.5633    1.0000 </r>
       <r>   -1.4984    1.0000 </r>
       <r>   -1.4934    1.0000 </r>
       <r>   -1.4821    1.0000 </r>
       <r>   -1.4354    1.0000 </r>
       <r>   -1.4154    1.0000 </r>
       <r>   -1.3286    1.0000 </r>
       <r>   -1.3101    1.0000 </r>
       <r>   -1.2845    1.0000 </r>
       <r>   -1.2733    1.0000 </r>
       <r>   -1.2046    1.0000 </r>
       <r>   -1.1683    1.0000 </r>
       <r>   -1.1623    1.0000 </r>
       <r>   -1.1170    1.0000 </r>
       <r>   -1.0955    1.0000 </r>
       <r>   -1.0705    1.0000 </r>
       <r>   -1.0075    1.0000 </r>
       <r>   -0.9863    1.0000 </r>
       <r>   -0.9172    1.0000 </r>
       <r>   -0.9129    1.0000 </r>
       <r>   -0.8847    1.0000 </r>
       <r>   -0.8690    1.0000 </r>
       <r>   -0.8395    1.0000 </r>
       <r>   -0.8130    1.0000 </r>
       <r>   -0.7923    1.0000 </r>
       <r>   -0.7500    1.0000 </r>
       <r>   -0.7062    1.0000 </r>
       <r>   -0.6869    1.0000 </r>
       <r>   -0.6549    1.0000 </r>
       <r>   -0.6407    1.0000 </r>
       <r>   -0.6270    1.0000 </r>
       <r>   -0.5606    1.0000 </r>
       <r>   -0.5181    1.0000 </r>
       <r>   -0.4985    1.0000 </r>
       <r>   -0.4379    1.0000 </r>
       <r>   -0.3914    1.0000 </r>
       <r>   -0.3260    1.0000 </r>
       <r>   -0.2579    1.0000 </r>
       <r>   -0.0984    1.0000 </r>
       <r>   -0.0397    1.0000 </r>
       <r>    2.5546    0.0000 </r>
       <r>    2.9667    0.0000 </r>
       <r>    3.0583    0.0000 </r>
       <r>    3.2395    0.0000 </r>
       <r>    3.4091    0.0000 </r>
       <r>    3.9035    0.0000 </r>
       <r>    3.9227    0.0000 </r>
       <r>    3.9772    0.0000 </r>
       <r>    4.0771    0.0000 </r>
       <r>    4.2157    0.0000 </r>
       <r>    4.2769    0.0000 </r>
       <r>    4.3940    0.0000 </r>
       <r>    4.4713    0.0000 </r>
       <r>    4.5019    0.0000 </r>
       <r>    4.5712    0.0000 </r>
       <r>    4.7331    0.0000 </r>
       <r>    4.7861    0.0000 </r>
       <r>    4.8955    0.0000 </r>
       <r>    4.9951    0.0000 </r>
       <r>    5.0728    0.0000 </r>
       <r>    5.2761    0.0000 </r>
       <r>    5.5665    0.0000 </r>
       <r>    5.5872    0.0000 </r>
       <r>    5.7593    0.0000 </r>
       <r>    5.8582    0.0000 </r>
       <r>    5.9390    0.0000 </r>
       <r>    6.0819    0.0000 </r>
       <r>    6.1669    0.0000 </r>
       <r>    6.2826    0.0000 </r>
       <r>    6.2996    0.0000 </r>
       <r>    6.3069    0.0000 </r>
       <r>    6.3910    0.0000 </r>
       <r>    6.4205    0.0000 </r>
       <r>    6.5259    0.0000 </r>
       <r>    6.5368    0.0000 </r>
       <r>    6.6141    0.0000 </r>
       <r>    6.7109    0.0000 </r>
       <r>    6.7325    0.0000 </r>
       <r>    6.7882    0.0000 </r>
       <r>    6.8517    0.0000 </r>
      </set>
      <set comment="kpoint 5">
       <r>  -21.1267    1.0000 </r>
       <r>  -20.9599    1.0000 </r>
       <r>  -20.8032    1.0000 </r>
       <r>  -20.7799    1.0000 </r>
       <r>  -20.7165    1.0000 </r>
       <r>  -20.6871    1.0000 </r>
       <r>  -20.6795    1.0000 </r>
       <r>  -20.6151    1.0000 </r>
       <r>  -16.8495    1.0000 </r>
       <r>  -16.7890    1.0000 </r>
       <r>  -16.7714    1.0000 </r>
       <r>  -16.7399    1.0000 </r>
       <r>  -16.6722    1.0000 </r>
       <r>  -16.6417    1.0000 </r>
       <r>  -16.6183    1.0000 </r>
       <r>  -16.5936    1.0000 </r>
       <r>  -16.5646    1.0000 </r>
       <r>  -16.5541    1.0000 </r>
       <r>  -16.5447    1.0000 </r>
       <r>  -16.5006    1.0000 </r>
       <r>  -16.4990    1.0000 </r>
       <r>  -16.4746    1.0000 </r>
       <r>  -16.4612    1.0000 </r>
       <r>  -16.4448    1.0000 </r>
       <r>  -16.4262    1.0000 </r>
       <r>  -16.4125    1.0000 </r>
       <r>  -16.3954    1.0000 </r>
       <r>  -16.3731    1.0000 </r>
       <r>  -16.3728    1.0000 </r>
       <r>  -16.3640    1.0000 </r>
       <r>  -16.3491    1.0000 </r>
       <r>  -16.3411    1.0000 </r>
       <r>  -16.3238    1.0000 </r>
       <r>  -16.3087    1.0000 </r>
       <r>  -16.2767    1.0000 </r>
       <r>  -16.2700    1.0000 </r>
       <r>  -16.2583    1.0000 </r>
       <r>  -16.2515    1.0000 </r>
       <r>  -16.1913    1.0000 </r>
       <r>  -16.1710    1.0000 </r>
       <r>  -16.1319    1.0000 </r>
       <r>  -16.0806    1.0000 </r>
       <r>  -16.0677    1.0000 </r>
       <r>  -16.0512    1.0000 </r>
       <r>  -16.0335    1.0000 </r>
       <r>  -16.0221    1.0000 </r>
       <r>  -16.0085    1.0000 </r>
       <r>  -15.9721    1.0000 </r>
       <r>  -14.6641    1.0000 </r>
       <r>  -14.5004    1.0000 </r>
       <r>  -14.4000    1.0000 </r>
       <r>  -14.3200    1.0000 </r>
       <r>  -14.3017    1.0000 </r>
       <r>  -14.2720    1.0000 </r>
       <r>  -14.1434    1.0000 </r>
       <r>  -14.1037    1.0000 </r>
       <r>  -13.9957    1.0000 </r>
       <r>  -13.9420    1.0000 </r>
       <r>  -13.9089    1.0000 </r>
       <r>  -13.8131    1.0000 </r>
       <r>  -13.7398    1.0000 </r>
       <r>  -13.6953    1.0000 </r>
       <r>  -13.6767    1.0000 </r>
       <r>  -13.6497    1.0000 </r>
       <r>  -13.5545    1.0000 </r>
       <r>  -13.5011    1.0000 </r>
       <r>  -13.4857    1.0000 </r>
       <r>  -13.4429    1.0000 </r>
       <r>  -13.4327    1.0000 </r>
       <r>  -13.3406    1.0000 </r>
       <r>  -13.2560    1.0000 </r>
       <r>  -13.2375    1.0000 </r>
       <r>   -7.9796    1.0000 </r>
       <r>   -7.9390    1.0000 </r>
       <r>   -7.6645    1.0000 </r>
       <r>   -7.5406    1.0000 </r>
       <r>   -7.5250    1.0000 </r>
       <r>   -7.4996    1.0000 </r>
       <r>   -7.4557    1.0000 </r>
       <r>   -7.4448    1.0000 </r>
       <r>   -7.3757    1.0000 </r>
       <r>   -7.3722    1.0000 </r>
       <r>   -7.3421    1.0000 </r>
       <r>   -7.3018    1.0000 </r>
       <r>   -7.2435    1.0000 </r>
       <r>   -7.2354    1.0000 </r>
       <r>   -7.2033    1.0000 </r>
       <r>   -7.1934    1.0000 </r>
       <r>   -7.1863    1.0000 </r>
       <r>   -7.1509    1.0000 </r>
       <r>   -7.1388    1.0000 </r>
       <r>   -7.1276    1.0000 </r>
       <r>   -7.1224    1.0000 </r>
       <r>   -7.1150    1.0000 </r>
       <r>   -7.1071    1.0000 </r>
       <r>   -7.0752    1.0000 </r>
       <r>   -7.0671    1.0000 </r>
       <r>   -7.0530    1.0000 </r>
       <r>   -7.0409    1.0000 </r>
       <r>   -7.0315    1.0000 </r>
       <r>   -7.0167    1.0000 </r>
       <r>   -6.9822    1.0000 </r>
       <r>   -6.8811    1.0000 </r>
       <r>   -6.7748    1.0000 </r>
       <r>   -3.3691    1.0000 </r>
       <r>   -3.3616    1.0000 </r>
       <r>   -3.2297    1.0000 </r>
       <r>   -3.1886    1.0000 </r>
       <r>   -3.1222    1.0000 </r>
       <r>   -2.9790    1.0000 </r>
       <r>   -2.9278    1.0000 </r>
       <r>   -2.8492    1.0000 </r>
       <r>   -2.6123    1.0000 </r>
       <r>   -2.4948    1.0000 </r>
       <r>   -2.4572    1.0000 </r>
       <r>   -2.4056    1.0000 </r>
       <r>   -2.3348    1.0000 </r>
       <r>   -2.2432    1.0000 </r>
       <r>   -2.1769    1.0000 </r>
       <r>   -2.1339    1.0000 </r>
       <r>   -2.1072    1.0000 </r>
       <r>   -2.0825    1.0000 </r>
       <r>   -2.0213    1.0000 </r>
       <r>   -1.9761    1.0000 </r>
       <r>   -1.9605    1.0000 </r>
       <r>   -1.9302    1.0000 </r>
       <r>   -1.8758    1.0000 </r>
       <r>   -1.8499    1.0000 </r>
       <r>   -1.7999    1.0000 </r>
       <r>   -1.7614    1.0000 </r>
       <r>   -1.7492    1.0000 </r>
       <r>   -1.7274    1.0000 </r>
       <r>   -1.6453    1.0000 </r>
       <r>   -1.6387    1.0000 </r>
       <r>   -1.5857    1.0000 </r>
       <r>   -1.5769    1.0000 </r>
       <r>   -1.5110    1.0000 </r>
       <r>   -1.4573    1.0000 </r>
       <r>   -1.4438    1.0000 </r>
       <r>   -1.3903    1.0000 </r>
       <r>   -1.3604    1.0000 </r>
       <r>   -1.3430    1.0000 </r>
       <r>   -1.2874    1.0000 </r>
       <r>   -1.2655    1.0000 </r>
       <r>   -1.2481    1.0000 </r>
       <r>   -1.1978    1.0000 </r>
       <r>   -1.1764    1.0000 </r>
       <r>   -1.1724    1.0000 </r>
       <r>   -1.1537    1.0000 </r>
       <r>   -1.1212    1.0000 </r>
       <r>   -1.0950    1.0000 </r>
       <r>   -1.0522    1.0000 </r>
       <r>   -1.0155    1.0000 </r>
       <r>   -1.0025    1.0000 </r>
       <r>   -0.9938    1.0000 </r>
       <r>   -0.9672    1.0000 </r>
       <r>   -0.9218    1.0000 </r>
       <r>   -0.9106    1.0000 </r>
       <r>   -0.8854    1.0000 </r>
       <r>   -0.8385    1.0000 </r>
       <r>   -0.8139    1.0000 </r>
       <r>   -0.7493    1.0000 </r>
       <r>   -0.6987    1.0000 </r>
       <r>   -0.6674    1.0000 </r>
       <r>   -0.6050    1.0000 </r>
       <r>   -0.5432    1.0000 </r>
       <r>   -0.5296    1.0000 </r>
       <r>   -0.4805    1.0000 </r>
       <r>   -0.4629    1.0000 </r>
       <r>   -0.3975    1.0000 </r>
       <r>   -0.3663    1.0000 </r>
       <r>   -0.3207    1.0000 </r>
       <r>   -0.2396    1.0000 </r>
       <r>   -0.1974    1.0000 </r>
       <r>    0.0573    1.0000 </r>
       <r>    0.1660    1.0000 </r>
       <r>    2.5732    0.0000 </r>
       <r>    2.8920    0.0000 </r>
       <r>    3.0247    0.0000 </r>
       <r>    3.0840    0.0000 </r>
       <r>    3.3351    0.0000 </r>
       <r>    3.3560    0.0000 </r>
       <r>    3.3991    0.0000 </r>
       <r>    3.4525    0.0000 </r>
       <r>    3.5346    0.0000 </r>
       <r>    3.7468    0.0000 </r>
       <r>    3.8815    0.0000 </r>
       <r>    4.2615    0.0000 </r>
       <r>    4.3470    0.0000 </r>
       <r>    4.5754    0.0000 </r>
       <r>    4.6490    0.0000 </r>
       <r>    4.7448    0.0000 </r>
       <r>    4.9221    0.0000 </r>
       <r>    5.2563    0.0000 </r>
       <r>    5.3023    0.0000 </r>
       <r>    5.5412    0.0000 </r>
       <r>    5.6234    0.0000 </r>
       <r>    5.6536    0.0000 </r>
       <r>    5.7109    0.0000 </r>
       <r>    5.9094    0.0000 </r>
       <r>    5.9430    0.0000 </r>
       <r>    6.0479    0.0000 </r>
       <r>    6.1626    0.0000 </r>
       <r>    6.2168    0.0000 </r>
       <r>    6.2578    0.0000 </r>
       <r>    6.3361    0.0000 </r>
       <r>    6.4531    0.0000 </r>
       <r>    6.5227    0.0000 </r>
       <r>    6.5562    0.0000 </r>
       <r>    6.5953    0.0000 </r>
       <r>    6.6606    0.0000 </r>
       <r>    6.6934    0.0000 </r>
       <r>    6.7489    0.0000 </r>
       <r>    6.8021    0.0000 </r>
       <r>    6.8639    0.0000 </r>
       <r>    6.8782    0.0000 </r>
      </set>
[...]
        <r>  0.0000  0.0004  0.0080 </r>
        <r>  0.0002  0.0009  0.0143 </r>
        <r>  0.0004  0.0002  0.0102 </r>
        <r>  0.0013  0.0011  0.0048 </r>
        <r>  0.0069  0.0009  0.0090 </r>
        <r>  0.0006  0.0001  0.0114 </r>
        <r>  0.0009  0.0001  0.0137 </r>
        <r>  0.0000  0.0008  0.0003 </r>
        <r>  0.0000  0.0102  0.0006 </r>
        <r>  0.0000  0.0056  0.0003 </r>
        <r>  0.0000  0.0069  0.0006 </r>
        <r>  0.0002  0.0048  0.0007 </r>
        <r>  0.0000  0.0037  0.0007 </r>
        <r>  0.0000  0.0070  0.0002 </r>
        <r>  0.0001  0.0109  0.0008 </r>
        <r>  0.0001  0.0009  0.0007 </r>
        <r>  0.0001  0.0019  0.0015 </r>
        <r>  0.0000  0.0045  0.0007 </r>
        <r>  0.0009  0.0011  0.0003 </r>
        <r>  0.0008  0.0056  0.0016 </r>
        <r>  0.0002  0.0005  0.0009 </r>
        <r>  0.0057  0.0018  0.0016 </r>
        <r>  0.0000  0.0012  0.0015 </r>
        <r>  0.0007  0.0032  0.0001 </r>
        <r>  0.0000  0.0009  0.0010 </r>
        <r>  0.0021  0.0034  0.0007 </r>
        <r>  0.0001  0.0002  0.0006 </r>
        <r>  0.0001  0.0058  0.0007 </r>
        <r>  0.0002  0.0006  0.0009 </r>
        <r>  0.0000  0.0046  0.0005 </r>
        <r>  0.0003  0.0014  0.0002 </r>
        <r>  0.0005  0.0005  0.0011 </r>
        <r>  0.0002  0.0014  0.0020 </r>
        <r>  0.0015  0.0004  0.0026 </r>
        <r>  0.0003  0.0013  0.0004 </r>
        <r>  0.0003  0.0017  0.0011 </r>
        <r>  0.0000  0.0008  0.0026 </r>
        <r>  0.0002  0.0025  0.0021 </r>
        <r>  0.0003  0.0006  0.0009 </r>
       </set>
       <set comment="band 209">
        <r>  0.0000  0.0008  0.0199 </r>
        <r>  0.0012  0.0006  0.0053 </r>
        <r>  0.0001  0.0000  0.0087 </r>
        <r>  0.0063  0.0000  0.0117 </r>
        <r>  0.0027  0.0002  0.0197 </r>
        <r>  0.0037  0.0007  0.0060 </r>
        <r>  0.0008  0.0002  0.0026 </r>
        <r>  0.0001  0.0016  0.0036 </r>
        <r>  0.0001  0.0043  0.0008 </r>
        <r>  0.0000  0.0003  0.0002 </r>
        <r>  0.0002  0.0035  0.0002 </r>
        <r>  0.0003  0.0086  0.0005 </r>
        <r>  0.0000  0.0039  0.0001 </r>
        <r>  0.0000  0.0117  0.0003 </r>
        <r>  0.0002  0.0026  0.0002 </r>
        <r>  0.0002  0.0137  0.0010 </r>
        <r>  0.0003  0.0001  0.0011 </r>
        <r>  0.0003  0.0042  0.0019 </r>
        <r>  0.0004  0.0007  0.0028 </r>
        <r>  0.0019  0.0014  0.0029 </r>
        <r>  0.0004  0.0014  0.0004 </r>
        <r>  0.0002  0.0065  0.0016 </r>
        <r>  0.0000  0.0011  0.0004 </r>
        <r>  0.0001  0.0091  0.0008 </r>
        <r>  0.0006  0.0004  0.0015 </r>
        <r>  0.0006  0.0028  0.0012 </r>
        <r>  0.0002  0.0025  0.0005 </r>
        <r>  0.0002  0.0008  0.0001 </r>
        <r>  0.0004  0.0012  0.0002 </r>
        <r>  0.0008  0.0004  0.0019 </r>
        <r>  0.0002  0.0015  0.0010 </r>
        <r>  0.0031  0.0011  0.0022 </r>
        <r>  0.0016  0.0006  0.0014 </r>
        <r>  0.0000  0.0004  0.0007 </r>
        <r>  0.0000  0.0009  0.0009 </r>
        <r>  0.0007  0.0011  0.0004 </r>
        <r>  0.0000  0.0010  0.0003 </r>
        <r>  0.0020  0.0032  0.0009 </r>
        <r>  0.0001  0.0011  0.0012 </r>
        <r>  0.0004  0.0005  0.0003 </r>
       </set>
       <set comment="band 210">
        <r>  0.0023  0.0005  0.0195 </r>
        <r>  0.0000  0.0003  0.0147 </r>
        <r>  0.0017  0.0006  0.0263 </r>
        <r>  0.0007  0.0013  0.0092 </r>
        <r>  0.0021  0.0008  0.0131 </r>
        <r>  0.0000  0.0001  0.0044 </r>
        <r>  0.0006  0.0012  0.0081 </r>
        <r>  0.0008  0.0004  0.0021 </r>
        <r>  0.0001  0.0001  0.0003 </r>
        <r>  0.0000  0.0046  0.0009 </r>
        <r>  0.0001  0.0050  0.0001 </r>
        <r>  0.0000  0.0061  0.0008 </r>
        <r>  0.0002  0.0080  0.0010 </r>
        <r>  0.0000  0.0033  0.0004 </r>
        <r>  0.0000  0.0161  0.0001 </r>
        <r>  0.0002  0.0072  0.0014 </r>
        <r>  0.0008  0.0013  0.0022 </r>
        <r>  0.0003  0.0007  0.0010 </r>
        <r>  0.0006  0.0035  0.0031 </r>
        <r>  0.0000  0.0038  0.0007 </r>
        <r>  0.0000  0.0052  0.0014 </r>
        <r>  0.0001  0.0018  0.0020 </r>
        <r>  0.0005  0.0048  0.0020 </r>
        <r>  0.0000  0.0008  0.0017 </r>
        <r>  0.0013  0.0009  0.0007 </r>
        <r>  0.0000  0.0056  0.0004 </r>
        <r>  0.0000  0.0016  0.0006 </r>
        <r>  0.0003  0.0003  0.0004 </r>
        <r>  0.0001  0.0012  0.0007 </r>
        <r>  0.0001  0.0030  0.0004 </r>
        <r>  0.0001  0.0007  0.0002 </r>
        <r>  0.0001  0.0009  0.0007 </r>
        <r>  0.0010  0.0003  0.0015 </r>
        <r>  0.0000  0.0030  0.0016 </r>
        <r>  0.0000  0.0000  0.0002 </r>
        <r>  0.0005  0.0013  0.0007 </r>
        <r>  0.0003  0.0006  0.0018 </r>
        <r>  0.0001  0.0005  0.0009 </r>
        <r>  0.0003  0.0032  0.0019 </r>
        <r>  0.0000  0.0016  0.0013 </r>
       </set>
       <set comment="band 211">
        <r>  0.0000  0.0013  0.0031 </r>
        <r>  0.0003  0.0013  0.0084 </r>
        <r>  0.0005  0.0013  0.0194 </r>
        <r>  0.0020  0.0005  0.0072 </r>
        <r>  0.0029  0.0009  0.0091 </r>
        <r>  0.0001  0.0003  0.0056 </r>
        <r>  0.0046  0.0011  0.0125 </r>
        <r>  0.0003  0.0002  0.0125 </r>
        <r>  0.0002  0.0173  0.0004 </r>
        <r>  0.0000  0.0072  0.0021 </r>
        <r>  0.0001  0.0099  0.0003 </r>
        <r>  0.0000  0.0154  0.0003 </r>
        <r>  0.0000  0.0026  0.0002 </r>
        <r>  0.0000  0.0067  0.0001 </r>
        <r>  0.0000  0.0035  0.0002 </r>
        <r>  0.0004  0.0013  0.0002 </r>
        <r>  0.0000  0.0001  0.0010 </r>
        <r>  0.0001  0.0017  0.0012 </r>
        <r>  0.0008  0.0043  0.0009 </r>
        <r>  0.0006  0.0007  0.0001 </r>
        <r>  0.0003  0.0026  0.0013 </r>
        <r>  0.0001  0.0003  0.0030 </r>
        <r>  0.0000  0.0005  0.0005 </r>
        <r>  0.0000  0.0029  0.0010 </r>
        <r>  0.0007  0.0010  0.0005 </r>
        <r>  0.0003  0.0005  0.0011 </r>
        <r>  0.0000  0.0008  0.0011 </r>
        <r>  0.0015  0.0002  0.0013 </r>
        <r>  0.0002  0.0019  0.0022 </r>
        <r>  0.0001  0.0033  0.0010 </r>
        <r>  0.0000  0.0010  0.0020 </r>
        <r>  0.0023  0.0025  0.0012 </r>
        <r>  0.0000  0.0024  0.0003 </r>
        <r>  0.0000  0.0047  0.0037 </r>
        <r>  0.0009  0.0043  0.0011 </r>
        <r>  0.0013  0.0048  0.0033 </r>
        <r>  0.0000  0.0004  0.0008 </r>
        <r>  0.0001  0.0011  0.0006 </r>
        <r>  0.0002  0.0009  0.0003 </r>
        <r>  0.0000  0.0034  0.0002 </r>
       </set>
       <set comment="band 212">
        <r>  0.0003  0.0008  0.0034 </r>
        <r>  0.0002  0.0008  0.0166 </r>
        <r>  0.0001  0.0009  0.0081 </r>
        <r>  0.0003  0.0006  0.0017 </r>
        <r>  0.0008  0.0003  0.0123 </r>
        <r>  0.0037  0.0000  0.0057 </r>
        <r>  0.0000  0.0015  0.0431 </r>
        <r>  0.0026  0.0003  0.0041 </r>
        <r>  0.0002  0.0074  0.0004 </r>
        <r>  0.0004  0.0095  0.0003 </r>
        <r>  0.0002  0.0043  0.0006 </r>
        <r>  0.0000  0.0056  0.0001 </r>
        <r>  0.0001  0.0037  0.0002 </r>
        <r>  0.0000  0.0109  0.0006 </r>
        <r>  0.0001  0.0089  0.0013 </r>
        <r>  0.0002  0.0095  0.0006 </r>
        <r>  0.0001  0.0010  0.0008 </r>
        <r>  0.0000  0.0031  0.0003 </r>
        <r>  0.0006  0.0035  0.0001 </r>
        <r>  0.0001  0.0006  0.0005 </r>
        <r>  0.0003  0.0012  0.0024 </r>
        <r>  0.0001  0.0014  0.0024 </r>
        <r>  0.0000  0.0025  0.0003 </r>
        <r>  0.0001  0.0001  0.0007 </r>
        <r>  0.0007  0.0005  0.0012 </r>
        <r>  0.0001  0.0037  0.0018 </r>
        <r>  0.0001  0.0017  0.0004 </r>
        <r>  0.0011  0.0014  0.0024 </r>
        <r>  0.0007  0.0027  0.0007 </r>
        <r>  0.0001  0.0011  0.0002 </r>
        <r>  0.0013  0.0008  0.0030 </r>
        <r>  0.0000  0.0003  0.0005 </r>
        <r>  0.0000  0.0055  0.0009 </r>
        <r>  0.0000  0.0011  0.0004 </r>
        <r>  0.0001  0.0006  0.0009 </r>
        <r>  0.0014  0.0013  0.0025 </r>
        <r>  0.0001  0.0085  0.0018 </r>
        <r>  0.0001  0.0027  0.0005 </r>
        <r>  0.0010  0.0011  0.0032 </r>
        <r>  0.0009  0.0009  0.0018 </r>
       </set>
       <set comment="band 213">
        <r>  0.0028  0.0007  0.0036 </r>
        <r>  0.0003  0.0002  0.0033 </r>
        <r>  0.0004  0.0005  0.0084 </r>
        <r>  0.0001  0.0007  0.0073 </r>
        <r>  0.0039  0.0004  0.0037 </r>
        <r>  0.0002  0.0012  0.0258 </r>
        <r>  0.0009  0.0003  0.0300 </r>
        <r>  0.0014  0.0008  0.0174 </r>
        <r>  0.0000  0.0037  0.0004 </r>
        <r>  0.0000  0.0055  0.0004 </r>
        <r>  0.0000  0.0007  0.0003 </r>
        <r>  0.0003  0.0045  0.0006 </r>
        <r>  0.0001  0.0010  0.0003 </r>
        <r>  0.0000  0.0105  0.0005 </r>
        <r>  0.0001  0.0033  0.0005 </r>
        <r>  0.0012  0.0052  0.0002 </r>
        <r>  0.0001  0.0021  0.0011 </r>
        <r>  0.0000  0.0000  0.0014 </r>
        <r>  0.0004  0.0010  0.0027 </r>
        <r>  0.0009  0.0008  0.0011 </r>
        <r>  0.0004  0.0000  0.0024 </r>
        <r>  0.0042  0.0041  0.0031 </r>
        <r>  0.0000  0.0012  0.0003 </r>
        <r>  0.0011  0.0030  0.0009 </r>
        <r>  0.0000  0.0004  0.0004 </r>
        <r>  0.0004  0.0089  0.0008 </r>
        <r>  0.0003  0.0011  0.0004 </r>
        <r>  0.0001  0.0008  0.0009 </r>
        <r>  0.0001  0.0006  0.0003 </r>
        <r>  0.0008  0.0015  0.0014 </r>
        <r>  0.0011  0.0008  0.0024 </r>
        <r>  0.0001  0.0053  0.0006 </r>
        <r>  0.0003  0.0010  0.0005 </r>
        <r>  0.0001  0.0033  0.0010 </r>
        <r>  0.0007  0.0018  0.0007 </r>
        <r>  0.0000  0.0005  0.0013 </r>
        <r>  0.0002  0.0015  0.0014 </r>
        <r>  0.0005  0.0011  0.0015 </r>
        <r>  0.0006  0.0007  0.0010 </r>
        <r>  0.0010  0.0042  0.0006 </r>
       </set>
       <set comment="band 214">
        <r>  0.0020  0.0007  0.0065 </r>
        <r>  0.0001  0.0007  0.0103 </r>
        <r>  0.0003  0.0001  0.0080 </r>
        <r>  0.0025  0.0009  0.0144 </r>
        <r>  0.0001  0.0019  0.0042 </r>
        <r>  0.0031  0.0014  0.0396 </r>
        <r>  0.0006  0.0001  0.0062 </r>
        <r>  0.0002  0.0015  0.0154 </r>
        <r>  0.0002  0.0063  0.0010 </r>
        <r>  0.0000  0.0001  0.0006 </r>
        <r>  0.0008  0.0030  0.0003 </r>
        <r>  0.0001  0.0067  0.0018 </r>
        <r>  0.0001  0.0072  0.0006 </r>
        <r>  0.0001  0.0013  0.0001 </r>
        <r>  0.0000  0.0068  0.0001 </r>
        <r>  0.0002  0.0040  0.0004 </r>
        <r>  0.0005  0.0002  0.0015 </r>
        <r>  0.0003  0.0021  0.0008 </r>
        <r>  0.0018  0.0019  0.0028 </r>
        <r>  0.0001  0.0015  0.0023 </r>
        <r>  0.0005  0.0022  0.0009 </r>
        <r>  0.0004  0.0006  0.0019 </r>
        <r>  0.0000  0.0030  0.0006 </r>
        <r>  0.0004  0.0012  0.0017 </r>
        <r>  0.0006  0.0001  0.0007 </r>
        <r>  0.0004  0.0005  0.0001 </r>
        <r>  0.0000  0.0036  0.0004 </r>
        <r>  0.0000  0.0001  0.0002 </r>
        <r>  0.0005  0.0002  0.0007 </r>
        <r>  0.0031  0.0019  0.0034 </r>
        <r>  0.0002  0.0016  0.0012 </r>
        <r>  0.0016  0.0001  0.0014 </r>
        <r>  0.0010  0.0040  0.0004 </r>
        <r>  0.0000  0.0033  0.0012 </r>
        <r>  0.0000  0.0017  0.0030 </r>
        <r>  0.0000  0.0007  0.0014 </r>
        <r>  0.0001  0.0010  0.0004 </r>
        <r>  0.0001  0.0014  0.0007 </r>
        <r>  0.0001  0.0001  0.0014 </r>
        <r>  0.0001  0.0010  0.0008 </r>
       </set>
       <set comment="band 215">
        <r>  0.0000  0.0004  0.0048 </r>
        <r>  0.0000  0.0016  0.0049 </r>
        <r>  0.0001  0.0008  0.0122 </r>
        <r>  0.0005  0.0002  0.0363 </r>
        <r>  0.0011  0.0005  0.0153 </r>
        <r>  0.0012  0.0002  0.0251 </r>
        <r>  0.0004  0.0005  0.0058 </r>
        <r>  0.0003  0.0001  0.0149 </r>
        <r>  0.0001  0.0019  0.0001 </r>
        <r>  0.0000  0.0040  0.0005 </r>
        <r>  0.0000  0.0089  0.0008 </r>
        <r>  0.0001  0.0050  0.0004 </r>
        <r>  0.0001  0.0079  0.0004 </r>
        <r>  0.0005  0.0001  0.0005 </r>
        <r>  0.0000  0.0020  0.0001 </r>
        <r>  0.0001  0.0044  0.0006 </r>
        <r>  0.0005  0.0050  0.0009 </r>
        <r>  0.0001  0.0011  0.0002 </r>
        <r>  0.0009  0.0015  0.0011 </r>
        <r>  0.0003  0.0014  0.0009 </r>
        <r>  0.0000  0.0001  0.0004 </r>
        <r>  0.0001  0.0011  0.0011 </r>
        <r>  0.0001  0.0002  0.0009 </r>
        <r>  0.0006  0.0002  0.0010 </r>
        <r>  0.0004  0.0021  0.0004 </r>
        <r>  0.0003  0.0011  0.0005 </r>
        <r>  0.0004  0.0009  0.0005 </r>
        <r>  0.0004  0.0017  0.0006 </r>
        <r>  0.0002  0.0015  0.0006 </r>
        <r>  0.0005  0.0022  0.0026 </r>
        <r>  0.0013  0.0018  0.0014 </r>
        <r>  0.0009  0.0033  0.0012 </r>
        <r>  0.0015  0.0026  0.0038 </r>
        <r>  0.0003  0.0037  0.0010 </r>
        <r>  0.0003  0.0007  0.0023 </r>
        <r>  0.0008  0.0011  0.0008 </r>
        <r>  0.0005  0.0002  0.0030 </r>
        <r>  0.0002  0.0009  0.0012 </r>
        <r>  0.0000  0.0010  0.0020 </r>
        <r>  0.0001  0.0001  0.0007 </r>
       </set>
       <set comment="band 216">
        <r>  0.0006  0.0003  0.0324 </r>
        <r>  0.0004  0.0007  0.0399 </r>
        <r>  0.0001  0.0025  0.0141 </r>
        <r>  0.0002  0.0008  0.0122 </r>
        <r>  0.0002  0.0011  0.0107 </r>
        <r>  0.0004  0.0004  0.0049 </r>
        <r>  0.0009  0.0002  0.0036 </r>
        <r>  0.0004  0.0003  0.0040 </r>
        <r>  0.0001  0.0051  0.0007 </r>
        <r>  0.0000  0.0034  0.0005 </r>
        <r>  0.0001  0.0013  0.0001 </r>
        <r>  0.0000  0.0018  0.0004 </r>
        <r>  0.0003  0.0128  0.0005 </r>
        <r>  0.0006  0.0065  0.0003 </r>
        <r>  0.0000  0.0060  0.0008 </r>
        <r>  0.0002  0.0049  0.0007 </r>
        <r>  0.0003  0.0022  0.0016 </r>
        <r>  0.0001  0.0006  0.0002 </r>
        <r>  0.0000  0.0019  0.0016 </r>
        <r>  0.0014  0.0013  0.0003 </r>
        <r>  0.0000  0.0032  0.0003 </r>
        <r>  0.0002  0.0018  0.0004 </r>
        <r>  0.0002  0.0033  0.0020 </r>
        <r>  0.0000  0.0001  0.0019 </r>
        <r>  0.0002  0.0028  0.0005 </r>
        <r>  0.0015  0.0025  0.0026 </r>
        <r>  0.0007  0.0010  0.0017 </r>
        <r>  0.0004  0.0015  0.0011 </r>
        <r>  0.0004  0.0003  0.0012 </r>
        <r>  0.0005  0.0007  0.0007 </r>
        <r>  0.0003  0.0009  0.0008 </r>
        <r>  0.0006  0.0001  0.0003 </r>
        <r>  0.0001  0.0003  0.0017 </r>
        <r>  0.0001  0.0010  0.0009 </r>
        <r>  0.0007  0.0026  0.0009 </r>
        <r>  0.0003  0.0011  0.0015 </r>
        <r>  0.0003  0.0021  0.0039 </r>
        <r>  0.0001  0.0015  0.0016 </r>
        <r>  0.0001  0.0021  0.0011 </r>
        <r>  0.0010  0.0023  0.0014 </r>
       </set>
      </set>
     </set>
    </set>
   </array>
  </projected>
 </calculation>
 <structure name="finalpos" >
  <crystal>
   <varray name="basis" >
    <v>       8.42001800       0.00000000       8.07798100 </v>
    <v>       0.00000000      11.76380800       0.00000000 </v>
    <v>      -8.42001800       0.00000000       8.07798100 </v>
   </varray>
   <i name="volume">   1600.27186790 </i>
   <varray name="rec_basis" >
    <v>       0.05938230      -0.00000000       0.06189665 </v>
    <v>       0.00000000       0.08500649      -0.00000000 </v>
    <v>      -0.05938230       0.00000000       0.06189665 </v>
   </varray>
  </crystal>
  <varray name="positions" >
   <v>       0.27212500       0.25000000       0.20823600 </v>
   <v>       0.79005349       0.19998275       0.70749189 </v>
   <v>       0.72991870       0.66610164       0.23590176 </v>
   <v>       0.30247011       0.71334270       0.73138710 </v>
   <v>       0.22107889       0.16886601       0.73453778 </v>
   <v>       0.76036942       0.16959680       0.21300445 </v>
   <v>       0.74819146       0.67906408       0.71496499 </v>
   <v>       0.29341298       0.75567958       0.23497221 </v>
   <v>       0.99498711       0.98684297       0.98231898 </v>
   <v>       0.56495463       0.92230441       0.49880668 </v>
   <v>       0.50509789       0.96956529       0.98826025 </v>
   <v>       0.01996607       0.98479465       0.44869330 </v>
   <v>       0.54276858       0.47391956       0.94679168 </v>
   <v>       0.01955751       0.47889789       0.47801297 </v>
   <v>       0.01539933       0.48273139       0.98516684 </v>
   <v>       0.46087190       0.41142282       0.47977652 </v>
   <v>       0.57826470       0.71493226       0.95683575 </v>
   <v>       0.05655789       0.73064568       0.50683396 </v>
   <v>       0.02396500       0.22739455       0.98528897 </v>
   <v>       0.58128985       0.17876117       0.47608896 </v>
   <v>       0.99727186       0.72193286       0.02816376 </v>
   <v>       0.53003307       0.67847638       0.51804178 </v>
   <v>       0.48684015       0.21758067       0.98416724 </v>
   <v>       0.07990172       0.21954759       0.43803021 </v>
   <v>       0.28944487       0.52105457       0.00623364 </v>
   <v>       0.78342431       0.44592937       0.50610445 </v>
   <v>       0.52981838       0.43905137       0.21221163 </v>
   <v>       0.10790495       0.48504187       0.74007870 </v>
   <v>       0.51945140       0.00758801       0.73506531 </v>
   <v>       0.09351677       0.00195161       0.20922416 </v>
   <v>       0.74735276       0.01046448       0.95776856 </v>
   <v>       0.30957931       0.94566080       0.50225563 </v>
   <v>       0.24322800       0.95681154       0.92264660 </v>
   <v>       0.80140285       0.92677512       0.39648063 </v>
   <v>       0.48843331       0.98155238       0.24295583 </v>
   <v>       0.95862335       0.93686915       0.73381958 </v>
   <v>       0.77876380       0.43537001       0.88290830 </v>
   <v>       0.24440972       0.50198209       0.37586133 </v>
   <v>       0.45381811       0.37189160       0.70929504 </v>
   <v>       0.94143749       0.41998119       0.23724475 </v>
  </varray>
  <varray name="selective"  type="logical" >
   <v type="logical" >  F  F  F </v>
   <v type="logical" >  T  T  T </v>
   <v type="logical" >  T  T  T </v>
   <v type="logical" >  T  T  T </v>
   <v type="logical" >  T  T  T </v>
   <v type="logical" >  T  T  T </v>
   <v type="logical" >  T  T  T </v>
   <v type="logical" >  T  T  T </v>
   <v type="logical" >  T  T  T </v>
   <v type="logical" >  T  T  T </v>
   <v type="logical" >  T  T  T </v>
   <v type="logical" >  T  T  T </v>
   <v type="logical" >  T  T  T </v>
   <v type="logical" >  T  T  T </v>
   <v type="logical" >  T  T  T </v>
   <v type="logical" >  T  T  T </v>
   <v type="logical" >  T  T  T </v>
   <v type="logical" >  T  T  T </v>
   <v type="logical" >  T  T  T </v>
   <v type="logical" >  T  T  T </v>
   <v type="logical" >  T  T  T </v>
   <v type="logical" >  T  T  T </v>
   <v type="logical" >  T  T  T </v>
   <v type="logical" >  T  T  T </v>
   <v type="logical" >  T  T  T </v>
   <v type="logical" >  T  T  T </v>
   <v type="logical" >  T  T  T </v>
   <v type="logical" >  T  T  T </v>
   <v type="logical" >  T  T  T </v>
   <v type="logical" >  T  T  T </v>
   <v type="logical" >  T  T  T </v>
   <v type="logical" >  T  T  T </v>
   <v type="logical" >  T  T  T </v>
   <v type="logical" >  T  T  T </v>
   <v type="logical" >  T  T  T </v>
   <v type="logical" >  T  T  T </v>
   <v type="logical" >  T  T  T </v>
   <v type="logical" >  T  T  T </v>
   <v type="logical" >  T  T  T </v>
   <v type="logical" >  T  T  T </v>
  </varray>
  <nose>
   <v>      -3.00000000       0.00000000       0.00010000       0.00010000 </v>
  </nose>
 </structure>
</modeling>
