CsPbBr3 cubic bulk                      
           1
     8.420018    0.000000    8.077981
     0.000000   11.763808    0.000000
    -8.420018    0.000000    8.077981
   Cs   Pb   Br
   8   8  24
Direct configuration=     1
   0.27212500  0.25000000  0.20823600
   0.79005349  0.19998275  0.70749189
   0.72991870  0.66610164  0.23590176
   0.30247011  0.71334270  0.73138710
   0.22107889  0.16886601  0.73453778
   0.76036942  0.16959680  0.21300445
   0.74819146  0.67906408  0.71496499
   0.29341298  0.75567958  0.23497221
   0.99498711  0.98684297  0.98231898
   0.56495463  0.92230441  0.49880668
   0.50509789  0.96956529  0.98826025
   0.01996607  0.98479465  0.44869330
   0.54276858  0.47391956  0.94679168
   0.01955751  0.47889789  0.47801297
   0.01539933  0.48273139  0.98516684
   0.46087190  0.41142282  0.47977652
   0.57826470  0.71493226  0.95683575
   0.05655789  0.73064568  0.50683396
   0.02396500  0.22739455  0.98528897
   0.58128985  0.17876117  0.47608896
   0.99727186  0.72193286  0.02816376
   0.53003307  0.67847638  0.51804178
   0.48684015  0.21758067  0.98416724
   0.07990172  0.21954759  0.43803021
   0.28944487  0.52105457  0.00623364
   0.78342431  0.44592937  0.50610445
   0.52981838  0.43905137  0.21221163
   0.10790495  0.48504187  0.74007870
   0.51945140  0.00758801  0.73506531
   0.09351677  0.00195161  0.20922416
   0.74735276  0.01046448  0.95776856
   0.30957931  0.94566080  0.50225563
   0.24322800  0.95681154  0.92264660
   0.80140285  0.92677512  0.39648063
   0.48843331  0.98155238  0.24295583
   0.95862335  0.93686915  0.73381958
   0.77876380  0.43537001  0.88290830
   0.24440972  0.50198209  0.37586133
   0.45381811  0.37189160  0.70929504
   0.94143749  0.41998119  0.23724475
