  20  20   1   0
  0.4038876E+02  0.8332916E-09  0.1188145E-08  0.8158760E-09  0.5000000E-15
   1.0000000000000000E-004
  CAR 
 CsPbBr3 cubic bulk                      
      8.54629701    -22.22832385  301      0.46795904      1.00000000
    -22.228  0.0000E+00  0.0000E+00
    -22.126  0.0000E+00  0.0000E+00
    -22.023  0.0000E+00  0.0000E+00
    -21.921  0.0000E+00  0.0000E+00
    -21.818  0.0000E+00  0.0000E+00
    -21.715  0.0000E+00  0.0000E+00
    -21.613  0.0000E+00  0.0000E+00
    -21.510  0.0000E+00  0.0000E+00
    -21.408  0.0000E+00  0.0000E+00
    -21.305  0.0000E+00  0.0000E+00
    -21.203  0.0000E+00  0.0000E+00
    -21.100  0.0000E+00  0.0000E+00
    -20.997  0.0000E+00  0.0000E+00
    -20.895  0.0000E+00  0.0000E+00
    -20.792  0.7799E+02  0.8000E+01
    -20.690  0.0000E+00  0.8000E+01
    -20.587  0.0000E+00  0.8000E+01
    -20.484  0.0000E+00  0.8000E+01
    -20.382  0.0000E+00  0.8000E+01
    -20.279  0.0000E+00  0.8000E+01
    -20.177  0.0000E+00  0.8000E+01
    -20.074  0.0000E+00  0.8000E+01
    -19.972  0.0000E+00  0.8000E+01
    -19.869  0.0000E+00  0.8000E+01
    -19.766  0.0000E+00  0.8000E+01
    -19.664  0.0000E+00  0.8000E+01
    -19.561  0.0000E+00  0.8000E+01
    -19.459  0.0000E+00  0.8000E+01
    -19.356  0.0000E+00  0.8000E+01
    -19.253  0.0000E+00  0.8000E+01
    -19.151  0.0000E+00  0.8000E+01
    -19.048  0.0000E+00  0.8000E+01
    -18.946  0.0000E+00  0.8000E+01
    -18.843  0.0000E+00  0.8000E+01
    -18.741  0.0000E+00  0.8000E+01
    -18.638  0.0000E+00  0.8000E+01
    -18.535  0.0000E+00  0.8000E+01
    -18.433  0.0000E+00  0.8000E+01
    -18.330  0.0000E+00  0.8000E+01
    -18.228  0.0000E+00  0.8000E+01
    -18.125  0.0000E+00  0.8000E+01
    -18.022  0.0000E+00  0.8000E+01
    -17.920  0.0000E+00  0.8000E+01
    -17.817  0.0000E+00  0.8000E+01
    -17.715  0.0000E+00  0.8000E+01
    -17.612  0.0000E+00  0.8000E+01
    -17.510  0.0000E+00  0.8000E+01
    -17.407  0.0000E+00  0.8000E+01
    -17.304  0.0000E+00  0.8000E+01
    -17.202  0.0000E+00  0.8000E+01
    -17.099  0.0000E+00  0.8000E+01
    -16.997  0.0000E+00  0.8000E+01
    -16.894  0.0000E+00  0.8000E+01
    -16.791  0.0000E+00  0.8000E+01
    -16.689  0.0000E+00  0.8000E+01
    -16.586  0.0000E+00  0.8000E+01
    -16.484  0.2164E+02  0.1022E+02
    -16.381  0.8232E+02  0.2400E+02
    -16.279  0.2340E+03  0.4800E+02
    -16.176  0.0000E+00  0.4800E+02
    -16.073  0.0000E+00  0.4800E+02
    -15.971  0.0000E+00  0.4800E+02
    -15.868  0.0000E+00  0.4800E+02
    -15.766  0.0000E+00  0.4800E+02
    -15.663  0.0000E+00  0.4800E+02
    -15.560  0.0000E+00  0.4800E+02
    -15.458  0.0000E+00  0.4800E+02
    -15.355  0.0000E+00  0.4800E+02
    -15.253  0.0000E+00  0.4800E+02
    -15.150  0.0000E+00  0.4800E+02
    -15.048  0.0000E+00  0.4800E+02
    -14.945  0.0000E+00  0.4800E+02
    -14.842  0.0000E+00  0.4800E+02
    -14.740  0.0000E+00  0.4800E+02
    -14.637  0.0000E+00  0.4800E+02
    -14.535  0.0000E+00  0.4800E+02
    -14.432  0.0000E+00  0.4800E+02
    -14.330  0.1072E+01  0.4811E+02
    -14.227  0.1944E+02  0.5011E+02
    -14.124  0.3039E+02  0.5323E+02
    -14.022  0.2626E+02  0.5736E+02
    -13.919  0.3817E+02  0.6369E+02
    -13.817  0.4938E+02  0.6962E+02
    -13.714  0.1841E+02  0.7200E+02
    -13.611  0.0000E+00  0.7200E+02
    -13.509  0.0000E+00  0.7200E+02
    -13.406  0.0000E+00  0.7200E+02
    -13.304  0.0000E+00  0.7200E+02
    -13.201  0.0000E+00  0.7200E+02
    -13.099  0.0000E+00  0.7200E+02
    -12.996  0.0000E+00  0.7200E+02
    -12.893  0.0000E+00  0.7200E+02
    -12.791  0.0000E+00  0.7200E+02
    -12.688  0.0000E+00  0.7200E+02
    -12.586  0.0000E+00  0.7200E+02
    -12.483  0.0000E+00  0.7200E+02
    -12.380  0.0000E+00  0.7200E+02
    -12.278  0.0000E+00  0.7200E+02
    -12.175  0.0000E+00  0.7200E+02
    -12.073  0.0000E+00  0.7200E+02
    -11.970  0.0000E+00  0.7200E+02
    -11.868  0.0000E+00  0.7200E+02
    -11.765  0.0000E+00  0.7200E+02
    -11.662  0.0000E+00  0.7200E+02
    -11.560  0.0000E+00  0.7200E+02
    -11.457  0.0000E+00  0.7200E+02
    -11.355  0.0000E+00  0.7200E+02
    -11.252  0.0000E+00  0.7200E+02
    -11.149  0.0000E+00  0.7200E+02
    -11.047  0.0000E+00  0.7200E+02
    -10.944  0.0000E+00  0.7200E+02
    -10.842  0.0000E+00  0.7200E+02
    -10.739  0.0000E+00  0.7200E+02
    -10.637  0.0000E+00  0.7200E+02
    -10.534  0.0000E+00  0.7200E+02
    -10.431  0.0000E+00  0.7200E+02
    -10.329  0.0000E+00  0.7200E+02
    -10.226  0.0000E+00  0.7200E+02
    -10.124  0.0000E+00  0.7200E+02
    -10.021  0.0000E+00  0.7200E+02
     -9.918  0.0000E+00  0.7200E+02
     -9.816  0.0000E+00  0.7200E+02
     -9.713  0.0000E+00  0.7200E+02
     -9.611  0.0000E+00  0.7200E+02
     -9.508  0.0000E+00  0.7200E+02
     -9.406  0.0000E+00  0.7200E+02
     -9.303  0.0000E+00  0.7200E+02
     -9.200  0.0000E+00  0.7200E+02
     -9.098  0.0000E+00  0.7200E+02
     -8.995  0.0000E+00  0.7200E+02
     -8.893  0.0000E+00  0.7200E+02
     -8.790  0.0000E+00  0.7200E+02
     -8.687  0.0000E+00  0.7200E+02
     -8.585  0.0000E+00  0.7200E+02
     -8.482  0.0000E+00  0.7200E+02
     -8.380  0.0000E+00  0.7200E+02
     -8.277  0.0000E+00  0.7200E+02
     -8.175  0.7971E+00  0.7208E+02
     -8.072  0.0000E+00  0.7211E+02
     -7.969  0.1584E+01  0.7227E+02
     -7.867  0.2770E-04  0.7278E+02
     -7.764  0.4368E+01  0.7323E+02
     -7.662  0.1083E+01  0.7422E+02
     -7.559  0.1300E+02  0.7556E+02
     -7.457  0.8633E+01  0.7644E+02
     -7.354  0.1131E+02  0.7760E+02
     -7.251  0.2323E+02  0.8016E+02
     -7.149  0.1638E+03  0.1025E+03
     -7.046  0.1196E+00  0.1028E+03
     -6.944  0.4589E-03  0.1032E+03
     -6.841  0.6498E+01  0.1039E+03
     -6.738  0.0000E+00  0.1039E+03
     -6.636  0.0000E+00  0.1039E+03
     -6.533  0.1083E+01  0.1040E+03
     -6.431  0.0000E+00  0.1040E+03
     -6.328  0.0000E+00  0.1040E+03
     -6.226  0.0000E+00  0.1040E+03
     -6.123  0.0000E+00  0.1040E+03
     -6.020  0.0000E+00  0.1040E+03
     -5.918  0.0000E+00  0.1040E+03
     -5.815  0.0000E+00  0.1040E+03
     -5.713  0.0000E+00  0.1040E+03
     -5.610  0.0000E+00  0.1040E+03
     -5.507  0.0000E+00  0.1040E+03
     -5.405  0.0000E+00  0.1040E+03
     -5.302  0.0000E+00  0.1040E+03
     -5.200  0.0000E+00  0.1040E+03
     -5.097  0.0000E+00  0.1040E+03
     -4.995  0.0000E+00  0.1040E+03
     -4.892  0.0000E+00  0.1040E+03
     -4.789  0.0000E+00  0.1040E+03
     -4.687  0.0000E+00  0.1040E+03
     -4.584  0.0000E+00  0.1040E+03
     -4.482  0.0000E+00  0.1040E+03
     -4.379  0.0000E+00  0.1040E+03
     -4.276  0.0000E+00  0.1040E+03
     -4.174  0.0000E+00  0.1040E+03
     -4.071  0.0000E+00  0.1040E+03
     -3.969  0.0000E+00  0.1040E+03
     -3.866  0.0000E+00  0.1040E+03
     -3.764  0.0000E+00  0.1040E+03
     -3.661  0.0000E+00  0.1040E+03
     -3.558  0.0000E+00  0.1040E+03
     -3.456  0.0000E+00  0.1040E+03
     -3.353  0.1744E-14  0.1040E+03
     -3.251  0.4176E+01  0.1044E+03
     -3.148  0.2672E+02  0.1073E+03
     -3.045  0.9498E+01  0.1086E+03
     -2.943  0.6294E+01  0.1093E+03
     -2.840  0.4348E+01  0.1104E+03
     -2.738  0.2027E+02  0.1130E+03
     -2.635  0.8665E+01  0.1140E+03
     -2.533  0.2856E-02  0.1140E+03
     -2.430  0.1592E+02  0.1156E+03
     -2.327  0.1734E+02  0.1178E+03
     -2.225  0.5452E+01  0.1186E+03
     -2.122  0.1428E+02  0.1208E+03
     -2.020  0.2608E+02  0.1241E+03
     -1.917  0.1423E+02  0.1267E+03
     -1.814  0.4113E+01  0.1274E+03
     -1.712  0.2907E+02  0.1309E+03
     -1.609  0.3105E+02  0.1345E+03
     -1.507  0.2549E+02  0.1372E+03
     -1.404  0.4164E+02  0.1425E+03
     -1.302  0.6579E+02  0.1507E+03
     -1.199  0.5394E+02  0.1572E+03
     -1.096  0.5372E+02  0.1644E+03
     -0.994  0.2306E+02  0.1679E+03
     -0.891  0.4978E+01  0.1685E+03
     -0.789  0.2275E+02  0.1710E+03
     -0.686  0.3677E+01  0.1714E+03
     -0.584  0.8548E+01  0.1728E+03
     -0.481  0.2166E+01  0.1742E+03
     -0.378  0.4333E+01  0.1747E+03
     -0.276  0.0000E+00  0.1747E+03
     -0.173  0.1446E+01  0.1748E+03
     -0.071  0.6499E+01  0.1757E+03
      0.032  0.2166E+01  0.1759E+03
      0.135  0.0000E+00  0.1759E+03
      0.237  0.0000E+00  0.1759E+03
      0.340  0.0000E+00  0.1759E+03
      0.442  0.1083E+01  0.1760E+03
      0.545  0.0000E+00  0.1760E+03
      0.647  0.0000E+00  0.1760E+03
      0.750  0.0000E+00  0.1760E+03
      0.853  0.0000E+00  0.1760E+03
      0.955  0.0000E+00  0.1760E+03
      1.058  0.0000E+00  0.1760E+03
      1.160  0.0000E+00  0.1760E+03
      1.263  0.0000E+00  0.1760E+03
      1.366  0.0000E+00  0.1760E+03
      1.468  0.0000E+00  0.1760E+03
      1.571  0.0000E+00  0.1760E+03
      1.673  0.0000E+00  0.1760E+03
      1.776  0.0000E+00  0.1760E+03
      1.878  0.0000E+00  0.1760E+03
      1.981  0.0000E+00  0.1760E+03
      2.084  0.0000E+00  0.1760E+03
      2.186  0.0000E+00  0.1760E+03
      2.289  0.0000E+00  0.1760E+03
      2.391  0.0000E+00  0.1760E+03
      2.494  0.0000E+00  0.1760E+03
      2.597  0.0000E+00  0.1760E+03
      2.699  0.5572E+00  0.1761E+03
      2.802  0.1083E+01  0.1762E+03
      2.904  0.5416E+01  0.1768E+03
      3.007  0.6499E+01  0.1774E+03
      3.109  0.6501E+01  0.1781E+03
      3.212  0.5466E+01  0.1787E+03
      3.315  0.1191E+02  0.1801E+03
      3.417  0.1521E-03  0.1801E+03
      3.520  0.5416E+01  0.1807E+03
      3.622  0.4333E+01  0.1811E+03
      3.725  0.6715E+01  0.1818E+03
      3.828  0.3009E+01  0.1828E+03
      3.930  0.1098E+02  0.1840E+03
      4.033  0.5847E+01  0.1848E+03
      4.135  0.2166E+01  0.1856E+03
      4.238  0.6444E+01  0.1862E+03
      4.340  0.4322E+00  0.1863E+03
      4.443  0.1295E+02  0.1880E+03
      4.546  0.4814E-01  0.1880E+03
      4.648  0.8653E+01  0.1898E+03
      4.751  0.1474E-05  0.1898E+03
      4.853  0.7324E+01  0.1905E+03
      4.956  0.8069E-12  0.1906E+03
      5.059  0.1024E+02  0.1916E+03
      5.161  0.7965E+01  0.1925E+03
      5.264  0.2380E+02  0.1950E+03
      5.366  0.1247E+01  0.1951E+03
      5.469  0.2166E+01  0.1954E+03
      5.571  0.6674E+01  0.1961E+03
      5.674  0.1779E-07  0.1962E+03
      5.777  0.1279E+02  0.1975E+03
      5.879  0.2005E+01  0.1983E+03
      5.982  0.4280E+01  0.1994E+03
      6.084  0.1814E+02  0.2020E+03
      6.187  0.7363E+01  0.2029E+03
      6.289  0.1348E+02  0.2045E+03
      6.392  0.1432E+02  0.2065E+03
      6.495  0.1522E+02  0.2093E+03
      6.597  0.8523E+01  0.2107E+03
      6.700  0.1590E+02  0.2144E+03
      6.802  0.1828E+02  0.2168E+03
      6.905  0.2599E+02  0.2199E+03
      7.008  0.2069E+02  0.2228E+03
      7.110  0.4332E+01  0.2236E+03
      7.213  0.4333E+01  0.2240E+03
      7.315  0.0000E+00  0.2240E+03
      7.418  0.0000E+00  0.2240E+03
      7.520  0.0000E+00  0.2240E+03
      7.623  0.0000E+00  0.2240E+03
      7.726  0.0000E+00  0.2240E+03
      7.828  0.0000E+00  0.2240E+03
      7.931  0.0000E+00  0.2240E+03
      8.033  0.0000E+00  0.2240E+03
      8.136  0.0000E+00  0.2240E+03
      8.239  0.0000E+00  0.2240E+03
      8.341  0.0000E+00  0.2240E+03
      8.444  0.0000E+00  0.2240E+03
      8.546  0.0000E+00  0.2240E+03
      8.54629701    -22.22832385  301      0.46795904      1.00000000
    -22.228  0.0000E+00  0.0000E+00  0.0000E+00
    -22.126  0.0000E+00  0.0000E+00  0.0000E+00
    -22.023  0.0000E+00  0.0000E+00  0.0000E+00
    -21.921  0.0000E+00  0.0000E+00  0.0000E+00
    -21.818  0.0000E+00  0.0000E+00  0.0000E+00
    -21.715  0.0000E+00  0.0000E+00  0.0000E+00
    -21.613  0.0000E+00  0.0000E+00  0.0000E+00
    -21.510  0.0000E+00  0.0000E+00  0.0000E+00
    -21.408  0.0000E+00  0.0000E+00  0.0000E+00
    -21.305  0.0000E+00  0.0000E+00  0.0000E+00
    -21.203  0.0000E+00  0.0000E+00  0.0000E+00
    -21.100  0.0000E+00  0.0000E+00  0.0000E+00
    -20.997  0.0000E+00  0.0000E+00  0.0000E+00
    -20.895  0.0000E+00  0.0000E+00  0.0000E+00
    -20.792  0.1730E+02  0.4934E-05  0.3701E-05
    -20.690  0.0000E+00  0.0000E+00  0.0000E+00
    -20.587  0.0000E+00  0.0000E+00  0.0000E+00
    -20.484  0.0000E+00  0.0000E+00  0.0000E+00
    -20.382  0.0000E+00  0.0000E+00  0.0000E+00
    -20.279  0.0000E+00  0.0000E+00  0.0000E+00
    -20.177  0.0000E+00  0.0000E+00  0.0000E+00
    -20.074  0.0000E+00  0.0000E+00  0.0000E+00
    -19.972  0.0000E+00  0.0000E+00  0.0000E+00
    -19.869  0.0000E+00  0.0000E+00  0.0000E+00
    -19.766  0.0000E+00  0.0000E+00  0.0000E+00
    -19.664  0.0000E+00  0.0000E+00  0.0000E+00
    -19.561  0.0000E+00  0.0000E+00  0.0000E+00
    -19.459  0.0000E+00  0.0000E+00  0.0000E+00
    -19.356  0.0000E+00  0.0000E+00  0.0000E+00
    -19.253  0.0000E+00  0.0000E+00  0.0000E+00
    -19.151  0.0000E+00  0.0000E+00  0.0000E+00
    -19.048  0.0000E+00  0.0000E+00  0.0000E+00
    -18.946  0.0000E+00  0.0000E+00  0.0000E+00
    -18.843  0.0000E+00  0.0000E+00  0.0000E+00
    -18.741  0.0000E+00  0.0000E+00  0.0000E+00
    -18.638  0.0000E+00  0.0000E+00  0.0000E+00
    -18.535  0.0000E+00  0.0000E+00  0.0000E+00
    -18.433  0.0000E+00  0.0000E+00  0.0000E+00
    -18.330  0.0000E+00  0.0000E+00  0.0000E+00
    -18.228  0.0000E+00  0.0000E+00  0.0000E+00
    -18.125  0.0000E+00  0.0000E+00  0.0000E+00
    -18.022  0.0000E+00  0.0000E+00  0.0000E+00
    -17.920  0.0000E+00  0.0000E+00  0.0000E+00
    -17.817  0.0000E+00  0.0000E+00  0.0000E+00
    -17.715  0.0000E+00  0.0000E+00  0.0000E+00
    -17.612  0.0000E+00  0.0000E+00  0.0000E+00
    -17.510  0.0000E+00  0.0000E+00  0.0000E+00
    -17.407  0.0000E+00  0.0000E+00  0.0000E+00
    -17.304  0.0000E+00  0.0000E+00  0.0000E+00
    -17.202  0.0000E+00  0.0000E+00  0.0000E+00
    -17.099  0.0000E+00  0.0000E+00  0.0000E+00
    -16.997  0.0000E+00  0.0000E+00  0.0000E+00
    -16.894  0.0000E+00  0.0000E+00  0.0000E+00
    -16.791  0.0000E+00  0.0000E+00  0.0000E+00
    -16.689  0.0000E+00  0.0000E+00  0.0000E+00
    -16.586  0.0000E+00  0.0000E+00  0.0000E+00
    -16.484  0.4314E-04  0.2034E-04  0.4761E-05
    -16.381  0.2579E-04  0.4365E-04  0.4700E-05
    -16.279  0.6438E-04  0.3645E-04  0.4417E-05
    -16.176  0.0000E+00  0.0000E+00  0.0000E+00
    -16.073  0.0000E+00  0.0000E+00  0.0000E+00
    -15.971  0.0000E+00  0.0000E+00  0.0000E+00
    -15.868  0.0000E+00  0.0000E+00  0.0000E+00
    -15.766  0.0000E+00  0.0000E+00  0.0000E+00
    -15.663  0.0000E+00  0.0000E+00  0.0000E+00
    -15.560  0.0000E+00  0.0000E+00  0.0000E+00
    -15.458  0.0000E+00  0.0000E+00  0.0000E+00
    -15.355  0.0000E+00  0.0000E+00  0.0000E+00
    -15.253  0.0000E+00  0.0000E+00  0.0000E+00
    -15.150  0.0000E+00  0.0000E+00  0.0000E+00
    -15.048  0.0000E+00  0.0000E+00  0.0000E+00
    -14.945  0.0000E+00  0.0000E+00  0.0000E+00
    -14.842  0.0000E+00  0.0000E+00  0.0000E+00
    -14.740  0.0000E+00  0.0000E+00  0.0000E+00
    -14.637  0.0000E+00  0.0000E+00  0.0000E+00
    -14.535  0.0000E+00  0.0000E+00  0.0000E+00
    -14.432  0.0000E+00  0.0000E+00  0.0000E+00
    -14.330  0.4290E-03  0.2354E-05  0.8198E-06
    -14.227  0.3906E-02  0.2446E-02  0.4321E-04
    -14.124  0.1608E-02  0.5121E-02  0.1791E-03
    -14.022  0.1688E-02  0.4004E-02  0.3039E-03
    -13.919  0.4461E-03  0.3190E-02  0.2986E-03
    -13.817  0.1100E-02  0.3554E-02  0.5131E-03
    -13.714  0.5839E-03  0.1205E-02  0.1544E-03
    -13.611  0.0000E+00  0.0000E+00  0.0000E+00
    -13.509  0.0000E+00  0.0000E+00  0.0000E+00
    -13.406  0.0000E+00  0.0000E+00  0.0000E+00
    -13.304  0.0000E+00  0.0000E+00  0.0000E+00
    -13.201  0.0000E+00  0.0000E+00  0.0000E+00
    -13.099  0.0000E+00  0.0000E+00  0.0000E+00
    -12.996  0.0000E+00  0.0000E+00  0.0000E+00
    -12.893  0.0000E+00  0.0000E+00  0.0000E+00
    -12.791  0.0000E+00  0.0000E+00  0.0000E+00
    -12.688  0.0000E+00  0.0000E+00  0.0000E+00
    -12.586  0.0000E+00  0.0000E+00  0.0000E+00
    -12.483  0.0000E+00  0.0000E+00  0.0000E+00
    -12.380  0.0000E+00  0.0000E+00  0.0000E+00
    -12.278  0.0000E+00  0.0000E+00  0.0000E+00
    -12.175  0.0000E+00  0.0000E+00  0.0000E+00
    -12.073  0.0000E+00  0.0000E+00  0.0000E+00
    -11.970  0.0000E+00  0.0000E+00  0.0000E+00
    -11.868  0.0000E+00  0.0000E+00  0.0000E+00
    -11.765  0.0000E+00  0.0000E+00  0.0000E+00
    -11.662  0.0000E+00  0.0000E+00  0.0000E+00
    -11.560  0.0000E+00  0.0000E+00  0.0000E+00
    -11.457  0.0000E+00  0.0000E+00  0.0000E+00
    -11.355  0.0000E+00  0.0000E+00  0.0000E+00
    -11.252  0.0000E+00  0.0000E+00  0.0000E+00
    -11.149  0.0000E+00  0.0000E+00  0.0000E+00
    -11.047  0.0000E+00  0.0000E+00  0.0000E+00
    -10.944  0.0000E+00  0.0000E+00  0.0000E+00
    -10.842  0.0000E+00  0.0000E+00  0.0000E+00
    -10.739  0.0000E+00  0.0000E+00  0.0000E+00
    -10.637  0.0000E+00  0.0000E+00  0.0000E+00
    -10.534  0.0000E+00  0.0000E+00  0.0000E+00
    -10.431  0.0000E+00  0.0000E+00  0.0000E+00
    -10.329  0.0000E+00  0.0000E+00  0.0000E+00
    -10.226  0.0000E+00  0.0000E+00  0.0000E+00
    -10.124  0.0000E+00  0.0000E+00  0.0000E+00
    -10.021  0.0000E+00  0.0000E+00  0.0000E+00
     -9.918  0.0000E+00  0.0000E+00  0.0000E+00
     -9.816  0.0000E+00  0.0000E+00  0.0000E+00
     -9.713  0.0000E+00  0.0000E+00  0.0000E+00
     -9.611  0.0000E+00  0.0000E+00  0.0000E+00
     -9.508  0.0000E+00  0.0000E+00  0.0000E+00
     -9.406  0.0000E+00  0.0000E+00  0.0000E+00
     -9.303  0.0000E+00  0.0000E+00  0.0000E+00
     -9.200  0.0000E+00  0.0000E+00  0.0000E+00
     -9.098  0.0000E+00  0.0000E+00  0.0000E+00
     -8.995  0.0000E+00  0.0000E+00  0.0000E+00
     -8.893  0.0000E+00  0.0000E+00  0.0000E+00
     -8.790  0.0000E+00  0.0000E+00  0.0000E+00
     -8.687  0.0000E+00  0.0000E+00  0.0000E+00
     -8.585  0.0000E+00  0.0000E+00  0.0000E+00
     -8.482  0.0000E+00  0.0000E+00  0.0000E+00
     -8.380  0.0000E+00  0.0000E+00  0.0000E+00
     -8.277  0.0000E+00  0.0000E+00  0.0000E+00
     -8.175  0.1330E-17  0.9490E-05  0.3919E-05
     -8.072  0.0000E+00  0.0000E+00  0.0000E+00
     -7.969  0.1568E-07  0.1249E-02  0.6774E-05
     -7.867  0.7896E-22  0.2563E-07  0.1773E-09
     -7.764  0.5374E-07  0.4105E-02  0.2787E-04
     -7.662  0.2621E-06  0.5756E-02  0.2176E-05
     -7.559  0.1243E-04  0.6479E-01  0.5471E-04
     -7.457  0.1015E-04  0.9753E-01  0.4228E-04
     -7.354  0.3926E-04  0.4241E+00  0.3149E-04
     -7.251  0.3688E-04  0.3542E+01  0.3228E-04
     -7.149  0.4282E-04  0.3039E+02  0.7537E-04
     -7.046  0.6798E-06  0.3214E-02  0.6506E-06
     -6.944  0.4378E-08  0.3617E-05  0.1258E-08
     -6.841  0.5624E-04  0.4325E-01  0.2518E-04
     -6.738  0.0000E+00  0.0000E+00  0.0000E+00
     -6.636  0.0000E+00  0.0000E+00  0.0000E+00
     -6.533  0.1203E-04  0.2650E-02  0.9900E-06
     -6.431  0.0000E+00  0.0000E+00  0.0000E+00
     -6.328  0.0000E+00  0.0000E+00  0.0000E+00
     -6.226  0.0000E+00  0.0000E+00  0.0000E+00
     -6.123  0.0000E+00  0.0000E+00  0.0000E+00
     -6.020  0.0000E+00  0.0000E+00  0.0000E+00
     -5.918  0.0000E+00  0.0000E+00  0.0000E+00
     -5.815  0.0000E+00  0.0000E+00  0.0000E+00
     -5.713  0.0000E+00  0.0000E+00  0.0000E+00
     -5.610  0.0000E+00  0.0000E+00  0.0000E+00
     -5.507  0.0000E+00  0.0000E+00  0.0000E+00
     -5.405  0.0000E+00  0.0000E+00  0.0000E+00
     -5.302  0.0000E+00  0.0000E+00  0.0000E+00
     -5.200  0.0000E+00  0.0000E+00  0.0000E+00
     -5.097  0.0000E+00  0.0000E+00  0.0000E+00
     -4.995  0.0000E+00  0.0000E+00  0.0000E+00
     -4.892  0.0000E+00  0.0000E+00  0.0000E+00
     -4.789  0.0000E+00  0.0000E+00  0.0000E+00
     -4.687  0.0000E+00  0.0000E+00  0.0000E+00
     -4.584  0.0000E+00  0.0000E+00  0.0000E+00
     -4.482  0.0000E+00  0.0000E+00  0.0000E+00
     -4.379  0.0000E+00  0.0000E+00  0.0000E+00
     -4.276  0.0000E+00  0.0000E+00  0.0000E+00
     -4.174  0.0000E+00  0.0000E+00  0.0000E+00
     -4.071  0.0000E+00  0.0000E+00  0.0000E+00
     -3.969  0.0000E+00  0.0000E+00  0.0000E+00
     -3.866  0.0000E+00  0.0000E+00  0.0000E+00
     -3.764  0.0000E+00  0.0000E+00  0.0000E+00
     -3.661  0.0000E+00  0.0000E+00  0.0000E+00
     -3.558  0.0000E+00  0.0000E+00  0.0000E+00
     -3.456  0.0000E+00  0.0000E+00  0.0000E+00
     -3.353  0.4214E-19  0.3685E-17  0.9409E-19
     -3.251  0.7522E-04  0.7427E-02  0.1818E-03
     -3.148  0.1916E-03  0.2478E-01  0.2901E-02
     -3.045  0.3201E-15  0.2697E-02  0.9517E-03
     -2.943  0.2668E-03  0.1153E-01  0.3862E-03
     -2.840  0.2591E-06  0.3329E-02  0.4966E-03
     -2.738  0.5441E-03  0.2269E-01  0.1420E-02
     -2.635  0.3101E-15  0.3196E-02  0.6621E-03
     -2.533  0.5200E-07  0.5183E-05  0.3719E-06
     -2.430  0.1206E-02  0.2735E-01  0.1634E-02
     -2.327  0.2033E-02  0.1223E-01  0.2388E-02
     -2.225  0.1451E-02  0.6427E-02  0.5611E-03
     -2.122  0.8033E-02  0.1253E-01  0.1637E-02
     -2.020  0.1801E-01  0.3188E-01  0.5205E-02
     -1.917  0.7317E-02  0.3527E-01  0.1877E-02
     -1.814  0.6964E-04  0.3275E-01  0.6852E-03
     -1.712  0.3546E-02  0.1052E+00  0.9074E-02
     -1.609  0.1508E-02  0.9359E-01  0.1237E-01
     -1.507  0.1678E-02  0.6735E-01  0.1050E-01
     -1.404  0.3785E-02  0.6478E-01  0.2227E-01
     -1.302  0.7801E-02  0.9055E-01  0.2048E-01
     -1.199  0.3215E-02  0.7951E-01  0.1278E-01
     -1.096  0.1622E-02  0.8590E-01  0.1493E-01
     -0.994  0.1314E-02  0.1883E-01  0.5043E-02
     -0.891  0.7115E-04  0.6275E-02  0.1784E-02
     -0.789  0.1357E-02  0.2957E-01  0.6036E-02
     -0.686  0.3586E-03  0.2276E-02  0.3457E-03
     -0.584  0.2847E-03  0.2832E-02  0.1220E-02
     -0.481  0.1369E-15  0.6324E-03  0.2376E-03
     -0.378  0.2673E-16  0.3032E-02  0.2242E-04
     -0.276  0.0000E+00  0.0000E+00  0.0000E+00
     -0.173  0.2093E-07  0.1245E-03  0.1779E-03
     -0.071  0.8436E-13  0.8731E-03  0.1001E-02
      0.032  0.2229E-06  0.2572E-03  0.2103E-03
      0.135  0.0000E+00  0.0000E+00  0.0000E+00
      0.237  0.0000E+00  0.0000E+00  0.0000E+00
      0.340  0.0000E+00  0.0000E+00  0.0000E+00
      0.442  0.1738E-16  0.6146E-05  0.6694E-04
      0.545  0.0000E+00  0.0000E+00  0.0000E+00
      0.647  0.0000E+00  0.0000E+00  0.0000E+00
      0.750  0.0000E+00  0.0000E+00  0.0000E+00
      0.853  0.0000E+00  0.0000E+00  0.0000E+00
      0.955  0.0000E+00  0.0000E+00  0.0000E+00
      1.058  0.0000E+00  0.0000E+00  0.0000E+00
      1.160  0.0000E+00  0.0000E+00  0.0000E+00
      1.263  0.0000E+00  0.0000E+00  0.0000E+00
      1.366  0.0000E+00  0.0000E+00  0.0000E+00
      1.468  0.0000E+00  0.0000E+00  0.0000E+00
      1.571  0.0000E+00  0.0000E+00  0.0000E+00
      1.673  0.0000E+00  0.0000E+00  0.0000E+00
      1.776  0.0000E+00  0.0000E+00  0.0000E+00
      1.878  0.0000E+00  0.0000E+00  0.0000E+00
      1.981  0.0000E+00  0.0000E+00  0.0000E+00
      2.084  0.0000E+00  0.0000E+00  0.0000E+00
      2.186  0.0000E+00  0.0000E+00  0.0000E+00
      2.289  0.0000E+00  0.0000E+00  0.0000E+00
      2.391  0.0000E+00  0.0000E+00  0.0000E+00
      2.494  0.0000E+00  0.0000E+00  0.0000E+00
      2.597  0.0000E+00  0.0000E+00  0.0000E+00
      2.699  0.7646E-05  0.7303E-04  0.2899E-03
      2.802  0.1995E-15  0.1625E-04  0.8232E-03
      2.904  0.2272E-03  0.7886E-03  0.2876E-02
      3.007  0.2802E-03  0.1055E-02  0.2953E-02
      3.109  0.5001E-04  0.3525E-02  0.2482E-02
      3.212  0.6240E-03  0.6966E-03  0.8623E-03
      3.315  0.8223E-03  0.5411E-02  0.3468E-02
      3.417  0.1425E-07  0.4380E-07  0.4128E-07
      3.520  0.8008E-03  0.1695E-02  0.2013E-02
      3.622  0.2831E-14  0.8827E-03  0.3416E-02
      3.725  0.3277E-03  0.1253E-02  0.6835E-02
      3.828  0.3205E-03  0.7716E-03  0.2048E-02
      3.930  0.9158E-03  0.1905E-02  0.7110E-02
      4.033  0.1521E-03  0.1345E-02  0.2121E-02
      4.135  0.1579E-03  0.8873E-03  0.4825E-03
      4.238  0.1110E-03  0.1394E-02  0.3991E-02
      4.340  0.4652E-04  0.1706E-03  0.4538E-03
      4.443  0.2483E-03  0.4534E-02  0.1148E-01
      4.546  0.7270E-05  0.9088E-05  0.1904E-04
      4.648  0.2006E-02  0.3340E-02  0.4392E-02
      4.751  0.1069E-08  0.5982E-09  0.7774E-09
      4.853  0.1058E-01  0.1201E-02  0.7972E-02
      4.956  0.5169E-25  0.1533E-15  0.8482E-15
      5.059  0.1146E-02  0.2405E-02  0.1207E-01
      5.161  0.8411E-02  0.5902E-02  0.6987E-02
      5.264  0.2246E-01  0.1532E-01  0.2147E-01
      5.366  0.4565E-03  0.1914E-03  0.1029E-02
      5.469  0.1324E-02  0.1470E-03  0.4656E-02
      5.571  0.1892E-01  0.3411E-02  0.1974E-01
      5.674  0.7443E-10  0.9942E-11  0.6253E-10
      5.777  0.1798E-01  0.3392E-02  0.2892E-01
      5.879  0.7682E-03  0.4899E-03  0.2417E-02
      5.982  0.1118E-02  0.1646E-02  0.4027E-01
      6.084  0.3703E-01  0.7857E-02  0.7646E-01
      6.187  0.1781E-01  0.4532E-02  0.1842E+00
      6.289  0.6900E-01  0.2988E-01  0.1772E+00
      6.392  0.1779E-01  0.2363E-01  0.3400E+00
      6.495  0.1638E-01  0.6801E-02  0.4174E+00
      6.597  0.4228E-01  0.1038E-01  0.1682E+00
      6.700  0.1282E-01  0.2468E-01  0.4308E+00
      6.802  0.8930E-02  0.3405E-01  0.6126E+00
      6.905  0.4341E-02  0.4736E-01  0.8971E+00
      7.008  0.2984E-01  0.5206E-01  0.6163E+00
      7.110  0.6044E-02  0.1126E-01  0.1106E+00
      7.213  0.7789E-04  0.2839E-02  0.6461E-01
      7.315  0.0000E+00  0.0000E+00  0.0000E+00
      7.418  0.0000E+00  0.0000E+00  0.0000E+00
      7.520  0.0000E+00  0.0000E+00  0.0000E+00
      7.623  0.0000E+00  0.0000E+00  0.0000E+00
      7.726  0.0000E+00  0.0000E+00  0.0000E+00
      7.828  0.0000E+00  0.0000E+00  0.0000E+00
      7.931  0.0000E+00  0.0000E+00  0.0000E+00
      8.033  0.0000E+00  0.0000E+00  0.0000E+00
      8.136  0.0000E+00  0.0000E+00  0.0000E+00
      8.239  0.0000E+00  0.0000E+00  0.0000E+00
      8.341  0.0000E+00  0.0000E+00  0.0000E+00
      8.444  0.0000E+00  0.0000E+00  0.0000E+00
      8.546  0.0000E+00  0.0000E+00  0.0000E+00
      8.54629701    -22.22832385  301      0.46795904      1.00000000
    -22.228  0.0000E+00  0.0000E+00  0.0000E+00
    -22.126  0.0000E+00  0.0000E+00  0.0000E+00
    -22.023  0.0000E+00  0.0000E+00  0.0000E+00
    -21.921  0.0000E+00  0.0000E+00  0.0000E+00
    -21.818  0.0000E+00  0.0000E+00  0.0000E+00
    -21.715  0.0000E+00  0.0000E+00  0.0000E+00
    -21.613  0.0000E+00  0.0000E+00  0.0000E+00
    -21.510  0.0000E+00  0.0000E+00  0.0000E+00
    -21.408  0.0000E+00  0.0000E+00  0.0000E+00
    -21.305  0.0000E+00  0.0000E+00  0.0000E+00
    -21.203  0.0000E+00  0.0000E+00  0.0000E+00
    -21.100  0.0000E+00  0.0000E+00  0.0000E+00
    -20.997  0.0000E+00  0.0000E+00  0.0000E+00
    -20.895  0.0000E+00  0.0000E+00  0.0000E+00
    -20.792  0.1730E+02  0.4926E-05  0.3716E-05
    -20.690  0.0000E+00  0.0000E+00  0.0000E+00
    -20.587  0.0000E+00  0.0000E+00  0.0000E+00
    -20.484  0.0000E+00  0.0000E+00  0.0000E+00
    -20.382  0.0000E+00  0.0000E+00  0.0000E+00
    -20.279  0.0000E+00  0.0000E+00  0.0000E+00
    -20.177  0.0000E+00  0.0000E+00  0.0000E+00
    -20.074  0.0000E+00  0.0000E+00  0.0000E+00
    -19.972  0.0000E+00  0.0000E+00  0.0000E+00
    -19.869  0.0000E+00  0.0000E+00  0.0000E+00
    -19.766  0.0000E+00  0.0000E+00  0.0000E+00
    -19.664  0.0000E+00  0.0000E+00  0.0000E+00
    -19.561  0.0000E+00  0.0000E+00  0.0000E+00
    -19.459  0.0000E+00  0.0000E+00  0.0000E+00
    -19.356  0.0000E+00  0.0000E+00  0.0000E+00
    -19.253  0.0000E+00  0.0000E+00  0.0000E+00
    -19.151  0.0000E+00  0.0000E+00  0.0000E+00
    -19.048  0.0000E+00  0.0000E+00  0.0000E+00
    -18.946  0.0000E+00  0.0000E+00  0.0000E+00
    -18.843  0.0000E+00  0.0000E+00  0.0000E+00
    -18.741  0.0000E+00  0.0000E+00  0.0000E+00
    -18.638  0.0000E+00  0.0000E+00  0.0000E+00
    -18.535  0.0000E+00  0.0000E+00  0.0000E+00
    -18.433  0.0000E+00  0.0000E+00  0.0000E+00
    -18.330  0.0000E+00  0.0000E+00  0.0000E+00
    -18.228  0.0000E+00  0.0000E+00  0.0000E+00
    -18.125  0.0000E+00  0.0000E+00  0.0000E+00
    -18.022  0.0000E+00  0.0000E+00  0.0000E+00
    -17.920  0.0000E+00  0.0000E+00  0.0000E+00
    -17.817  0.0000E+00  0.0000E+00  0.0000E+00
    -17.715  0.0000E+00  0.0000E+00  0.0000E+00
    -17.612  0.0000E+00  0.0000E+00  0.0000E+00
    -17.510  0.0000E+00  0.0000E+00  0.0000E+00
    -17.407  0.0000E+00  0.0000E+00  0.0000E+00
    -17.304  0.0000E+00  0.0000E+00  0.0000E+00
    -17.202  0.0000E+00  0.0000E+00  0.0000E+00
    -17.099  0.0000E+00  0.0000E+00  0.0000E+00
    -16.997  0.0000E+00  0.0000E+00  0.0000E+00
    -16.894  0.0000E+00  0.0000E+00  0.0000E+00
    -16.791  0.0000E+00  0.0000E+00  0.0000E+00
    -16.689  0.0000E+00  0.0000E+00  0.0000E+00
    -16.586  0.0000E+00  0.0000E+00  0.0000E+00
    -16.484  0.3383E-04  0.1707E-04  0.3872E-05
    -16.381  0.1905E-04  0.5465E-04  0.7579E-05
    -16.279  0.6404E-04  0.3625E-04  0.4399E-05
    -16.176  0.0000E+00  0.0000E+00  0.0000E+00
    -16.073  0.0000E+00  0.0000E+00  0.0000E+00
    -15.971  0.0000E+00  0.0000E+00  0.0000E+00
    -15.868  0.0000E+00  0.0000E+00  0.0000E+00
    -15.766  0.0000E+00  0.0000E+00  0.0000E+00
    -15.663  0.0000E+00  0.0000E+00  0.0000E+00
    -15.560  0.0000E+00  0.0000E+00  0.0000E+00
    -15.458  0.0000E+00  0.0000E+00  0.0000E+00
    -15.355  0.0000E+00  0.0000E+00  0.0000E+00
    -15.253  0.0000E+00  0.0000E+00  0.0000E+00
    -15.150  0.0000E+00  0.0000E+00  0.0000E+00
    -15.048  0.0000E+00  0.0000E+00  0.0000E+00
    -14.945  0.0000E+00  0.0000E+00  0.0000E+00
    -14.842  0.0000E+00  0.0000E+00  0.0000E+00
    -14.740  0.0000E+00  0.0000E+00  0.0000E+00
    -14.637  0.0000E+00  0.0000E+00  0.0000E+00
    -14.535  0.0000E+00  0.0000E+00  0.0000E+00
    -14.432  0.0000E+00  0.0000E+00  0.0000E+00
    -14.330  0.4290E-03  0.2354E-05  0.8198E-06
    -14.227  0.4209E-02  0.1953E-02  0.5288E-04
    -14.124  0.1875E-02  0.5714E-02  0.1634E-03
    -14.022  0.4106E-03  0.1696E-02  0.1555E-03
    -13.919  0.1243E-02  0.4011E-02  0.5276E-03
    -13.817  0.1489E-02  0.3652E-02  0.4539E-03
    -13.714  0.6156E-03  0.1179E-02  0.1442E-03
    -13.611  0.0000E+00  0.0000E+00  0.0000E+00
    -13.509  0.0000E+00  0.0000E+00  0.0000E+00
    -13.406  0.0000E+00  0.0000E+00  0.0000E+00
    -13.304  0.0000E+00  0.0000E+00  0.0000E+00
    -13.201  0.0000E+00  0.0000E+00  0.0000E+00
    -13.099  0.0000E+00  0.0000E+00  0.0000E+00