       N       E                     dE             d eps       ncg     rms          rms(c)
DAV:   1     0.655317622280E+03    0.65532E+03   -0.56050E+04  1848   0.922E+02
DAV:   2    -0.576848717600E+03   -0.12322E+04   -0.11840E+04  2184   0.285E+02
DAV:   3    -0.749139926702E+03   -0.17229E+03   -0.17124E+03  2432   0.127E+02
DAV:   4    -0.754537084847E+03   -0.53972E+01   -0.53773E+01  2168   0.296E+01
DAV:   5    -0.754788764543E+03   -0.25168E+00   -0.25154E+00  2352   0.514E+00    0.701E+00
DAV:   6    -0.715004351144E+03    0.39784E+02   -0.11834E+01  2400   0.283E+01    0.501E+00
DAV:   7    -0.714770734527E+03    0.23362E+00   -0.37964E+00  2272   0.480E+00    0.258E+00
DAV:   8    -0.714866818135E+03   -0.96084E-01   -0.17859E-01  2144   0.169E+00    0.147E+00
DAV:   9    -0.714907745580E+03   -0.40927E-01   -0.82761E-02  2000   0.118E+00    0.318E-01
DAV:  10    -0.714908639168E+03   -0.89359E-03   -0.48532E-03  2560   0.319E-01    0.185E-01
DAV:  11    -0.714910165519E+03   -0.15264E-02   -0.16945E-03  2024   0.168E-01    0.668E-02
DAV:  12    -0.714910231398E+03   -0.65879E-04   -0.44222E-04  2112   0.918E-02    0.221E-02
DAV:  13    -0.714910222632E+03    0.87657E-05   -0.43735E-05  2232   0.260E-02    0.682E-03
DAV:  14    -0.714910237872E+03   -0.15240E-04   -0.25151E-06  1688   0.575E-03    0.190E-03
DAV:  15    -0.714910241589E+03   -0.37165E-05   -0.43441E-07  1272   0.320E-03    0.767E-04
DAV:  16    -0.714910241369E+03    0.22024E-06   -0.16866E-07  1208   0.189E-03
   1 F= -.71491024E+03 E0= -.71491024E+03  d E =-.984740E-21
