<?xml version="1.0" encoding="ISO-8859-1"?>
<modeling>
 <generator>
  <i name="program" type="string">vasp </i>
  <i name="version" type="string">5.4.4.18Apr17-6-g9f103f2a35  </i>
  <i name="subversion" type="string">(build Jun 29 2021 11:06:51) complex            parallel </i>
  <i name="platform" type="string">tx2_gcc-7.3_libsci-18.07_cray-fftw-3.3.8 </i>
  <i name="date" type="string">2021 09 21 </i>
  <i name="time" type="string">08:32:50 </i>
 </generator>
 <incar>
  <i type="string" name="SYSTEM"> CsPbBr3 cubic bulk</i>
  <i type="string" name="PREC">accurate</i>
  <i type="string" name="ALGO"> Normal   ! Electronic minimisation algo</i>
  <i type="logical" name="ADDGRID"> T  </i>
  <i type="int" name="NELM">   200</i>
  <i type="int" name="IBRION">     2</i>
  <i name="EDIFF">      0.00000100</i>
  <i name="EDIFFG">     -0.01000000</i>
  <i type="int" name="NSW">     0</i>
  <i type="int" name="ISIF">     3</i>
  <i type="int" name="ISYM">     2</i>
  <i name="ENCUT">    300.00000000</i>
  <i name="POTIM">      0.50000000</i>
  <i type="string" name="LREAL"> AUTO</i>
  <i type="int" name="ISMEAR">     0</i>
  <i name="SIGMA">      0.01000000</i>
  <i name="PSTRESS">      0.00000000</i>
  <i type="logical" name="LWAVE"> F  </i>
  <i type="logical" name="LCHARG"> F  </i>
  <i type="logical" name="LVHAR"> T  </i>
  <i type="int" name="LORBIT">    10</i>
  <i type="logical" name="LASPH"> T  </i>
  <v type="int" name="KPOINT_BSE">    -1     0     0     0</v>
  <i type="int" name="NELM">   200</i>
  <i type="string" name="METAGGA"> SCAN       ! PBE exchange-correlation</i>
  <i type="logical" name="LASPH"> T  </i>
 </incar>
 <structure name="primitive_cell" >
  <crystal>
   <varray name="basis" >
    <v>       8.33291587       0.00000000       0.00000000 </v>
    <v>       0.00000000      11.88144586       0.00000000 </v>
    <v>       0.00000000       0.00000000       8.15876036 </v>
   </varray>
   <i name="volume">    807.77511158 </i>
   <varray name="rec_basis" >
    <v>       0.12000601       0.00000000       0.00000000 </v>
    <v>       0.00000000       0.08416484       0.00000000 </v>
    <v>       0.00000000       0.00000000       0.12256764 </v>
   </varray>
  </crystal>
  <varray name="positions" >
   <v>       0.05952597       0.25000000       0.48452232 </v>
   <v>      -0.19973725       0.03291936       0.30227313 </v>
   <v>      -0.19973725       0.46708064       0.30227313 </v>
   <v>       0.49748419       0.25000000      -0.43794249 </v>
   <v>      -0.00251581       0.25000000      -0.06205751 </v>
   <v>       0.19973725      -0.46708064      -0.30227313 </v>
   <v>       0.19973725      -0.03291936      -0.30227313 </v>
   <v>       0.30026275       0.46708064       0.19772687 </v>
   <v>       0.30026275       0.03291936       0.19772687 </v>
   <v>      -0.50000000       0.00000000      -0.50000000 </v>
   <v>      -0.50000000      -0.50000000      -0.50000000 </v>
   <v>       0.00000000       0.00000000       0.00000000 </v>
   <v>       0.00000000      -0.50000000       0.00000000 </v>
   <v>      -0.30026275      -0.03291936      -0.19772687 </v>
   <v>      -0.30026275      -0.46708064      -0.19772687 </v>
   <v>      -0.44047403       0.25000000       0.01547768 </v>
   <v>      -0.05952597      -0.25000000      -0.48452232 </v>
   <v>       0.00251581      -0.25000000       0.06205751 </v>
   <v>      -0.49748419      -0.25000000       0.43794249 </v>
   <v>       0.44047403      -0.25000000      -0.01547768 </v>
  </varray>
 </structure>
 <varray name="primitive_index" >
  <v type="int" >        1 </v>
  <v type="int" >       15 </v>
  <v type="int" >       20 </v>
  <v type="int" >       12 </v>
  <v type="int" >       10 </v>
  <v type="int" >       14 </v>
  <v type="int" >       18 </v>
  <v type="int" >       13 </v>
  <v type="int" >       17 </v>
  <v type="int" >        6 </v>
  <v type="int" >        7 </v>
  <v type="int" >        5 </v>
  <v type="int" >        8 </v>
  <v type="int" >       16 </v>
  <v type="int" >       19 </v>
  <v type="int" >        3 </v>
  <v type="int" >        4 </v>
  <v type="int" >       11 </v>
  <v type="int" >        9 </v>
  <v type="int" >        2 </v>
 </varray>
 <kpoints>
  <generation param="Gamma">
   <v type="int" name="divisions">       3        2        3 </v>
   <v name="usershift">      0.00000000       0.00000000       0.00000000 </v>
   <v name="genvec1">      0.33333333       0.00000000       0.00000000 </v>
   <v name="genvec2">      0.00000000       0.50000000       0.00000000 </v>
   <v name="genvec3">      0.00000000       0.00000000       0.33333333 </v>
   <v name="shift">      0.00000000       0.00000000       0.00000000 </v>
  </generation>
  <varray name="kpointlist" >
   <v>       0.00000000       0.00000000       0.00000000 </v>
   <v>       0.33333333       0.00000000       0.00000000 </v>
   <v>       0.00000000       0.50000000       0.00000000 </v>
   <v>       0.33333333       0.50000000       0.00000000 </v>
   <v>       0.00000000       0.00000000       0.33333333 </v>
   <v>       0.33333333       0.00000000       0.33333333 </v>
   <v>       0.00000000       0.50000000       0.33333333 </v>
   <v>       0.33333333       0.50000000       0.33333333 </v>
  </varray>
  <varray name="weights" >
   <v>       0.05555556 </v>
   <v>       0.11111111 </v>
   <v>       0.05555556 </v>
   <v>       0.11111111 </v>
   <v>       0.11111111 </v>
   <v>       0.22222222 </v>
   <v>       0.11111111 </v>
   <v>       0.22222222 </v>
  </varray>
 </kpoints>
 <parameters>
  <separator name="general" >
   <i type="string" name="SYSTEM">CsPbBr3 cubic bulk</i>
   <i type="logical" name="LCOMPAT"> F  </i>
  </separator>
  <separator name="electronic" >
   <i type="string" name="PREC">accura</i>
   <i name="ENMAX">    300.00000000</i>
   <i name="ENAUG">    503.85200000</i>
   <i name="EDIFF">      0.00000100</i>
   <i type="int" name="IALGO">    38</i>
   <i type="int" name="IWAVPR">    10</i>
   <i type="int" name="NBANDS">   112</i>
   <i name="NELECT">    176.00000000</i>
   <i type="int" name="TURBO">     0</i>
   <i type="int" name="IRESTART">     0</i>
   <i type="int" name="NREBOOT">     0</i>
   <i type="int" name="NMIN">     0</i>
   <i name="EREF">      0.00000000</i>
   <separator name="electronic smearing" >
    <i type="int" name="ISMEAR">     0</i>
    <i name="SIGMA">      0.01000000</i>
    <i name="KSPACING">      0.50000000</i>
    <i type="logical" name="KGAMMA"> T  </i>
   </separator>
   <separator name="electronic projectors" >
    <i type="logical" name="LREAL"> T  </i>
    <v name="ROPT">     -0.00025000     -0.00025000     -0.00025000</v>
    <i type="int" name="LMAXPAW">  -100</i>
    <i type="int" name="LMAXMIX">     2</i>
    <i type="logical" name="NLSPLINE"> F  </i>
   </separator>
   <separator name="electronic startup" >
    <i type="int" name="ISTART">     0</i>
    <i type="int" name="ICHARG">     2</i>
    <i type="int" name="INIWAV">     1</i>
   </separator>
   <separator name="electronic spin" >
    <i type="int" name="ISPIN">     1</i>
    <i type="logical" name="LNONCOLLINEAR"> F  </i>
    <v name="MAGMOM">      1.00000000      1.00000000      1.00000000      1.00000000      1.00000000      1.00000000      1.00000000      1.00000000      1.00000000      1.00000000      1.00000000      1.00000000      1.00000000      1.00000000      1.00000000      1.00000000      1.00000000      1.00000000      1.00000000      1.00000000
</v>
    <i name="NUPDOWN">     -1.00000000</i>
    <i type="logical" name="LSORBIT"> F  </i>
    <v name="SAXIS">      0.00000000      0.00000000      1.00000000</v>
    <i type="logical" name="LSPIRAL"> F  </i>
    <v name="QSPIRAL">      0.00000000      0.00000000      0.00000000</v>
    <i type="logical" name="LZEROZ"> F  </i>
   </separator>
   <separator name="electronic exchange-correlation" >
    <i type="logical" name="LASPH"> T  </i>
    <i type="logical" name="LMETAGGA"> F  </i>
   </separator>
   <separator name="electronic convergence" >
    <i type="int" name="NELM">   200</i>
    <i type="int" name="NELMDL">    -5</i>
    <i type="int" name="NELMIN">     2</i>
    <i name="ENINI">    300.00000000</i>
    <separator name="electronic convergence detail" >
     <i type="logical" name="LDIAG"> T  </i>
     <i type="logical" name="LSUBROT"> F  </i>
     <i name="WEIMIN">      0.00000000</i>
     <i name="EBREAK">      0.00000000</i>
     <i name="DEPER">      0.30000000</i>
     <i type="int" name="NRMM">     4</i>
     <i name="TIME">      0.40000000</i>
    </separator>
   </separator>
   <separator name="electronic mixer" >
    <i name="AMIX">      0.40000000</i>
    <i name="BMIX">      1.00000000</i>
    <i name="AMIN">      0.10000000</i>
    <i name="AMIX_MAG">      1.60000000</i>
    <i name="BMIX_MAG">      1.00000000</i>
    <separator name="electronic mixer details" >
     <i type="int" name="IMIX">     4</i>
     <i type="logical" name="MIXFIRST"> F  </i>
     <i type="int" name="MAXMIX">   -45</i>
     <i name="WC">    100.00000000</i>
     <i type="int" name="INIMIX">     1</i>
     <i type="int" name="MIXPRE">     1</i>
     <i type="int" name="MREMOVE">     5</i>
    </separator>
   </separator>
   <separator name="electronic dipolcorrection" >
    <i type="logical" name="LDIPOL"> F  </i>
    <i type="logical" name="LMONO"> F  </i>
    <i type="int" name="IDIPOL">     0</i>
    <i name="EPSILON">      1.00000000</i>
    <v name="DIPOL">   -100.00000000   -100.00000000   -100.00000000</v>
    <i name="EFIELD">      0.00000000</i>
   </separator>
  </separator>
  <separator name="grids" >
   <i type="int" name="NGX">    48</i>
   <i type="int" name="NGY">    70</i>
   <i type="int" name="NGZ">    48</i>
   <i type="int" name="NGXF">    96</i>
   <i type="int" name="NGYF">   140</i>
   <i type="int" name="NGZF">    96</i>
   <i type="logical" name="ADDGRID"> T  </i>
  </separator>
  <separator name="ionic" >
   <i type="int" name="NSW">     0</i>
   <i type="int" name="IBRION">    -1</i>
   <i type="int" name="MDALGO">     0</i>
   <i type="int" name="ISIF">     3</i>
   <i name="PSTRESS">      0.00000000</i>
   <i name="EDIFFG">     -0.01000000</i>
   <i type="int" name="NFREE">     1</i>
   <i name="POTIM">      0.50000000</i>
   <i name="SMASS">     -3.00000000</i>
   <i name="SCALEE">      1.00000000</i>
  </separator>
  <separator name="ionic md" >
   <i name="TEBEG">      0.00010000</i>
   <i name="TEEND">      0.00010000</i>
   <i type="int" name="NBLOCK">     1</i>
   <i type="int" name="KBLOCK">     1</i>
   <i type="int" name="NPACO">   256</i>
   <i name="APACO">     16.00000000</i>
  </separator>
  <separator name="symmetry" >
   <i type="int" name="ISYM">     2</i>
   <i name="SYMPREC">      0.00001000</i>
  </separator>
  <separator name="dos" >
   <i type="int" name="LORBIT">    10</i>
   <v name="RWIGS">     -1.00000000     -1.00000000     -1.00000000</v>
   <i type="int" name="NEDOS">   301</i>
   <i name="EMIN">     10.00000000</i>
   <i name="EMAX">    -10.00000000</i>
   <i name="EFERMI">      0.00000000</i>
  </separator>
  <separator name="writing" >
   <i type="int" name="NWRITE">     2</i>
   <i type="logical" name="LWAVE"> F  </i>
   <i type="logical" name="LDOWNSAMPLE"> F  </i>
   <i type="logical" name="LCHARG"> F  </i>
   <i type="logical" name="LPARD"> F  </i>
   <i type="logical" name="LVTOT"> F  </i>
   <i type="logical" name="LVHAR"> T  </i>
   <i type="logical" name="LELF"> F  </i>
   <i type="logical" name="LOPTICS"> F  </i>
   <v name="STM">      0.00000000      0.00000000      0.00000000      0.00000000      0.00000000      0.00000000      0.00000000</v>
  </separator>
  <separator name="performance" >
   <i type="int" name="NPAR">     8</i>
   <i type="int" name="NSIM">     4</i>
   <i type="int" name="NBLK">    -1</i>
   <i type="logical" name="LPLANE"> T  </i>
   <i type="logical" name="LSCALAPACK"> T  </i>
   <i type="logical" name="LSCAAWARE"> F  </i>
   <i type="logical" name="LSCALU"> F  </i>
   <i type="logical" name="LASYNC"> F  </i>
   <i type="logical" name="LORBITALREAL"> F  </i>
  </separator>
  <separator name="miscellaneous" >
   <i type="int" name="IDIOT">     3</i>
   <i type="int" name="ISPECIAL">     0</i>
   <i type="logical" name="LMUSIC"> F  </i>
   <v name="POMASS">    132.90000000    207.20000000     79.90400000</v>
   <v name="DARWINR">      0.00000000      0.00000000      0.00000000</v>
   <v name="DARWINV">      1.00000000      1.00000000      1.00000000</v>
   <i type="logical" name="LCORR"> T  </i>
  </separator>
  <i type="logical" name="GGA_COMPAT"> T  </i>
  <i type="logical" name="LBERRY"> F  </i>
  <i type="int" name="ICORELEVEL">     0</i>
  <i type="logical" name="LDAU"> F  </i>
  <i type="int" name="I_CONSTRAINED_M">     0</i>
  <separator name="electronic exchange-correlation" >
   <i type="string" name="GGA">--</i>
   <i type="int" name="VOSKOWN">     0</i>
   <i type="logical" name="LHFCALC"> F  </i>
   <i type="string" name="PRECFOCK"></i>
   <i type="logical" name="LSYMGRAD"> F  </i>
   <i type="logical" name="LHFONE"> F  </i>
   <i type="logical" name="LRHFCALC"> F  </i>
   <i type="logical" name="LTHOMAS"> F  </i>
   <i type="logical" name="LMODELHF"> F  </i>
   <i name="ENCUT4O">     -1.00000000</i>
   <i type="int" name="EXXOEP">     0</i>
   <i type="int" name="FOURORBIT">     0</i>
   <i name="AEXX">      0.00000000</i>
   <i name="HFALPHA">      0.00000000</i>
   <i name="MCALPHA">      0.00000000</i>
   <i name="ALDAX">      1.00000000</i>
   <i name="AGGAX">      1.00000000</i>
   <i name="ALDAC">      1.00000000</i>
   <i name="AGGAC">      1.00000000</i>
   <i type="int" name="NKREDX">     1</i>
   <i type="int" name="NKREDY">     1</i>
   <i type="int" name="NKREDZ">     1</i>
   <i type="logical" name="SHIFTRED"> F  </i>
   <i type="logical" name="ODDONLY"> F  </i>
   <i type="logical" name="EVENONLY"> F  </i>
   <i type="int" name="LMAXFOCK">     0</i>
   <i type="int" name="NMAXFOCKAE">     0</i>
   <i type="logical" name="LFOCKAEDFT"> F  </i>
   <i name="HFSCREEN">      0.00000000</i>
   <i name="HFSCREENC">      0.00000000</i>
   <i type="int" name="NBANDSGWLOW">     0</i>
  </separator>
  <separator name="vdW DFT" >
   <i type="logical" name="LUSE_VDW"> F  </i>
   <i name="Zab_VDW">     -0.84910000</i>
   <i name="PARAM1">      0.12340000</i>
   <i name="PARAM2">      1.00000000</i>
   <i name="PARAM3">      0.00000000</i>
  </separator>
  <separator name="model GW" >
   <i type="int" name="MODEL_GW">     0</i>
   <i name="MODEL_EPS0">     24.23325335</i>
   <i name="MODEL_ALPHA">      1.00000000</i>
  </separator>
  <separator name="linear response parameters" >
   <i type="logical" name="LEPSILON"> F  </i>
   <i type="logical" name="LRPA"> F  </i>
   <i type="logical" name="LNABLA"> F  </i>
   <i type="logical" name="LVEL"> F  </i>
   <i type="int" name="KINTER">     0</i>
   <i name="CSHIFT">      0.10000000</i>
   <i name="OMEGAMAX">     -1.00000000</i>
   <i name="DEG_THRESHOLD">      0.00200000</i>
   <i name="RTIME">     -0.10000000</i>
   <i name="WPLASMAI">      0.00000000</i>
   <v name="DFIELD">      0.00000000      0.00000000      0.00000000</v>
   <v name="WPLASMA">      0.00000000      0.00000000      0.00000000      0.00000000      0.00000000      0.00000000      0.00000000      0.00000000      0.00000000</v>
  </separator>
  <separator name="orbital magnetization" >
   <i type="logical" name="NUCIND"> F  </i>
   <v name="MAGPOS">      0.00000000      0.00000000      0.00000000</v>
   <i type="logical" name="LNICSALL"> T  </i>
   <i type="logical" name="ORBITALMAG"> F  </i>
   <i type="logical" name="LMAGBLOCH"> F  </i>
   <i type="logical" name="LCHIMAG"> F  </i>
   <i type="logical" name="LGAUGE"> T  </i>
   <i type="int" name="MAGATOM">     0</i>
   <v name="MAGDIPOL">      0.00000000      0.00000000      0.00000000</v>
   <v name="AVECCONST">      0.00000000      0.00000000      0.00000000</v>
  </separator>
  <separator name="response functions" >
   <i type="logical" name="LADDER"> F  </i>
   <i type="logical" name="LRPAFORCE"> F  </i>
   <i type="logical" name="LFXC"> F  </i>
   <i type="logical" name="LHARTREE"> T  </i>
   <i type="int" name="IBSE">     0</i>
   <v type="int" name="KPOINT">    -1     0     0     0</v>
   <i type="logical" name="LTCTE"> F  </i>
   <i type="logical" name="LTETE"> F  </i>
   <i type="logical" name="LTRIPLET"> F  </i>
   <i type="logical" name="LFXCEPS"> F  </i>
   <i type="logical" name="LFXHEG"> F  </i>
   <i type="int" name="NATURALO">     2</i>
   <i type="logical" name="L2ORDER"> F  </i>
   <i type="logical" name="LMP2LT"> F  </i>
   <i type="logical" name="LUSEW"> F  </i>
   <i name="ENCUTGW">     -2.00000000</i>
   <i name="ENCUTGWSOFT">     -2.00000000</i>
   <i name="ENCUTLF">     -1.00000000</i>
   <i type="int" name="LMAXMP2">    -1</i>
   <i name="SCISSOR">      0.00000000</i>
   <i type="int" name="NOMEGA">     0</i>
   <i type="int" name="NOMEGAR">     0</i>
   <i type="int" name="NBANDSGW">    -1</i>
   <i type="int" name="NBANDSO">    -1</i>
   <i type="int" name="NBANDSV">    -1</i>
   <i type="int" name="NELM">   200</i>
   <i type="int" name="NELMHF">     1</i>
   <i type="int" name="DIM">     3</i>
   <i type="int" name="ANTIRES">     0</i>
   <i name="OMEGAMAX">    -30.00000000</i>
   <i name="OMEGAMIN">    -30.00000000</i>
   <i name="OMEGATL">   -200.00000000</i>
   <i type="int" name="OMEGAGRID">   140</i>
   <i name="CSHIFT">     -0.10000000</i>
   <i type="logical" name="SELFENERGY"> F  </i>
   <i type="logical" name="LSPECTRAL"> F  </i>
   <i type="logical" name="LSPECTRALGW"> F  </i>
   <i type="logical" name="LSINGLES"> F  </i>
   <i type="logical" name="LFERMIGW"> F  </i>
   <i type="logical" name="ODDONLYGW"> F  </i>
   <i type="logical" name="EVENONLYGW"> F  </i>
   <i type="int" name="NKREDLFX">     1</i>
   <i type="int" name="NKREDLFY">     1</i>
   <i type="int" name="NKREDLFZ">     1</i>
   <i type="int" name="MAXMEM">  2800</i>
   <i type="int" name="TELESCOPE">     0</i>
   <i type="int" name="TAUPAR">     1</i>
   <i type="int" name="OMEGAPAR">    -1</i>
   <i name="LAMBDA">      1.00000000</i>
  </separator>
  <separator name="External order field" >
   <i name="OFIELD_KAPPA">      0.00000000</i>
   <v name="OFIELD_K">      0.00000000      0.00000000      0.00000000</v>
   <i name="OFIELD_Q6_NEAR">      0.00000000</i>
   <i name="OFIELD_Q6_FAR">      0.00000000</i>
   <i name="OFIELD_A">      0.00000000</i>
  </separator>
 </parameters>
 <atominfo>
  <atoms>      20 </atoms>
  <types>       3 </types>
  <array name="atoms" >
   <dimension dim="1">ion</dimension>
   <field type="string">element</field>
   <field type="int">atomtype</field>
   <set>
    <rc><c>Cs</c><c>   1</c></rc>
    <rc><c>Cs</c><c>   1</c></rc>
    <rc><c>Cs</c><c>   1</c></rc>
    <rc><c>Cs</c><c>   1</c></rc>
    <rc><c>Pb</c><c>   2</c></rc>
    <rc><c>Pb</c><c>   2</c></rc>
    <rc><c>Pb</c><c>   2</c></rc>
    <rc><c>Pb</c><c>   2</c></rc>
    <rc><c>Br</c><c>   3</c></rc>
    <rc><c>Br</c><c>   3</c></rc>
    <rc><c>Br</c><c>   3</c></rc>
    <rc><c>Br</c><c>   3</c></rc>
    <rc><c>Br</c><c>   3</c></rc>
    <rc><c>Br</c><c>   3</c></rc>
    <rc><c>Br</c><c>   3</c></rc>
    <rc><c>Br</c><c>   3</c></rc>
    <rc><c>Br</c><c>   3</c></rc>
    <rc><c>Br</c><c>   3</c></rc>
    <rc><c>Br</c><c>   3</c></rc>
    <rc><c>Br</c><c>   3</c></rc>
   </set>
  </array>
  <array name="atomtypes" >
   <dimension dim="1">type</dimension>
   <field type="int">atomspertype</field>
   <field type="string">element</field>
   <field>mass</field>
   <field>valence</field>
   <field type="string">pseudopotential</field>
   <set>
    <rc><c>   4</c><c>Cs</c><c>    132.90000000</c><c>      9.00000000</c><c>  PAW_PBE Cs_sv 08Apr2002               </c></rc>
    <rc><c>   4</c><c>Pb</c><c>    207.20000000</c><c>     14.00000000</c><c>  PAW_PBE Pb_d 06Sep2000                </c></rc>
    <rc><c>  12</c><c>Br</c><c>     79.90400000</c><c>      7.00000000</c><c>  PAW_PBE Br 06Sep2000                  </c></rc>
   </set>
  </array>
 </atominfo>
 <structure name="initialpos" >
  <crystal>
   <varray name="basis" >
    <v>       8.33291587       0.00000000       0.00000000 </v>
    <v>       0.00000000      11.88144586       0.00000000 </v>
    <v>       0.00000000       0.00000000       8.15876036 </v>
   </varray>
   <i name="volume">    807.77511158 </i>
   <varray name="rec_basis" >
    <v>       0.12000601       0.00000000       0.00000000 </v>
    <v>       0.00000000       0.08416484       0.00000000 </v>
    <v>       0.00000000       0.00000000       0.12256764 </v>
   </varray>
  </crystal>
  <varray name="positions" >
   <v>       0.05952597       0.25000000       0.48452232 </v>
   <v>       0.44047403       0.75000000       0.98452232 </v>
   <v>       0.55952597       0.25000000       0.01547768 </v>
   <v>       0.94047403       0.75000000       0.51547768 </v>
   <v>       0.00000000       0.00000000       0.00000000 </v>
   <v>       0.50000000       0.00000000       0.50000000 </v>
   <v>       0.50000000       0.50000000       0.50000000 </v>
   <v>       0.00000000       0.50000000       0.00000000 </v>
   <v>       0.50251581       0.75000000       0.43794249 </v>
   <v>       0.99748419       0.25000000       0.93794249 </v>
   <v>       0.00251581       0.75000000       0.06205751 </v>
   <v>       0.49748419       0.25000000       0.56205751 </v>
   <v>       0.30026275       0.46708064       0.19772687 </v>
   <v>       0.19973725       0.53291936       0.69772687 </v>
   <v>       0.80026275       0.03291936       0.30227313 </v>
   <v>       0.69973725       0.96708064       0.80227313 </v>
   <v>       0.30026275       0.03291936       0.19772687 </v>
   <v>       0.19973725       0.96708064       0.69772687 </v>
   <v>       0.69973725       0.53291936       0.80227313 </v>
   <v>       0.80026275       0.46708064       0.30227313 </v>
  </varray>
 </structure>
 <calculation>
  <scstep>
   <time name="dav">    3.98    3.98</time>
   <time name="total">    5.20    5.22</time>
   <energy>
    <i name="alphaZ">    446.67003054 </i>
    <i name="ewald">  -9209.39662722 </i>
    <i name="hartreedc">  -3665.25903416 </i>
    <i name="XCdc">    461.80406422 </i>
    <i name="pawpsdc">  10816.98087266 </i>
    <i name="pawaedc"> -11353.96092700 </i>
    <i name="eentropy">     -0.00095736 </i>
    <i name="bandstr">   -131.79989869 </i>
    <i name="atom">  13290.28009929 </i>
    <i name="e_fr_energy">    655.31762228 </i>
    <i name="e_wo_entrp">    655.31857964 </i>
    <i name="e_0_energy">    655.31810096 </i>
   </energy>
  </scstep>
  <scstep>
   <time name="dav">    4.46    4.47</time>
   <time name="total">    4.46    4.47</time>
   <energy>
    <i name="e_fr_energy">   -576.84871760 </i>
    <i name="e_wo_entrp">   -576.84871760 </i>
    <i name="e_0_energy">   -576.84871760 </i>
   </energy>
  </scstep>
  <scstep>
   <time name="dav">    4.77    4.82</time>
   <time name="total">    4.77    4.82</time>
   <energy>
    <i name="e_fr_energy">   -749.13992670 </i>
    <i name="e_wo_entrp">   -749.13992670 </i>
    <i name="e_0_energy">   -749.13992670 </i>
   </energy>
  </scstep>
  <scstep>
   <time name="dav">    4.45    4.47</time>
   <time name="total">    4.45    4.47</time>
   <energy>
    <i name="e_fr_energy">   -754.53708485 </i>
    <i name="e_wo_entrp">   -754.53708485 </i>
    <i name="e_0_energy">   -754.53708485 </i>
   </energy>
  </scstep>
  <scstep>
   <time name="dav">    4.64    4.69</time>
   <time name="total">    5.51    5.55</time>
   <energy>
    <i name="e_fr_energy">   -754.78876454 </i>
    <i name="e_wo_entrp">   -754.78876454 </i>
    <i name="e_0_energy">   -754.78876454 </i>
   </energy>
  </scstep>
  <scstep>
   <time name="dav">    4.70    4.70</time>
   <time name="total">    6.76    6.79</time>
   <energy>
    <i name="e_fr_energy">   -715.00435114 </i>
    <i name="e_wo_entrp">   -715.00435114 </i>
    <i name="e_0_energy">   -715.00435114 </i>
   </energy>
  </scstep>
  <scstep>
   <time name="dav">    4.53    4.53</time>
   <time name="total">    6.57    6.61</time>
   <energy>
    <i name="e_fr_energy">   -714.77073453 </i>
    <i name="e_wo_entrp">   -714.77073453 </i>
    <i name="e_0_energy">   -714.77073453 </i>
   </energy>
  </scstep>
  <scstep>
   <time name="dav">    4.35    4.35</time>
   <time name="total">    6.41    6.44</time>
   <energy>
    <i name="e_fr_energy">   -714.86681814 </i>
    <i name="e_wo_entrp">   -714.86681814 </i>
    <i name="e_0_energy">   -714.86681814 </i>
   </energy>
  </scstep>
  <scstep>
   <time name="dav">    4.16    4.16</time>
   <time name="total">    6.23    6.26</time>
   <energy>
    <i name="e_fr_energy">   -714.90774558 </i>
    <i name="e_wo_entrp">   -714.90774558 </i>
    <i name="e_0_energy">   -714.90774558 </i>
   </energy>
  </scstep>
  <scstep>
   <time name="dav">    4.90    4.90</time>
   <time name="total">    6.96    7.00</time>
   <energy>
    <i name="e_fr_energy">   -714.90863917 </i>
    <i name="e_wo_entrp">   -714.90863917 </i>
    <i name="e_0_energy">   -714.90863917 </i>
   </energy>
  </scstep>
  <scstep>
   <time name="dav">    4.19    4.19</time>
   <time name="total">    6.27    6.28</time>
   <energy>
    <i name="e_fr_energy">   -714.91016552 </i>
    <i name="e_wo_entrp">   -714.91016552 </i>
    <i name="e_0_energy">   -714.91016552 </i>
   </energy>
  </scstep>
  <scstep>
   <time name="dav">    4.30    4.31</time>
   <time name="total">    6.36    6.40</time>
   <energy>
    <i name="e_fr_energy">   -714.91023140 </i>
    <i name="e_wo_entrp">   -714.91023140 </i>
    <i name="e_0_energy">   -714.91023140 </i>
   </energy>
  </scstep>
  <scstep>
   <time name="dav">    4.47    4.47</time>
   <time name="total">    6.54    6.56</time>
   <energy>
    <i name="e_fr_energy">   -714.91022263 </i>
    <i name="e_wo_entrp">   -714.91022263 </i>
    <i name="e_0_energy">   -714.91022263 </i>
   </energy>
  </scstep>
  <scstep>
   <time name="dav">    3.78    3.78</time>
   <time name="total">    5.83    5.88</time>
   <energy>
    <i name="e_fr_energy">   -714.91023787 </i>
    <i name="e_wo_entrp">   -714.91023787 </i>
    <i name="e_0_energy">   -714.91023787 </i>
   </energy>
  </scstep>
  <scstep>
   <time name="dav">    3.26    3.26</time>
   <time name="total">    5.31    5.34</time>
   <energy>
    <i name="e_fr_energy">   -714.91024159 </i>
    <i name="e_wo_entrp">   -714.91024159 </i>
    <i name="e_0_energy">   -714.91024159 </i>
   </energy>
  </scstep>
  <scstep>
   <time name="dav">    3.18    3.18</time>
   <time name="total">    4.42    4.44</time>
   <energy>
    <i name="alphaZ">    446.67003054 </i>
    <i name="ewald">  -9209.39662722 </i>
    <i name="hartreedc">  -3677.99329880 </i>
    <i name="XCdc">    481.32912263 </i>
    <i name="pawpsdc">  11528.28577250 </i>
    <i name="pawaedc"> -12064.21425627 </i>
    <i name="eentropy">     -0.00000000 </i>
    <i name="bandstr">  -1509.87108405 </i>
    <i name="atom">  13290.28009929 </i>
    <i name="e_fr_energy">   -714.91024137 </i>
    <i name="e_wo_entrp">   -714.91024137 </i>
    <i name="e_0_energy">   -714.91024137 </i>
   </energy>
  </scstep>
  <structure>
   <crystal>
    <varray name="basis" >
     <v>       8.33291587       0.00000000       0.00000000 </v>
     <v>       0.00000000      11.88144586       0.00000000 </v>
     <v>       0.00000000       0.00000000       8.15876036 </v>
    </varray>
    <i name="volume">    807.77511158 </i>
    <varray name="rec_basis" >
     <v>       0.12000601       0.00000000       0.00000000 </v>
     <v>       0.00000000       0.08416484       0.00000000 </v>
     <v>       0.00000000       0.00000000       0.12256764 </v>
    </varray>
   </crystal>
   <varray name="positions" >
    <v>       0.05952597       0.25000000       0.48452232 </v>
    <v>       0.44047403       0.75000000       0.98452232 </v>
    <v>       0.55952597       0.25000000       0.01547768 </v>
    <v>       0.94047403       0.75000000       0.51547768 </v>
    <v>       0.00000000       0.00000000       0.00000000 </v>
    <v>       0.50000000       0.00000000       0.50000000 </v>
    <v>       0.50000000       0.50000000       0.50000000 </v>
    <v>       0.00000000       0.50000000       0.00000000 </v>
    <v>       0.50251581       0.75000000       0.43794249 </v>
    <v>       0.99748419       0.25000000       0.93794249 </v>
    <v>       0.00251581       0.75000000       0.06205751 </v>
    <v>       0.49748419       0.25000000       0.56205751 </v>
    <v>       0.30026275       0.46708064       0.19772687 </v>
    <v>       0.19973725       0.53291936       0.69772687 </v>
    <v>       0.80026275       0.03291936       0.30227313 </v>
    <v>       0.69973725       0.96708064       0.80227313 </v>
    <v>       0.30026275       0.03291936       0.19772687 </v>
    <v>       0.19973725       0.96708064       0.69772687 </v>
    <v>       0.69973725       0.53291936       0.80227313 </v>
    <v>       0.80026275       0.46708064       0.30227313 </v>
   </varray>
  </structure>
  <varray name="forces" >
   <v>      -0.00575999       0.00000000       0.00315292 </v>
   <v>       0.00575999       0.00000000       0.00315292 </v>
   <v>      -0.00575999       0.00000000      -0.00315292 </v>
   <v>       0.00575999       0.00000000      -0.00315292 </v>
   <v>      -0.00000000       0.00000000       0.00000000 </v>
   <v>      -0.00000000       0.00000000      -0.00000000 </v>
   <v>      -0.00000000       0.00000000       0.00000000 </v>
   <v>      -0.00000000       0.00000000      -0.00000000 </v>
   <v>      -0.00072530       0.00000000      -0.01486881 </v>
   <v>       0.00072530       0.00000000      -0.01486881 </v>
   <v>      -0.00072530       0.00000000       0.01486881 </v>
   <v>       0.00072530       0.00000000       0.01486881 </v>
   <v>       0.00916626      -0.00611336       0.00744382 </v>
   <v>      -0.00916626       0.00611336       0.00744382 </v>
   <v>       0.00916626       0.00611336      -0.00744382 </v>
   <v>      -0.00916626      -0.00611336      -0.00744382 </v>
   <v>       0.00916626       0.00611336       0.00744382 </v>
   <v>      -0.00916626      -0.00611336       0.00744382 </v>
   <v>      -0.00916626       0.00611336      -0.00744382 </v>
   <v>       0.00916626      -0.00611336      -0.00744382 </v>
  </varray>
  <varray name="stress" >
   <v>      -1.83641955       0.00000000       0.00000000 </v>
   <v>       0.00000000      -4.92404399       0.00000000 </v>
   <v>       0.00000000       0.00000000      -3.39662400 </v>
  </varray>
  <energy>
   <i name="e_fr_energy">   -714.91024137 </i>
   <i name="e_wo_entrp">   -714.91024137 </i>
   <i name="e_0_energy">     -0.00000000 </i>
  </energy>
  <time name="totalsc">  107.58  108.10</time>
  <eigenvalues>
   <array>
    <dimension dim="1">band</dimension>
    <dimension dim="2">kpoint</dimension>
    <dimension dim="3">spin</dimension>
    <field>eigene</field>
    <field>occ</field>
    <set>
     <set comment="spin 1">
      <set comment="kpoint 1">
       <r>  -20.8295    1.0000 </r>
       <r>  -20.8279    1.0000 </r>
       <r>  -20.8259    1.0000 </r>
       <r>  -20.8248    1.0000 </r>
       <r>  -16.4975    1.0000 </r>
       <r>  -16.4947    1.0000 </r>
       <r>  -16.4947    1.0000 </r>
       <r>  -16.4706    1.0000 </r>
       <r>  -16.4464    1.0000 </r>
       <r>  -16.4140    1.0000 </r>
       <r>  -16.4074    1.0000 </r>
       <r>  -16.4072    1.0000 </r>
       <r>  -16.3481    1.0000 </r>
       <r>  -16.3476    1.0000 </r>
       <r>  -16.3469    1.0000 </r>
       <r>  -16.3463    1.0000 </r>
       <r>  -16.3451    1.0000 </r>
       <r>  -16.3445    1.0000 </r>
       <r>  -16.3444    1.0000 </r>
       <r>  -16.3437    1.0000 </r>
       <r>  -16.3372    1.0000 </r>
       <r>  -16.3370    1.0000 </r>
       <r>  -16.3358    1.0000 </r>
       <r>  -16.3354    1.0000 </r>
       <r>  -14.3458    1.0000 </r>
       <r>  -14.1814    1.0000 </r>
       <r>  -14.0296    1.0000 </r>
       <r>  -14.0248    1.0000 </r>
       <r>  -14.0191    1.0000 </r>
       <r>  -14.0178    1.0000 </r>
       <r>  -14.0118    1.0000 </r>
       <r>  -14.0051    1.0000 </r>
       <r>  -13.9540    1.0000 </r>
       <r>  -13.7611    1.0000 </r>
       <r>  -13.7594    1.0000 </r>
       <r>  -13.7572    1.0000 </r>
       <r>   -8.1790    1.0000 </r>
       <r>   -7.7049    1.0000 </r>
       <r>   -7.2674    1.0000 </r>
       <r>   -7.2571    1.0000 </r>
       <r>   -7.2548    1.0000 </r>
       <r>   -7.2405    1.0000 </r>
       <r>   -7.2318    1.0000 </r>
       <r>   -7.2267    1.0000 </r>
       <r>   -7.2195    1.0000 </r>
       <r>   -7.2169    1.0000 </r>
       <r>   -7.2086    1.0000 </r>
       <r>   -7.2018    1.0000 </r>
       <r>   -7.1944    1.0000 </r>
       <r>   -7.1912    1.0000 </r>
       <r>   -7.1476    1.0000 </r>
       <r>   -6.5705    1.0000 </r>
       <r>   -3.2975    1.0000 </r>
       <r>   -3.2903    1.0000 </r>
       <r>   -3.2595    1.0000 </r>
       <r>   -3.1991    1.0000 </r>
       <r>   -3.1507    1.0000 </r>
       <r>   -3.0509    1.0000 </r>
       <r>   -2.1493    1.0000 </r>
       <r>   -1.9352    1.0000 </r>
       <r>   -1.9076    1.0000 </r>
       <r>   -1.8800    1.0000 </r>
       <r>   -1.8522    1.0000 </r>
       <r>   -1.7572    1.0000 </r>
       <r>   -1.6153    1.0000 </r>
       <r>   -1.5324    1.0000 </r>
       <r>   -1.5299    1.0000 </r>
       <r>   -1.5201    1.0000 </r>
       <r>   -1.4337    1.0000 </r>
       <r>   -1.4275    1.0000 </r>
       <r>   -1.4148    1.0000 </r>
       <r>   -1.3965    1.0000 </r>
       <r>   -1.3738    1.0000 </r>
       <r>   -1.3395    1.0000 </r>
       <r>   -1.3347    1.0000 </r>
       <r>   -1.3282    1.0000 </r>
       <r>   -1.3067    1.0000 </r>
       <r>   -1.2489    1.0000 </r>
       <r>   -1.1514    1.0000 </r>
       <r>   -1.1297    1.0000 </r>
       <r>   -1.1155    1.0000 </r>
       <r>   -1.0830    1.0000 </r>
       <r>   -1.0241    1.0000 </r>
       <r>   -0.9900    1.0000 </r>
       <r>   -0.8358    1.0000 </r>
       <r>   -0.6633    1.0000 </r>
       <r>   -0.1683    1.0000 </r>
       <r>    0.4045    1.0000 </r>
       <r>    2.6989    0.0000 </r>
       <r>    2.7528    0.0000 </r>
       <r>    2.8303    0.0000 </r>
       <r>    3.1350    0.0000 </r>
       <r>    3.2613    0.0000 </r>
       <r>    3.4441    0.0000 </r>
       <r>    4.8483    0.0000 </r>
       <r>    5.5784    0.0000 </r>
       <r>    5.7801    0.0000 </r>
       <r>    5.9435    0.0000 </r>
       <r>    5.9443    0.0000 </r>
       <r>    6.0234    0.0000 </r>
       <r>    6.1044    0.0000 </r>
       <r>    6.1395    0.0000 </r>
       <r>    6.2911    0.0000 </r>
       <r>    6.3685    0.0000 </r>
       <r>    6.4441    0.0000 </r>
       <r>    6.4680    0.0000 </r>
       <r>    6.5256    0.0000 </r>
       <r>    6.6933    0.0000 </r>
       <r>    6.7972    0.0000 </r>
       <r>    6.8429    0.0000 </r>
       <r>    6.8535    0.0000 </r>
       <r>    6.9890    0.0000 </r>
      </set>
      <set comment="kpoint 2">
       <r>  -20.8285    1.0000 </r>
       <r>  -20.8271    1.0000 </r>
       <r>  -20.8267    1.0000 </r>
       <r>  -20.8256    1.0000 </r>
       <r>  -16.4906    1.0000 </r>
       <r>  -16.4772    1.0000 </r>
       <r>  -16.4741    1.0000 </r>
       <r>  -16.4739    1.0000 </r>
       <r>  -16.4380    1.0000 </r>
       <r>  -16.4304    1.0000 </r>
       <r>  -16.4303    1.0000 </r>
       <r>  -16.4219    1.0000 </r>
       <r>  -16.3477    1.0000 </r>
       <r>  -16.3473    1.0000 </r>
       <r>  -16.3472    1.0000 </r>
       <r>  -16.3466    1.0000 </r>
       <r>  -16.3449    1.0000 </r>
       <r>  -16.3446    1.0000 </r>
       <r>  -16.3441    1.0000 </r>
       <r>  -16.3438    1.0000 </r>
       <r>  -16.3369    1.0000 </r>
       <r>  -16.3366    1.0000 </r>
       <r>  -16.3361    1.0000 </r>
       <r>  -16.3359    1.0000 </r>
       <r>  -14.2962    1.0000 </r>
       <r>  -14.1636    1.0000 </r>
       <r>  -14.1435    1.0000 </r>
       <r>  -14.0625    1.0000 </r>
       <r>  -14.0120    1.0000 </r>
       <r>  -14.0089    1.0000 </r>
       <r>  -13.9582    1.0000 </r>
       <r>  -13.9529    1.0000 </r>
       <r>  -13.8505    1.0000 </r>
       <r>  -13.8269    1.0000 </r>
       <r>  -13.8239    1.0000 </r>
       <r>  -13.7783    1.0000 </r>
       <r>   -7.9675    1.0000 </r>
       <r>   -7.4893    1.0000 </r>
       <r>   -7.4880    1.0000 </r>
       <r>   -7.2693    1.0000 </r>
       <r>   -7.2431    1.0000 </r>
       <r>   -7.2430    1.0000 </r>
       <r>   -7.2296    1.0000 </r>
       <r>   -7.2277    1.0000 </r>
       <r>   -7.2184    1.0000 </r>
       <r>   -7.2114    1.0000 </r>
       <r>   -7.2032    1.0000 </r>
       <r>   -7.1991    1.0000 </r>
       <r>   -7.1930    1.0000 </r>
       <r>   -7.1924    1.0000 </r>
       <r>   -7.1852    1.0000 </r>
       <r>   -6.9174    1.0000 </r>
       <r>   -3.2261    1.0000 </r>
       <r>   -3.1221    1.0000 </r>
       <r>   -2.9967    1.0000 </r>
       <r>   -2.8812    1.0000 </r>
       <r>   -2.7351    1.0000 </r>
       <r>   -2.7121    1.0000 </r>
       <r>   -2.2437    1.0000 </r>
       <r>   -2.1128    1.0000 </r>
       <r>   -2.0895    1.0000 </r>
       <r>   -1.9813    1.0000 </r>
       <r>   -1.9728    1.0000 </r>
       <r>   -1.9355    1.0000 </r>
       <r>   -1.8218    1.0000 </r>
       <r>   -1.7032    1.0000 </r>
       <r>   -1.6727    1.0000 </r>
       <r>   -1.6202    1.0000 </r>
       <r>   -1.4419    1.0000 </r>
       <r>   -1.4412    1.0000 </r>
       <r>   -1.4037    1.0000 </r>
       <r>   -1.3968    1.0000 </r>
       <r>   -1.3724    1.0000 </r>
       <r>   -1.3625    1.0000 </r>
       <r>   -1.3221    1.0000 </r>
       <r>   -1.3133    1.0000 </r>
       <r>   -1.2351    1.0000 </r>
       <r>   -1.2213    1.0000 </r>
       <r>   -1.2201    1.0000 </r>
       <r>   -1.2094    1.0000 </r>
       <r>   -1.1450    1.0000 </r>
       <r>   -1.1411    1.0000 </r>
       <r>   -1.0540    1.0000 </r>
       <r>   -1.0262    1.0000 </r>
       <r>   -0.8314    1.0000 </r>
       <r>   -0.6891    1.0000 </r>
       <r>   -0.5573    1.0000 </r>
       <r>   -0.1364    1.0000 </r>
       <r>    2.8773    0.0000 </r>
       <r>    3.2355    0.0000 </r>
       <r>    3.5666    0.0000 </r>
       <r>    3.7050    0.0000 </r>
       <r>    3.8977    0.0000 </r>
       <r>    4.0745    0.0000 </r>
       <r>    5.0874    0.0000 </r>
       <r>    5.1078    0.0000 </r>
       <r>    5.1579    0.0000 </r>
       <r>    5.4026    0.0000 </r>
       <r>    5.7216    0.0000 </r>
       <r>    5.7595    0.0000 </r>
       <r>    6.0675    0.0000 </r>
       <r>    6.1788    0.0000 </r>
       <r>    6.4031    0.0000 </r>
       <r>    6.4041    0.0000 </r>
       <r>    6.4281    0.0000 </r>
       <r>    6.4354    0.0000 </r>
       <r>    6.4844    0.0000 </r>
       <r>    6.6794    0.0000 </r>
       <r>    6.8093    0.0000 </r>
       <r>    7.0231    0.0000 </r>
       <r>    7.0428    0.0000 </r>
       <r>    7.0835    0.0000 </r>
      </set>
      <set comment="kpoint 3">
       <r>  -20.8287    1.0000 </r>
       <r>  -20.8287    1.0000 </r>
       <r>  -20.8253    1.0000 </r>
       <r>  -20.8253    1.0000 </r>
       <r>  -16.4947    1.0000 </r>
       <r>  -16.4947    1.0000 </r>
       <r>  -16.4721    1.0000 </r>
       <r>  -16.4721    1.0000 </r>
       <r>  -16.4426    1.0000 </r>
       <r>  -16.4426    1.0000 </r>
       <r>  -16.4072    1.0000 </r>
       <r>  -16.4072    1.0000 </r>
       <r>  -16.3477    1.0000 </r>
       <r>  -16.3477    1.0000 </r>
       <r>  -16.3467    1.0000 </r>
       <r>  -16.3467    1.0000 </r>
       <r>  -16.3446    1.0000 </r>
       <r>  -16.3446    1.0000 </r>
       <r>  -16.3440    1.0000 </r>
       <r>  -16.3440    1.0000 </r>
       <r>  -16.3370    1.0000 </r>
       <r>  -16.3370    1.0000 </r>
       <r>  -16.3356    1.0000 </r>
       <r>  -16.3356    1.0000 </r>
       <r>  -14.2908    1.0000 </r>
       <r>  -14.2908    1.0000 </r>
       <r>  -14.0240    1.0000 </r>
       <r>  -14.0240    1.0000 </r>
       <r>  -14.0210    1.0000 </r>
       <r>  -14.0210    1.0000 </r>
       <r>  -13.9794    1.0000 </r>
       <r>  -13.9794    1.0000 </r>
       <r>  -13.8571    1.0000 </r>
       <r>  -13.8571    1.0000 </r>
       <r>  -13.7602    1.0000 </r>
       <r>  -13.7602    1.0000 </r>
       <r>   -7.9596    1.0000 </r>
       <r>   -7.9596    1.0000 </r>
       <r>   -7.2610    1.0000 </r>
       <r>   -7.2610    1.0000 </r>
       <r>   -7.2466    1.0000 </r>
       <r>   -7.2466    1.0000 </r>
       <r>   -7.2214    1.0000 </r>
       <r>   -7.2214    1.0000 </r>
       <r>   -7.2151    1.0000 </r>
       <r>   -7.2151    1.0000 </r>
       <r>   -7.2089    1.0000 </r>
       <r>   -7.2089    1.0000 </r>
       <r>   -7.1986    1.0000 </r>
       <r>   -7.1986    1.0000 </r>
       <r>   -6.9064    1.0000 </r>
       <r>   -6.9064    1.0000 </r>
       <r>   -3.2503    1.0000 </r>
       <r>   -3.2503    1.0000 </r>
       <r>   -3.2233    1.0000 </r>
       <r>   -3.2233    1.0000 </r>
       <r>   -2.4763    1.0000 </r>
       <r>   -2.4763    1.0000 </r>
       <r>   -2.3080    1.0000 </r>
       <r>   -2.3080    1.0000 </r>
       <r>   -2.0339    1.0000 </r>
       <r>   -2.0339    1.0000 </r>
       <r>   -1.8019    1.0000 </r>
       <r>   -1.8019    1.0000 </r>
       <r>   -1.7912    1.0000 </r>
       <r>   -1.7912    1.0000 </r>
       <r>   -1.4999    1.0000 </r>
       <r>   -1.4999    1.0000 </r>
       <r>   -1.4789    1.0000 </r>
       <r>   -1.4789    1.0000 </r>
       <r>   -1.3544    1.0000 </r>
       <r>   -1.3544    1.0000 </r>
       <r>   -1.3410    1.0000 </r>
       <r>   -1.3410    1.0000 </r>
       <r>   -1.3224    1.0000 </r>
       <r>   -1.3224    1.0000 </r>
       <r>   -1.2122    1.0000 </r>
       <r>   -1.2122    1.0000 </r>
       <r>   -1.1939    1.0000 </r>
       <r>   -1.1939    1.0000 </r>
       <r>   -1.1173    1.0000 </r>
       <r>   -1.1173    1.0000 </r>
       <r>   -1.1037    1.0000 </r>
       <r>   -1.1037    1.0000 </r>
       <r>   -0.8591    1.0000 </r>
       <r>   -0.8591    1.0000 </r>
       <r>   -0.0356    1.0000 </r>
       <r>   -0.0356    1.0000 </r>
       <r>    2.9526    0.0000 </r>
       <r>    2.9526    0.0000 </r>
       <r>    3.0429    0.0000 </r>
       <r>    3.0429    0.0000 </r>
       <r>    4.2145    0.0000 </r>
       <r>    4.2145    0.0000 </r>
       <r>    4.7849    0.0000 </r>
       <r>    4.7849    0.0000 </r>
       <r>    5.4994    0.0000 </r>
       <r>    5.4994    0.0000 </r>
       <r>    6.0235    0.0000 </r>
       <r>    6.0235    0.0000 </r>
       <r>    6.0760    0.0000 </r>
       <r>    6.0760    0.0000 </r>
       <r>    6.2009    0.0000 </r>
       <r>    6.2009    0.0000 </r>
       <r>    6.3441    0.0000 </r>
       <r>    6.3441    0.0000 </r>
       <r>    6.6756    0.0000 </r>
       <r>    6.6756    0.0000 </r>
       <r>    6.8189    0.0000 </r>
       <r>    6.8201    0.0000 </r>
       <r>    6.9225    0.0000 </r>
       <r>    6.9501    0.0000 </r>
      </set>
      <set comment="kpoint 4">
       <r>  -20.8277    1.0000 </r>
       <r>  -20.8277    1.0000 </r>
       <r>  -20.8261    1.0000 </r>
       <r>  -20.8261    1.0000 </r>
       <r>  -16.4740    1.0000 </r>
       <r>  -16.4740    1.0000 </r>
       <r>  -16.4646    1.0000 </r>
       <r>  -16.4646    1.0000 </r>
       <r>  -16.4498    1.0000 </r>
       <r>  -16.4498    1.0000 </r>
       <r>  -16.4303    1.0000 </r>
       <r>  -16.4303    1.0000 </r>
       <r>  -16.3475    1.0000 </r>
       <r>  -16.3475    1.0000 </r>
       <r>  -16.3468    1.0000 </r>
       <r>  -16.3468    1.0000 </r>
       <r>  -16.3444    1.0000 </r>
       <r>  -16.3444    1.0000 </r>
       <r>  -16.3441    1.0000 </r>
       <r>  -16.3441    1.0000 </r>
       <r>  -16.3367    1.0000 </r>
       <r>  -16.3367    1.0000 </r>
       <r>  -16.3359    1.0000 </r>
       <r>  -16.3359    1.0000 </r>
       <r>  -14.2464    1.0000 </r>
       <r>  -14.2464    1.0000 </r>
       <r>  -14.1332    1.0000 </r>
       <r>  -14.1332    1.0000 </r>
       <r>  -13.9561    1.0000 </r>
       <r>  -13.9561    1.0000 </r>
       <r>  -13.9090    1.0000 </r>
       <r>  -13.9090    1.0000 </r>
       <r>  -13.8676    1.0000 </r>
       <r>  -13.8676    1.0000 </r>
       <r>  -13.8254    1.0000 </r>
       <r>  -13.8254    1.0000 </r>
       <r>   -7.7464    1.0000 </r>
       <r>   -7.7464    1.0000 </r>
       <r>   -7.2917    1.0000 </r>
       <r>   -7.2917    1.0000 </r>
       <r>   -7.2418    1.0000 </r>
       <r>   -7.2418    1.0000 </r>
       <r>   -7.2406    1.0000 </r>
       <r>   -7.2406    1.0000 </r>
       <r>   -7.2159    1.0000 </r>
       <r>   -7.2159    1.0000 </r>
       <r>   -7.2059    1.0000 </r>
       <r>   -7.2059    1.0000 </r>
       <r>   -7.2031    1.0000 </r>
       <r>   -7.2031    1.0000 </r>
       <r>   -7.1478    1.0000 </r>
       <r>   -7.1478    1.0000 </r>
       <r>   -2.9417    1.0000 </r>
       <r>   -2.9417    1.0000 </r>
       <r>   -2.8054    1.0000 </r>
       <r>   -2.8054    1.0000 </r>
       <r>   -2.4238    1.0000 </r>
       <r>   -2.4238    1.0000 </r>
       <r>   -2.3791    1.0000 </r>
       <r>   -2.3791    1.0000 </r>
       <r>   -2.1698    1.0000 </r>
       <r>   -2.1698    1.0000 </r>
       <r>   -2.0451    1.0000 </r>
       <r>   -2.0451    1.0000 </r>
       <r>   -1.7348    1.0000 </r>
       <r>   -1.7348    1.0000 </r>
       <r>   -1.6752    1.0000 </r>
       <r>   -1.6752    1.0000 </r>
       <r>   -1.5577    1.0000 </r>
       <r>   -1.5577    1.0000 </r>
       <r>   -1.4970    1.0000 </r>
       <r>   -1.4970    1.0000 </r>
       <r>   -1.3762    1.0000 </r>
       <r>   -1.3762    1.0000 </r>
       <r>   -1.3522    1.0000 </r>
       <r>   -1.3522    1.0000 </r>
       <r>   -1.1753    1.0000 </r>
       <r>   -1.1753    1.0000 </r>
       <r>   -1.1379    1.0000 </r>
       <r>   -1.1379    1.0000 </r>
       <r>   -1.1124    1.0000 </r>
       <r>   -1.1124    1.0000 </r>
       <r>   -1.1017    1.0000 </r>
       <r>   -1.1017    1.0000 </r>
       <r>   -0.8398    1.0000 </r>
       <r>   -0.8398    1.0000 </r>
       <r>   -0.5840    1.0000 </r>
       <r>   -0.5840    1.0000 </r>
       <r>    3.7241    0.0000 </r>
       <r>    3.7241    0.0000 </r>
       <r>    3.8613    0.0000 </r>
       <r>    3.8613    0.0000 </r>
       <r>    4.3650    0.0000 </r>
       <r>    4.3650    0.0000 </r>
       <r>    4.6267    0.0000 </r>
       <r>    4.6267    0.0000 </r>
       <r>    5.2174    0.0000 </r>
       <r>    5.2174    0.0000 </r>
       <r>    5.2353    0.0000 </r>
       <r>    5.2353    0.0000 </r>
       <r>    6.0172    0.0000 </r>
       <r>    6.0172    0.0000 </r>
       <r>    6.3063    0.0000 </r>
       <r>    6.3063    0.0000 </r>
       <r>    6.4938    0.0000 </r>
       <r>    6.4938    0.0000 </r>
       <r>    6.6117    0.0000 </r>
       <r>    6.6117    0.0000 </r>
       <r>    6.6875    0.0000 </r>
       <r>    6.6875    0.0000 </r>
       <r>    6.8739    0.0000 </r>
       <r>    6.8743    0.0000 </r>
      </set>
      <set comment="kpoint 5">
       <r>  -20.8286    1.0000 </r>
       <r>  -20.8273    1.0000 </r>
       <r>  -20.8264    1.0000 </r>
       <r>  -20.8255    1.0000 </r>
       <r>  -16.4905    1.0000 </r>
       <r>  -16.4771    1.0000 </r>
       <r>  -16.4741    1.0000 </r>
       <r>  -16.4740    1.0000 </r>
       <r>  -16.4380    1.0000 </r>
       <r>  -16.4304    1.0000 </r>
       <r>  -16.4303    1.0000 </r>
       <r>  -16.4218    1.0000 </r>
       <r>  -16.3477    1.0000 </r>
       <r>  -16.3472    1.0000 </r>
       <r>  -16.3472    1.0000 </r>
       <r>  -16.3467    1.0000 </r>
       <r>  -16.3449    1.0000 </r>
       <r>  -16.3446    1.0000 </r>
       <r>  -16.3440    1.0000 </r>
       <r>  -16.3438    1.0000 </r>
       <r>  -16.3368    1.0000 </r>
       <r>  -16.3366    1.0000 </r>
       <r>  -16.3361    1.0000 </r>
       <r>  -16.3358    1.0000 </r>
       <r>  -14.2955    1.0000 </r>
       <r>  -14.1615    1.0000 </r>
       <r>  -14.1432    1.0000 </r>
       <r>  -14.0615    1.0000 </r>
       <r>  -14.0122    1.0000 </r>
       <r>  -14.0099    1.0000 </r>
       <r>  -13.9609    1.0000 </r>
       <r>  -13.9538    1.0000 </r>
       <r>  -13.8509    1.0000 </r>
       <r>  -13.8272    1.0000 </r>
       <r>  -13.8242    1.0000 </r>
       <r>  -13.7784    1.0000 </r>
       <r>   -7.9647    1.0000 </r>
       <r>   -7.4892    1.0000 </r>
       <r>   -7.4719    1.0000 </r>
       <r>   -7.2526    1.0000 </r>
       <r>   -7.2466    1.0000 </r>
       <r>   -7.2387    1.0000 </r>
       <r>   -7.2367    1.0000 </r>
       <r>   -7.2293    1.0000 </r>
       <r>   -7.2262    1.0000 </r>
       <r>   -7.2189    1.0000 </r>
       <r>   -7.2081    1.0000 </r>
       <r>   -7.1999    1.0000 </r>
       <r>   -7.1970    1.0000 </r>
       <r>   -7.1872    1.0000 </r>
       <r>   -7.1820    1.0000 </r>
       <r>   -6.9174    1.0000 </r>
       <r>   -3.2271    1.0000 </r>
       <r>   -3.1212    1.0000 </r>
       <r>   -2.9796    1.0000 </r>
       <r>   -2.8669    1.0000 </r>
       <r>   -2.7685    1.0000 </r>
       <r>   -2.7019    1.0000 </r>
       <r>   -2.2980    1.0000 </r>
       <r>   -2.0971    1.0000 </r>
       <r>   -2.0953    1.0000 </r>
       <r>   -2.0095    1.0000 </r>
       <r>   -1.9704    1.0000 </r>
       <r>   -1.9039    1.0000 </r>
       <r>   -1.7979    1.0000 </r>
       <r>   -1.7085    1.0000 </r>
       <r>   -1.6359    1.0000 </r>
       <r>   -1.6283    1.0000 </r>
       <r>   -1.4577    1.0000 </r>
       <r>   -1.4504    1.0000 </r>
       <r>   -1.4305    1.0000 </r>
       <r>   -1.3695    1.0000 </r>
       <r>   -1.3607    1.0000 </r>
       <r>   -1.3369    1.0000 </r>
       <r>   -1.3180    1.0000 </r>
       <r>   -1.3017    1.0000 </r>
       <r>   -1.2505    1.0000 </r>
       <r>   -1.2479    1.0000 </r>
       <r>   -1.2036    1.0000 </r>
       <r>   -1.1908    1.0000 </r>
       <r>   -1.1333    1.0000 </r>
       <r>   -1.1054    1.0000 </r>
       <r>   -1.0428    1.0000 </r>
       <r>   -1.0160    1.0000 </r>
       <r>   -0.9150    1.0000 </r>
       <r>   -0.7087    1.0000 </r>
       <r>   -0.5814    1.0000 </r>
       <r>   -0.1740    1.0000 </r>
       <r>    2.8738    0.0000 </r>
       <r>    3.2261    0.0000 </r>
       <r>    3.5752    0.0000 </r>
       <r>    3.6687    0.0000 </r>
       <r>    3.9406    0.0000 </r>
       <r>    4.0374    0.0000 </r>
       <r>    5.0066    0.0000 </r>
       <r>    5.1206    0.0000 </r>
       <r>    5.2438    0.0000 </r>
       <r>    5.3649    0.0000 </r>
       <r>    5.7139    0.0000 </r>
       <r>    5.7233    0.0000 </r>
       <r>    6.0569    0.0000 </r>
       <r>    6.1179    0.0000 </r>
       <r>    6.1259    0.0000 </r>
       <r>    6.3712    0.0000 </r>
       <r>    6.5159    0.0000 </r>
       <r>    6.5649    0.0000 </r>
       <r>    6.6793    0.0000 </r>
       <r>    6.8333    0.0000 </r>
       <r>    6.8455    0.0000 </r>
       <r>    6.8783    0.0000 </r>
       <r>    6.9134    0.0000 </r>
       <r>    6.9898    0.0000 </r>
      </set>
      <set comment="kpoint 6">
       <r>  -20.8280    1.0000 </r>
       <r>  -20.8272    1.0000 </r>
       <r>  -20.8266    1.0000 </r>
       <r>  -20.8258    1.0000 </r>
       <r>  -16.4965    1.0000 </r>
       <r>  -16.4872    1.0000 </r>
       <r>  -16.4733    1.0000 </r>
       <r>  -16.4551    1.0000 </r>
       <r>  -16.4540    1.0000 </r>
       <r>  -16.4348    1.0000 </r>
       <r>  -16.4238    1.0000 </r>
       <r>  -16.4121    1.0000 </r>
       <r>  -16.3476    1.0000 </r>
       <r>  -16.3474    1.0000 </r>
       <r>  -16.3471    1.0000 </r>
       <r>  -16.3468    1.0000 </r>
       <r>  -16.3448    1.0000 </r>
       <r>  -16.3446    1.0000 </r>
       <r>  -16.3439    1.0000 </r>
       <r>  -16.3438    1.0000 </r>
       <r>  -16.3366    1.0000 </r>
       <r>  -16.3364    1.0000 </r>
       <r>  -16.3363    1.0000 </r>
       <r>  -16.3360    1.0000 </r>
       <r>  -14.2445    1.0000 </r>
       <r>  -14.1457    1.0000 </r>
       <r>  -14.1021    1.0000 </r>
       <r>  -14.0354    1.0000 </r>
       <r>  -14.0317    1.0000 </r>
       <r>  -14.0124    1.0000 </r>
       <r>  -14.0069    1.0000 </r>
       <r>  -13.9756    1.0000 </r>
       <r>  -13.9283    1.0000 </r>
       <r>  -13.8813    1.0000 </r>
       <r>  -13.7818    1.0000 </r>
       <r>  -13.7492    1.0000 </r>
       <r>   -7.8360    1.0000 </r>
       <r>   -7.5926    1.0000 </r>
       <r>   -7.3562    1.0000 </r>
       <r>   -7.2435    1.0000 </r>
       <r>   -7.2371    1.0000 </r>
       <r>   -7.2307    1.0000 </r>
       <r>   -7.2258    1.0000 </r>
       <r>   -7.2209    1.0000 </r>
       <r>   -7.2173    1.0000 </r>
       <r>   -7.2095    1.0000 </r>
       <r>   -7.2063    1.0000 </r>
       <r>   -7.2015    1.0000 </r>
       <r>   -7.1944    1.0000 </r>
       <r>   -7.1914    1.0000 </r>
       <r>   -7.1747    1.0000 </r>
       <r>   -7.0326    1.0000 </r>
       <r>   -3.2168    1.0000 </r>
       <r>   -3.2053    1.0000 </r>
       <r>   -3.1762    1.0000 </r>
       <r>   -3.0652    1.0000 </r>
       <r>   -2.8213    1.0000 </r>
       <r>   -2.6850    1.0000 </r>
       <r>   -2.2202    1.0000 </r>
       <r>   -2.1018    1.0000 </r>
       <r>   -2.0773    1.0000 </r>
       <r>   -2.0685    1.0000 </r>
       <r>   -1.9769    1.0000 </r>
       <r>   -1.7376    1.0000 </r>
       <r>   -1.7315    1.0000 </r>
       <r>   -1.6563    1.0000 </r>
       <r>   -1.5428    1.0000 </r>
       <r>   -1.5227    1.0000 </r>
       <r>   -1.4470    1.0000 </r>
       <r>   -1.4297    1.0000 </r>
       <r>   -1.4043    1.0000 </r>
       <r>   -1.3910    1.0000 </r>
       <r>   -1.3881    1.0000 </r>
       <r>   -1.3545    1.0000 </r>
       <r>   -1.3374    1.0000 </r>
       <r>   -1.2941    1.0000 </r>
       <r>   -1.2935    1.0000 </r>
       <r>   -1.2684    1.0000 </r>
       <r>   -1.2656    1.0000 </r>
       <r>   -1.2339    1.0000 </r>
       <r>   -1.2157    1.0000 </r>
       <r>   -1.1365    1.0000 </r>
       <r>   -1.0742    1.0000 </r>
       <r>   -1.0416    1.0000 </r>
       <r>   -0.8494    1.0000 </r>
       <r>   -0.6711    1.0000 </r>
       <r>   -0.4300    1.0000 </r>
       <r>   -0.1302    1.0000 </r>
       <r>    2.9600    0.0000 </r>
       <r>    3.0654    0.0000 </r>
       <r>    3.1331    0.0000 </r>
       <r>    3.4464    0.0000 </r>
       <r>    3.8888    0.0000 </r>
       <r>    4.2220    0.0000 </r>
       <r>    4.8246    0.0000 </r>
       <r>    5.2303    0.0000 </r>
       <r>    5.5252    0.0000 </r>
       <r>    5.8802    0.0000 </r>
       <r>    5.8936    0.0000 </r>
       <r>    5.9820    0.0000 </r>
       <r>    6.0565    0.0000 </r>
       <r>    6.3247    0.0000 </r>
       <r>    6.3701    0.0000 </r>
       <r>    6.5294    0.0000 </r>
       <r>    6.6113    0.0000 </r>
       <r>    6.6725    0.0000 </r>
       <r>    6.7171    0.0000 </r>
       <r>    6.7366    0.0000 </r>
       <r>    6.9020    0.0000 </r>
       <r>    6.9092    0.0000 </r>
       <r>    7.0023    0.0000 </r>
       <r>    7.1475    0.0000 </r>
      </set>
      <set comment="kpoint 7">
       <r>  -20.8279    1.0000 </r>
       <r>  -20.8279    1.0000 </r>
       <r>  -20.8260    1.0000 </r>
       <r>  -20.8260    1.0000 </r>
       <r>  -16.4740    1.0000 </r>
       <r>  -16.4740    1.0000 </r>
       <r>  -16.4645    1.0000 </r>
       <r>  -16.4645    1.0000 </r>
       <r>  -16.4498    1.0000 </r>
       <r>  -16.4498    1.0000 </r>
       <r>  -16.4304    1.0000 </r>
       <r>  -16.4304    1.0000 </r>
       <r>  -16.3475    1.0000 </r>
       <r>  -16.3475    1.0000 </r>
       <r>  -16.3469    1.0000 </r>
       <r>  -16.3469    1.0000 </r>
       <r>  -16.3445    1.0000 </r>
       <r>  -16.3445    1.0000 </r>
       <r>  -16.3442    1.0000 </r>
       <r>  -16.3442    1.0000 </r>
       <r>  -16.3367    1.0000 </r>
       <r>  -16.3367    1.0000 </r>
       <r>  -16.3360    1.0000 </r>
       <r>  -16.3360    1.0000 </r>
       <r>  -14.2460    1.0000 </r>
       <r>  -14.2460    1.0000 </r>
       <r>  -14.1318    1.0000 </r>
       <r>  -14.1318    1.0000 </r>
       <r>  -13.9581    1.0000 </r>
       <r>  -13.9581    1.0000 </r>
       <r>  -13.9096    1.0000 </r>
       <r>  -13.9096    1.0000 </r>
       <r>  -13.8674    1.0000 </r>
       <r>  -13.8674    1.0000 </r>
       <r>  -13.8257    1.0000 </r>
       <r>  -13.8257    1.0000 </r>
       <r>   -7.7444    1.0000 </r>
       <r>   -7.7444    1.0000 </r>
       <r>   -7.2725    1.0000 </r>
       <r>   -7.2725    1.0000 </r>
       <r>   -7.2536    1.0000 </r>
       <r>   -7.2536    1.0000 </r>
       <r>   -7.2320    1.0000 </r>
       <r>   -7.2320    1.0000 </r>
       <r>   -7.2100    1.0000 </r>
       <r>   -7.2100    1.0000 </r>
       <r>   -7.2076    1.0000 </r>
       <r>   -7.2076    1.0000 </r>
       <r>   -7.1901    1.0000 </r>
       <r>   -7.1901    1.0000 </r>
       <r>   -7.1773    1.0000 </r>
       <r>   -7.1773    1.0000 </r>
       <r>   -2.9283    1.0000 </r>
       <r>   -2.9283    1.0000 </r>
       <r>   -2.8125    1.0000 </r>
       <r>   -2.8125    1.0000 </r>
       <r>   -2.4450    1.0000 </r>
       <r>   -2.4450    1.0000 </r>
       <r>   -2.3823    1.0000 </r>
       <r>   -2.3823    1.0000 </r>
       <r>   -2.2055    1.0000 </r>
       <r>   -2.2055    1.0000 </r>
       <r>   -2.0362    1.0000 </r>
       <r>   -2.0362    1.0000 </r>
       <r>   -1.7167    1.0000 </r>
       <r>   -1.7167    1.0000 </r>
       <r>   -1.6606    1.0000 </r>
       <r>   -1.6606    1.0000 </r>
       <r>   -1.5323    1.0000 </r>
       <r>   -1.5323    1.0000 </r>
       <r>   -1.4607    1.0000 </r>
       <r>   -1.4607    1.0000 </r>
       <r>   -1.3609    1.0000 </r>
       <r>   -1.3609    1.0000 </r>
       <r>   -1.3218    1.0000 </r>
       <r>   -1.3218    1.0000 </r>
       <r>   -1.1901    1.0000 </r>
       <r>   -1.1901    1.0000 </r>
       <r>   -1.1457    1.0000 </r>
       <r>   -1.1457    1.0000 </r>
       <r>   -1.1301    1.0000 </r>
       <r>   -1.1301    1.0000 </r>
       <r>   -1.0798    1.0000 </r>
       <r>   -1.0798    1.0000 </r>
       <r>   -0.8940    1.0000 </r>
       <r>   -0.8940    1.0000 </r>
       <r>   -0.6374    1.0000 </r>
       <r>   -0.6374    1.0000 </r>
       <r>    3.7427    0.0000 </r>
       <r>    3.7427    0.0000 </r>
       <r>    3.8239    0.0000 </r>
       <r>    3.8239    0.0000 </r>
       <r>    4.3495    0.0000 </r>
       <r>    4.3495    0.0000 </r>
       <r>    4.6275    0.0000 </r>
       <r>    4.6275    0.0000 </r>
       <r>    5.1838    0.0000 </r>
       <r>    5.1838    0.0000 </r>
       <r>    5.2451    0.0000 </r>
       <r>    5.2451    0.0000 </r>
       <r>    6.0009    0.0000 </r>
       <r>    6.0009    0.0000 </r>
       <r>    6.2610    0.0000 </r>
       <r>    6.2610    0.0000 </r>
       <r>    6.4730    0.0000 </r>
       <r>    6.4730    0.0000 </r>
       <r>    6.6051    0.0000 </r>
       <r>    6.6051    0.0000 </r>
       <r>    6.7913    0.0000 </r>
       <r>    6.7913    0.0000 </r>
       <r>    6.9775    0.0000 </r>
       <r>    6.9777    0.0000 </r>
      </set>
      <set comment="kpoint 8">
       <r>  -20.8273    1.0000 </r>
       <r>  -20.8273    1.0000 </r>
       <r>  -20.8265    1.0000 </r>
       <r>  -20.8265    1.0000 </r>
       <r>  -16.4809    1.0000 </r>
       <r>  -16.4809    1.0000 </r>
       <r>  -16.4672    1.0000 </r>
       <r>  -16.4672    1.0000 </r>
       <r>  -16.4433    1.0000 </r>
       <r>  -16.4433    1.0000 </r>
       <r>  -16.4277    1.0000 </r>
       <r>  -16.4277    1.0000 </r>
       <r>  -16.3474    1.0000 </r>
       <r>  -16.3474    1.0000 </r>
       <r>  -16.3471    1.0000 </r>
       <r>  -16.3471    1.0000 </r>
       <r>  -16.3444    1.0000 </r>
       <r>  -16.3444    1.0000 </r>
       <r>  -16.3442    1.0000 </r>
       <r>  -16.3442    1.0000 </r>
       <r>  -16.3365    1.0000 </r>
       <r>  -16.3365    1.0000 </r>
       <r>  -16.3361    1.0000 </r>
       <r>  -16.3361    1.0000 </r>
       <r>  -14.1989    1.0000 </r>
       <r>  -14.1989    1.0000 </r>
       <r>  -14.1077    1.0000 </r>
       <r>  -14.1077    1.0000 </r>
       <r>  -14.0313    1.0000 </r>
       <r>  -14.0313    1.0000 </r>
       <r>  -13.9401    1.0000 </r>
       <r>  -13.9401    1.0000 </r>
       <r>  -13.8489    1.0000 </r>
       <r>  -13.8489    1.0000 </r>
       <r>  -13.8195    1.0000 </r>
       <r>  -13.8195    1.0000 </r>
       <r>   -7.6128    1.0000 </r>
       <r>   -7.6128    1.0000 </r>
       <r>   -7.3710    1.0000 </r>
       <r>   -7.3710    1.0000 </r>
       <r>   -7.2411    1.0000 </r>
       <r>   -7.2411    1.0000 </r>
       <r>   -7.2271    1.0000 </r>
       <r>   -7.2271    1.0000 </r>
       <r>   -7.2090    1.0000 </r>
       <r>   -7.2090    1.0000 </r>
       <r>   -7.2032    1.0000 </r>
       <r>   -7.2032    1.0000 </r>
       <r>   -7.2000    1.0000 </r>
       <r>   -7.2000    1.0000 </r>
       <r>   -7.1754    1.0000 </r>
       <r>   -7.1754    1.0000 </r>
       <r>   -3.1504    1.0000 </r>
       <r>   -3.1504    1.0000 </r>
       <r>   -2.7851    1.0000 </r>
       <r>   -2.7851    1.0000 </r>
       <r>   -2.5085    1.0000 </r>
       <r>   -2.5085    1.0000 </r>
       <r>   -2.3841    1.0000 </r>
       <r>   -2.3841    1.0000 </r>
       <r>   -2.1475    1.0000 </r>
       <r>   -2.1475    1.0000 </r>
       <r>   -1.9989    1.0000 </r>
       <r>   -1.9989    1.0000 </r>
       <r>   -1.7400    1.0000 </r>
       <r>   -1.7400    1.0000 </r>
       <r>   -1.6598    1.0000 </r>
       <r>   -1.6598    1.0000 </r>
       <r>   -1.5066    1.0000 </r>
       <r>   -1.5066    1.0000 </r>
       <r>   -1.4209    1.0000 </r>
       <r>   -1.4209    1.0000 </r>
       <r>   -1.3615    1.0000 </r>
       <r>   -1.3615    1.0000 </r>
       <r>   -1.2778    1.0000 </r>
       <r>   -1.2778    1.0000 </r>
       <r>   -1.2458    1.0000 </r>
       <r>   -1.2458    1.0000 </r>
       <r>   -1.1877    1.0000 </r>
       <r>   -1.1877    1.0000 </r>
       <r>   -1.1255    1.0000 </r>
       <r>   -1.1255    1.0000 </r>
       <r>   -1.0736    1.0000 </r>
       <r>   -1.0736    1.0000 </r>
       <r>   -0.8295    1.0000 </r>
       <r>   -0.8295    1.0000 </r>
       <r>   -0.5642    1.0000 </r>
       <r>   -0.5642    1.0000 </r>
       <r>    3.2455    0.0000 </r>
       <r>    3.2455    0.0000 </r>
       <r>    4.0307    0.0000 </r>
       <r>    4.0307    0.0000 </r>
       <r>    4.4248    0.0000 </r>
       <r>    4.4248    0.0000 </r>
       <r>    4.5636    0.0000 </r>
       <r>    4.5636    0.0000 </r>
       <r>    5.0480    0.0000 </r>
       <r>    5.0480    0.0000 </r>
       <r>    5.7777    0.0000 </r>
       <r>    5.7777    0.0000 </r>
       <r>    6.2650    0.0000 </r>
       <r>    6.2650    0.0000 </r>
       <r>    6.4122    0.0000 </r>
       <r>    6.4122    0.0000 </r>
       <r>    6.6118    0.0000 </r>
       <r>    6.6118    0.0000 </r>
       <r>    6.7234    0.0000 </r>
       <r>    6.7234    0.0000 </r>
       <r>    6.8306    0.0000 </r>
       <r>    6.8306    0.0000 </r>
       <r>    6.9465    0.0000 </r>
       <r>    6.9466    0.0000 </r>
      </set>
     </set>
    </set>
   </array>
  </eigenvalues>
  <separator name="orbital magnetization" >
   <v name="MAGDIPOLOUT">      0.00000000      0.00000000      0.00000000</v>
  </separator>
  <dos>
   <i name="efermi">      0.46795904 </i>
   <total>
    <array>
     <dimension dim="1">gridpoints</dimension>
     <dimension dim="2">spin</dimension>
     <field>energy</field>
     <field>total</field>
     <field>integrated</field>
     <set>
      <set comment="spin 1">
       <r>   -22.2283     0.0000     0.0000 </r>
       <r>   -22.1257     0.0000     0.0000 </r>
       <r>   -22.0232     0.0000     0.0000 </r>
       <r>   -21.9206     0.0000     0.0000 </r>
       <r>   -21.8180     0.0000     0.0000 </r>
       <r>   -21.7154     0.0000     0.0000 </r>
       <r>   -21.6128     0.0000     0.0000 </r>
       <r>   -21.5102     0.0000     0.0000 </r>
       <r>   -21.4077     0.0000     0.0000 </r>
       <r>   -21.3051     0.0000     0.0000 </r>
       <r>   -21.2025     0.0000     0.0000 </r>
       <r>   -21.0999     0.0000     0.0000 </r>
       <r>   -20.9973     0.0000     0.0000 </r>
       <r>   -20.8948     0.0000     0.0000 </r>
       <r>   -20.7922    77.9863     8.0000 </r>
       <r>   -20.6896     0.0000     8.0000 </r>
       <r>   -20.5870     0.0000     8.0000 </r>
       <r>   -20.4844     0.0000     8.0000 </r>
       <r>   -20.3818     0.0000     8.0000 </r>
       <r>   -20.2793     0.0000     8.0000 </r>
       <r>   -20.1767     0.0000     8.0000 </r>
       <r>   -20.0741     0.0000     8.0000 </r>
       <r>   -19.9715     0.0000     8.0000 </r>
       <r>   -19.8689     0.0000     8.0000 </r>
       <r>   -19.7664     0.0000     8.0000 </r>
       <r>   -19.6638     0.0000     8.0000 </r>
       <r>   -19.5612     0.0000     8.0000 </r>
       <r>   -19.4586     0.0000     8.0000 </r>
       <r>   -19.3560     0.0000     8.0000 </r>
       <r>   -19.2534     0.0000     8.0000 </r>
       <r>   -19.1509     0.0000     8.0000 </r>
       <r>   -19.0483     0.0000     8.0000 </r>
       <r>   -18.9457     0.0000     8.0000 </r>
       <r>   -18.8431     0.0000     8.0000 </r>
       <r>   -18.7405     0.0000     8.0000 </r>
       <r>   -18.6380     0.0000     8.0000 </r>
       <r>   -18.5354     0.0000     8.0000 </r>
       <r>   -18.4328     0.0000     8.0000 </r>
       <r>   -18.3302     0.0000     8.0000 </r>
       <r>   -18.2276     0.0000     8.0000 </r>
       <r>   -18.1250     0.0000     8.0000 </r>
       <r>   -18.0225     0.0000     8.0000 </r>
       <r>   -17.9199     0.0000     8.0000 </r>
       <r>   -17.8173     0.0000     8.0000 </r>
       <r>   -17.7147     0.0000     8.0000 </r>
       <r>   -17.6121     0.0000     8.0000 </r>
       <r>   -17.5095     0.0000     8.0000 </r>
       <r>   -17.4070     0.0000     8.0000 </r>
       <r>   -17.3044     0.0000     8.0000 </r>
       <r>   -17.2018     0.0000     8.0000 </r>
       <r>   -17.0992     0.0000     8.0000 </r>
       <r>   -16.9966     0.0000     8.0000 </r>
       <r>   -16.8941     0.0000     8.0000 </r>
       <r>   -16.7915     0.0000     8.0000 </r>
       <r>   -16.6889     0.0000     8.0000 </r>
       <r>   -16.5863     0.0000     8.0000 </r>
       <r>   -16.4837    21.6431    10.2202 </r>
       <r>   -16.3811    82.3183    24.0000 </r>
       <r>   -16.2786   233.9589    48.0000 </r>
       <r>   -16.1760     0.0000    48.0000 </r>
       <r>   -16.0734     0.0000    48.0000 </r>
       <r>   -15.9708     0.0000    48.0000 </r>
       <r>   -15.8682     0.0000    48.0000 </r>
       <r>   -15.7657     0.0000    48.0000 </r>
       <r>   -15.6631     0.0000    48.0000 </r>
       <r>   -15.5605     0.0000    48.0000 </r>
       <r>   -15.4579     0.0000    48.0000 </r>
       <r>   -15.3553     0.0000    48.0000 </r>
       <r>   -15.2527     0.0000    48.0000 </r>
       <r>   -15.1502     0.0000    48.0000 </r>
       <r>   -15.0476     0.0000    48.0000 </r>
       <r>   -14.9450     0.0000    48.0000 </r>
       <r>   -14.8424     0.0000    48.0000 </r>
       <r>   -14.7398     0.0000    48.0000 </r>
       <r>   -14.6373     0.0000    48.0000 </r>
       <r>   -14.5347     0.0000    48.0000 </r>
       <r>   -14.4321     0.0000    48.0000 </r>
       <r>   -14.3295     1.0719    48.1100 </r>
       <r>   -14.2269    19.4411    50.1054 </r>
       <r>   -14.1243    30.3913    53.2287 </r>
       <r>   -14.0218    26.2613    57.3606 </r>
       <r>   -13.9192    38.1696    63.6933 </r>
       <r>   -13.8166    49.3786    69.6209 </r>
       <r>   -13.7140    18.4134    72.0000 </r>
       <r>   -13.6114     0.0000    72.0000 </r>
       <r>   -13.5088     0.0000    72.0000 </r>
       <r>   -13.4063     0.0000    72.0000 </r>
       <r>   -13.3037     0.0000    72.0000 </r>
       <r>   -13.2011     0.0000    72.0000 </r>
       <r>   -13.0985     0.0000    72.0000 </r>
       <r>   -12.9959     0.0000    72.0000 </r>
       <r>   -12.8934     0.0000    72.0000 </r>
       <r>   -12.7908     0.0000    72.0000 </r>
       <r>   -12.6882     0.0000    72.0000 </r>
       <r>   -12.5856     0.0000    72.0000 </r>
       <r>   -12.4830     0.0000    72.0000 </r>
       <r>   -12.3804     0.0000    72.0000 </r>
       <r>   -12.2779     0.0000    72.0000 </r>
       <r>   -12.1753     0.0000    72.0000 </r>
       <r>   -12.0727     0.0000    72.0000 </r>
       <r>   -11.9701     0.0000    72.0000 </r>
       <r>   -11.8675     0.0000    72.0000 </r>
       <r>   -11.7650     0.0000    72.0000 </r>
       <r>   -11.6624     0.0000    72.0000 </r>
       <r>   -11.5598     0.0000    72.0000 </r>
       <r>   -11.4572     0.0000    72.0000 </r>
       <r>   -11.3546     0.0000    72.0000 </r>
       <r>   -11.2520     0.0000    72.0000 </r>
       <r>   -11.1495     0.0000    72.0000 </r>
       <r>   -11.0469     0.0000    72.0000 </r>
       <r>   -10.9443     0.0000    72.0000 </r>
       <r>   -10.8417     0.0000    72.0000 </r>
       <r>   -10.7391     0.0000    72.0000 </r>
       <r>   -10.6365     0.0000    72.0000 </r>
       <r>   -10.5340     0.0000    72.0000 </r>
       <r>   -10.4314     0.0000    72.0000 </r>
       <r>   -10.3288     0.0000    72.0000 </r>
       <r>   -10.2262     0.0000    72.0000 </r>
       <r>   -10.1236     0.0000    72.0000 </r>
       <r>   -10.0211     0.0000    72.0000 </r>
       <r>    -9.9185     0.0000    72.0000 </r>
       <r>    -9.8159     0.0000    72.0000 </r>
       <r>    -9.7133     0.0000    72.0000 </r>
       <r>    -9.6107     0.0000    72.0000 </r>
       <r>    -9.5081     0.0000    72.0000 </r>
       <r>    -9.4056     0.0000    72.0000 </r>
       <r>    -9.3030     0.0000    72.0000 </r>
       <r>    -9.2004     0.0000    72.0000 </r>
       <r>    -9.0978     0.0000    72.0000 </r>
       <r>    -8.9952     0.0000    72.0000 </r>
       <r>    -8.8927     0.0000    72.0000 </r>
       <r>    -8.7901     0.0000    72.0000 </r>
       <r>    -8.6875     0.0000    72.0000 </r>
       <r>    -8.5849     0.0000    72.0000 </r>
       <r>    -8.4823     0.0000    72.0000 </r>
       <r>    -8.3797     0.0000    72.0000 </r>
       <r>    -8.2772     0.0000    72.0000 </r>
       <r>    -8.1746     0.7971    72.0818 </r>
       <r>    -8.0720     0.0000    72.1111 </r>
       <r>    -7.9694     1.5843    72.2736 </r>
       <r>    -7.8668     0.0000    72.7778 </r>
       <r>    -7.7643     4.3684    73.2259 </r>
       <r>    -7.6617     1.0831    74.2222 </r>
       <r>    -7.5591    12.9977    75.5556 </r>
       <r>    -7.4565     8.6331    76.4412 </r>
       <r>    -7.3539    11.3109    77.6047 </r>
       <r>    -7.2513    23.2252    80.1603 </r>
       <r>    -7.1488   163.7738   102.4674 </r>
       <r>    -7.0462     0.1196   102.7901 </r>
       <r>    -6.9436     0.0005   103.2223 </r>
       <r>    -6.8410     6.4984   103.8889 </r>
       <r>    -6.7384     0.0000   103.8889 </r>
       <r>    -6.6358     0.0000   103.8889 </r>
       <r>    -6.5333     1.0831   104.0000 </r>
       <r>    -6.4307     0.0000   104.0000 </r>
       <r>    -6.3281     0.0000   104.0000 </r>
       <r>    -6.2255     0.0000   104.0000 </r>
       <r>    -6.1229     0.0000   104.0000 </r>
       <r>    -6.0204     0.0000   104.0000 </r>
       <r>    -5.9178     0.0000   104.0000 </r>
       <r>    -5.8152     0.0000   104.0000 </r>
       <r>    -5.7126     0.0000   104.0000 </r>
       <r>    -5.6100     0.0000   104.0000 </r>
       <r>    -5.5074     0.0000   104.0000 </r>
       <r>    -5.4049     0.0000   104.0000 </r>
       <r>    -5.3023     0.0000   104.0000 </r>
       <r>    -5.1997     0.0000   104.0000 </r>
       <r>    -5.0971     0.0000   104.0000 </r>
       <r>    -4.9945     0.0000   104.0000 </r>
       <r>    -4.8920     0.0000   104.0000 </r>
       <r>    -4.7894     0.0000   104.0000 </r>
       <r>    -4.6868     0.0000   104.0000 </r>
       <r>    -4.5842     0.0000   104.0000 </r>
       <r>    -4.4816     0.0000   104.0000 </r>
       <r>    -4.3790     0.0000   104.0000 </r>
       <r>    -4.2765     0.0000   104.0000 </r>
       <r>    -4.1739     0.0000   104.0000 </r>
       <r>    -4.0713     0.0000   104.0000 </r>
       <r>    -3.9687     0.0000   104.0000 </r>
       <r>    -3.8661     0.0000   104.0000 </r>
       <r>    -3.7636     0.0000   104.0000 </r>
       <r>    -3.6610     0.0000   104.0000 </r>
       <r>    -3.5584     0.0000   104.0000 </r>
       <r>    -3.4558     0.0000   104.0000 </r>
       <r>    -3.3532     0.0000   104.0000 </r>
       <r>    -3.2506     4.1760   104.4284 </r>
       <r>    -3.1481    26.7216   107.2969 </r>
       <r>    -3.0455     9.4979   108.6410 </r>
       <r>    -2.9429     6.2940   109.3123 </r>
       <r>    -2.8403     4.3479   110.4460 </r>
       <r>    -2.7377    20.2709   112.9683 </r>
       <r>    -2.6351     8.6648   114.0000 </r>
       <r>    -2.5326     0.0029   114.0003 </r>
       <r>    -2.4300    15.9152   115.6329 </r>
       <r>    -2.3274    17.3370   117.7785 </r>
       <r>    -2.2248     5.4518   118.5593 </r>
       <r>    -2.1222    14.2834   120.7986 </r>
       <r>    -2.0197    26.0829   124.1201 </r>
       <r>    -1.9171    14.2295   126.6819 </r>
       <r>    -1.8145     4.1128   127.4219 </r>
       <r>    -1.7119    29.0705   130.8711 </r>
       <r>    -1.6093    31.0514   134.5187 </r>
       <r>    -1.5067    25.4862   137.1700 </r>
       <r>    -1.4042    41.6433   142.4941 </r>
       <r>    -1.3016    65.7858   150.7485 </r>
       <r>    -1.1990    53.9426   157.2006 </r>
       <r>    -1.0964    53.7158   164.3993 </r>
       <r>    -0.9938    23.0581   167.9215 </r>
       <r>    -0.8913     4.9783   168.5107 </r>
       <r>    -0.7887    22.7460   171.0000 </r>
       <r>    -0.6861     3.6770   171.3772 </r>
       <r>    -0.5835     8.5477   172.7658 </r>
       <r>    -0.4809     2.1661   174.2222 </r>
       <r>    -0.3783     4.3326   174.6667 </r>
       <r>    -0.2758     0.0000   174.6667 </r>
       <r>    -0.1732     1.4463   174.8150 </r>
       <r>    -0.0706     6.4989   175.6667 </r>
       <r>     0.0320     2.1663   175.8889 </r>
       <r>     0.1346     0.0000   175.8889 </r>
       <r>     0.2371     0.0000   175.8889 </r>
       <r>     0.3397     0.0000   175.8889 </r>
       <r>     0.4423     1.0831   176.0000 </r>
       <r>     0.5449     0.0000   176.0000 </r>
       <r>     0.6475     0.0000   176.0000 </r>
       <r>     0.7501     0.0000   176.0000 </r>
       <r>     0.8526     0.0000   176.0000 </r>
       <r>     0.9552     0.0000   176.0000 </r>
       <r>     1.0578     0.0000   176.0000 </r>
       <r>     1.1604     0.0000   176.0000 </r>
       <r>     1.2630     0.0000   176.0000 </r>
       <r>     1.3656     0.0000   176.0000 </r>
       <r>     1.4681     0.0000   176.0000 </r>
       <r>     1.5707     0.0000   176.0000 </r>
       <r>     1.6733     0.0000   176.0000 </r>
       <r>     1.7759     0.0000   176.0000 </r>
       <r>     1.8785     0.0000   176.0000 </r>
       <r>     1.9810     0.0000   176.0000 </r>
       <r>     2.0836     0.0000   176.0000 </r>
       <r>     2.1862     0.0000   176.0000 </r>
       <r>     2.2888     0.0000   176.0000 </r>
       <r>     2.3914     0.0000   176.0000 </r>
       <r>     2.4940     0.0000   176.0000 </r>
       <r>     2.5965     0.0000   176.0000 </r>
       <r>     2.6991     0.5572   176.0572 </r>
       <r>     2.8017     1.0832   176.2222 </r>
       <r>     2.9043     5.4155   176.7778 </r>
       <r>     3.0069     6.4989   177.4444 </r>
       <r>     3.1094     6.5008   178.1113 </r>
       <r>     3.2120     5.4658   178.6720 </r>
       <r>     3.3146    11.9136   180.1111 </r>
       <r>     3.4172     0.0002   180.1111 </r>
       <r>     3.5198     5.4156   180.6667 </r>
       <r>     3.6224     4.3326   181.1111 </r>
       <r>     3.7249     6.7147   181.7999 </r>
       <r>     3.8275     3.0093   182.7531 </r>
       <r>     3.9301    10.9821   184.0155 </r>
       <r>     4.0327     5.8469   184.8220 </r>
       <r>     4.1353     2.1663   185.5556 </r>
       <r>     4.2379     6.4443   186.2166 </r>
       <r>     4.3404     0.4322   186.2666 </r>
       <r>     4.4430    12.9533   187.9956 </r>
       <r>     4.5456     0.0481   188.0049 </r>
       <r>     4.6482     8.6526   189.7765 </r>
       <r>     4.7508     0.0000   189.7778 </r>
       <r>     4.8533     7.3237   190.5291 </r>
       <r>     4.9559     0.0000   190.5556 </r>
       <r>     5.0585    10.2437   191.6064 </r>
       <r>     5.1611     7.9648   192.4837 </r>
       <r>     5.2637    23.8019   194.9975 </r>
       <r>     5.3663     1.2474   195.1280 </r>
       <r>     5.4688     2.1663   195.4444 </r>
       <r>     5.5714     6.6745   196.1291 </r>
       <r>     5.6740     0.0000   196.2222 </r>
       <r>     5.7766    12.7920   197.5345 </r>
       <r>     5.8792     2.0049   198.3168 </r>
       <r>     5.9817     4.2804   199.4391 </r>
       <r>     6.0843    18.1383   201.9718 </r>
       <r>     6.1869     7.3629   202.8664 </r>
       <r>     6.2895    13.4791   204.4938 </r>
       <r>     6.3921    14.3175   206.4687 </r>
       <r>     6.4947    15.2166   209.3387 </r>
       <r>     6.5972     8.5232   210.6521 </r>
       <r>     6.6998    15.9033   214.4092 </r>
       <r>     6.8024    18.2833   216.7648 </r>
       <r>     6.9050    25.9907   219.8884 </r>
       <r>     7.0076    20.6923   222.7893 </r>
       <r>     7.1101     4.3324   223.5555 </r>
       <r>     7.2127     4.3326   224.0000 </r>
       <r>     7.3153     0.0000   224.0000 </r>
       <r>     7.4179     0.0000   224.0000 </r>
       <r>     7.5205     0.0000   224.0000 </r>
       <r>     7.6231     0.0000   224.0000 </r>
       <r>     7.7256     0.0000   224.0000 </r>
       <r>     7.8282     0.0000   224.0000 </r>
       <r>     7.9308     0.0000   224.0000 </r>
       <r>     8.0334     0.0000   224.0000 </r>
       <r>     8.1360     0.0000   224.0000 </r>
       <r>     8.2386     0.0000   224.0000 </r>
       <r>     8.3411     0.0000   224.0000 </r>
       <r>     8.4437     0.0000   224.0000 </r>
       <r>     8.5463     0.0000   224.0000 </r>
      </set>
     </set>
    </array>
   </total>
   <partial>
    <array>
     <dimension dim="1">gridpoints</dimension>
     <dimension dim="2">spin</dimension>
     <dimension dim="3">ion</dimension>
     <field>energy</field>
     <field>  s  </field>
     <field>  p  </field>
     <field>  d  </field>
     <set>
      <set comment="ion 1">
       <set comment="spin 1">
        <r>   -22.2283     0.0000     0.0000     0.0000 </r>
        <r>   -22.1257     0.0000     0.0000     0.0000 </r>
        <r>   -22.0232     0.0000     0.0000     0.0000 </r>
        <r>   -21.9206     0.0000     0.0000     0.0000 </r>
        <r>   -21.8180     0.0000     0.0000     0.0000 </r>
        <r>   -21.7154     0.0000     0.0000     0.0000 </r>
        <r>   -21.6128     0.0000     0.0000     0.0000 </r>
        <r>   -21.5102     0.0000     0.0000     0.0000 </r>
        <r>   -21.4077     0.0000     0.0000     0.0000 </r>
        <r>   -21.3051     0.0000     0.0000     0.0000 </r>
[...]
        <r>  0.0000  0.0001  0.0004 </r>
        <r>  0.0003  0.0113  0.0002 </r>
        <r>  0.0002  0.0098  0.0004 </r>
        <r>  0.0029  0.1714  0.0017 </r>
        <r>  0.0029  0.1581  0.0018 </r>
        <r>  0.0004  0.0059  0.0018 </r>
        <r>  0.0003  0.0049  0.0007 </r>
        <r>  0.0001  0.0028  0.0015 </r>
        <r>  0.0009  0.0070  0.0009 </r>
        <r>  0.0133  0.0342  0.0072 </r>
        <r>  0.0008  0.0128  0.0008 </r>
        <r>  0.0001  0.0009  0.0001 </r>
        <r>  0.0008  0.0019  0.0007 </r>
        <r>  0.0008  0.0031  0.0003 </r>
        <r>  0.0000  0.0006  0.0000 </r>
        <r>  0.0133  0.0330  0.0076 </r>
        <r>  0.0008  0.0131  0.0008 </r>
       </set>
       <set comment="band 93">
        <r>  0.0000  0.0001  0.0002 </r>
        <r>  0.0005  0.0002  0.0006 </r>
        <r>  0.0000  0.0001  0.0006 </r>
        <r>  0.0000  0.0008  0.0014 </r>
        <r>  0.0023  0.1139  0.0011 </r>
        <r>  0.0018  0.0766  0.0009 </r>
        <r>  0.0027  0.0521  0.0012 </r>
        <r>  0.0034  0.0766  0.0016 </r>
        <r>  0.0092  0.0014  0.0037 </r>
        <r>  0.0001  0.0713  0.0004 </r>
        <r>  0.0118  0.0023  0.0051 </r>
        <r>  0.0001  0.0534  0.0004 </r>
        <r>  0.0004  0.0063  0.0008 </r>
        <r>  0.0000  0.0012  0.0015 </r>
        <r>  0.0000  0.0013  0.0023 </r>
        <r>  0.0008  0.0047  0.0013 </r>
        <r>  0.0006  0.0082  0.0011 </r>
        <r>  0.0000  0.0016  0.0022 </r>
        <r>  0.0006  0.0028  0.0010 </r>
        <r>  0.0000  0.0009  0.0015 </r>
       </set>
       <set comment="band 94">
        <r>  0.0000  0.0008  0.0014 </r>
        <r>  0.0000  0.0001  0.0006 </r>
        <r>  0.0005  0.0002  0.0006 </r>
        <r>  0.0000  0.0001  0.0002 </r>
        <r>  0.0034  0.0766  0.0016 </r>
        <r>  0.0027  0.0521  0.0012 </r>
        <r>  0.0018  0.0766  0.0009 </r>
        <r>  0.0023  0.1139  0.0011 </r>
        <r>  0.0001  0.0534  0.0004 </r>
        <r>  0.0118  0.0023  0.0051 </r>
        <r>  0.0001  0.0713  0.0004 </r>
        <r>  0.0092  0.0014  0.0037 </r>
        <r>  0.0008  0.0047  0.0013 </r>
        <r>  0.0000  0.0013  0.0023 </r>
        <r>  0.0000  0.0012  0.0015 </r>
        <r>  0.0004  0.0063  0.0008 </r>
        <r>  0.0006  0.0028  0.0010 </r>
        <r>  0.0000  0.0009  0.0015 </r>
        <r>  0.0006  0.0082  0.0011 </r>
        <r>  0.0000  0.0016  0.0022 </r>
       </set>
       <set comment="band 95">
        <r>  0.0000  0.0001  0.0005 </r>
        <r>  0.0001  0.0010  0.0008 </r>
        <r>  0.0000  0.0002  0.0003 </r>
        <r>  0.0003  0.0003  0.0003 </r>
        <r>  0.0028  0.0488  0.0012 </r>
        <r>  0.0037  0.0748  0.0017 </r>
        <r>  0.0023  0.1229  0.0011 </r>
        <r>  0.0017  0.0796  0.0009 </r>
        <r>  0.0120  0.0014  0.0055 </r>
        <r>  0.0001  0.0481  0.0006 </r>
        <r>  0.0088  0.0009  0.0038 </r>
        <r>  0.0002  0.0679  0.0002 </r>
        <r>  0.0005  0.0049  0.0022 </r>
        <r>  0.0003  0.0053  0.0007 </r>
        <r>  0.0003  0.0061  0.0006 </r>
        <r>  0.0001  0.0039  0.0016 </r>
        <r>  0.0004  0.0029  0.0013 </r>
        <r>  0.0001  0.0028  0.0005 </r>
        <r>  0.0002  0.0059  0.0025 </r>
        <r>  0.0004  0.0086  0.0008 </r>
       </set>
       <set comment="band 96">
        <r>  0.0003  0.0003  0.0003 </r>
        <r>  0.0000  0.0002  0.0003 </r>
        <r>  0.0001  0.0010  0.0008 </r>
        <r>  0.0000  0.0001  0.0005 </r>
        <r>  0.0017  0.0796  0.0009 </r>
        <r>  0.0023  0.1229  0.0011 </r>
        <r>  0.0037  0.0748  0.0017 </r>
        <r>  0.0028  0.0488  0.0012 </r>
        <r>  0.0002  0.0679  0.0002 </r>
        <r>  0.0088  0.0009  0.0038 </r>
        <r>  0.0001  0.0481  0.0006 </r>
        <r>  0.0120  0.0014  0.0055 </r>
        <r>  0.0001  0.0039  0.0016 </r>
        <r>  0.0003  0.0061  0.0006 </r>
        <r>  0.0003  0.0053  0.0007 </r>
        <r>  0.0005  0.0049  0.0022 </r>
        <r>  0.0002  0.0059  0.0025 </r>
        <r>  0.0004  0.0086  0.0008 </r>
        <r>  0.0004  0.0029  0.0013 </r>
        <r>  0.0001  0.0028  0.0005 </r>
       </set>
       <set comment="band 97">
        <r>  0.0000  0.0000  0.0018 </r>
        <r>  0.0001  0.0005  0.0009 </r>
        <r>  0.0000  0.0001  0.0029 </r>
        <r>  0.0003  0.0005  0.0006 </r>
        <r>  0.0024  0.0581  0.0008 </r>
        <r>  0.0014  0.0514  0.0007 </r>
        <r>  0.0027  0.0873  0.0010 </r>
        <r>  0.0021  0.1064  0.0012 </r>
        <r>  0.0004  0.0045  0.0004 </r>
        <r>  0.0001  0.0071  0.0031 </r>
        <r>  0.0023  0.0037  0.0011 </r>
        <r>  0.0000  0.0011  0.0029 </r>
        <r>  0.0038  0.0511  0.0021 </r>
        <r>  0.0000  0.0010  0.0027 </r>
        <r>  0.0000  0.0010  0.0015 </r>
        <r>  0.0031  0.0278  0.0011 </r>
        <r>  0.0020  0.0293  0.0013 </r>
        <r>  0.0000  0.0006  0.0016 </r>
        <r>  0.0049  0.0495  0.0019 </r>
        <r>  0.0000  0.0015  0.0026 </r>
       </set>
       <set comment="band 98">
        <r>  0.0003  0.0005  0.0006 </r>
        <r>  0.0000  0.0001  0.0029 </r>
        <r>  0.0001  0.0005  0.0009 </r>
        <r>  0.0000  0.0000  0.0018 </r>
        <r>  0.0021  0.1064  0.0012 </r>
        <r>  0.0027  0.0873  0.0010 </r>
        <r>  0.0014  0.0514  0.0007 </r>
        <r>  0.0024  0.0581  0.0008 </r>
        <r>  0.0000  0.0011  0.0029 </r>
        <r>  0.0023  0.0037  0.0011 </r>
        <r>  0.0001  0.0071  0.0031 </r>
        <r>  0.0004  0.0045  0.0004 </r>
        <r>  0.0031  0.0278  0.0011 </r>
        <r>  0.0000  0.0010  0.0015 </r>
        <r>  0.0000  0.0010  0.0027 </r>
        <r>  0.0038  0.0511  0.0021 </r>
        <r>  0.0049  0.0495  0.0019 </r>
        <r>  0.0000  0.0015  0.0026 </r>
        <r>  0.0020  0.0293  0.0013 </r>
        <r>  0.0000  0.0006  0.0016 </r>
       </set>
       <set comment="band 99">
        <r>  0.0000  0.0001  0.0030 </r>
        <r>  0.0000  0.0002  0.0017 </r>
        <r>  0.0000  0.0001  0.0016 </r>
        <r>  0.0000  0.0002  0.0016 </r>
        <r>  0.0000  0.1434  0.0003 </r>
        <r>  0.0000  0.1524  0.0004 </r>
        <r>  0.0001  0.0069  0.0007 </r>
        <r>  0.0000  0.0067  0.0006 </r>
        <r>  0.0004  0.0015  0.0017 </r>
        <r>  0.0000  0.0012  0.0029 </r>
        <r>  0.0000  0.0026  0.0013 </r>
        <r>  0.0002  0.0013  0.0031 </r>
        <r>  0.0000  0.0003  0.0002 </r>
        <r>  0.0000  0.0042  0.0006 </r>
        <r>  0.0000  0.0970  0.0022 </r>
        <r>  0.0000  0.0016  0.0048 </r>
        <r>  0.0000  0.0017  0.0047 </r>
        <r>  0.0000  0.0967  0.0024 </r>
        <r>  0.0000  0.0002  0.0004 </r>
        <r>  0.0000  0.0045  0.0004 </r>
       </set>
       <set comment="band 100">
        <r>  0.0000  0.0002  0.0016 </r>
        <r>  0.0000  0.0001  0.0016 </r>
        <r>  0.0000  0.0002  0.0017 </r>
        <r>  0.0000  0.0001  0.0030 </r>
        <r>  0.0000  0.0067  0.0006 </r>
        <r>  0.0001  0.0069  0.0007 </r>
        <r>  0.0000  0.1524  0.0004 </r>
        <r>  0.0000  0.1434  0.0003 </r>
        <r>  0.0002  0.0013  0.0031 </r>
        <r>  0.0000  0.0026  0.0013 </r>
        <r>  0.0000  0.0012  0.0029 </r>
        <r>  0.0004  0.0015  0.0017 </r>
        <r>  0.0000  0.0016  0.0048 </r>
        <r>  0.0000  0.0970  0.0022 </r>
        <r>  0.0000  0.0042  0.0006 </r>
        <r>  0.0000  0.0003  0.0002 </r>
        <r>  0.0000  0.0002  0.0004 </r>
        <r>  0.0000  0.0045  0.0004 </r>
        <r>  0.0000  0.0017  0.0047 </r>
        <r>  0.0000  0.0967  0.0024 </r>
       </set>
       <set comment="band 101">
        <r>  0.0122  0.0047  0.0050 </r>
        <r>  0.0011  0.0015  0.0129 </r>
        <r>  0.0122  0.0046  0.0053 </r>
        <r>  0.0011  0.0016  0.0113 </r>
        <r>  0.0001  0.0044  0.0001 </r>
        <r>  0.0002  0.0105  0.0002 </r>
        <r>  0.0004  0.0089  0.0003 </r>
        <r>  0.0003  0.0049  0.0002 </r>
        <r>  0.0003  0.0071  0.0005 </r>
        <r>  0.0034  0.0077  0.0029 </r>
        <r>  0.0003  0.0061  0.0004 </r>
        <r>  0.0028  0.0071  0.0029 </r>
        <r>  0.0028  0.0049  0.0024 </r>
        <r>  0.0053  0.0020  0.0016 </r>
        <r>  0.0031  0.0030  0.0023 </r>
        <r>  0.0002  0.0041  0.0003 </r>
        <r>  0.0014  0.0038  0.0012 </r>
        <r>  0.0016  0.0011  0.0016 </r>
        <r>  0.0016  0.0053  0.0015 </r>
        <r>  0.0068  0.0038  0.0023 </r>
       </set>
       <set comment="band 102">
        <r>  0.0011  0.0016  0.0113 </r>
        <r>  0.0122  0.0046  0.0053 </r>
        <r>  0.0011  0.0015  0.0129 </r>
        <r>  0.0122  0.0047  0.0050 </r>
        <r>  0.0003  0.0049  0.0002 </r>
        <r>  0.0004  0.0089  0.0003 </r>
        <r>  0.0002  0.0105  0.0002 </r>
        <r>  0.0001  0.0044  0.0001 </r>
        <r>  0.0028  0.0071  0.0029 </r>
        <r>  0.0003  0.0061  0.0004 </r>
        <r>  0.0034  0.0077  0.0029 </r>
        <r>  0.0003  0.0071  0.0005 </r>
        <r>  0.0002  0.0041  0.0003 </r>
        <r>  0.0031  0.0030  0.0023 </r>
        <r>  0.0053  0.0020  0.0016 </r>
        <r>  0.0028  0.0049  0.0024 </r>
        <r>  0.0016  0.0053  0.0015 </r>
        <r>  0.0068  0.0038  0.0023 </r>
        <r>  0.0014  0.0038  0.0012 </r>
        <r>  0.0016  0.0011  0.0016 </r>
       </set>
       <set comment="band 103">
        <r>  0.0003  0.0004  0.0076 </r>
        <r>  0.0010  0.0010  0.0573 </r>
        <r>  0.0001  0.0007  0.0040 </r>
        <r>  0.0053  0.0017  0.0390 </r>
        <r>  0.0000  0.0102  0.0003 </r>
        <r>  0.0000  0.0015  0.0003 </r>
        <r>  0.0001  0.0021  0.0004 </r>
        <r>  0.0001  0.0049  0.0004 </r>
        <r>  0.0001  0.0119  0.0061 </r>
        <r>  0.0001  0.0022  0.0009 </r>
        <r>  0.0011  0.0080  0.0061 </r>
        <r>  0.0000  0.0007  0.0004 </r>
        <r>  0.0004  0.0046  0.0014 </r>
        <r>  0.0008  0.0032  0.0017 </r>
        <r>  0.0005  0.0015  0.0014 </r>
        <r>  0.0005  0.0028  0.0020 </r>
        <r>  0.0008  0.0043  0.0011 </r>
        <r>  0.0011  0.0033  0.0018 </r>
        <r>  0.0001  0.0031  0.0022 </r>
        <r>  0.0001  0.0014  0.0014 </r>
       </set>
       <set comment="band 104">
        <r>  0.0053  0.0017  0.0390 </r>
        <r>  0.0001  0.0007  0.0040 </r>
        <r>  0.0010  0.0010  0.0573 </r>
        <r>  0.0003  0.0004  0.0076 </r>
        <r>  0.0001  0.0049  0.0004 </r>
        <r>  0.0001  0.0021  0.0004 </r>
        <r>  0.0000  0.0015  0.0003 </r>
        <r>  0.0000  0.0102  0.0003 </r>
        <r>  0.0000  0.0007  0.0004 </r>
        <r>  0.0011  0.0080  0.0061 </r>
        <r>  0.0001  0.0022  0.0009 </r>
        <r>  0.0001  0.0119  0.0061 </r>
        <r>  0.0005  0.0028  0.0020 </r>
        <r>  0.0005  0.0015  0.0014 </r>
        <r>  0.0008  0.0032  0.0017 </r>
        <r>  0.0004  0.0046  0.0014 </r>
        <r>  0.0001  0.0031  0.0022 </r>
        <r>  0.0001  0.0014  0.0014 </r>
        <r>  0.0008  0.0043  0.0011 </r>
        <r>  0.0011  0.0033  0.0018 </r>
       </set>
       <set comment="band 105">
        <r>  0.0007  0.0004  0.0301 </r>
        <r>  0.0028  0.0023  0.0239 </r>
        <r>  0.0018  0.0017  0.0257 </r>
        <r>  0.0012  0.0005  0.0344 </r>
        <r>  0.0001  0.0011  0.0008 </r>
        <r>  0.0002  0.0037  0.0005 </r>
        <r>  0.0000  0.0078  0.0010 </r>
        <r>  0.0001  0.0093  0.0003 </r>
        <r>  0.0011  0.0035  0.0027 </r>
        <r>  0.0002  0.0037  0.0014 </r>
        <r>  0.0004  0.0050  0.0017 </r>
        <r>  0.0007  0.0026  0.0021 </r>
        <r>  0.0015  0.0021  0.0029 </r>
        <r>  0.0028  0.0013  0.0030 </r>
        <r>  0.0001  0.0017  0.0020 </r>
        <r>  0.0003  0.0044  0.0023 </r>
        <r>  0.0005  0.0033  0.0023 </r>
        <r>  0.0002  0.0017  0.0020 </r>
        <r>  0.0013  0.0033  0.0030 </r>
        <r>  0.0027  0.0013  0.0030 </r>
       </set>
       <set comment="band 106">
        <r>  0.0012  0.0005  0.0344 </r>
        <r>  0.0018  0.0017  0.0257 </r>
        <r>  0.0028  0.0023  0.0239 </r>
        <r>  0.0007  0.0004  0.0301 </r>
        <r>  0.0001  0.0093  0.0003 </r>
        <r>  0.0000  0.0078  0.0010 </r>
        <r>  0.0002  0.0037  0.0005 </r>
        <r>  0.0001  0.0011  0.0008 </r>
        <r>  0.0007  0.0026  0.0021 </r>
        <r>  0.0004  0.0050  0.0017 </r>
        <r>  0.0002  0.0037  0.0014 </r>
        <r>  0.0011  0.0035  0.0027 </r>
        <r>  0.0003  0.0044  0.0023 </r>
        <r>  0.0001  0.0017  0.0020 </r>
        <r>  0.0028  0.0013  0.0030 </r>
        <r>  0.0015  0.0021  0.0029 </r>
        <r>  0.0013  0.0033  0.0030 </r>
        <r>  0.0027  0.0013  0.0030 </r>
        <r>  0.0005  0.0033  0.0023 </r>
        <r>  0.0002  0.0017  0.0020 </r>
       </set>
       <set comment="band 107">
        <r>  0.0004  0.0038  0.0334 </r>
        <r>  0.0007  0.0009  0.0308 </r>
        <r>  0.0014  0.0016  0.0235 </r>
        <r>  0.0002  0.0023  0.0320 </r>
        <r>  0.0002  0.0035  0.0003 </r>
        <r>  0.0000  0.0014  0.0007 </r>
        <r>  0.0001  0.0085  0.0009 </r>
        <r>  0.0000  0.0087  0.0020 </r>
        <r>  0.0000  0.0028  0.0013 </r>
        <r>  0.0012  0.0047  0.0018 </r>
        <r>  0.0006  0.0043  0.0014 </r>
        <r>  0.0000  0.0033  0.0007 </r>
        <r>  0.0021  0.0033  0.0050 </r>
        <r>  0.0009  0.0037  0.0050 </r>
        <r>  0.0007  0.0019  0.0024 </r>
        <r>  0.0001  0.0011  0.0014 </r>
        <r>  0.0002  0.0013  0.0024 </r>
        <r>  0.0010  0.0014  0.0022 </r>
        <r>  0.0020  0.0031  0.0040 </r>
        <r>  0.0005  0.0041  0.0052 </r>
       </set>
       <set comment="band 108">
        <r>  0.0002  0.0023  0.0320 </r>
        <r>  0.0014  0.0016  0.0235 </r>
        <r>  0.0007  0.0009  0.0307 </r>
        <r>  0.0004  0.0038  0.0334 </r>
        <r>  0.0000  0.0087  0.0020 </r>
        <r>  0.0001  0.0085  0.0009 </r>
        <r>  0.0000  0.0014  0.0007 </r>
        <r>  0.0002  0.0035  0.0003 </r>
        <r>  0.0000  0.0033  0.0007 </r>
        <r>  0.0006  0.0043  0.0014 </r>
        <r>  0.0012  0.0047  0.0018 </r>
        <r>  0.0000  0.0028  0.0013 </r>
        <r>  0.0001  0.0011  0.0014 </r>
        <r>  0.0007  0.0019  0.0024 </r>
        <r>  0.0009  0.0037  0.0050 </r>
        <r>  0.0021  0.0033  0.0050 </r>
        <r>  0.0020  0.0031  0.0040 </r>
        <r>  0.0005  0.0041  0.0052 </r>
        <r>  0.0002  0.0013  0.0024 </r>
        <r>  0.0010  0.0014  0.0022 </r>
       </set>
       <set comment="band 109">
        <r>  0.0001  0.0016  0.0194 </r>
        <r>  0.0004  0.0062  0.0324 </r>
        <r>  0.0001  0.0023  0.0208 </r>
        <r>  0.0004  0.0046  0.0376 </r>
        <r>  0.0000  0.0083  0.0005 </r>
        <r>  0.0000  0.0056  0.0011 </r>
        <r>  0.0001  0.0032  0.0003 </r>
        <r>  0.0000  0.0017  0.0007 </r>
        <r>  0.0039  0.0042  0.0034 </r>
        <r>  0.0000  0.0037  0.0014 </r>
        <r>  0.0001  0.0078  0.0028 </r>
        <r>  0.0011  0.0035  0.0015 </r>
        <r>  0.0013  0.0017  0.0016 </r>
        <r>  0.0004  0.0034  0.0041 </r>
        <r>  0.0001  0.0045  0.0013 </r>
        <r>  0.0018  0.0035  0.0035 </r>
        <r>  0.0015  0.0027  0.0019 </r>
        <r>  0.0003  0.0050  0.0033 </r>
        <r>  0.0016  0.0025  0.0032 </r>
        <r>  0.0001  0.0029  0.0021 </r>
       </set>
       <set comment="band 110">
        <r>  0.0004  0.0045  0.0375 </r>
        <r>  0.0001  0.0023  0.0207 </r>
        <r>  0.0004  0.0062  0.0325 </r>
        <r>  0.0001  0.0016  0.0194 </r>
        <r>  0.0000  0.0017  0.0007 </r>
        <r>  0.0001  0.0032  0.0003 </r>
        <r>  0.0000  0.0056  0.0011 </r>
        <r>  0.0000  0.0083  0.0005 </r>
        <r>  0.0011  0.0035  0.0015 </r>
        <r>  0.0001  0.0078  0.0028 </r>
        <r>  0.0000  0.0037  0.0014 </r>
        <r>  0.0039  0.0042  0.0034 </r>
        <r>  0.0018  0.0035  0.0035 </r>
        <r>  0.0001  0.0045  0.0013 </r>
        <r>  0.0004  0.0034  0.0041 </r>
        <r>  0.0013  0.0017  0.0016 </r>
        <r>  0.0016  0.0025  0.0031 </r>
        <r>  0.0001  0.0029  0.0021 </r>
        <r>  0.0015  0.0027  0.0019 </r>
        <r>  0.0003  0.0050  0.0033 </r>
       </set>
       <set comment="band 111">
        <r>  0.0038  0.0035  0.0322 </r>
        <r>  0.0003  0.0012  0.0149 </r>
        <r>  0.0014  0.0019  0.0310 </r>
        <r>  0.0008  0.0013  0.0412 </r>
        <r>  0.0001  0.0015  0.0016 </r>
        <r>  0.0001  0.0027  0.0019 </r>
        <r>  0.0000  0.0103  0.0006 </r>
        <r>  0.0000  0.0045  0.0011 </r>
        <r>  0.0001  0.0026  0.0009 </r>
        <r>  0.0011  0.0077  0.0031 </r>
        <r>  0.0002  0.0016  0.0026 </r>
        <r>  0.0005  0.0121  0.0022 </r>
        <r>  0.0007  0.0031  0.0031 </r>
        <r>  0.0002  0.0058  0.0007 </r>
        <r>  0.0006  0.0024  0.0053 </r>
        <r>  0.0003  0.0024  0.0025 </r>
        <r>  0.0005  0.0047  0.0025 </r>
        <r>  0.0004  0.0011  0.0034 </r>
        <r>  0.0006  0.0009  0.0032 </r>
        <r>  0.0004  0.0070  0.0027 </r>
       </set>
       <set comment="band 112">
        <r>  0.0008  0.0013  0.0412 </r>
        <r>  0.0014  0.0019  0.0311 </r>
        <r>  0.0003  0.0012  0.0149 </r>
        <r>  0.0038  0.0035  0.0322 </r>
        <r>  0.0000  0.0045  0.0011 </r>
        <r>  0.0000  0.0102  0.0006 </r>
        <r>  0.0001  0.0027  0.0019 </r>
        <r>  0.0001  0.0015  0.0016 </r>
        <r>  0.0005  0.0120  0.0021 </r>
        <r>  0.0002  0.0016  0.0026 </r>
        <r>  0.0011  0.0077  0.0031 </r>
        <r>  0.0001  0.0026  0.0009 </r>
        <r>  0.0004  0.0025  0.0025 </r>
        <r>  0.0006  0.0024  0.0053 </r>
        <r>  0.0002  0.0058  0.0007 </r>
        <r>  0.0007  0.0031  0.0031 </r>
        <r>  0.0006  0.0009  0.0031 </r>
        <r>  0.0004  0.0070  0.0027 </r>
        <r>  0.0005  0.0046  0.0025 </r>
        <r>  0.0004  0.0011  0.0034 </r>
       </set>
      </set>
     </set>
    </set>
   </array>
  </projected>
 </calculation>
 <structure name="finalpos" >
  <crystal>
   <varray name="basis" >
    <v>       8.33291587       0.00000000       0.00000000 </v>
    <v>       0.00000000      11.88144586       0.00000000 </v>
    <v>       0.00000000       0.00000000       8.15876036 </v>
   </varray>
   <i name="volume">    807.77511158 </i>
   <varray name="rec_basis" >
    <v>       0.12000601       0.00000000       0.00000000 </v>
    <v>       0.00000000       0.08416484       0.00000000 </v>
    <v>       0.00000000       0.00000000       0.12256764 </v>
   </varray>
  </crystal>
  <varray name="positions" >
   <v>       0.05952597       0.25000000       0.48452232 </v>
   <v>       0.44047403       0.75000000       0.98452232 </v>
   <v>       0.55952597       0.25000000       0.01547768 </v>
   <v>       0.94047403       0.75000000       0.51547768 </v>
   <v>       0.00000000       0.00000000       0.00000000 </v>
   <v>       0.50000000       0.00000000       0.50000000 </v>
   <v>       0.50000000       0.50000000       0.50000000 </v>
   <v>       0.00000000       0.50000000       0.00000000 </v>
   <v>       0.50251581       0.75000000       0.43794249 </v>
   <v>       0.99748419       0.25000000       0.93794249 </v>
   <v>       0.00251581       0.75000000       0.06205751 </v>
   <v>       0.49748419       0.25000000       0.56205751 </v>
   <v>       0.30026275       0.46708064       0.19772687 </v>
   <v>       0.19973725       0.53291936       0.69772687 </v>
   <v>       0.80026275       0.03291936       0.30227313 </v>
   <v>       0.69973725       0.96708064       0.80227313 </v>
   <v>       0.30026275       0.03291936       0.19772687 </v>
   <v>       0.19973725       0.96708064       0.69772687 </v>
   <v>       0.69973725       0.53291936       0.80227313 </v>
   <v>       0.80026275       0.46708064       0.30227313 </v>
  </varray>
 </structure>
</modeling>
