CsPbBr3 cubic bulk                      
           1
     8.332916    0.000000    0.000000
     0.000000   11.881446    0.000000
     0.000000    0.000000    8.158760
   Cs   Pb   Br
   4   4  12
Direct configuration=     1
   0.05952597  0.25000000  0.48452232
   0.44047403  0.75000000  0.98452232
   0.55952597  0.25000000  0.01547768
   0.94047403  0.75000000  0.51547768
   0.00000000  0.00000000  0.00000000
   0.50000000  0.00000000  0.50000000
   0.50000000  0.50000000  0.50000000
   0.00000000  0.50000000  0.00000000
   0.50251581  0.75000000  0.43794249
   0.99748419  0.25000000  0.93794249
   0.00251581  0.75000000  0.06205751
   0.49748419  0.25000000  0.56205751
   0.30026275  0.46708064  0.19772687
   0.19973725  0.53291936  0.69772687
   0.80026275  0.03291936  0.30227313
   0.69973725  0.96708064  0.80227313
   0.30026275  0.03291936  0.19772687
   0.19973725  0.96708064  0.69772687
   0.69973725  0.53291936  0.80227313
   0.80026275  0.46708064  0.30227313
