|===============================================================================
|
|  DFTB+ release 22.2
|
|  Copyright (C) 2006 - 2022  DFTB+ developers group
|
|===============================================================================
|
|  When publishing results obtained with DFTB+, please cite the following
|  reference:
|
|  * DFTB+, a software package for efficient approximate density functional
|    theory based atomistic simulations, J. Chem. Phys. 152, 124101 (2020).
|    [doi: 10.1063/1.5143190]
|
|  You should also cite additional publications crediting the parametrization
|  data you use. Please consult the documentation of the SK-files for the
|  references.
|
|===============================================================================

Reading input file 'dftb_in.hsd'
Parser version: 12

--------------------------------------------------------------------------------
Reading SK-files:
/home/thism292/Documents/repos/CsPbBr3_CCS/Data/DFTB_CCS/DFTB_PARAMS/Cs_w3_00_c9_00_Pb_w3_00_c9_00_Br_w3_00_c9_00/Cs-Cs.skf
/home/thism292/Documents/repos/CsPbBr3_CCS/Data/DFTB_CCS/DFTB_PARAMS/Cs_w3_00_c9_00_Pb_w3_00_c9_00_Br_w3_00_c9_00/Cs-Pb.skf
/home/thism292/Documents/repos/CsPbBr3_CCS/Data/DFTB_CCS/DFTB_PARAMS/Cs_w3_00_c9_00_Pb_w3_00_c9_00_Br_w3_00_c9_00/Cs-Br.skf
/home/thism292/Documents/repos/CsPbBr3_CCS/Data/DFTB_CCS/DFTB_PARAMS/Cs_w3_00_c9_00_Pb_w3_00_c9_00_Br_w3_00_c9_00/Pb-Pb.skf
/home/thism292/Documents/repos/CsPbBr3_CCS/Data/DFTB_CCS/DFTB_PARAMS/Cs_w3_00_c9_00_Pb_w3_00_c9_00_Br_w3_00_c9_00/Pb-Br.skf
/home/thism292/Documents/repos/CsPbBr3_CCS/Data/DFTB_CCS/DFTB_PARAMS/Cs_w3_00_c9_00_Pb_w3_00_c9_00_Br_w3_00_c9_00/Br-Br.skf
Done.
WARNING!
-> This driver is deprecated and will be removed in future versions.
Please use the GeometryOptimisation driver instead.
Path: dftbplusinput/Driver/ConjugateGradient
Line: 5-8 (File: dftb_in.hsd)



Processed input in HSD format written to 'dftb_pin.hsd'

Starting initialization...
--------------------------------------------------------------------------------
WARNING!
-> Dipole printed for extended system : value printed is not well defined
OpenMP threads:              16
Chosen random seed:          132330007
Mode:                        Conjugate gradient relaxation
Self consistent charges:     Yes
SCC-tolerance:                 0.100000E-09
Max. scc iterations:                    100
Shell resolved Hubbard:      No
Spin polarisation:           No
Nr. of up electrons:           104.000000
Nr. of down electrons:         104.000000
Periodic boundaries:         Yes
Electronic solver:           Relatively robust
Mixer:                       Broyden mixer
Mixing parameter:                  0.200000
Maximal SCC-cycles:                     100
Nr. of chrg. vec. in memory:            100
Nr. of moved atoms:                      40
Max. nr. of geometry steps:            1000
Force tolerance:               0.100000E-06
Electronic temperature:              0.100000E-07 H      0.272114E-06 eV
Initial charges:             Set automatically (system chrg:   0.000E+00)
Included shells:            Cs:  s
                            Pb:  s, p
                            Br:  s, p
K-points and weights:           1:  0.000000  0.000000  0.000000     0.125000
                                2:  0.000000  0.000000  0.500000     0.125000
                                3:  0.000000  0.500000  0.000000     0.125000
                                4:  0.000000  0.500000  0.500000     0.125000
                                5:  0.500000  0.000000  0.000000     0.125000
                                6:  0.500000  0.000000  0.500000     0.125000
                                7:  0.500000  0.500000  0.000000     0.125000
                                8:  0.500000  0.500000  0.500000     0.125000

K-points in absolute space:     1:  0.000000  0.000000  0.000000
                                2:  0.000000  0.000000  0.022546
                                3:  0.000000  0.022546  0.000000
                                4:  0.000000  0.022546  0.022546
                                5:  0.022546  0.000000  0.000000
                                6:  0.022546  0.000000  0.022546
                                7:  0.022546  0.022546  0.000000
                                8:  0.022546  0.022546  0.022546

Extra options:
                             Mulliken analysis
Force type                   original

--------------------------------------------------------------------------------

***  Geometry step: 0

 iSCC Total electronic   Diff electronic      SCC error    
ERROR!
-> Fermi level search did not converge.
