  40  40   1   0
  0.4040437E+02  0.1173535E-08  0.1173535E-08  0.1173535E-08  0.5000000E-15
   1.0000000000000000E-004
  CAR 
 CsPbBr3 cubic bulk                      
      8.38395062    -21.64918756  301     -0.50085276      1.00000000
    -21.649  0.0000E+00  0.0000E+00
    -21.549  0.0000E+00  0.0000E+00
    -21.449  0.0000E+00  0.0000E+00
    -21.349  0.0000E+00  0.0000E+00
    -21.249  0.0000E+00  0.0000E+00
    -21.149  0.0000E+00  0.0000E+00
    -21.049  0.0000E+00  0.0000E+00
    -20.948  0.0000E+00  0.0000E+00
    -20.848  0.0000E+00  0.0000E+00
    -20.748  0.0000E+00  0.0000E+00
    -20.648  0.0000E+00  0.0000E+00
    -20.548  0.0000E+00  0.0000E+00
    -20.448  0.0000E+00  0.0000E+00
    -20.348  0.0000E+00  0.0000E+00
    -20.248  0.1598E+03  0.1600E+02
    -20.148  0.0000E+00  0.1600E+02
    -20.047  0.0000E+00  0.1600E+02
    -19.947  0.0000E+00  0.1600E+02
    -19.847  0.0000E+00  0.1600E+02
    -19.747  0.0000E+00  0.1600E+02
    -19.647  0.0000E+00  0.1600E+02
    -19.547  0.0000E+00  0.1600E+02
    -19.447  0.0000E+00  0.1600E+02
    -19.347  0.0000E+00  0.1600E+02
    -19.247  0.0000E+00  0.1600E+02
    -19.146  0.0000E+00  0.1600E+02
    -19.046  0.0000E+00  0.1600E+02
    -18.946  0.0000E+00  0.1600E+02
    -18.846  0.0000E+00  0.1600E+02
    -18.746  0.0000E+00  0.1600E+02
    -18.646  0.0000E+00  0.1600E+02
    -18.546  0.0000E+00  0.1600E+02
    -18.446  0.0000E+00  0.1600E+02
    -18.346  0.0000E+00  0.1600E+02
    -18.245  0.0000E+00  0.1600E+02
    -18.145  0.0000E+00  0.1600E+02
    -18.045  0.0000E+00  0.1600E+02
    -17.945  0.0000E+00  0.1600E+02
    -17.845  0.0000E+00  0.1600E+02
    -17.745  0.0000E+00  0.1600E+02
    -17.645  0.0000E+00  0.1600E+02
    -17.545  0.0000E+00  0.1600E+02
    -17.445  0.0000E+00  0.1600E+02
    -17.344  0.0000E+00  0.1600E+02
    -17.244  0.0000E+00  0.1600E+02
    -17.144  0.0000E+00  0.1600E+02
    -17.044  0.4351E-12  0.1600E+02
    -16.944  0.3681E+03  0.5286E+02
    -16.844  0.1421E+03  0.9600E+02
    -16.744  0.0000E+00  0.9600E+02
    -16.644  0.0000E+00  0.9600E+02
    -16.544  0.0000E+00  0.9600E+02
    -16.443  0.0000E+00  0.9600E+02
    -16.343  0.0000E+00  0.9600E+02
    -16.243  0.0000E+00  0.9600E+02
    -16.143  0.0000E+00  0.9600E+02
    -16.043  0.0000E+00  0.9600E+02
    -15.943  0.0000E+00  0.9600E+02
    -15.843  0.0000E+00  0.9600E+02
    -15.743  0.0000E+00  0.9600E+02
    -15.643  0.0000E+00  0.9600E+02
    -15.542  0.0000E+00  0.9600E+02
    -15.442  0.0000E+00  0.9600E+02
    -15.342  0.0000E+00  0.9600E+02
    -15.242  0.0000E+00  0.9600E+02
    -15.142  0.0000E+00  0.9600E+02
    -15.042  0.0000E+00  0.9600E+02
    -14.942  0.0000E+00  0.9600E+02
    -14.842  0.0000E+00  0.9600E+02
    -14.742  0.0000E+00  0.9600E+02
    -14.641  0.0000E+00  0.9600E+02
    -14.541  0.0000E+00  0.9600E+02
    -14.441  0.0000E+00  0.9600E+02
    -14.341  0.0000E+00  0.9600E+02
    -14.241  0.2491E+02  0.9849E+02
    -14.141  0.9096E+02  0.1114E+03
    -14.041  0.1443E+03  0.1274E+03
    -13.941  0.1274E+03  0.1420E+03
    -13.841  0.4994E+01  0.1440E+03
    -13.740  0.0000E+00  0.1440E+03
    -13.640  0.0000E+00  0.1440E+03
    -13.540  0.0000E+00  0.1440E+03
    -13.440  0.0000E+00  0.1440E+03
    -13.340  0.0000E+00  0.1440E+03
    -13.240  0.0000E+00  0.1440E+03
    -13.140  0.0000E+00  0.1440E+03
    -13.040  0.0000E+00  0.1440E+03
    -12.940  0.0000E+00  0.1440E+03
    -12.839  0.0000E+00  0.1440E+03
    -12.739  0.0000E+00  0.1440E+03
    -12.639  0.0000E+00  0.1440E+03
    -12.539  0.0000E+00  0.1440E+03
    -12.439  0.0000E+00  0.1440E+03
    -12.339  0.0000E+00  0.1440E+03
    -12.239  0.0000E+00  0.1440E+03
    -12.139  0.0000E+00  0.1440E+03
    -12.039  0.0000E+00  0.1440E+03
    -11.938  0.0000E+00  0.1440E+03
    -11.838  0.0000E+00  0.1440E+03
    -11.738  0.0000E+00  0.1440E+03
    -11.638  0.0000E+00  0.1440E+03
    -11.538  0.0000E+00  0.1440E+03
    -11.438  0.0000E+00  0.1440E+03
    -11.338  0.0000E+00  0.1440E+03
    -11.238  0.0000E+00  0.1440E+03
    -11.138  0.0000E+00  0.1440E+03
    -11.037  0.0000E+00  0.1440E+03
    -10.937  0.0000E+00  0.1440E+03
    -10.837  0.0000E+00  0.1440E+03
    -10.737  0.0000E+00  0.1440E+03
    -10.637  0.0000E+00  0.1440E+03
    -10.537  0.0000E+00  0.1440E+03
    -10.437  0.0000E+00  0.1440E+03
    -10.337  0.0000E+00  0.1440E+03
    -10.237  0.0000E+00  0.1440E+03
    -10.136  0.0000E+00  0.1440E+03
    -10.036  0.0000E+00  0.1440E+03
     -9.936  0.0000E+00  0.1440E+03
     -9.836  0.0000E+00  0.1440E+03
     -9.736  0.0000E+00  0.1440E+03
     -9.636  0.0000E+00  0.1440E+03
     -9.536  0.0000E+00  0.1440E+03
     -9.436  0.0000E+00  0.1440E+03
     -9.336  0.0000E+00  0.1440E+03
     -9.235  0.0000E+00  0.1440E+03
     -9.135  0.0000E+00  0.1440E+03
     -9.035  0.0000E+00  0.1440E+03
     -8.935  0.0000E+00  0.1440E+03
     -8.835  0.0000E+00  0.1440E+03
     -8.735  0.0000E+00  0.1440E+03
     -8.635  0.0000E+00  0.1440E+03
     -8.535  0.0000E+00  0.1440E+03
     -8.435  0.0000E+00  0.1440E+03
     -8.334  0.0000E+00  0.1440E+03
     -8.234  0.0000E+00  0.1440E+03
     -8.134  0.0000E+00  0.1440E+03
     -8.034  0.2497E+01  0.1442E+03
     -7.934  0.1498E+02  0.1458E+03
     -7.834  0.3566E+02  0.1493E+03
     -7.734  0.3580E+02  0.1531E+03
     -7.634  0.1324E+02  0.1558E+03
     -7.534  0.3591E+01  0.1584E+03
     -7.434  0.4993E+01  0.1597E+03
     -7.333  0.2169E+01  0.1600E+03
     -7.233  0.0000E+00  0.1600E+03
     -7.133  0.0000E+00  0.1600E+03
     -7.033  0.4644E-08  0.1600E+03
     -6.933  0.9443E+02  0.1695E+03
     -6.833  0.1360E+03  0.1861E+03
     -6.733  0.1812E+03  0.2074E+03
     -6.633  0.2497E+01  0.2080E+03
     -6.533  0.0000E+00  0.2080E+03
     -6.432  0.0000E+00  0.2080E+03
     -6.332  0.0000E+00  0.2080E+03
     -6.232  0.0000E+00  0.2080E+03
     -6.132  0.0000E+00  0.2080E+03
     -6.032  0.0000E+00  0.2080E+03
     -5.932  0.0000E+00  0.2080E+03
     -5.832  0.0000E+00  0.2080E+03
     -5.732  0.0000E+00  0.2080E+03
     -5.632  0.0000E+00  0.2080E+03
     -5.531  0.0000E+00  0.2080E+03
     -5.431  0.0000E+00  0.2080E+03
     -5.331  0.0000E+00  0.2080E+03
     -5.231  0.0000E+00  0.2080E+03
     -5.131  0.0000E+00  0.2080E+03
     -5.031  0.0000E+00  0.2080E+03
     -4.931  0.0000E+00  0.2080E+03
     -4.831  0.0000E+00  0.2080E+03
     -4.731  0.0000E+00  0.2080E+03
     -4.630  0.0000E+00  0.2080E+03
     -4.530  0.0000E+00  0.2080E+03
     -4.430  0.0000E+00  0.2080E+03
     -4.330  0.0000E+00  0.2080E+03
     -4.230  0.0000E+00  0.2080E+03
     -4.130  0.0000E+00  0.2080E+03
     -4.030  0.0000E+00  0.2080E+03
     -3.930  0.0000E+00  0.2080E+03
     -3.830  0.0000E+00  0.2080E+03
     -3.729  0.0000E+00  0.2080E+03
     -3.629  0.0000E+00  0.2080E+03
     -3.529  0.0000E+00  0.2080E+03
     -3.429  0.0000E+00  0.2080E+03
     -3.329  0.0000E+00  0.2080E+03
     -3.229  0.0000E+00  0.2080E+03
     -3.129  0.0000E+00  0.2080E+03
     -3.029  0.1806E-08  0.2080E+03
     -2.929  0.1383E+02  0.2094E+03
     -2.828  0.4954E+02  0.2157E+03
     -2.728  0.2874E+02  0.2186E+03
     -2.628  0.7816E+01  0.2198E+03
     -2.528  0.6247E+01  0.2206E+03
     -2.428  0.2687E+02  0.2262E+03
     -2.328  0.3421E+02  0.2334E+03
     -2.228  0.6012E+02  0.2395E+03
     -2.128  0.3746E+02  0.2443E+03
     -2.028  0.2181E+02  0.2464E+03
     -1.927  0.4340E+02  0.2508E+03
     -1.827  0.2368E+02  0.2539E+03
     -1.727  0.2744E+02  0.2567E+03
     -1.627  0.5488E+02  0.2660E+03
     -1.527  0.7642E+02  0.2764E+03
     -1.427  0.5448E+02  0.2842E+03
     -1.327  0.5056E+02  0.2921E+03
     -1.227  0.1134E+03  0.3051E+03
     -1.127  0.9840E+02  0.3191E+03
     -1.026  0.7388E+02  0.3286E+03
     -0.926  0.7108E+02  0.3366E+03
     -0.826  0.3434E+02  0.3412E+03
     -0.726  0.2999E+02  0.3455E+03
     -0.626  0.4988E+02  0.3507E+03
     -0.526  0.1249E+02  0.3520E+03
     -0.426  0.0000E+00  0.3520E+03
     -0.326  0.0000E+00  0.3520E+03
     -0.226  0.0000E+00  0.3520E+03
     -0.125  0.0000E+00  0.3520E+03
     -0.025  0.0000E+00  0.3520E+03
      0.075  0.0000E+00  0.3520E+03
      0.175  0.0000E+00  0.3520E+03
      0.275  0.0000E+00  0.3520E+03
      0.375  0.0000E+00  0.3520E+03
      0.475  0.0000E+00  0.3520E+03
      0.575  0.0000E+00  0.3520E+03
      0.675  0.0000E+00  0.3520E+03
      0.776  0.0000E+00  0.3520E+03
      0.876  0.0000E+00  0.3520E+03
      0.976  0.0000E+00  0.3520E+03
      1.076  0.0000E+00  0.3520E+03
      1.176  0.0000E+00  0.3520E+03
      1.276  0.0000E+00  0.3520E+03
      1.376  0.0000E+00  0.3520E+03
      1.476  0.0000E+00  0.3520E+03
      1.576  0.0000E+00  0.3520E+03
      1.677  0.0000E+00  0.3520E+03
      1.777  0.0000E+00  0.3520E+03
      1.877  0.0000E+00  0.3520E+03
      1.977  0.0000E+00  0.3520E+03
      2.077  0.0000E+00  0.3520E+03
      2.177  0.0000E+00  0.3520E+03
      2.277  0.0000E+00  0.3520E+03
      2.377  0.0000E+00  0.3520E+03
      2.477  0.0000E+00  0.3520E+03
      2.578  0.4411E+01  0.3524E+03
      2.678  0.2193E+02  0.3549E+03
      2.778  0.3286E+02  0.3598E+03
      2.878  0.3046E+02  0.3630E+03
      2.978  0.7273E+00  0.3633E+03
      3.078  0.4989E+01  0.3640E+03
      3.178  0.0000E+00  0.3640E+03
      3.278  0.4378E-05  0.3640E+03
      3.378  0.3615E+02  0.3676E+03
      3.479  0.1510E+02  0.3705E+03
      3.579  0.2987E+02  0.3755E+03
      3.679  0.5793E+02  0.3818E+03
      3.779  0.5366E+02  0.3874E+03
      3.879  0.4994E+01  0.3880E+03
      3.979  0.0000E+00  0.3880E+03
      4.079  0.2762E+01  0.3883E+03
      4.179  0.2399E-02  0.3888E+03
      4.279  0.1183E+02  0.3899E+03
      4.380  0.1247E+02  0.3912E+03
      4.480  0.2468E+02  0.3937E+03
      4.580  0.1248E+02  0.3950E+03
      4.680  0.1260E+02  0.3975E+03
      4.780  0.9989E+01  0.3987E+03
      4.880  0.4994E+01  0.3992E+03
      4.980  0.4994E+01  0.3998E+03
      5.080  0.4992E+01  0.4002E+03
      5.180  0.0000E+00  0.4002E+03
      5.281  0.0000E+00  0.4002E+03
      5.381  0.0000E+00  0.4002E+03
      5.481  0.0000E+00  0.4002E+03
      5.581  0.0000E+00  0.4002E+03
      5.681  0.1760E-03  0.4003E+03
      5.781  0.1498E+02  0.4018E+03
      5.881  0.0000E+00  0.4018E+03
      5.981  0.0000E+00  0.4018E+03
      6.081  0.4248E+01  0.4022E+03
      6.182  0.1998E+02  0.4042E+03
      6.282  0.1699E+02  0.4060E+03
      6.382  0.1179E-09  0.4063E+03
      6.482  0.3146E+02  0.4094E+03
      6.582  0.4988E+02  0.4155E+03
      6.682  0.4497E+02  0.4208E+03
      6.782  0.3996E+02  0.4253E+03
      6.882  0.3864E+02  0.4291E+03
      6.982  0.1509E+02  0.4310E+03
      7.083  0.2497E+01  0.4320E+03
      7.183  0.0000E+00  0.4320E+03
      7.283  0.0000E+00  0.4320E+03
      7.383  0.0000E+00  0.4320E+03
      7.483  0.0000E+00  0.4320E+03
      7.583  0.0000E+00  0.4320E+03
      7.683  0.0000E+00  0.4320E+03
      7.783  0.0000E+00  0.4320E+03
      7.883  0.0000E+00  0.4320E+03
      7.984  0.0000E+00  0.4320E+03
      8.084  0.0000E+00  0.4320E+03
      8.184  0.0000E+00  0.4320E+03
      8.284  0.0000E+00  0.4320E+03
      8.384  0.0000E+00  0.4320E+03
      8.38395062    -21.64918756  301     -0.50085276      1.00000000
    -21.649  0.0000E+00  0.0000E+00  0.0000E+00
    -21.549  0.0000E+00  0.0000E+00  0.0000E+00
    -21.449  0.0000E+00  0.0000E+00  0.0000E+00
    -21.349  0.0000E+00  0.0000E+00  0.0000E+00
    -21.249  0.0000E+00  0.0000E+00  0.0000E+00
    -21.149  0.0000E+00  0.0000E+00  0.0000E+00
    -21.049  0.0000E+00  0.0000E+00  0.0000E+00
    -20.948  0.0000E+00  0.0000E+00  0.0000E+00
    -20.848  0.0000E+00  0.0000E+00  0.0000E+00
    -20.748  0.0000E+00  0.0000E+00  0.0000E+00
    -20.648  0.0000E+00  0.0000E+00  0.0000E+00
    -20.548  0.0000E+00  0.0000E+00  0.0000E+00
    -20.448  0.0000E+00  0.0000E+00  0.0000E+00
    -20.348  0.0000E+00  0.0000E+00  0.0000E+00
    -20.248  0.1759E+02  0.3407E-03  0.5379E-04
    -20.148  0.0000E+00  0.0000E+00  0.0000E+00
    -20.047  0.0000E+00  0.0000E+00  0.0000E+00
    -19.947  0.0000E+00  0.0000E+00  0.0000E+00
    -19.847  0.0000E+00  0.0000E+00  0.0000E+00
    -19.747  0.0000E+00  0.0000E+00  0.0000E+00
    -19.647  0.0000E+00  0.0000E+00  0.0000E+00
    -19.547  0.0000E+00  0.0000E+00  0.0000E+00
    -19.447  0.0000E+00  0.0000E+00  0.0000E+00
    -19.347  0.0000E+00  0.0000E+00  0.0000E+00
    -19.247  0.0000E+00  0.0000E+00  0.0000E+00
    -19.146  0.0000E+00  0.0000E+00  0.0000E+00
    -19.046  0.0000E+00  0.0000E+00  0.0000E+00
    -18.946  0.0000E+00  0.0000E+00  0.0000E+00
    -18.846  0.0000E+00  0.0000E+00  0.0000E+00
    -18.746  0.0000E+00  0.0000E+00  0.0000E+00
    -18.646  0.0000E+00  0.0000E+00  0.0000E+00
    -18.546  0.0000E+00  0.0000E+00  0.0000E+00
    -18.446  0.0000E+00  0.0000E+00  0.0000E+00
    -18.346  0.0000E+00  0.0000E+00  0.0000E+00
    -18.245  0.0000E+00  0.0000E+00  0.0000E+00
    -18.145  0.0000E+00  0.0000E+00  0.0000E+00
    -18.045  0.0000E+00  0.0000E+00  0.0000E+00
    -17.945  0.0000E+00  0.0000E+00  0.0000E+00
    -17.845  0.0000E+00  0.0000E+00  0.0000E+00
    -17.745  0.0000E+00  0.0000E+00  0.0000E+00
    -17.645  0.0000E+00  0.0000E+00  0.0000E+00
    -17.545  0.0000E+00  0.0000E+00  0.0000E+00
    -17.445  0.0000E+00  0.0000E+00  0.0000E+00
    -17.344  0.0000E+00  0.0000E+00  0.0000E+00
    -17.244  0.0000E+00  0.0000E+00  0.0000E+00
    -17.144  0.0000E+00  0.0000E+00  0.0000E+00
    -17.044  0.4118E-17  0.1280E-17  0.1930E-18
    -16.944  0.1897E-02  0.5492E-03  0.8927E-04
    -16.844  0.2347E-04  0.9277E-05  0.1550E-05
    -16.744  0.0000E+00  0.0000E+00  0.0000E+00
    -16.644  0.0000E+00  0.0000E+00  0.0000E+00
    -16.544  0.0000E+00  0.0000E+00  0.0000E+00
    -16.443  0.0000E+00  0.0000E+00  0.0000E+00
    -16.343  0.0000E+00  0.0000E+00  0.0000E+00
    -16.243  0.0000E+00  0.0000E+00  0.0000E+00
    -16.143  0.0000E+00  0.0000E+00  0.0000E+00
    -16.043  0.0000E+00  0.0000E+00  0.0000E+00
    -15.943  0.0000E+00  0.0000E+00  0.0000E+00
    -15.843  0.0000E+00  0.0000E+00  0.0000E+00
    -15.743  0.0000E+00  0.0000E+00  0.0000E+00
    -15.643  0.0000E+00  0.0000E+00  0.0000E+00
    -15.542  0.0000E+00  0.0000E+00  0.0000E+00
    -15.442  0.0000E+00  0.0000E+00  0.0000E+00
    -15.342  0.0000E+00  0.0000E+00  0.0000E+00
    -15.242  0.0000E+00  0.0000E+00  0.0000E+00
    -15.142  0.0000E+00  0.0000E+00  0.0000E+00
    -15.042  0.0000E+00  0.0000E+00  0.0000E+00
    -14.942  0.0000E+00  0.0000E+00  0.0000E+00
    -14.842  0.0000E+00  0.0000E+00  0.0000E+00
    -14.742  0.0000E+00  0.0000E+00  0.0000E+00
    -14.641  0.0000E+00  0.0000E+00  0.0000E+00
    -14.541  0.0000E+00  0.0000E+00  0.0000E+00
    -14.441  0.0000E+00  0.0000E+00  0.0000E+00
    -14.341  0.0000E+00  0.0000E+00  0.0000E+00
    -14.241  0.9210E-02  0.2203E-01  0.1234E-02
    -14.141  0.9234E-02  0.1117E+00  0.8749E-02
    -14.041  0.2441E-01  0.1126E+00  0.1242E-01
    -13.941  0.1285E+00  0.4984E-01  0.8089E-02
    -13.841  0.6282E-02  0.1518E-02  0.2696E-03
    -13.740  0.0000E+00  0.0000E+00  0.0000E+00
    -13.640  0.0000E+00  0.0000E+00  0.0000E+00
    -13.540  0.0000E+00  0.0000E+00  0.0000E+00
    -13.440  0.0000E+00  0.0000E+00  0.0000E+00
    -13.340  0.0000E+00  0.0000E+00  0.0000E+00
    -13.240  0.0000E+00  0.0000E+00  0.0000E+00
    -13.140  0.0000E+00  0.0000E+00  0.0000E+00
    -13.040  0.0000E+00  0.0000E+00  0.0000E+00
    -12.940  0.0000E+00  0.0000E+00  0.0000E+00
    -12.839  0.0000E+00  0.0000E+00  0.0000E+00
    -12.739  0.0000E+00  0.0000E+00  0.0000E+00
    -12.639  0.0000E+00  0.0000E+00  0.0000E+00
    -12.539  0.0000E+00  0.0000E+00  0.0000E+00
    -12.439  0.0000E+00  0.0000E+00  0.0000E+00
    -12.339  0.0000E+00  0.0000E+00  0.0000E+00
    -12.239  0.0000E+00  0.0000E+00  0.0000E+00
    -12.139  0.0000E+00  0.0000E+00  0.0000E+00
    -12.039  0.0000E+00  0.0000E+00  0.0000E+00
    -11.938  0.0000E+00  0.0000E+00  0.0000E+00
    -11.838  0.0000E+00  0.0000E+00  0.0000E+00
    -11.738  0.0000E+00  0.0000E+00  0.0000E+00
    -11.638  0.0000E+00  0.0000E+00  0.0000E+00
    -11.538  0.0000E+00  0.0000E+00  0.0000E+00
    -11.438  0.0000E+00  0.0000E+00  0.0000E+00
    -11.338  0.0000E+00  0.0000E+00  0.0000E+00
    -11.238  0.0000E+00  0.0000E+00  0.0000E+00
    -11.138  0.0000E+00  0.0000E+00  0.0000E+00
    -11.037  0.0000E+00  0.0000E+00  0.0000E+00
    -10.937  0.0000E+00  0.0000E+00  0.0000E+00
    -10.837  0.0000E+00  0.0000E+00  0.0000E+00
    -10.737  0.0000E+00  0.0000E+00  0.0000E+00
    -10.637  0.0000E+00  0.0000E+00  0.0000E+00
    -10.537  0.0000E+00  0.0000E+00  0.0000E+00
    -10.437  0.0000E+00  0.0000E+00  0.0000E+00
    -10.337  0.0000E+00  0.0000E+00  0.0000E+00
    -10.237  0.0000E+00  0.0000E+00  0.0000E+00
    -10.136  0.0000E+00  0.0000E+00  0.0000E+00
    -10.036  0.0000E+00  0.0000E+00  0.0000E+00
     -9.936  0.0000E+00  0.0000E+00  0.0000E+00
     -9.836  0.0000E+00  0.0000E+00  0.0000E+00
     -9.736  0.0000E+00  0.0000E+00  0.0000E+00
     -9.636  0.0000E+00  0.0000E+00  0.0000E+00
     -9.536  0.0000E+00  0.0000E+00  0.0000E+00
     -9.436  0.0000E+00  0.0000E+00  0.0000E+00
     -9.336  0.0000E+00  0.0000E+00  0.0000E+00
     -9.235  0.0000E+00  0.0000E+00  0.0000E+00
     -9.135  0.0000E+00  0.0000E+00  0.0000E+00
     -9.035  0.0000E+00  0.0000E+00  0.0000E+00
     -8.935  0.0000E+00  0.0000E+00  0.0000E+00
     -8.835  0.0000E+00  0.0000E+00  0.0000E+00
     -8.735  0.0000E+00  0.0000E+00  0.0000E+00
     -8.635  0.0000E+00  0.0000E+00  0.0000E+00
     -8.535  0.0000E+00  0.0000E+00  0.0000E+00
     -8.435  0.0000E+00  0.0000E+00  0.0000E+00
     -8.334  0.0000E+00  0.0000E+00  0.0000E+00
     -8.234  0.0000E+00  0.0000E+00  0.0000E+00
     -8.134  0.0000E+00  0.0000E+00  0.0000E+00
     -8.034  0.1257E-14  0.1117E-03  0.1035E-05
     -7.934  0.4433E-04  0.4578E-01  0.1156E-03
     -7.834  0.2091E-03  0.1999E+00  0.5632E-03
     -7.734  0.4153E-03  0.2844E+00  0.8421E-03
     -7.634  0.2351E-03  0.1350E+00  0.4156E-03
     -7.534  0.5295E-04  0.1735E-01  0.1562E-03
     -7.434  0.2593E-03  0.3573E-01  0.1859E-03
     -7.333  0.2209E-03  0.2727E-01  0.4454E-04
     -7.233  0.0000E+00  0.0000E+00  0.0000E+00
     -7.133  0.0000E+00  0.0000E+00  0.0000E+00
     -7.033  0.6201E-15  0.3900E-09  0.6860E-13
     -6.933  0.1090E-03  0.8178E+01  0.1393E-02
     -6.833  0.3974E-03  0.1210E+02  0.1297E-02
     -6.733  0.7767E-03  0.1580E+02  0.3799E-03
     -6.633  0.3734E-05  0.2055E+00  0.4015E-05
     -6.533  0.0000E+00  0.0000E+00  0.0000E+00
     -6.432  0.0000E+00  0.0000E+00  0.0000E+00
     -6.332  0.0000E+00  0.0000E+00  0.0000E+00
     -6.232  0.0000E+00  0.0000E+00  0.0000E+00
     -6.132  0.0000E+00  0.0000E+00  0.0000E+00
     -6.032  0.0000E+00  0.0000E+00  0.0000E+00
     -5.932  0.0000E+00  0.0000E+00  0.0000E+00
     -5.832  0.0000E+00  0.0000E+00  0.0000E+00
     -5.732  0.0000E+00  0.0000E+00  0.0000E+00
     -5.632  0.0000E+00  0.0000E+00  0.0000E+00
     -5.531  0.0000E+00  0.0000E+00  0.0000E+00
     -5.431  0.0000E+00  0.0000E+00  0.0000E+00
     -5.331  0.0000E+00  0.0000E+00  0.0000E+00
     -5.231  0.0000E+00  0.0000E+00  0.0000E+00
     -5.131  0.0000E+00  0.0000E+00  0.0000E+00
     -5.031  0.0000E+00  0.0000E+00  0.0000E+00
     -4.931  0.0000E+00  0.0000E+00  0.0000E+00
     -4.831  0.0000E+00  0.0000E+00  0.0000E+00
     -4.731  0.0000E+00  0.0000E+00  0.0000E+00
     -4.630  0.0000E+00  0.0000E+00  0.0000E+00
     -4.530  0.0000E+00  0.0000E+00  0.0000E+00
     -4.430  0.0000E+00  0.0000E+00  0.0000E+00
     -4.330  0.0000E+00  0.0000E+00  0.0000E+00
     -4.230  0.0000E+00  0.0000E+00  0.0000E+00
     -4.130  0.0000E+00  0.0000E+00  0.0000E+00
     -4.030  0.0000E+00  0.0000E+00  0.0000E+00
     -3.930  0.0000E+00  0.0000E+00  0.0000E+00
     -3.830  0.0000E+00  0.0000E+00  0.0000E+00
     -3.729  0.0000E+00  0.0000E+00  0.0000E+00
     -3.629  0.0000E+00  0.0000E+00  0.0000E+00
     -3.529  0.0000E+00  0.0000E+00  0.0000E+00
     -3.429  0.0000E+00  0.0000E+00  0.0000E+00
     -3.329  0.0000E+00  0.0000E+00  0.0000E+00
     -3.229  0.0000E+00  0.0000E+00  0.0000E+00
     -3.129  0.0000E+00  0.0000E+00  0.0000E+00
     -3.029  0.1418E-13  0.5861E-11  0.1556E-12
     -2.929  0.5239E-04  0.2548E-01  0.2221E-02
     -2.828  0.6413E-03  0.3685E-01  0.7733E-02
     -2.728  0.3128E-04  0.1884E-01  0.7917E-02
     -2.628  0.2019E-15  0.7639E-03  0.1175E-02
     -2.528  0.1455E-02  0.8554E-02  0.2134E-02
     -2.428  0.9372E-02  0.3577E-01  0.1198E-01
     -2.328  0.2413E-02  0.9492E-01  0.1271E-01
     -2.228  0.6678E-02  0.9614E-01  0.2010E-01
     -2.128  0.4161E-02  0.7325E-01  0.1361E-01
     -2.028  0.1583E-01  0.1678E-01  0.9718E-02
     -1.927  0.2401E-01  0.5178E-01  0.1978E-01
     -1.827  0.9662E-02  0.3601E-01  0.1172E-01
     -1.727  0.1348E-01  0.5068E-01  0.1283E-01
     -1.627  0.3042E-01  0.1055E+00  0.3267E-01
     -1.527  0.2978E-01  0.1671E+00  0.3636E-01
     -1.427  0.1694E-01  0.1090E+00  0.3051E-01
     -1.327  0.2753E-01  0.1402E+00  0.2735E-01
     -1.227  0.7003E-02  0.3051E+00  0.6801E-01
     -1.127  0.1103E-01  0.2362E+00  0.4356E-01
     -1.026  0.6040E-02  0.2285E+00  0.2711E-01
     -0.926  0.3644E-02  0.7256E+00  0.8494E-01
     -0.826  0.3047E-02  0.2317E+00  0.3100E-01
     -0.726  0.2014E-02  0.2028E+00  0.2232E-01
     -0.626  0.5142E-02  0.5126E+00  0.4444E-01
     -0.526  0.8281E-04  0.1143E+00  0.1027E-01
     -0.426  0.0000E+00  0.0000E+00  0.0000E+00
     -0.326  0.0000E+00  0.0000E+00  0.0000E+00
     -0.226  0.0000E+00  0.0000E+00  0.0000E+00
     -0.125  0.0000E+00  0.0000E+00  0.0000E+00
     -0.025  0.0000E+00  0.0000E+00  0.0000E+00
      0.075  0.0000E+00  0.0000E+00  0.0000E+00
      0.175  0.0000E+00  0.0000E+00  0.0000E+00
      0.275  0.0000E+00  0.0000E+00  0.0000E+00
      0.375  0.0000E+00  0.0000E+00  0.0000E+00
      0.475  0.0000E+00  0.0000E+00  0.0000E+00
      0.575  0.0000E+00  0.0000E+00  0.0000E+00
      0.675  0.0000E+00  0.0000E+00  0.0000E+00
      0.776  0.0000E+00  0.0000E+00  0.0000E+00
      0.876  0.0000E+00  0.0000E+00  0.0000E+00
      0.976  0.0000E+00  0.0000E+00  0.0000E+00
      1.076  0.0000E+00  0.0000E+00  0.0000E+00
      1.176  0.0000E+00  0.0000E+00  0.0000E+00
      1.276  0.0000E+00  0.0000E+00  0.0000E+00
      1.376  0.0000E+00  0.0000E+00  0.0000E+00
      1.476  0.0000E+00  0.0000E+00  0.0000E+00
      1.576  0.0000E+00  0.0000E+00  0.0000E+00
      1.677  0.0000E+00  0.0000E+00  0.0000E+00
      1.777  0.0000E+00  0.0000E+00  0.0000E+00
      1.877  0.0000E+00  0.0000E+00  0.0000E+00
      1.977  0.0000E+00  0.0000E+00  0.0000E+00
      2.077  0.0000E+00  0.0000E+00  0.0000E+00
      2.177  0.0000E+00  0.0000E+00  0.0000E+00
      2.277  0.0000E+00  0.0000E+00  0.0000E+00
      2.377  0.0000E+00  0.0000E+00  0.0000E+00
      2.477  0.0000E+00  0.0000E+00  0.0000E+00
      2.578  0.1326E-03  0.2478E-03  0.2419E-02
      2.678  0.5044E-02  0.2078E-02  0.1001E-01
      2.778  0.2160E-02  0.1299E-01  0.1217E-01
      2.878  0.1276E-02  0.2183E-01  0.7776E-02
      2.978  0.2623E-04  0.1049E-02  0.2444E-03
      3.078  0.7112E-03  0.3579E-02  0.1510E-02
      3.178  0.0000E+00  0.0000E+00  0.0000E+00
      3.278  0.3533E-10  0.6480E-09  0.3811E-08
      3.378  0.4258E-02  0.6908E-02  0.3363E-01
      3.479  0.7107E-04  0.4691E-02  0.1650E-01
      3.579  0.2621E-02  0.1415E-01  0.1027E-01
      3.679  0.5051E-02  0.1661E-01  0.3139E-01
      3.779  0.5984E-02  0.1820E-01  0.2326E-01
      3.879  0.2622E-03  0.2909E-02  0.2384E-02
      3.979  0.0000E+00  0.0000E+00  0.0000E+00
      4.079  0.9140E-15  0.3328E-04  0.3648E-03
      4.179  0.1563E-17  0.6889E-06  0.1959E-05
      4.279  0.4994E-13  0.1163E-02  0.2431E-02
      4.380  0.5407E-03  0.1471E-02  0.1185E-01
      4.480  0.6361E-03  0.4009E-02  0.1850E-01
      4.580  0.4911E-03  0.3875E-02  0.4867E-02
      4.680  0.2476E-03  0.2681E-02  0.4558E-02
      4.780  0.5513E-12  0.3287E-02  0.1834E-02
      4.880  0.1052E-12  0.1215E-02  0.2134E-02
      4.980  0.3019E-07  0.1997E-02  0.1946E-02
      5.080  0.9213E-02  0.1948E-02  0.4929E-02
      5.180  0.0000E+00  0.0000E+00  0.0000E+00
      5.281  0.0000E+00  0.0000E+00  0.0000E+00
      5.381  0.0000E+00  0.0000E+00  0.0000E+00
      5.481  0.0000E+00  0.0000E+00  0.0000E+00
      5.581  0.0000E+00  0.0000E+00  0.0000E+00
      5.681  0.5239E-06  0.1975E-06  0.4474E-06
      5.781  0.4219E-01  0.1586E-01  0.3263E-01
      5.881  0.0000E+00  0.0000E+00  0.0000E+00
      5.981  0.0000E+00  0.0000E+00  0.0000E+00
      6.081  0.1026E-01  0.4535E-02  0.2002E-01
      6.182  0.4722E-01  0.2394E-01  0.8501E-01
      6.282  0.3763E-01  0.1456E-01  0.1130E+00
      6.382  0.1310E-18  0.1374E-13  0.1241E-11
      6.482  0.4593E-01  0.1800E-01  0.3500E+00
      6.582  0.1288E-01  0.2364E-01  0.5595E+00
      6.682  0.1621E-01  0.3147E-01  0.4474E+00
      6.782  0.3014E-01  0.2398E-01  0.5110E+00
      6.882  0.1920E-01  0.3780E-01  0.5092E+00
      6.982  0.2030E-02  0.8090E-02  0.1707E+00
      7.083  0.9446E-03  0.3324E-02  0.7277E-01
      7.183  0.0000E+00  0.0000E+00  0.0000E+00
      7.283  0.0000E+00  0.0000E+00  0.0000E+00
      7.383  0.0000E+00  0.0000E+00  0.0000E+00
      7.483  0.0000E+00  0.0000E+00  0.0000E+00
      7.583  0.0000E+00  0.0000E+00  0.0000E+00
      7.683  0.0000E+00  0.0000E+00  0.0000E+00
      7.783  0.0000E+00  0.0000E+00  0.0000E+00
      7.883  0.0000E+00  0.0000E+00  0.0000E+00
      7.984  0.0000E+00  0.0000E+00  0.0000E+00
      8.084  0.0000E+00  0.0000E+00  0.0000E+00
      8.184  0.0000E+00  0.0000E+00  0.0000E+00
      8.284  0.0000E+00  0.0000E+00  0.0000E+00
      8.384  0.0000E+00  0.0000E+00  0.0000E+00
      8.38395062    -21.64918756  301     -0.50085276      1.00000000
    -21.649  0.0000E+00  0.0000E+00  0.0000E+00
    -21.549  0.0000E+00  0.0000E+00  0.0000E+00
    -21.449  0.0000E+00  0.0000E+00  0.0000E+00
    -21.349  0.0000E+00  0.0000E+00  0.0000E+00
    -21.249  0.0000E+00  0.0000E+00  0.0000E+00
    -21.149  0.0000E+00  0.0000E+00  0.0000E+00
    -21.049  0.0000E+00  0.0000E+00  0.0000E+00
    -20.948  0.0000E+00  0.0000E+00  0.0000E+00
    -20.848  0.0000E+00  0.0000E+00  0.0000E+00
    -20.748  0.0000E+00  0.0000E+00  0.0000E+00
    -20.648  0.0000E+00  0.0000E+00  0.0000E+00
    -20.548  0.0000E+00  0.0000E+00  0.0000E+00
    -20.448  0.0000E+00  0.0000E+00  0.0000E+00
    -20.348  0.0000E+00  0.0000E+00  0.0000E+00
    -20.248  0.1759E+02  0.3407E-03  0.5379E-04
    -20.148  0.0000E+00  0.0000E+00  0.0000E+00
    -20.047  0.0000E+00  0.0000E+00  0.0000E+00
    -19.947  0.0000E+00  0.0000E+00  0.0000E+00
    -19.847  0.0000E+00  0.0000E+00  0.0000E+00
    -19.747  0.0000E+00  0.0000E+00  0.0000E+00
    -19.647  0.0000E+00  0.0000E+00  0.0000E+00
    -19.547  0.0000E+00  0.0000E+00  0.0000E+00
    -19.447  0.0000E+00  0.0000E+00  0.0000E+00
    -19.347  0.0000E+00  0.0000E+00  0.0000E+00
    -19.247  0.0000E+00  0.0000E+00  0.0000E+00
    -19.146  0.0000E+00  0.0000E+00  0.0000E+00
    -19.046  0.0000E+00  0.0000E+00  0.0000E+00
    -18.946  0.0000E+00  0.0000E+00  0.0000E+00
    -18.846  0.0000E+00  0.0000E+00  0.0000E+00
    -18.746  0.0000E+00  0.0000E+00  0.0000E+00
    -18.646  0.0000E+00  0.0000E+00  0.0000E+00
    -18.546  0.0000E+00  0.0000E+00  0.0000E+00
    -18.446  0.0000E+00  0.0000E+00  0.0000E+00
    -18.346  0.0000E+00  0.0000E+00  0.0000E+00
    -18.245  0.0000E+00  0.0000E+00  0.0000E+00
    -18.145  0.0000E+00  0.0000E+00  0.0000E+00
    -18.045  0.0000E+00  0.0000E+00  0.0000E+00
    -17.945  0.0000E+00  0.0000E+00  0.0000E+00
    -17.845  0.0000E+00  0.0000E+00  0.0000E+00
    -17.745  0.0000E+00  0.0000E+00  0.0000E+00
    -17.645  0.0000E+00  0.0000E+00  0.0000E+00
    -17.545  0.0000E+00  0.0000E+00  0.0000E+00
    -17.445  0.0000E+00  0.0000E+00  0.0000E+00
    -17.344  0.0000E+00  0.0000E+00  0.0000E+00
    -17.244  0.0000E+00  0.0000E+00  0.0000E+00
    -17.144  0.0000E+00  0.0000E+00  0.0000E+00
    -17.044  0.4118E-17  0.1280E-17  0.1930E-18
    -16.944  0.1897E-02  0.5492E-03  0.8927E-04
    -16.844  0.2347E-04  0.9277E-05  0.1550E-05
    -16.744  0.0000E+00  0.0000E+00  0.0000E+00
    -16.644  0.0000E+00  0.0000E+00  0.0000E+00
    -16.544  0.0000E+00  0.0000E+00  0.0000E+00
    -16.443  0.0000E+00  0.0000E+00  0.0000E+00
    -16.343  0.0000E+00  0.0000E+00  0.0000E+00
    -16.243  0.0000E+00  0.0000E+00  0.0000E+00
    -16.143  0.0000E+00  0.0000E+00  0.0000E+00
    -16.043  0.0000E+00  0.0000E+00  0.0000E+00
    -15.943  0.0000E+00  0.0000E+00  0.0000E+00
    -15.843  0.0000E+00  0.0000E+00  0.0000E+00
    -15.743  0.0000E+00  0.0000E+00  0.0000E+00
    -15.643  0.0000E+00  0.0000E+00  0.0000E+00
    -15.542  0.0000E+00  0.0000E+00  0.0000E+00
    -15.442  0.0000E+00  0.0000E+00  0.0000E+00
    -15.342  0.0000E+00  0.0000E+00  0.0000E+00
    -15.242  0.0000E+00  0.0000E+00  0.0000E+00
    -15.142  0.0000E+00  0.0000E+00  0.0000E+00
    -15.042  0.0000E+00  0.0000E+00  0.0000E+00
    -14.942  0.0000E+00  0.0000E+00  0.0000E+00
    -14.842  0.0000E+00  0.0000E+00  0.0000E+00
    -14.742  0.0000E+00  0.0000E+00  0.0000E+00
    -14.641  0.0000E+00  0.0000E+00  0.0000E+00
    -14.541  0.0000E+00  0.0000E+00  0.0000E+00
    -14.441  0.0000E+00  0.0000E+00  0.0000E+00
    -14.341  0.0000E+00  0.0000E+00  0.0000E+00
    -14.241  0.9210E-02  0.2203E-01  0.1234E-02
    -14.141  0.9234E-02  0.1117E+00  0.8749E-02
    -14.041  0.2441E-01  0.1126E+00  0.1242E-01
    -13.941  0.1285E+00  0.4984E-01  0.8089E-02
    -13.841  0.6282E-02  0.1518E-02  0.2696E-03
    -13.740  0.0000E+00  0.0000E+00  0.0000E+00
    -13.640  0.0000E+00  0.0000E+00  0.0000E+00
    -13.540  0.0000E+00  0.0000E+00  0.0000E+00
    -13.440  0.0000E+00  0.0000E+00  0.0000E+00
    -13.340  0.0000E+00  0.0000E+00  0.0000E+00
    -13.240  0.0000E+00  0.0000E+00  0.0000E+00
    -13.140  0.0000E+00  0.0000E+00  0.0000E+00
    -13.040  0.0000E+00  0.0000E+00  0.0000E+00
    -12.940  0.0000E+00  0.0000E+00  0.0000E+00
    -12.839  0.0000E+00  0.0000E+00  0.0000E+00
    -12.739  0.0000E+00  0.0000E+00  0.0000E+00