       N       E                     dE             d eps       ncg     rms          rms(c)
DAV:   1     0.137670038884E+04    0.13767E+04   -0.11288E+05  2696   0.958E+02
DAV:   2    -0.111613931253E+04   -0.24928E+04   -0.23839E+04  3216   0.295E+02
DAV:   3    -0.148915998639E+04   -0.37302E+03   -0.37048E+03  3456   0.135E+02
DAV:   4    -0.150153419037E+04   -0.12374E+02   -0.12344E+02  3008   0.326E+01
DAV:   5    -0.150211068311E+04   -0.57649E+00   -0.57634E+00  3368   0.557E+00    0.116E+01
DAV:   6    -0.141728405302E+04    0.84827E+02   -0.27653E+01  3352   0.296E+01    0.792E+00
DAV:   7    -0.141668449246E+04    0.59956E+00   -0.10705E+01  3112   0.619E+00    0.396E+00
DAV:   8    -0.141693367443E+04   -0.24918E+00   -0.67275E-01  2880   0.231E+00    0.223E+00
DAV:   9    -0.141700544126E+04   -0.71767E-01   -0.28710E-01  2856   0.154E+00    0.465E-01
DAV:  10    -0.141701169929E+04   -0.62580E-02   -0.32168E-02  3448   0.446E-01    0.313E-01
DAV:  11    -0.141701488494E+04   -0.31856E-02   -0.41654E-03  2864   0.185E-01    0.905E-02
DAV:  12    -0.141701532546E+04   -0.44051E-03   -0.98942E-04  2960   0.844E-02    0.418E-02
DAV:  13    -0.141701556912E+04   -0.24366E-03   -0.12182E-04  3464   0.231E-02    0.311E-02
DAV:  14    -0.141701555191E+04    0.17210E-04   -0.71629E-05  2904   0.199E-02    0.628E-03
DAV:  15    -0.141701553974E+04    0.12170E-04   -0.83836E-06  2568   0.630E-03    0.298E-03
DAV:  16    -0.141701555356E+04   -0.13825E-04   -0.48282E-07  1552   0.222E-03    0.117E-03
DAV:  17    -0.141701555298E+04    0.58009E-06   -0.13458E-07  1584   0.130E-03
   1 F= -.14170156E+04 E0= -.14170156E+04  d E =-.399683E-16
