CsPbBr3 cubic bulk                      
           1
    11.735352    0.000000    0.000000
     0.000000   11.735352    0.000000
     0.000000    0.000000   11.735352
   Cs   Pb   Br
   8   8  24
Direct configuration=     1
   0.25000000  0.25000000  0.25000000
   0.25000000  0.25000000  0.75000000
   0.25000000  0.75000000  0.25000000
   0.25000000  0.75000000  0.75000000
   0.75000000  0.25000000  0.25000000
   0.75000000  0.25000000  0.75000000
   0.75000000  0.75000000  0.25000000
   0.75000000  0.75000000  0.75000000
   0.00000000  0.00000000  0.00000000
   0.00000000  0.00000000  0.50000000
   0.00000000  0.50000000  0.00000000
   0.00000000  0.50000000  0.50000000
   0.50000000  0.00000000  0.00000000
   0.50000000  0.00000000  0.50000000
   0.50000000  0.50000000  0.00000000
   0.50000000  0.50000000  0.50000000
   0.93250000  0.25000000  0.07500000
   0.93250000  0.25000000  0.42500000
   0.06750000  0.75000000  0.92500000
   0.06750000  0.75000000  0.57500000
   0.56750000  0.25000000  0.92500000
   0.56750000  0.25000000  0.57500000
   0.43250000  0.75000000  0.07500000
   0.43250000  0.75000000  0.42500000
   0.07500000  0.92500000  0.25000000
   0.92500000  0.07500000  0.75000000
   0.92500000  0.57500000  0.25000000
   0.07500000  0.42500000  0.75000000
   0.42500000  0.07500000  0.25000000
   0.57500000  0.92500000  0.75000000
   0.57500000  0.42500000  0.25000000
   0.42500000  0.57500000  0.75000000
   0.25000000  0.06750000  0.92500000
   0.25000000  0.06750000  0.57500000
   0.25000000  0.43250000  0.07500000
   0.25000000  0.43250000  0.42500000
   0.75000000  0.93250000  0.07500000
   0.75000000  0.93250000  0.42500000
   0.75000000  0.56750000  0.92500000
   0.75000000  0.56750000  0.57500000
