       N       E                     dE             d eps       ncg     rms          rms(c)
DAV:   1     0.136260403600E+04    0.13626E+04   -0.11069E+05  3496   0.973E+02
DAV:   2    -0.110205411352E+04   -0.24647E+04   -0.23859E+04  4136   0.301E+02
DAV:   3    -0.146245243857E+04   -0.36040E+03   -0.35832E+03  4384   0.136E+02
DAV:   4    -0.147520549785E+04   -0.12753E+02   -0.12710E+02  3912   0.341E+01
DAV:   5    -0.147581383849E+04   -0.60834E+00   -0.60802E+00  4488   0.570E+00    0.200E+01
DAV:   6    -0.139682495471E+04    0.78989E+02   -0.23650E+01  4320   0.322E+01    0.131E+01
DAV:   7    -0.139620572838E+04    0.61923E+00   -0.14074E+01  4120   0.781E+00    0.443E+00
DAV:   8    -0.139628397432E+04   -0.78246E-01   -0.12757E+00  3824   0.318E+00    0.279E+00
DAV:   9    -0.139627853009E+04    0.54442E-02   -0.22293E-01  4088   0.130E+00    0.580E-01
DAV:  10    -0.139628249253E+04   -0.39624E-02   -0.25968E-02  4728   0.513E-01    0.370E-01
DAV:  11    -0.139628595784E+04   -0.34653E-02   -0.66713E-03  3824   0.219E-01    0.126E-01
DAV:  12    -0.139628786742E+04   -0.19096E-02   -0.32893E-03  3824   0.146E-01    0.925E-02
DAV:  13    -0.139628812200E+04   -0.25458E-03   -0.14551E-03  4088   0.921E-02    0.418E-02
DAV:  14    -0.139628841140E+04   -0.28940E-03   -0.36053E-04  4088   0.432E-02    0.209E-02
DAV:  15    -0.139628840984E+04    0.15629E-05   -0.46573E-05  3960   0.159E-02    0.126E-02
DAV:  16    -0.139628840635E+04    0.34893E-05   -0.12605E-05  3664   0.840E-03    0.551E-03
DAV:  17    -0.139628840547E+04    0.87866E-06   -0.44956E-06  3424   0.570E-03
   1 F= -.13962884E+04 E0= -.13962884E+04  d E =-.865237E-62
