 vasp.5.4.4.18Apr17-6-g9f103f2a35 (build Jun 22 2020 09:27:21) complex           
 executed on tx2_gcc-7.3_libsci-1 date 2021.10.12  00:18:46
 running on   64 total cores
 distrk:  each k-point on   64 cores,    1 groups
 distr:  one band on NCORES_PER_BAND=   8 cores,    8 groups


--------------------------------------------------------------------------------------------------------


 INCAR:
 POTCAR:    PAW_PBE Cs_sv 08Apr2002               
 POTCAR:    PAW_PBE Pb_d 06Sep2000                
 POTCAR:    PAW_PBE Br 06Sep2000                  
 POTCAR:    PAW_PBE Cs_sv 08Apr2002               
   SHA256 =  c1463496f0f6037ed62c6012a8013a89ee9ad6ffb38599dcd6c079e7ed31779b Cs
   COPYR  = (c) Copyright 08Apr2002 Georg Kresse                                
   COPYR  = This file is part of the software VASP. Any use, copying, and all ot
   COPYR  = If you do not have a valid VASP license, you may not use, copy or di
   VRHFIN =Cs: 5s5p6s                                                           
   LEXCH  = PE                                                                  
   EATOM  =   555.6835 eV,   40.8416 Ry                                         
                                                                                
   TITEL  = PAW_PBE Cs_sv 08Apr2002                                             
   LULTRA =        F    use ultrasoft PP ?                                      
   IUNSCR =        1    unscreen: 0-lin 1-nonlin 2-no                           
   RPACOR =    2.200    partial core radius                                     
   POMASS =  132.900; ZVAL   =    9.000    mass and valenz                      
   RCORE  =    2.500    outmost cutoff radius                                   
   RWIGS  =    2.500; RWIGS  =    1.323    wigner-seitz radius (au A)           
   ENMAX  =  220.318; ENMIN  =  165.238 eV                                      
   RCLOC  =    2.207    cutoff for local pot                                    
   LCOR   =        T    correct aug charges                                     
   LPAW   =        T    paw PP                                                  
   EAUG   =  407.933                                                            
   DEXC   =    0.000                                                            
   RMAX   =    2.554    core radius for proj-oper                               
   RAUG   =    1.300    factor for augmentation sphere                          
   RDEP   =    2.590    radius for radial grids                                 
   RDEPT  =    2.117    core radius for aug-charge                              
                                                                                
   Atomic configuration                                                         
   13 entries                                                                   
     n  l   j            E        occ.                                          
     1  0  0.50    -35790.1377   2.0000                                         
     2  0  0.50     -5613.6201   2.0000                                         
     2  1  1.50     -5035.0101   6.0000                                         
     3  0  0.50     -1167.0767   2.0000                                         
     3  1  1.50      -980.9754   6.0000                                         
     3  2  2.50      -708.0703  10.0000                                         
     4  0  0.50      -220.2386   2.0000                                         
     4  1  1.50      -160.7596   6.0000                                         
     4  2  2.50       -74.2354  10.0000                                         
     5  0  0.50       -26.7287   2.0000                                         
     6  0  0.50        -2.0862   1.0000                                         
     5  1  1.50       -13.5159   6.0000                                         
     5  2  2.50        -0.4136   0.0000                                         
   Description                                                                  
     l       E           TYP  RCUT    TYP  RCUT                                 
     0    -26.7287425     23  1.900                                             
     0     -2.0862306     23  1.900                                             
     1    -13.5158719     23  2.500                                             
     1     -2.7211652     23  2.500                                             
     2     -0.4136171     23  2.500                                             
  local pseudopotential read in
  partial core-charges read in
  partial kinetic energy density read in
  atomic valenz-charges read in
  non local Contribution for L=           0  read in
    real space projection operators read in
  non local Contribution for L=           0  read in
    real space projection operators read in
  non local Contribution for L=           1  read in
    real space projection operators read in
  non local Contribution for L=           1  read in
    real space projection operators read in
  non local Contribution for L=           2  read in
    real space projection operators read in
    PAW grid and wavefunctions read in

   number of l-projection  operators is LMAX  =           5
   number of lm-projection operators is LMMAX =          13

 POTCAR:    PAW_PBE Pb_d 06Sep2000                
   SHA256 =  fb885b08f0fba73a15f6a6b0e39bd200c13ec96ef97cf3ecd8e63bade5137abd Pb
   COPYR  = (c) Copyright 06Sep2000 Georg Kresse                                
   COPYR  = This file is part of the software VASP. Any use, copying, and all ot
   COPYR  = If you do not have a valid VASP license, you may not use, copy or di
   VRHFIN =Pb:                                                                  
   LEXCH  = PE                                                                  
   EATOM  =  1661.6185 eV,  122.1255 Ry                                         
                                                                                
   TITEL  = PAW_PBE Pb_d 06Sep2000                                              
   LULTRA =        F    use ultrasoft PP ?                                      
   IUNSCR =        1    unscreen: 0-lin 1-nonlin 2-no                           
   RPACOR =    2.200    partial core radius                                     
   POMASS =  207.200; ZVAL   =   14.000    mass and valenz                      
   RCORE  =    2.500    outmost cutoff radius                                   
   RWIGS  =    3.260; RWIGS  =    1.725    wigner-seitz radius (au A)           
   ENMAX  =  237.835; ENMIN  =  178.376 eV                                      
   ICORE  =        3    local potential                                         
   LCOR   =        T    correct aug charges                                     
   LPAW   =        T    paw PP                                                  
   EAUG   =  391.914                                                            
   DEXC   =    0.000                                                            
   RMAX   =    2.565    core radius for proj-oper                               
   RAUG   =    1.300    factor for augmentation sphere                          
   RDEP   =    2.643    radius for radial grids                                 
   RDEPT  =    2.092    core radius for aug-charge                              
                                                                                
   Atomic configuration                                                         
   16 entries                                                                   
     n  l   j            E        occ.                                          
     1  0  0.50    -88091.8466   2.0000                                         
     2  0  0.50    -15753.4197   2.0000                                         
     2  1  1.50    -13508.1797   6.0000                                         
     3  0  0.50     -3781.7194   2.0000                                         
     3  1  1.50     -3138.2529   6.0000                                         
     3  2  2.50     -2483.2977  10.0000                                         
     4  0  0.50      -856.2895   2.0000                                         
     4  1  1.50      -645.4942   6.0000                                         
     4  2  2.50      -401.8768  10.0000                                         
     4  3  3.50      -132.9059  14.0000                                         
     5  0  0.50      -144.0950   2.0000                                         
     5  1  1.50       -85.7879   6.0000                                         
     5  2  2.50       -21.1769  10.0000                                         
     6  0  0.50       -12.0372   2.0000                                         
     6  1  1.50        -3.4971   2.0000                                         
     5  3  2.50        -2.7212   0.0000                                         
   Description                                                                  
     l       E           TYP  RCUT    TYP  RCUT                                 
     2    -21.1768523     23  2.500                                             
     2      1.3605826     23  2.500                                             
     0    -12.0371562     23  2.500                                             
     0     13.6058260     23  2.500                                             
     1     -3.4971339     23  2.500                                             
     1     13.6058260     23  2.500                                             
     3     -1.3605826      7  2.500                                             
  local pseudopotential read in
  partial core-charges read in
  partial kinetic energy density read in
  atomic valenz-charges read in
  non local Contribution for L=           2  read in
    real space projection operators read in
  non local Contribution for L=           2  read in
    real space projection operators read in
  non local Contribution for L=           0  read in
    real space projection operators read in
  non local Contribution for L=           0  read in
    real space projection operators read in
  non local Contribution for L=           1  read in
    real space projection operators read in
  non local Contribution for L=           1  read in
    real space projection operators read in
    PAW grid and wavefunctions read in

   number of l-projection  operators is LMAX  =           6
   number of lm-projection operators is LMMAX =          18

 POTCAR:    PAW_PBE Br 06Sep2000                  
   SHA256 =  96a73d2954943bbee26f4990d676cc6c3bf44b8dd2c75cd4b3b825d8403f0103 Br
   COPYR  = (c) Copyright 06Sep2000 Georg Kresse                                
   COPYR  = This file is part of the software VASP. Any use, copying, and all ot
   COPYR  = If you do not have a valid VASP license, you may not use, copy or di
   VRHFIN =Br: s2p5                                                             
   LEXCH  = PE                                                                  
   EATOM  =   368.4488 eV,   27.0802 Ry                                         
                                                                                
   TITEL  = PAW_PBE Br 06Sep2000                                                
   LULTRA =        F    use ultrasoft PP ?                                      
   IUNSCR =        1    unscreen: 0-lin 1-nonlin 2-no                           
   RPACOR =    1.900    partial core radius                                     
   POMASS =   79.904; ZVAL   =    7.000    mass and valenz                      
   RCORE  =    2.100    outmost cutoff radius                                   
   RWIGS  =    2.200; RWIGS  =    1.164    wigner-seitz radius (au A)           
   ENMAX  =  216.285; ENMIN  =  162.214 eV                                      
   ICORE  =        3    local potential                                         
   LCOR   =        T    correct aug charges                                     
   LPAW   =        T    paw PP                                                  
   EAUG   =  503.852                                                            
   DEXC   =    0.000                                                            
   RMAX   =    2.139    core radius for proj-oper                               
   RAUG   =    1.300    factor for augmentation sphere                          
   RDEP   =    2.186    radius for radial grids                                 
   RDEPT  =    1.890    core radius for aug-charge                              
                                                                                
   Atomic configuration                                                         
   10 entries                                                                   
     n  l   j            E        occ.                                          
     1  0  0.50    -13316.2796   2.0000                                         
     2  0  0.50     -1732.8239   2.0000                                         
     2  1  1.50     -1528.2193   6.0000                                         
     3  0  0.50      -238.0460   2.0000                                         
     3  1  1.50      -173.4609   6.0000                                         
     3  2  2.50       -66.7132  10.0000                                         
     4  0  0.50       -20.1334   2.0000                                         
     4  1  0.50        -7.8591   5.0000                                         
     4  2  2.50        -8.1635   0.0000                                         
     4  3  2.50        -8.1635   0.0000                                         
   Description                                                                  
     l       E           TYP  RCUT    TYP  RCUT                                 
     0    -20.1333652     23  2.100                                             
     0    -21.4939478     23  2.100                                             
     1     -7.8591052     23  2.100                                             
     1     -3.1608434     23  2.100                                             
     2     -8.1634956     23  2.100                                             
     3     -1.3605826      7  2.100                                             
  local pseudopotential read in
  partial core-charges read in
  partial kinetic energy density read in
  atomic valenz-charges read in
  non local Contribution for L=           0  read in
    real space projection operators read in
  non local Contribution for L=           0  read in
    real space projection operators read in
  non local Contribution for L=           1  read in
    real space projection operators read in
  non local Contribution for L=           1  read in
    real space projection operators read in
  non local Contribution for L=           2  read in
    real space projection operators read in
    PAW grid and wavefunctions read in

   number of l-projection  operators is LMAX  =           5
   number of lm-projection operators is LMMAX =          13

 Optimization of the real space projectors (new method)

 maximal supplied QI-value         = 15.12
 optimisation between [QCUT,QGAM] = [  8.77, 17.69] = [ 21.53, 87.61] Ry 
 Optimized for a Real-space Cutoff    1.85 Angstroem

   l    n(q)    QCUT    max X(q) W(low)/X(q) W(high)/X(q)  e(spline) 
   0     10     8.768    25.322    0.81E-04    0.51E-04    0.48E-06
   0     10     8.768    99.187    0.78E-04    0.50E-04    0.47E-06
   1      9     8.768    11.761    0.21E-03    0.20E-03    0.37E-06
   1      9     8.768     8.275    0.24E-03    0.22E-03    0.41E-06
   2      9     8.768     3.829    0.23E-04    0.15E-03    0.18E-06
 Optimization of the real space projectors (new method)

 maximal supplied QI-value         = 15.12
 optimisation between [QCUT,QGAM] = [  8.77, 17.69] = [ 21.53, 87.61] Ry 
 Optimized for a Real-space Cutoff    1.59 Angstroem

   l    n(q)    QCUT    max X(q) W(low)/X(q) W(high)/X(q)  e(spline) 
   2      7     8.768     3.846    0.48E-04    0.11E-03    0.11E-06
   2      7     8.768     8.593    0.20E-03    0.22E-04    0.24E-06
   0      8     8.768    20.082    0.68E-04    0.88E-04    0.41E-07
   0      8     8.768     8.597    0.89E-04    0.13E-03    0.59E-07
   1      8     8.768    33.223    0.15E-03    0.53E-04    0.87E-07
   1      8     8.768    15.899    0.14E-03    0.44E-04    0.78E-07
 Optimization of the real space projectors (new method)

 maximal supplied QI-value         = 17.95
 optimisation between [QCUT,QGAM] = [  8.80, 17.59] = [ 21.67, 86.68] Ry 
 Optimized for a Real-space Cutoff    1.59 Angstroem

   l    n(q)    QCUT    max X(q) W(low)/X(q) W(high)/X(q)  e(spline) 
   0      8     8.797   175.082    0.82E-04    0.14E-03    0.89E-07
   0      8     8.797   174.004    0.79E-04    0.14E-03    0.86E-07
   1      8     8.797    54.315    0.16E-03    0.14E-04    0.30E-06
   1      8     8.797    42.441    0.16E-03    0.14E-04    0.30E-06
   2      7     8.797     3.596    0.92E-04    0.15E-03    0.85E-07
  PAW_PBE Cs_sv 08Apr2002               :
 energy of atom  1       EATOM= -555.6835
 kinetic energy error for atom=    0.0069 (will be added to EATOM!!)
  PAW_PBE Pb_d 06Sep2000                :
 energy of atom  2       EATOM=-1661.6185
 kinetic energy error for atom=    0.0498 (will be added to EATOM!!)
  PAW_PBE Br 06Sep2000                  :
 energy of atom  3       EATOM= -368.4488
 kinetic energy error for atom=    0.0072 (will be added to EATOM!!)


 POSCAR: Cs8 Pb8 Br23                            
  positions in direct lattice
  No initial velocities read in

 METAGGA = SCAN     LMAXTAU =  6    LMIXTAU =  F

 exchange correlation table for  LEXCH =        8
   RHO(1)=    0.500       N(1)  =     2000
   RHO(2)=  100.500       N(2)  =     4000

 VTST: version 3.2, (02/03/18)

 CHAIN: initializing optimizer
 
 OPT: Using VASP Conjugate-Gradient optimizer
 CHAIN: Read ICHAIN            0

 POSCAR: Cs8 Pb8 Br23                            
  positions in direct lattice
  No initial velocities read in



--------------------------------------------------------------------------------------------------------


 ion  position               nearest neighbor table
   1  0.268  0.244  0.199-
   2  0.769  0.242  0.712-
   3  0.725  0.753  0.264-
   4  0.212  0.756  0.774-
   5  0.294  0.250  0.732-
   6  0.787  0.247  0.228-
   7  0.733  0.753  0.804-  39 2.89
   8  0.220  0.754  0.285-
   9  1.000  0.001  0.999-  19 2.98  34 2.99  21 2.99  31 3.00  29 3.00  28 3.01
  10  0.499  0.005  0.496-  20 2.91  33 2.97  30 2.98  32 2.98  27 2.99
  11  0.499  0.000  0.999-  17 2.97  22 2.99  29 2.99  31 3.00  33 3.02  27 3.02
  12  0.002  0.001  0.502-  23 3.00  28 3.00  34 3.00  18 3.00  30 3.01  32 3.02
  13  0.500  0.502  0.001-  26 1.86  17 2.97  22 2.97  37 2.99  35 3.00  24 3.01
  14  0.003  0.497  0.495-  38 2.95  23 2.96  18 2.98  25 3.00  36 3.01
  15  0.000  0.498  0.004-  19 2.95  38 2.95  21 2.97  35 2.99  24 3.00
  16  0.501  0.493  0.501-  20 2.94  39 2.99  25 2.99  36 3.01  37 3.01
  17  0.472  0.751  0.963-  13 2.97  11 2.97
  18  0.971  0.748  0.472-  14 2.98  12 3.00
  19  0.963  0.252  0.970-  15 2.95   9 2.98
  20  0.460  0.248  0.465-  10 2.91  16 2.94
  21  0.027  0.749  0.025-  15 2.97   9 2.99
  22  0.527  0.252  0.033-  13 2.97  11 2.99
  23  0.030  0.251  0.546-  14 2.96  12 3.00
  24  0.247  0.470  0.949-  15 3.00  13 3.01
  25  0.749  0.464  0.455-  39 2.70  16 2.99  14 3.00
  26  0.549  0.537  0.151-  13 1.86  35 2.69
  27  0.547  0.028  0.749-  10 2.99  11 3.02
  28  0.046  0.034  0.253-  12 3.00   9 3.01
  29  0.751  0.971  0.048-  11 2.99   9 3.00
  30  0.255  0.963  0.546-  10 2.98  12 3.01
  31  0.246  0.033  0.948-   9 3.00  11 3.00
  32  0.747  0.030  0.450-  10 2.98  12 3.02
  33  0.448  0.963  0.247-  10 2.97  11 3.02
  34  0.948  0.967  0.748-   9 2.99  12 3.00
  35  0.753  0.531  0.053-  26 2.69  15 2.99  13 3.00
  36  0.254  0.537  0.552-  14 3.01  16 3.01
  37  0.555  0.472  0.755-  13 2.99  16 3.01
  38  0.053  0.464  0.252-  14 2.95  15 2.95
  39  0.693  0.646  0.582-  25 2.70   7 2.89  16 2.99


IMPORTANT INFORMATION: All symmetrisations will be switched off!
NOSYMM: (Re-)initialisation of all symmetry stuff for point group C_1.



 KPOINTS: 1x1x1                                   

Automatic generation of k-mesh.
Space group operators:
 irot       det(A)        alpha          n_x          n_y          n_z        tau_x        tau_y        tau_z
    1     1.000000     0.000001     1.000000     0.000000     0.000000     0.000000     0.000000     0.000000
 
 Subroutine IBZKPT returns following result:
 ===========================================
 
 Found      8 irreducible k-points:
 
 Following reciprocal coordinates:
            Coordinates               Weight
  0.000000  0.000000  0.000000      1.000000
  0.500000  0.000000  0.000000      1.000000
  0.000000  0.500000  0.000000      1.000000
  0.500000  0.500000  0.000000      1.000000
  0.000000  0.000000  0.500000      1.000000
  0.500000  0.000000  0.500000      1.000000
  0.000000  0.500000  0.500000      1.000000
  0.500000  0.500000  0.500000      1.000000
 
 Following cartesian coordinates:
            Coordinates               Weight
 -0.000000  0.000000  0.000000      1.000000
  0.029563  0.000000  0.031093      1.000000
 -0.000000  0.042626  0.000000      1.000000
  0.029563  0.042626  0.031093      1.000000
 -0.029563  0.000000  0.031093      1.000000
  0.000000  0.000000  0.062187      1.000000
 -0.029563  0.042626  0.031093      1.000000
  0.000000  0.042626  0.062187      1.000000
 


--------------------------------------------------------------------------------------------------------




 Dimension of arrays:
   k-points           NKPTS =      8   k-points in BZ     NKDIM =      8   number of bands    NBANDS=    208
   number of dos      NEDOS =    301   number of ions     NIONS =     39
   non local maximal  LDIM  =      6   non local SUM 2l+1 LMDIM =     18
   total plane-waves  NPLWV = 343000
   max r-space proj   IRMAX =   5734   max aug-charges    IRDMAX=  91523
   dimension x,y,z NGX =    70 NGY =   70 NGZ =   70
   dimension x,y,z NGXF=   140 NGYF=  140 NGZF=  140
   support grid    NGXF=   280 NGYF=  280 NGZF=  280
   ions per type =               8   8  23
   NGX,Y,Z   is equivalent  to a cutoff of   9.97,  9.92,  9.97 a.u.
   NGXF,Y,Z  is equivalent  to a cutoff of  19.95, 19.84, 19.95 a.u.

 SYSTEM =  CsPbBr3 cubic bulk                      
 POSCAR =  Cs8 Pb8 Br23                            

 Startparameter for this run:
   NWRITE =      2    write-flag & timer
   PREC   = accura    normal or accurate (medium, high low for compatibility)
   ISTART =      0    job   : 0-new  1-cont  2-samecut
   ICHARG =      2    charge: 1-file 2-atom 10-const
   ISPIN  =      1    spin polarized calculation?
   LNONCOLLINEAR =      F non collinear calculations
   LSORBIT =      F    spin-orbit coupling
   INIWAV =      1    electr: 0-lowe 1-rand  2-diag
   LASPH  =      T    aspherical Exc in radial PAW
   METAGGA=      F    non-selfconsistent MetaGGA calc.

 Electronic Relaxation 1
   ENCUT  =  300.0 eV  22.05 Ry    4.70 a.u.  16.48 16.57 16.48*2*pi/ulx,y,z
   ENINI  =  300.0     initial cutoff
   ENAUG  =  503.9 eV  augmentation charge cutoff
   NELM   =    200;   NELMIN=  2; NELMDL= -5     # of ELM steps 
   EDIFF  = 0.1E-05   stopping-criterion for ELM
   LREAL  =      T    real-space projection
   NLSPLINE    = F    spline interpolate recip. space projectors
   LCOMPAT=      F    compatible to vasp.4.4
   GGA_COMPAT  = T    GGA compatible to vasp.4.4-vasp.4.6
   LMAXPAW     = -100 max onsite density
   LMAXMIX     =    2 max onsite mixed and CHGCAR
   VOSKOWN=      0    Vosko Wilk Nusair interpolation
   ROPT   =   -0.00025  -0.00025  -0.00025
 Ionic relaxation
   EDIFFG = -.1E-01   stopping-criterion for IOM
   NSW    =      0    number of steps for IOM
   NBLOCK =      1;   KBLOCK =      1    inner block; outer block 
   IBRION =     -1    ionic relax: 0-MD 1-quasi-New 2-CG
   NFREE  =      1    steps in history (QN), initial steepest desc. (CG)
   ISIF   =      2    stress and relaxation
   IWAVPR =     10    prediction:  0-non 1-charg 2-wave 3-comb
   ISYM   =      0    0-nonsym 1-usesym 2-fastsym
   LCORR  =      T    Harris-Foulkes like correction to forces

   POTIM  = 0.5000    time-step for ionic-motion
   TEIN   =    0.0    initial temperature
   TEBEG  =    0.0;   TEEND  =   0.0 temperature during run
   SMASS  =  -3.00    Nose mass-parameter (am)
   estimated Nose-frequenzy (Omega)   =  0.10E-29 period in steps =****** mass=  -0.311E-26a.u.
   SCALEE = 1.0000    scale energy and forces
   NPACO  =    256;   APACO  = 16.0  distance and # of slots for P.C.
   PSTRESS=    0.0 pullay stress

  Mass of Ions in am
   POMASS = 132.90207.20 79.90
  Ionic Valenz
   ZVAL   =   9.00 14.00  7.00
  Atomic Wigner-Seitz radii
   RWIGS  =  -1.00 -1.00 -1.00
  virtual crystal weights 
   VCA    =   1.00  1.00  1.00
   NELECT =     344.0000    total number of electrons
   NUPDOWN=       0.0000    fix difference up-down

 DOS related values:
   EMIN   =  10.00;   EMAX   =-10.00  energy-range for DOS
   EFERMI =   0.00
   ISMEAR =     0;   SIGMA  =   0.01  broadening in eV -4-tet -1-fermi 0-gaus

 Electronic relaxation 2 (details)
   IALGO  =     38    algorithm
   LDIAG  =      T    sub-space diagonalisation (order eigenvalues)
   LSUBROT=      F    optimize rotation matrix (better conditioning)
   TURBO    =      0    0=normal 1=particle mesh
   IRESTART =      0    0=no restart 2=restart with 2 vectors
   NREBOOT  =      0    no. of reboots
   NMIN     =      0    reboot dimension
   EREF     =   0.00    reference energy to select bands
   IMIX   =      4    mixing-type and parameters
     AMIX     =   0.40;   BMIX     =  1.00
     AMIX_MAG =   1.60;   BMIX_MAG =  1.00
     AMIN     =   0.10
     WC   =   100.;   INIMIX=   1;  MIXPRE=   1;  MAXMIX= -45

 Intra band minimization:
   WEIMIN = 0.0000     energy-eigenvalue tresh-hold
   EBREAK =  0.12E-08  absolut break condition
   DEPER  =   0.30     relativ break condition  

   TIME   =   0.40     timestep for ELM

  volume/ion in A,a.u.               =      40.90       276.00
  Fermi-wavevector in a.u.,A,eV,Ry     =   0.981747  1.855232 13.113654  0.963826
  Thomas-Fermi vector in A             =   2.112777

 Write flags
   LWAVE        =      F    write WAVECAR
   LDOWNSAMPLE  =      F    k-point downsampling of WAVECAR
   LCHARG       =      F    write CHGCAR
   LVTOT        =      F    write LOCPOT, total local potential
   LVHAR        =      T    write LOCPOT, Hartree potential only
   LELF         =      F    write electronic localiz. function (ELF)
   LORBIT       =     10    0 simple, 1 ext, 2 COOP (PROOUT), +10 PAW based schemes


 Dipole corrections
   LMONO  =      F    monopole corrections only (constant potential shift)
   LDIPOL =      F    correct potential (dipole corrections)
   IDIPOL =      0    1-x, 2-y, 3-z, 4-all directions 
   EPSILON=  1.0000000 bulk dielectric constant

 Exchange correlation treatment:
   GGA     =    --    GGA type
   LEXCH   =     8    internal setting for exchange type
   VOSKOWN=      0    Vosko Wilk Nusair interpolation
   LHFCALC =     F    Hartree Fock is set to
   LHFONE  =     F    Hartree Fock one center treatment
   AEXX    =    0.0000 exact exchange contribution

 Linear response parameters
   LEPSILON=     F    determine dielectric tensor
   LRPA    =     F    only Hartree local field effects (RPA)
   LNABLA  =     F    use nabla operator in PAW spheres
   LVEL    =     F    velocity operator in full k-point grid
   LINTERFAST=   F  fast interpolation
   KINTER  =     0    interpolate to denser k-point grid
   CSHIFT  =0.1000    complex shift for real part using Kramers Kronig
   OMEGAMAX=  -1.0    maximum frequency
   DEG_THRESHOLD= 0.2000000E-02 threshold for treating states as degnerate
   RTIME   =   -0.100 relaxation time in fs
  (WPLASMAI=    0.000 imaginary part of plasma frequency in eV, 0.658/RTIME)
   DFIELD  = 0.0000000 0.0000000 0.0000000 field for delta impulse in time

 Orbital magnetization related:
   ORBITALMAG=     F  switch on orbital magnetization
   LCHIMAG   =     F  perturbation theory with respect to B field
   DQ        =  0.001000  dq finite difference perturbation B field
   LLRAUG    =     F  two centre corrections for induced B field



--------------------------------------------------------------------------------------------------------


 Static calculation
 charge density and potential will be updated during run
 non-spin polarized calculation
 Variant of blocked Davidson
 Davidson routine will perform the subspace rotation
 perform sub-space diagonalisation
    after iterative eigenvector-optimisation
 modified Broyden-mixing scheme, WC =      100.0
 initial mixing is a Kerker type mixing with AMIX =  0.4000 and BMIX =      1.0000
 Hartree-type preconditioning will be used
 using additional bands           36
 real space projection scheme for non local part
 use partial core corrections
 calculate Harris-corrections to forces   (improved forces if not selfconsistent)
 use gradient corrections 
 use of overlap-Matrix (Vanderbilt PP)
 Gauss-broadening in eV      SIGMA  =   0.01


--------------------------------------------------------------------------------------------------------


  energy-cutoff  :      300.00
  volume of cell :     1595.09
      direct lattice vectors                 reciprocal lattice vectors
     8.456489000  0.000000000  8.040301000     0.059126193 -0.000000000  0.062186727
     0.000000000 11.729847000  0.000000000     0.000000000  0.085252604 -0.000000000
    -8.456489000  0.000000000  8.040301000    -0.059126193  0.000000000  0.062186727

  length of vectors
    11.668703715 11.729847000 11.668703715     0.085808482  0.085252604  0.085808482



 k-points in units of 2pi/SCALE and weight: 1x1x1                                   
  -0.00000000  0.00000000  0.00000000       0.125
   0.02956310  0.00000000  0.03109336       0.125
  -0.00000000  0.04262630  0.00000000       0.125
   0.02956310  0.04262630  0.03109336       0.125
  -0.02956310  0.00000000  0.03109336       0.125
   0.00000000  0.00000000  0.06218673       0.125
  -0.02956310  0.04262630  0.03109336       0.125
   0.00000000  0.04262630  0.06218673       0.125

 k-points in reciprocal lattice and weights: 1x1x1                                   
   0.00000000  0.00000000  0.00000000       0.125
   0.50000000  0.00000000  0.00000000       0.125
   0.00000000  0.50000000  0.00000000       0.125
   0.50000000  0.50000000  0.00000000       0.125
   0.00000000  0.00000000  0.50000000       0.125
   0.50000000  0.00000000  0.50000000       0.125
   0.00000000  0.50000000  0.50000000       0.125
   0.50000000  0.50000000  0.50000000       0.125

 position of ions in fractional coordinates (direct lattice) 
   0.26782700  0.24416900  0.19935500
   0.76876300  0.24226100  0.71246900
   0.72486500  0.75345500  0.26435600
   0.21243500  0.75589100  0.77368300
   0.29370700  0.24993000  0.73219700
   0.78713300  0.24650100  0.22793000
   0.73325900  0.75329200  0.80376300
   0.22045900  0.75362200  0.28501400
   0.99950500  0.00148100  0.99929400
   0.49923300  0.00463300  0.49570000
   0.49883700  0.00038300  0.99930700
   0.00157100  0.00063300  0.50153100
   0.49995100  0.50177100  0.00102700
   0.00307400  0.49717800  0.49503500
   0.00016300  0.49837700  0.00419300
   0.50071500  0.49284700  0.50109900
   0.47193900  0.75065000  0.96283400
   0.97149300  0.74803800  0.47191800
   0.96347700  0.25151700  0.97007500
   0.45964900  0.24795500  0.46482000
   0.02654100  0.74915000  0.02487800
   0.52740900  0.25157000  0.03298100
   0.03014500  0.25083800  0.54561000
   0.24658900  0.46989500  0.94903900
   0.74892600  0.46382000  0.45450900
   0.54904000  0.53709400  0.15101800
   0.54694800  0.02789500  0.74920700
   0.04577800  0.03423600  0.25305600
   0.75124600  0.97069800  0.04808000
   0.25481200  0.96307100  0.54642500
   0.24648300  0.03269900  0.94776900
   0.74720500  0.02983700  0.44956100
   0.44834900  0.96320600  0.24745600
   0.94847200  0.96663600  0.74810000
   0.75282000  0.53140000  0.05250600
   0.25421700  0.53720200  0.55190700
   0.55460400  0.47155100  0.75539600
   0.05272800  0.46388000  0.25206100
   0.69325900  0.64572100  0.58211800

 position of ions in cartesian coordinates  (Angst):
   0.57903271  2.86406501  3.75628390
   0.47604959  2.84168446 11.90955113
   3.89428929  8.83791187  7.95363460
  -4.74618754  8.86648578  7.92868554
  -3.70808586  2.93164066  8.24857696
   4.72889402  2.89141902  8.16141205
  -0.59621630  8.83599991 12.35811952
  -0.54590865  8.83987076  4.06415507
   0.00178432  0.01737190 16.07094560
   0.02987678  0.05434438  7.99956079
  -4.23221905  0.00449253 12.04552870
  -4.22790624  0.00742499  4.04509151
   4.21914532  5.88569706  4.02801391
  -4.16026278  5.83182187  4.00494629
  -0.03407965  5.84588596  0.03502355
  -0.00324729  5.78101990  8.05488611
  -4.15124817  8.80500965 11.53600679
   4.22465049  8.77437129 11.60545891
  -0.05579591  2.95025593 15.54634008
  -0.04372850  2.90847421  7.43300903
   0.01406314  8.78741488  0.41342424
   4.18112494  2.95087761  4.50570428
  -4.35902410  2.94229136  4.62924350
  -5.94026070  5.51179646  9.61320900
   2.48973412  5.44053764  9.67597963
   3.36586866  6.30003044  5.62867704
  -1.71040101  0.32720408 10.42147634
  -1.75284413  0.40158304  2.40271531
   5.94631554 11.38613902  6.42682164
  -2.46602213 11.29667548  6.44218665
  -5.93041734  0.38355427  9.60214555
   2.51702321  0.34998344  9.62235887
   1.69884944 11.29825901  5.59448164
   1.69444361 11.33849238 13.64094955
   5.92219764  6.23324070  6.47506344
  -2.51741221  6.30129727  6.48147960
  -1.69799534  5.53122108 10.53279431
  -1.68565732  5.44124143  2.45059530
   0.93986264  7.57420853 10.25441497



--------------------------------------------------------------------------------------------------------


 k-point  1 :   0.0000 0.0000 0.0000  plane waves:   18809
 k-point  2 :   0.5000 0.0000 0.0000  plane waves:   18808
 k-point  3 :   0.0000 0.5000 0.0000  plane waves:   18794
 k-point  4 :   0.5000 0.5000 0.0000  plane waves:   18804
 k-point  5 :   0.0000 0.0000 0.5000  plane waves:   18808
 k-point  6 :   0.5000 0.0000 0.5000  plane waves:   18790
 k-point  7 :   0.0000 0.5000 0.5000  plane waves:   18804
 k-point  8 :   0.5000 0.5000 0.5000  plane waves:   18800

 maximum and minimum number of plane-waves per node :      2389     2304

 maximum number of plane-waves:     18809
 maximum index in each direction: 
   IXMAX=   16   IYMAX=   16   IZMAX=   16
   IXMIN=  -16   IYMIN=  -17   IZMIN=  -16


 real space projection operators:
  total allocation   :      16727.49 KBytes
  max/ min on nodes  :       2180.32       1844.59


 parallel 3D FFT for wavefunctions:
    minimum data exchange during FFTs selected (reduces bandwidth)
 parallel 3D FFT for charge:
    minimum data exchange during FFTs selected (reduces bandwidth)


 total amount of memory used by VASP MPI-rank0    60632. kBytes
=======================================================================

   base      :      30000. kBytes
   nonlr-proj:       6467. kBytes
   fftplans  :       8423. kBytes
   grid      :       7465. kBytes
   one-center:         77. kBytes
   wavefun   :       8200. kBytes

     INWAV:  cpu time    0.0000: real time    0.0000
 Broyden mixing: mesh for mixing (old mesh)
   NGX = 33   NGY = 33   NGZ = 33
  (NGX  =140   NGY  =140   NGZ  =140)
  gives a total of  35937 points

 initial charge density was supplied:
 charge density of overlapping atoms calculated
 number of electron     345.0000000 magnetization 
 keeping initial charge density in first step


--------------------------------------------------------------------------------------------------------


 Maximum index for non-local projection operator          726
 Maximum index for augmentation-charges         3015 (set IRDMAX)


--------------------------------------------------------------------------------------------------------


 First call to EWALD:  gamma=   0.152
 Maximum number of real-space cells 3x 3x 3
 Maximum number of reciprocal cells 3x 3x 3

    FEWALD:  cpu time    0.0039: real time    0.0039


--------------------------------------- Iteration      1(   1)  ---------------------------------------


    POTLOK:  cpu time    0.2641: real time    0.2655
    SETDIJ:  cpu time    1.1995: real time    1.1995
     EDDAV:  cpu time   16.5988: real time   16.6051
       DOS:  cpu time    0.0008: real time    0.0008
    --------------------------------------------
      LOOP:  cpu time   18.0632: real time   18.0709

 eigenvalue-minimisations  :  3496
 total energy-change (2. order) : 0.1362604E+04  (-0.1106934E+05)
 number of electron     345.0000000 magnetization 
 augmentation part      345.0000000 magnetization 

 Free energy of the ion-electron system (eV)
  ---------------------------------------------------
  alpha Z        PSCENC =       872.70583573
  Ewald energy   TEWEN  =    -17671.37468593
  -Hartree energ DENC   =     -7653.67511335
  -exchange      EXHF   =         0.00000000
  -V(xc)+E(xc)   XCENC  =       910.74749090
  PAW double counting   =     21345.28103884   -22405.85761495
  entropy T*S    EENTRO =        -0.00138721
  eigenvalues    EBANDS =      -247.34014371
  atomic energy  EATOM  =     26212.11861568
  Solvation  Ediel_sol  =         0.00000000
  ---------------------------------------------------
  free energy    TOTEN  =      1362.60403600 eV

  energy without entropy =     1362.60542321  energy(sigma->0) =     1362.60472961


--------------------------------------------------------------------------------------------------------




--------------------------------------- Iteration      1(   2)  ---------------------------------------


     EDDAV:  cpu time   18.4941: real time   18.5366
       DOS:  cpu time    0.0004: real time    0.0004
    --------------------------------------------
      LOOP:  cpu time   18.4945: real time   18.5370

 eigenvalue-minimisations  :  4136
 total energy-change (2. order) :-0.2464658E+04  (-0.2385925E+04)
 number of electron     345.0000000 magnetization 
 augmentation part      345.0000000 magnetization 

 Free energy of the ion-electron system (eV)
  ---------------------------------------------------
  alpha Z        PSCENC =       872.70583573
  Ewald energy   TEWEN  =    -17671.37468593
  -Hartree energ DENC   =     -7653.67511335
  -exchange      EXHF   =         0.00000000
  -V(xc)+E(xc)   XCENC  =       910.74749090
  PAW double counting   =     21345.28103884   -22405.85761495
  entropy T*S    EENTRO =        -0.00000000
  eigenvalues    EBANDS =     -2711.99968044
  atomic energy  EATOM  =     26212.11861568
  Solvation  Ediel_sol  =         0.00000000
  ---------------------------------------------------
  free energy    TOTEN  =     -1102.05411352 eV

  energy without entropy =    -1102.05411352  energy(sigma->0) =    -1102.05411352


--------------------------------------------------------------------------------------------------------




--------------------------------------- Iteration      1(   3)  ---------------------------------------


     EDDAV:  cpu time   19.1861: real time   19.2351
       DOS:  cpu time    0.0008: real time    0.0008
    --------------------------------------------
      LOOP:  cpu time   19.1870: real time   19.2359

 eigenvalue-minimisations  :  4384
 total energy-change (2. order) :-0.3603983E+03  (-0.3583164E+03)
 number of electron     345.0000000 magnetization 
 augmentation part      345.0000000 magnetization 

 Free energy of the ion-electron system (eV)
  ---------------------------------------------------
  alpha Z        PSCENC =       872.70583573
  Ewald energy   TEWEN  =    -17671.37468593
  -Hartree energ DENC   =     -7653.67511335
  -exchange      EXHF   =         0.00000000
  -V(xc)+E(xc)   XCENC  =       910.74749090
  PAW double counting   =     21345.28103884   -22405.85761495
  entropy T*S    EENTRO =        -0.00000000
  eigenvalues    EBANDS =     -3072.39800549
  atomic energy  EATOM  =     26212.11861568
  Solvation  Ediel_sol  =         0.00000000
  ---------------------------------------------------
  free energy    TOTEN  =     -1462.45243857 eV

  energy without entropy =    -1462.45243857  energy(sigma->0) =    -1462.45243857


--------------------------------------------------------------------------------------------------------




--------------------------------------- Iteration      1(   4)  ---------------------------------------


     EDDAV:  cpu time   17.8445: real time   17.8824
       DOS:  cpu time    0.0004: real time    0.0004
    --------------------------------------------
      LOOP:  cpu time   17.8449: real time   17.8828

 eigenvalue-minimisations  :  3912
 total energy-change (2. order) :-0.1275306E+02  (-0.1271048E+02)
 number of electron     345.0000000 magnetization 
 augmentation part      345.0000000 magnetization 

 Free energy of the ion-electron system (eV)
  ---------------------------------------------------
  alpha Z        PSCENC =       872.70583573
  Ewald energy   TEWEN  =    -17671.37468593
  -Hartree energ DENC   =     -7653.67511335
  -exchange      EXHF   =         0.00000000
  -V(xc)+E(xc)   XCENC  =       910.74749090
  PAW double counting   =     21345.28103884   -22405.85761495
  entropy T*S    EENTRO =        -0.00000000
  eigenvalues    EBANDS =     -3085.15106477
  atomic energy  EATOM  =     26212.11861568
  Solvation  Ediel_sol  =         0.00000000
  ---------------------------------------------------
  free energy    TOTEN  =     -1475.20549785 eV

  energy without entropy =    -1475.20549785  energy(sigma->0) =    -1475.20549785


--------------------------------------------------------------------------------------------------------




--------------------------------------- Iteration      1(   5)  ---------------------------------------


     EDDAV:  cpu time   19.4958: real time   19.5364
       DOS:  cpu time    0.0005: real time    0.0005
    CHARGE:  cpu time    2.6967: real time    2.6969
    MIXING:  cpu time    0.0014: real time    0.0014
    --------------------------------------------
      LOOP:  cpu time   22.1944: real time   22.2353

 eigenvalue-minimisations  :  4488
 total energy-change (2. order) :-0.6083406E+00  (-0.6080169E+00)
 number of electron     343.9999999 magnetization 
 augmentation part       -5.2876543 magnetization 

 Broyden mixing:
  rms(total) = 0.20034E+01    rms(broyden)= 0.20030E+01
  rms(prec ) = 0.22664E+01
  weight for this iteration     100.00

 Free energy of the ion-electron system (eV)
  ---------------------------------------------------
  alpha Z        PSCENC =       872.70583573
  Ewald energy   TEWEN  =    -17671.37468593
  -Hartree energ DENC   =     -7653.67511335
  -exchange      EXHF   =         0.00000000
  -V(xc)+E(xc)   XCENC  =       910.74749090
  PAW double counting   =     21345.28103884   -22405.85761495
  entropy T*S    EENTRO =        -0.00000000
  eigenvalues    EBANDS =     -3085.75940540
  atomic energy  EATOM  =     26212.11861568
  Solvation  Ediel_sol  =         0.00000000
  ---------------------------------------------------
  free energy    TOTEN  =     -1475.81383849 eV

  energy without entropy =    -1475.81383849  energy(sigma->0) =    -1475.81383849


--------------------------------------------------------------------------------------------------------




--------------------------------------- Iteration      1(   6)  ---------------------------------------


    POTLOK:  cpu time    0.2795: real time    0.3111
    SETDIJ:  cpu time    1.2029: real time    1.2029
     EDDAV:  cpu time   19.0124: real time   19.0134
       DOS:  cpu time    0.0004: real time    0.0004
    CHARGE:  cpu time    2.6985: real time    2.6986
    MIXING:  cpu time    0.0015: real time    0.0015
    --------------------------------------------
      LOOP:  cpu time   23.1952: real time   23.2279

 eigenvalue-minimisations  :  4320
 total energy-change (2. order) : 0.7898888E+02  (-0.2365019E+01)
 number of electron     343.9999999 magnetization 
 augmentation part       -3.8821251 magnetization 

 Broyden mixing:
  rms(total) = 0.13098E+01    rms(broyden)= 0.13098E+01
  rms(prec ) = 0.14399E+01
  weight for this iteration     100.00

 eigenvalues of (default mixing * dielectric matrix)
  average eigenvalue GAMMA=   2.0423
  2.0423

 Free energy of the ion-electron system (eV)
  ---------------------------------------------------
  alpha Z        PSCENC =       872.70583573
  Ewald energy   TEWEN  =    -17671.37468593
  -Hartree energ DENC   =     -7639.53054304
  -exchange      EXHF   =         0.00000000
  -V(xc)+E(xc)   XCENC  =       938.35701471
  PAW double counting   =     21960.44181913   -23022.46878825
  entropy T*S    EENTRO =        -0.00000000
  eigenvalues    EBANDS =     -3047.07422274
  atomic energy  EATOM  =     26212.11861568
  Solvation  Ediel_sol  =         0.00000000
  ---------------------------------------------------
  free energy    TOTEN  =     -1396.82495471 eV

  energy without entropy =    -1396.82495471  energy(sigma->0) =    -1396.82495471


--------------------------------------------------------------------------------------------------------




--------------------------------------- Iteration      1(   7)  ---------------------------------------


    POTLOK:  cpu time    0.3177: real time    0.3211
    SETDIJ:  cpu time    1.2014: real time    1.2014
     EDDAV:  cpu time   18.4224: real time   18.4235
       DOS:  cpu time    0.0004: real time    0.0004
    CHARGE:  cpu time    2.6952: real time    2.6953
    MIXING:  cpu time    0.0015: real time    0.0015
    --------------------------------------------
      LOOP:  cpu time   22.6385: real time   22.6431

 eigenvalue-minimisations  :  4120
 total energy-change (2. order) : 0.6192263E+00  (-0.1407445E+01)
 number of electron     343.9999999 magnetization 
 augmentation part       -3.1372926 magnetization 

 Broyden mixing:
  rms(total) = 0.44293E+00    rms(broyden)= 0.44290E+00
  rms(prec ) = 0.49351E+00
  weight for this iteration     100.00

 eigenvalues of (default mixing * dielectric matrix)
  average eigenvalue GAMMA=   1.5799
  0.9650  2.1947

 Free energy of the ion-electron system (eV)
  ---------------------------------------------------
  alpha Z        PSCENC =       872.70583573
  Ewald energy   TEWEN  =    -17671.37468593
  -Hartree energ DENC   =     -7701.76249382
  -exchange      EXHF   =         0.00000000
  -V(xc)+E(xc)   XCENC  =       945.70905051
  PAW double counting   =     23277.37769446   -24340.34394282
  entropy T*S    EENTRO =        -0.00000000
  eigenvalues    EBANDS =     -2990.63580219
  atomic energy  EATOM  =     26212.11861568
  Solvation  Ediel_sol  =         0.00000000
  ---------------------------------------------------
  free energy    TOTEN  =     -1396.20572838 eV

  energy without entropy =    -1396.20572838  energy(sigma->0) =    -1396.20572838


--------------------------------------------------------------------------------------------------------




--------------------------------------- Iteration      1(   8)  ---------------------------------------


    POTLOK:  cpu time    0.2593: real time    0.3142
    SETDIJ:  cpu time    1.2023: real time    1.2023
     EDDAV:  cpu time   17.5662: real time   17.5671
       DOS:  cpu time    0.0004: real time    0.0004
    CHARGE:  cpu time    2.6895: real time    2.6897
    MIXING:  cpu time    0.0016: real time    0.0016
    --------------------------------------------
      LOOP:  cpu time   21.7193: real time   21.7753

 eigenvalue-minimisations  :  3824
 total energy-change (2. order) :-0.7824594E-01  (-0.1275660E+00)
 number of electron     343.9999999 magnetization 
 augmentation part       -3.3307053 magnetization 

 Broyden mixing:
  rms(total) = 0.27907E+00    rms(broyden)= 0.27906E+00
  rms(prec ) = 0.30654E+00
  weight for this iteration     100.00

 eigenvalues of (default mixing * dielectric matrix)
  average eigenvalue GAMMA=   1.6568
  2.5902  1.1900  1.1900

 Free energy of the ion-electron system (eV)
  ---------------------------------------------------
  alpha Z        PSCENC =       872.70583573
  Ewald energy   TEWEN  =    -17671.37468593
  -Hartree energ DENC   =     -7698.97409659
  -exchange      EXHF   =         0.00000000
  -V(xc)+E(xc)   XCENC  =       945.27917054
  PAW double counting   =     23542.76914929   -24606.79429457
  entropy T*S    EENTRO =        -0.00000000
  eigenvalues    EBANDS =     -2992.01366847
  atomic energy  EATOM  =     26212.11861568
  Solvation  Ediel_sol  =         0.00000000
  ---------------------------------------------------
  free energy    TOTEN  =     -1396.28397432 eV

  energy without entropy =    -1396.28397432  energy(sigma->0) =    -1396.28397432


--------------------------------------------------------------------------------------------------------




--------------------------------------- Iteration      1(   9)  ---------------------------------------


    POTLOK:  cpu time    0.2894: real time    0.3161
    SETDIJ:  cpu time    1.2032: real time    1.2033
     EDDAV:  cpu time   18.3250: real time   18.3260
       DOS:  cpu time    0.0004: real time    0.0004
    CHARGE:  cpu time    2.6944: real time    2.6946
    MIXING:  cpu time    0.0016: real time    0.0016
    --------------------------------------------
      LOOP:  cpu time   22.5139: real time   22.5419

 eigenvalue-minimisations  :  4088
 total energy-change (2. order) : 0.5444231E-02  (-0.2229317E-01)
 number of electron     343.9999999 magnetization 
 augmentation part       -3.4130883 magnetization 

 Broyden mixing:
  rms(total) = 0.57958E-01    rms(broyden)= 0.57954E-01
  rms(prec ) = 0.74397E-01
  weight for this iteration     100.00

 eigenvalues of (default mixing * dielectric matrix)
  average eigenvalue GAMMA=   1.5326
  2.5795  1.3314  1.3314  0.8883

 Free energy of the ion-electron system (eV)
  ---------------------------------------------------
  alpha Z        PSCENC =       872.70583573
  Ewald energy   TEWEN  =    -17671.37468593
  -Hartree energ DENC   =     -7699.19388301
  -exchange      EXHF   =         0.00000000
  -V(xc)+E(xc)   XCENC  =       946.07163956
  PAW double counting   =     23841.68410519   -24907.33141451
  entropy T*S    EENTRO =        -0.00000000
  eigenvalues    EBANDS =     -2990.95874280
  atomic energy  EATOM  =     26212.11861568
  Solvation  Ediel_sol  =         0.00000000
  ---------------------------------------------------
  free energy    TOTEN  =     -1396.27853009 eV

  energy without entropy =    -1396.27853009  energy(sigma->0) =    -1396.27853009


--------------------------------------------------------------------------------------------------------




--------------------------------------- Iteration      1(  10)  ---------------------------------------


    POTLOK:  cpu time    0.2682: real time    0.3167
    SETDIJ:  cpu time    1.2034: real time    1.2034
     EDDAV:  cpu time   20.1770: real time   20.1780
       DOS:  cpu time    0.0004: real time    0.0004
    CHARGE:  cpu time    2.6935: real time    2.6936
    MIXING:  cpu time    0.0016: real time    0.0016
    --------------------------------------------
      LOOP:  cpu time   24.3441: real time   24.3939

 eigenvalue-minimisations  :  4728
 total energy-change (2. order) :-0.3962440E-02  (-0.2596783E-02)
 number of electron     343.9999999 magnetization 
 augmentation part       -3.4025604 magnetization 

 Broyden mixing:
  rms(total) = 0.37002E-01    rms(broyden)= 0.37000E-01
  rms(prec ) = 0.48780E-01
  weight for this iteration     100.00

 eigenvalues of (default mixing * dielectric matrix)
  average eigenvalue GAMMA=   1.5300
  2.3743  1.8674  1.3077  1.0504  1.0504

 Free energy of the ion-electron system (eV)
  ---------------------------------------------------
  alpha Z        PSCENC =       872.70583573
  Ewald energy   TEWEN  =    -17671.37468593
  -Hartree energ DENC   =     -7698.12288150
  -exchange      EXHF   =         0.00000000
  -V(xc)+E(xc)   XCENC  =       946.08781819
  PAW double counting   =     23812.40838307   -24878.18832454
  entropy T*S    EENTRO =        -0.00000000
  eigenvalues    EBANDS =     -2991.91725322
  atomic energy  EATOM  =     26212.11861568
  Solvation  Ediel_sol  =         0.00000000
  ---------------------------------------------------
  free energy    TOTEN  =     -1396.28249253 eV

  energy without entropy =    -1396.28249253  energy(sigma->0) =    -1396.28249253


--------------------------------------------------------------------------------------------------------




--------------------------------------- Iteration      1(  11)  ---------------------------------------


    POTLOK:  cpu time    0.3065: real time    0.3134
    SETDIJ:  cpu time    1.2017: real time    1.2017
     EDDAV:  cpu time   17.5752: real time   17.5763
       DOS:  cpu time    0.0010: real time    0.0010
    CHARGE:  cpu time    2.7013: real time    2.7015
    MIXING:  cpu time    0.0017: real time    0.0017
    --------------------------------------------
      LOOP:  cpu time   21.7875: real time   21.7955

 eigenvalue-minimisations  :  3824
 total energy-change (2. order) :-0.3465316E-02  (-0.6671257E-03)
 number of electron     343.9999999 magnetization 
 augmentation part       -3.4035790 magnetization 

 Broyden mixing:
  rms(total) = 0.12608E-01    rms(broyden)= 0.12607E-01
  rms(prec ) = 0.21801E-01
  weight for this iteration     100.00

 eigenvalues of (default mixing * dielectric matrix)
  average eigenvalue GAMMA=   1.6246
  2.6743  2.6743  1.2814  1.2814  0.9183  0.9183

 Free energy of the ion-electron system (eV)
  ---------------------------------------------------
  alpha Z        PSCENC =       872.70583573
  Ewald energy   TEWEN  =    -17671.37468593
  -Hartree energ DENC   =     -7697.15779859
  -exchange      EXHF   =         0.00000000
  -V(xc)+E(xc)   XCENC  =       946.07574708
  PAW double counting   =     23772.64222859   -24838.57484208
  entropy T*S    EENTRO =        -0.00000000
  eigenvalues    EBANDS =     -2992.72105833
  atomic energy  EATOM  =     26212.11861568
  Solvation  Ediel_sol  =         0.00000000
  ---------------------------------------------------
  free energy    TOTEN  =     -1396.28595784 eV

  energy without entropy =    -1396.28595784  energy(sigma->0) =    -1396.28595784


--------------------------------------------------------------------------------------------------------




--------------------------------------- Iteration      1(  12)  ---------------------------------------


    POTLOK:  cpu time    0.2917: real time    0.3097
    SETDIJ:  cpu time    1.2001: real time    1.2002
     EDDAV:  cpu time   17.5559: real time   17.5569
       DOS:  cpu time    0.0004: real time    0.0004
    CHARGE:  cpu time    2.6972: real time    2.6974
    MIXING:  cpu time    0.0016: real time    0.0016
    --------------------------------------------
      LOOP:  cpu time   21.7469: real time   21.7663

 eigenvalue-minimisations  :  3824
 total energy-change (2. order) :-0.1909577E-02  (-0.3289317E-03)
 number of electron     343.9999999 magnetization 
 augmentation part       -3.4062052 magnetization 

 Broyden mixing:
  rms(total) = 0.92459E-02    rms(broyden)= 0.92451E-02
  rms(prec ) = 0.12853E-01
  weight for this iteration     100.00

 eigenvalues of (default mixing * dielectric matrix)
  average eigenvalue GAMMA=   1.6175
  3.0770  2.2361  1.6047  1.2081  0.9927  1.1020  1.1020

 Free energy of the ion-electron system (eV)
  ---------------------------------------------------
  alpha Z        PSCENC =       872.70583573
  Ewald energy   TEWEN  =    -17671.37468593
  -Hartree energ DENC   =     -7697.43648745
  -exchange      EXHF   =         0.00000000
  -V(xc)+E(xc)   XCENC  =       946.12136125
  PAW double counting   =     23759.56089866   -24825.60243400
  entropy T*S    EENTRO =        -0.00000000
  eigenvalues    EBANDS =     -2992.38097136
  atomic energy  EATOM  =     26212.11861568
  Solvation  Ediel_sol  =         0.00000000
  ---------------------------------------------------
  free energy    TOTEN  =     -1396.28786742 eV

  energy without entropy =    -1396.28786742  energy(sigma->0) =    -1396.28786742


--------------------------------------------------------------------------------------------------------




--------------------------------------- Iteration      1(  13)  ---------------------------------------


    POTLOK:  cpu time    0.2526: real time    0.3148
    SETDIJ:  cpu time    1.1996: real time    1.1996
     EDDAV:  cpu time   18.3476: real time   18.3486
       DOS:  cpu time    0.0004: real time    0.0004
    CHARGE:  cpu time    2.7019: real time    2.7021
    MIXING:  cpu time    0.0020: real time    0.0020
    --------------------------------------------
      LOOP:  cpu time   22.5041: real time   22.5675

 eigenvalue-minimisations  :  4088
 total energy-change (2. order) :-0.2545785E-03  (-0.1455106E-03)
 number of electron     343.9999999 magnetization 
 augmentation part       -3.4049825 magnetization 

 Broyden mixing:
  rms(total) = 0.41826E-02    rms(broyden)= 0.41819E-02
  rms(prec ) = 0.56126E-02
  weight for this iteration     100.00

 eigenvalues of (default mixing * dielectric matrix)
  average eigenvalue GAMMA=   1.6837
  3.1399  2.6010  1.6467  1.6467  1.2361  1.2361  0.9816  0.9816

 Free energy of the ion-electron system (eV)
  ---------------------------------------------------
  alpha Z        PSCENC =       872.70583573
  Ewald energy   TEWEN  =    -17671.37468593
  -Hartree energ DENC   =     -7698.37930259
  -exchange      EXHF   =         0.00000000
  -V(xc)+E(xc)   XCENC  =       946.18585248
  PAW double counting   =     23764.86509185   -24830.90537345
  entropy T*S    EENTRO =        -0.00000000
  eigenvalues    EBANDS =     -2991.50415578
  atomic energy  EATOM  =     26212.11861568
  Solvation  Ediel_sol  =         0.00000000
  ---------------------------------------------------
  free energy    TOTEN  =     -1396.28812200 eV

  energy without entropy =    -1396.28812200  energy(sigma->0) =    -1396.28812200


--------------------------------------------------------------------------------------------------------




--------------------------------------- Iteration      1(  14)  ---------------------------------------


    POTLOK:  cpu time    0.2777: real time    0.3147
    SETDIJ:  cpu time    1.2000: real time    1.2000
     EDDAV:  cpu time   18.3151: real time   18.3161
       DOS:  cpu time    0.0005: real time    0.0005
    CHARGE:  cpu time    2.6962: real time    2.6964
    MIXING:  cpu time    0.0018: real time    0.0018
    --------------------------------------------
      LOOP:  cpu time   22.4912: real time   22.5296

 eigenvalue-minimisations  :  4088
 total energy-change (2. order) :-0.2894041E-03  (-0.3605282E-04)
 number of electron     343.9999999 magnetization 
 augmentation part       -3.4054042 magnetization 

 Broyden mixing:
  rms(total) = 0.20858E-02    rms(broyden)= 0.20848E-02
  rms(prec ) = 0.27882E-02
  weight for this iteration     100.00

 eigenvalues of (default mixing * dielectric matrix)
  average eigenvalue GAMMA=   1.6643
  3.4296  2.4615  1.6817  1.6817  1.2432  1.2432  1.2864  0.9127  1.0389

 Free energy of the ion-electron system (eV)
  ---------------------------------------------------
  alpha Z        PSCENC =       872.70583573
  Ewald energy   TEWEN  =    -17671.37468593
  -Hartree energ DENC   =     -7698.46195637
  -exchange      EXHF   =         0.00000000
  -V(xc)+E(xc)   XCENC  =       946.16821385
  PAW double counting   =     23761.52013129   -24827.53692698
  entropy T*S    EENTRO =        -0.00000000
  eigenvalues    EBANDS =     -2991.42763867
  atomic energy  EATOM  =     26212.11861568
  Solvation  Ediel_sol  =         0.00000000
  ---------------------------------------------------
  free energy    TOTEN  =     -1396.28841140 eV

  energy without entropy =    -1396.28841140  energy(sigma->0) =    -1396.28841140


--------------------------------------------------------------------------------------------------------




--------------------------------------- Iteration      1(  15)  ---------------------------------------


    POTLOK:  cpu time    0.2547: real time    0.3186
    SETDIJ:  cpu time    1.1989: real time    1.1989
     EDDAV:  cpu time   17.9733: real time   17.9745
       DOS:  cpu time    0.0004: real time    0.0004
    CHARGE:  cpu time    2.6986: real time    2.6990
    MIXING:  cpu time    0.0021: real time    0.0021
    --------------------------------------------
      LOOP:  cpu time   22.1279: real time   22.1935

 eigenvalue-minimisations  :  3960
 total energy-change (2. order) : 0.1562922E-05  (-0.4657278E-05)
 number of electron     343.9999999 magnetization 
 augmentation part       -3.4051765 magnetization 

 Broyden mixing:
  rms(total) = 0.12624E-02    rms(broyden)= 0.12611E-02
  rms(prec ) = 0.16021E-02
  weight for this iteration     100.00

 eigenvalues of (default mixing * dielectric matrix)
  average eigenvalue GAMMA=   1.6894
  3.5912  2.4876  2.4876  1.4932  1.4932  1.2580  1.2580  0.9123  0.9566  0.9566

 Free energy of the ion-electron system (eV)
  ---------------------------------------------------
  alpha Z        PSCENC =       872.70583573
  Ewald energy   TEWEN  =    -17671.37468593
  -Hartree energ DENC   =     -7698.58907573
  -exchange      EXHF   =         0.00000000
  -V(xc)+E(xc)   XCENC  =       946.17419475
  PAW double counting   =     23762.30239867   -24828.32383953
  entropy T*S    EENTRO =        -0.00000000
  eigenvalues    EBANDS =     -2991.30185348
  atomic energy  EATOM  =     26212.11861568
  Solvation  Ediel_sol  =         0.00000000
  ---------------------------------------------------
  free energy    TOTEN  =     -1396.28840984 eV

  energy without entropy =    -1396.28840984  energy(sigma->0) =    -1396.28840984


--------------------------------------------------------------------------------------------------------




--------------------------------------- Iteration      1(  16)  ---------------------------------------


    POTLOK:  cpu time    0.2947: real time    0.3169
    SETDIJ:  cpu time    1.2011: real time    1.2011
     EDDAV:  cpu time   17.1452: real time   17.1463
       DOS:  cpu time    0.0004: real time    0.0004
    CHARGE:  cpu time    2.6887: real time    2.6889
    MIXING:  cpu time    0.0024: real time    0.0024
    --------------------------------------------
      LOOP:  cpu time   21.3324: real time   21.3559

 eigenvalue-minimisations  :  3664
 total energy-change (2. order) : 0.3489255E-05  (-0.1260488E-05)
 number of electron     343.9999999 magnetization 
 augmentation part       -3.4051289 magnetization 

 Broyden mixing:
  rms(total) = 0.55116E-03    rms(broyden)= 0.54817E-03
  rms(prec ) = 0.70456E-03
  weight for this iteration     100.00

 eigenvalues of (default mixing * dielectric matrix)
  average eigenvalue GAMMA=   1.7424
  4.1868  2.7478  2.3805  1.6036  1.6036  1.2928  1.2928  1.0927  1.0927  0.8866
  0.9866

 Free energy of the ion-electron system (eV)
  ---------------------------------------------------
  alpha Z        PSCENC =       872.70583573
  Ewald energy   TEWEN  =    -17671.37468593
  -Hartree energ DENC   =     -7698.66289016
  -exchange      EXHF   =         0.00000000
  -V(xc)+E(xc)   XCENC  =       946.17352289
  PAW double counting   =     23763.01888561   -24829.03805195
  entropy T*S    EENTRO =        -0.00000000
  eigenvalues    EBANDS =     -2991.22963821
  atomic energy  EATOM  =     26212.11861568
  Solvation  Ediel_sol  =         0.00000000
  ---------------------------------------------------
  free energy    TOTEN  =     -1396.28840635 eV

  energy without entropy =    -1396.28840635  energy(sigma->0) =    -1396.28840635


--------------------------------------------------------------------------------------------------------




--------------------------------------- Iteration      1(  17)  ---------------------------------------


    POTLOK:  cpu time    0.2639: real time    0.3193
    SETDIJ:  cpu time    1.1996: real time    1.1996
     EDDAV:  cpu time   16.4701: real time   16.4708
       DOS:  cpu time    0.0004: real time    0.0004
    --------------------------------------------
      LOOP:  cpu time   17.9339: real time   17.9900

 eigenvalue-minimisations  :  3424
 total energy-change (2. order) : 0.8786583E-06  (-0.4495560E-06)
 number of electron     343.9999999 magnetization 
 augmentation part       -3.4051289 magnetization 

 Free energy of the ion-electron system (eV)
  ---------------------------------------------------
  alpha Z        PSCENC =       872.70583573
  Ewald energy   TEWEN  =    -17671.37468593
  -Hartree energ DENC   =     -7698.66792350
  -exchange      EXHF   =         0.00000000
  -V(xc)+E(xc)   XCENC  =       946.17223107
  PAW double counting   =     23763.11408374   -24829.13205017
  entropy T*S    EENTRO =        -0.00000000
  eigenvalues    EBANDS =     -2991.22451210
  atomic energy  EATOM  =     26212.11861568
  Solvation  Ediel_sol  =         0.00000000
  ---------------------------------------------------
  free energy    TOTEN  =     -1396.28840547 eV

  energy without entropy =    -1396.28840547  energy(sigma->0) =    -1396.28840547


--------------------------------------------------------------------------------------------------------




 average (electrostatic) potential at core
  the test charge radii are     1.1312  1.1541  1.0178
  (the norm of the test charge is              1.0000)
       1 -55.4133       2 -55.2186       3 -55.2486       4 -55.3298       5 -55.1719
       6 -55.0577       7 -54.5059       8 -55.6337       9-101.6179      10-101.9429
      11-101.4524      12-101.6995      13-101.6331      14-102.1360      15-101.8905
      16-101.7540      17 -68.6705      18 -69.0539      19 -69.1245      20 -69.4871
      21 -69.1426      22 -68.6945      23 -69.1572      24 -68.8679      25 -68.6298
      26 -70.8819      27 -68.9114      28 -69.0166      29 -68.8378      30 -69.1041
      31 -68.9370      32 -68.9678      33 -69.0842      34 -68.9311      35 -68.7924
      36 -69.2215      37 -68.4448      38 -69.7083      39 -67.8245



 E-fermi :   1.5121     XC(G=0):  -7.9224     alpha+bet : -6.9586


 k-point     1 :       0.0000    0.0000    0.0000
  band No.  band energies     occupation 
      1     -21.1540      2.00000
      2     -20.9415      2.00000
      3     -20.8590      2.00000
      4     -20.7915      2.00000
      5     -20.7459      2.00000
      6     -20.6998      2.00000
      7     -20.5965      2.00000
      8     -20.5868      2.00000
      9     -20.1408      2.00000
     10     -17.0066      2.00000
     11     -16.9123      2.00000
     12     -16.9043      2.00000
     13     -16.8384      2.00000
     14     -16.8089      2.00000
     15     -16.8053      2.00000
     16     -16.7268      2.00000
     17     -16.7173      2.00000
     18     -16.7086      2.00000
     19     -16.6761      2.00000
     20     -16.6157      2.00000
     21     -16.6087      2.00000
     22     -16.6061      2.00000
     23     -16.5858      2.00000
     24     -16.5555      2.00000
     25     -16.5488      2.00000
     26     -16.5153      2.00000
     27     -16.4778      2.00000
     28     -16.4708      2.00000
     29     -16.4646      2.00000
     30     -16.4508      2.00000
     31     -16.4142      2.00000
     32     -16.4043      2.00000
     33     -16.4001      2.00000
     34     -16.3939      2.00000
     35     -16.3798      2.00000
     36     -16.3632      2.00000
     37     -16.3576      2.00000
     38     -16.3551      2.00000
     39     -16.3480      2.00000
     40     -16.2974      2.00000
     41     -16.2873      2.00000
     42     -16.2781      2.00000
     43     -16.2679      2.00000
     44     -16.2403      2.00000
     45     -16.2115      2.00000
     46     -16.1311      2.00000
     47     -16.1087      2.00000
     48     -16.0970      2.00000
     49     -14.8876      2.00000
     50     -14.6798      2.00000
     51     -14.5040      2.00000
     52     -14.2647      2.00000
     53     -14.2289      2.00000
     54     -14.1789      2.00000
     55     -14.1745      2.00000
     56     -14.1476      2.00000
     57     -14.1271      2.00000
     58     -14.0846      2.00000
     59     -14.0375      2.00000
     60     -14.0104      2.00000
     61     -13.9740      2.00000
     62     -13.9335      2.00000
     63     -13.9062      2.00000
     64     -13.8689      2.00000
     65     -13.8330      2.00000
     66     -13.7645      2.00000
     67     -13.7078      2.00000
     68     -13.6216      2.00000
     69     -13.4979      2.00000
     70     -13.3353      2.00000
     71     -12.7812      2.00000
     72      -8.2217      2.00000
     73      -7.9288      2.00000
     74      -7.8013      2.00000
     75      -7.7811      2.00000
     76      -7.5727      2.00000
     77      -7.5375      2.00000
     78      -7.5145      2.00000
     79      -7.4525      2.00000
     80      -7.3675      2.00000
     81      -7.3357      2.00000
     82      -7.3221      2.00000
     83      -7.2990      2.00000
     84      -7.2664      2.00000
     85      -7.2501      2.00000
     86      -7.2266      2.00000
     87      -7.2158      2.00000
     88      -7.1935      2.00000
     89      -7.1626      2.00000
     90      -7.1407      2.00000
     91      -7.1332      2.00000
     92      -7.1237      2.00000
     93      -7.1077      2.00000
     94      -7.0967      2.00000
     95      -7.0727      2.00000
     96      -7.0609      2.00000
     97      -7.0265      2.00000
     98      -6.9881      2.00000
     99      -6.9593      2.00000
    100      -6.7077      2.00000
    101      -6.6516      2.00000
    102      -6.5891      2.00000
    103      -6.5815      2.00000
    104      -4.5494      2.00000
    105      -4.0584      2.00000
    106      -3.4057      2.00000
    107      -3.3241      2.00000
    108      -3.3185      2.00000
    109      -3.2405      2.00000
    110      -3.2050      2.00000
    111      -3.1283      2.00000
    112      -3.0631      2.00000
    113      -2.9869      2.00000
    114      -2.9349      2.00000
    115      -2.7872      2.00000
    116      -2.4261      2.00000
    117      -2.3987      2.00000
    118      -2.2817      2.00000
    119      -2.2399      2.00000
    120      -2.1528      2.00000
    121      -2.1134      2.00000
    122      -2.0209      2.00000
    123      -1.9587      2.00000
    124      -1.9231      2.00000
    125      -1.9082      2.00000
    126      -1.8412      2.00000
    127      -1.8040      2.00000
    128      -1.7735      2.00000
    129      -1.7114      2.00000
    130      -1.7070      2.00000
    131      -1.6933      2.00000
    132      -1.6150      2.00000
    133      -1.5703      2.00000
    134      -1.5672      2.00000
    135      -1.5553      2.00000
    136      -1.5366      2.00000
    137      -1.5034      2.00000
    138      -1.4644      2.00000
    139      -1.4397      2.00000
    140      -1.4236      2.00000
    141      -1.4149      2.00000
    142      -1.4070      2.00000
    143      -1.3722      2.00000
    144      -1.3697      2.00000
    145      -1.3350      2.00000
    146      -1.3238      2.00000
    147      -1.3028      2.00000
    148      -1.2959      2.00000
    149      -1.2654      2.00000
    150      -1.2475      2.00000
    151      -1.2026      2.00000
    152      -1.1834      2.00000
    153      -1.1410      2.00000
    154      -1.1287      2.00000
    155      -1.1160      2.00000
    156      -1.0771      2.00000
    157      -1.0419      2.00000
    158      -1.0022      2.00000
    159      -0.9683      2.00000
    160      -0.9094      2.00000
    161      -0.8568      2.00000
    162      -0.7973      2.00000
    163      -0.7825      2.00000
    164      -0.6899      2.00000
    165      -0.5358      2.00000
    166      -0.4749      2.00000
    167      -0.2905      2.00000
    168      -0.1350      2.00000
    169       0.0871      2.00000
    170       0.2444      2.00000
    171       1.3021      2.00000
    172       1.3949      2.00000
    173       2.1067      0.00000
    174       2.5975      0.00000
    175       2.8129      0.00000
    176       2.8949      0.00000
    177       2.9813      0.00000
    178       3.1210      0.00000
    179       3.1611      0.00000
    180       3.2407      0.00000
    181       3.3857      0.00000
    182       3.4751      0.00000
    183       3.6989      0.00000
    184       3.8425      0.00000
    185       4.1457      0.00000
    186       4.6607      0.00000
    187       4.8322      0.00000
    188       5.2464      0.00000
    189       5.5265      0.00000
    190       5.6607      0.00000
    191       5.7886      0.00000
    192       5.8298      0.00000
    193       5.8859      0.00000
    194       5.8950      0.00000
    195       5.9673      0.00000
    196       6.0109      0.00000
    197       6.1032      0.00000
    198       6.1487      0.00000
    199       6.1897      0.00000
    200       6.2256      0.00000
    201       6.2455      0.00000
    202       6.3247      0.00000
    203       6.3404      0.00000
    204       6.4285      0.00000
    205       6.4596      0.00000
    206       6.5630      0.00000
    207       6.6200      0.00000
    208       6.7399      0.00000

 k-point     2 :       0.5000    0.0000    0.0000
  band No.  band energies     occupation 
      1     -21.1540      2.00000
      2     -20.9415      2.00000
      3     -20.8590      2.00000
      4     -20.7915      2.00000
      5     -20.7459      2.00000
      6     -20.6998      2.00000
      7     -20.5965      2.00000
      8     -20.5868      2.00000
      9     -20.1408      2.00000
     10     -17.0057      2.00000
     11     -16.9120      2.00000
     12     -16.9043      2.00000
     13     -16.8371      2.00000
     14     -16.8089      2.00000
     15     -16.8053      2.00000
     16     -16.7268      2.00000
     17     -16.7165      2.00000
     18     -16.7086      2.00000
     19     -16.6738      2.00000
     20     -16.6157      2.00000
     21     -16.6088      2.00000
     22     -16.6060      2.00000
     23     -16.5854      2.00000
     24     -16.5555      2.00000
     25     -16.5489      2.00000
     26     -16.5166      2.00000
     27     -16.4782      2.00000
     28     -16.4708      2.00000
     29     -16.4681      2.00000
     30     -16.4510      2.00000
     31     -16.4145      2.00000
     32     -16.4024      2.00000
     33     -16.4003      2.00000
     34     -16.3955      2.00000
     35     -16.3764      2.00000
     36     -16.3632      2.00000
     37     -16.3577      2.00000
     38     -16.3551      2.00000
     39     -16.3480      2.00000
     40     -16.2973      2.00000
     41     -16.2873      2.00000
     42     -16.2781      2.00000
     43     -16.2679      2.00000
     44     -16.2444      2.00000
     45     -16.2138      2.00000
     46     -16.1311      2.00000
     47     -16.1087      2.00000
     48     -16.0970      2.00000
     49     -14.8872      2.00000
     50     -14.6847      2.00000
     51     -14.5031      2.00000
     52     -14.2784      2.00000
     53     -14.2346      2.00000
     54     -14.1859      2.00000
     55     -14.1742      2.00000
     56     -14.1488      2.00000
     57     -14.1250      2.00000
     58     -14.0996      2.00000
     59     -14.0185      2.00000
     60     -14.0083      2.00000
     61     -13.9733      2.00000
     62     -13.9191      2.00000
     63     -13.8968      2.00000
     64     -13.8172      2.00000
     65     -13.7906      2.00000
     66     -13.7647      2.00000
     67     -13.7517      2.00000
     68     -13.6659      2.00000
     69     -13.4976      2.00000
     70     -13.3386      2.00000
     71     -12.7812      2.00000
     72      -8.0889      2.00000
     73      -8.0068      2.00000
     74      -7.7639      2.00000
     75      -7.7010      2.00000
     76      -7.5767      2.00000
     77      -7.5379      2.00000
     78      -7.5246      2.00000
     79      -7.5007      2.00000
     80      -7.4205      2.00000
     81      -7.3627      2.00000
     82      -7.3270      2.00000
     83      -7.3186      2.00000
     84      -7.2964      2.00000
     85      -7.2436      2.00000
     86      -7.2243      2.00000
     87      -7.2172      2.00000
     88      -7.1879      2.00000
     89      -7.1515      2.00000
     90      -7.1497      2.00000
     91      -7.1360      2.00000
     92      -7.1170      2.00000
     93      -7.1090      2.00000
     94      -7.0953      2.00000
     95      -7.0724      2.00000
     96      -7.0371      2.00000
     97      -7.0017      2.00000
     98      -6.9756      2.00000
     99      -6.9593      2.00000
    100      -6.9533      2.00000
    101      -6.6517      2.00000
    102      -6.6026      2.00000
    103      -6.5850      2.00000
    104      -4.4042      2.00000
    105      -4.0561      2.00000
    106      -3.4035      2.00000
    107      -3.3233      2.00000
    108      -3.1841      2.00000
    109      -3.1760      2.00000
    110      -3.0380      2.00000
    111      -2.9988      2.00000
    112      -2.8699      2.00000
    113      -2.5786      2.00000
    114      -2.5549      2.00000
    115      -2.5405      2.00000
    116      -2.4522      2.00000
    117      -2.4249      2.00000
    118      -2.3333      2.00000
    119      -2.3195      2.00000
    120      -2.2794      2.00000
    121      -2.2545      2.00000
    122      -2.1876      2.00000
    123      -2.0869      2.00000
    124      -2.0569      2.00000
    125      -1.9721      2.00000
    126      -1.9172      2.00000
    127      -1.8429      2.00000
    128      -1.8200      2.00000
    129      -1.7856      2.00000
    130      -1.7552      2.00000
    131      -1.7370      2.00000
    132      -1.7003      2.00000
    133      -1.6598      2.00000
    134      -1.6510      2.00000
    135      -1.5978      2.00000
    136      -1.5362      2.00000
    137      -1.5277      2.00000
    138      -1.5003      2.00000
    139      -1.4779      2.00000
    140      -1.4633      2.00000
    141      -1.4422      2.00000
    142      -1.4074      2.00000
    143      -1.3855      2.00000
    144      -1.3721      2.00000
    145      -1.3320      2.00000
    146      -1.3222      2.00000
    147      -1.3131      2.00000
    148      -1.2674      2.00000
    149      -1.2561      2.00000
    150      -1.2288      2.00000
    151      -1.2146      2.00000
    152      -1.1763      2.00000
    153      -1.1535      2.00000
    154      -1.1491      2.00000
    155      -1.1335      2.00000
    156      -1.0690      2.00000
    157      -1.0558      2.00000
    158      -1.0361      2.00000
    159      -1.0172      2.00000
    160      -0.9649      2.00000
    161      -0.9398      2.00000
    162      -0.8791      2.00000
    163      -0.8284      2.00000
    164      -0.7378      2.00000
    165      -0.6530      2.00000
    166      -0.4487      2.00000
    167      -0.3316      2.00000
    168      -0.2138      2.00000
    169      -0.0073      2.00000
    170       0.1921      2.00000
    171       1.2946      2.00000
    172       1.3955      2.00000
[...]


--------------------------------------------------------------------------------------------------------


 soft charge-density along one line, spin component           1
         0         1         2         3         4         5         6         7         8         9
 total charge-density along one line

 pseudopotential strength for first ion, spin component:           1
 18.029  -4.720   0.005   0.002  -0.002  -0.007  -0.002   0.003
 -4.720   1.244  -0.001  -0.000   0.001   0.001   0.000  -0.001
  0.005  -0.001   2.289   0.001  -0.000  -2.743  -0.001  -0.000
  0.002  -0.000   0.001   2.289  -0.001  -0.001  -2.743   0.001
 -0.002   0.001  -0.000  -0.001   2.288  -0.000   0.001  -2.741
 -0.007   0.001  -2.743  -0.001  -0.000   3.257   0.001   0.000
 -0.002   0.000  -0.001  -2.743   0.001   0.001   3.257  -0.001
  0.003  -0.001  -0.000   0.001  -2.741   0.000  -0.001   3.254
  0.000  -0.000  -0.000   0.000   0.002   0.000  -0.000  -0.003
  0.001  -0.000   0.002   0.003   0.000  -0.003  -0.003  -0.000
  0.000  -0.000  -0.002  -0.000   0.001   0.002   0.001  -0.001
 -0.001   0.000   0.000  -0.001   0.001  -0.000   0.001  -0.002
 -0.001   0.000  -0.003  -0.001  -0.002   0.004   0.001   0.003
 total augmentation occupancy for first ion, spin component:           1
  1.912  -0.138   0.001   0.000  -0.001   0.003   0.001  -0.001   0.000   0.001   0.001  -0.001  -0.001
 -0.138   0.118   0.015   0.005  -0.006  -0.004  -0.002   0.003  -0.000  -0.000  -0.003   0.004   0.003
  0.001   0.015   2.020   0.002   0.000   0.006   0.002   0.000   0.001   0.006  -0.003   0.001  -0.006
  0.000   0.005   0.002   2.019  -0.002   0.002   0.005  -0.001   0.001   0.005  -0.002  -0.002  -0.001
 -0.001  -0.006   0.000  -0.002   2.014   0.000  -0.001   0.002   0.005   0.001   0.001   0.003  -0.005
  0.003  -0.004   0.006   0.002   0.000   0.008  -0.000  -0.000  -0.001  -0.003   0.000  -0.000   0.001
  0.001  -0.002   0.002   0.005  -0.001  -0.000   0.007   0.001  -0.000  -0.001   0.002  -0.000   0.001
 -0.001   0.003   0.000  -0.001   0.002  -0.000   0.001   0.009  -0.001  -0.000  -0.001  -0.001   0.003
  0.000  -0.000   0.001   0.001   0.005  -0.001  -0.000  -0.001   0.006   0.001  -0.000   0.000   0.001
  0.001  -0.000   0.006   0.005   0.001  -0.003  -0.001  -0.000   0.001   0.004   0.000  -0.000   0.001
  0.001  -0.003  -0.003  -0.002   0.001   0.000   0.002  -0.001  -0.000   0.000   0.005  -0.002  -0.001
 -0.001   0.004   0.001  -0.002   0.003  -0.000  -0.000  -0.001   0.000  -0.000  -0.002   0.004   0.001
 -0.001   0.003  -0.006  -0.001  -0.005   0.001   0.001   0.003   0.001   0.001  -0.001   0.001   0.004


------------------------ aborting loop because EDIFF is reached ----------------------------------------





 total charge     

# of ion       s       p       d       tot
------------------------------------------
    1        1.786   4.716   0.018   6.520
    2        1.786   4.716   0.018   6.519
    3        1.786   4.716   0.020   6.523
    4        1.786   4.716   0.018   6.520
    5        1.785   4.716   0.018   6.519
    6        1.787   4.715   0.019   6.521
    7        1.800   4.713   0.053   6.566
    8        1.785   4.716   0.016   6.517
    9        1.554   0.417   9.834  11.805
   10        1.537   0.426   9.830  11.793
   11        1.554   0.419   9.833  11.806
   12        1.553   0.411   9.833  11.797
   13        1.523   1.130  10.012  12.665
   14        1.534   0.421   9.829  11.784
   15        1.532   0.447   9.829  11.808
   16        1.506   0.468   9.824  11.797
   17        1.616   3.294   0.008   4.917
   18        1.616   3.277   0.007   4.899
   19        1.615   3.282   0.007   4.904
   20        1.616   3.271   0.007   4.895
   21        1.614   3.283   0.007   4.904
   22        1.615   3.287   0.007   4.910
   23        1.615   3.280   0.006   4.901
   24        1.619   3.270   0.008   4.897
   25        1.628   3.275   0.021   4.924
   26        1.672   3.572   0.159   5.403
   27        1.614   3.278   0.006   4.898
   28        1.614   3.282   0.006   4.901
   29        1.614   3.284   0.006   4.904
   30        1.614   3.280   0.006   4.900
   31        1.614   3.283   0.006   4.904
   32        1.614   3.278   0.006   4.898
   33        1.614   3.280   0.006   4.901
   34        1.614   3.280   0.006   4.901
   35        1.629   3.298   0.016   4.942
   36        1.615   3.277   0.006   4.898
   37        1.627   3.240   0.012   4.879
   38        1.615   3.266   0.006   4.887
   39        1.630   3.326   0.021   4.977
--------------------------------------------------
tot         63.847 117.607  79.350 260.805

    CHARGE:  cpu time    0.3951: real time    0.3952
    FORLOC:  cpu time    0.0110: real time    0.0110
    FORNL :  cpu time    1.9019: real time    1.9021
    STRESS:  cpu time   49.5695: real time   49.5719
    FORCOR:  cpu time    0.2405: real time    0.2405
    FORHAR:  cpu time    0.0276: real time    0.0276
    MIXING:  cpu time    0.0018: real time    0.0018
    OFIELD:  cpu time    0.0000: real time    0.0000

  FORCE on cell =-STRESS in cart. coord.  units (eV):
  Direction    XX          YY          ZZ          XY          YZ          ZX
  --------------------------------------------------------------------------------------
  Alpha Z   872.70584   872.70584   872.70584
  Ewald   -5967.88802 -5902.95369 -5800.61183   -35.24120   358.00934   269.23875
  Hartree  2541.48115  2594.30250  2562.88438     9.89542   200.55374   274.92583
  E(xc)   -1451.72248 -1452.02917 -1452.60258    -0.20260     0.25681     0.24567
  Local   -2978.88670 -3101.71024 -3141.21663    19.49080  -548.17771  -561.13286
  n-local  1765.04078  1760.55598  1785.83209    -3.53937     8.46717   -12.71988
  augment   818.20032   819.60370   813.33913     0.98269    -1.27404     5.00600
  Kinetic  4423.03521  4417.14685  4402.92176    -2.75718    -1.32563    -0.63960
  Fock        0.00000     0.00000     0.00000     0.00000     0.00000     0.00000
  -------------------------------------------------------------------------------------
  Total      21.96608     7.62176    43.25217   -11.37143    16.50968   -25.07609
  in kB      22.06371     7.65564    43.44440   -11.42197    16.58305   -25.18753
  external pressure =       24.39 kB  Pullay stress =        0.00 kB


 VOLUME and BASIS-vectors are now :
 -----------------------------------------------------------------------------
  energy-cutoff  :      300.00
  volume of cell :     1595.09
      direct lattice vectors                 reciprocal lattice vectors
     8.456489000  0.000000000  8.040301000     0.059126193 -0.000000000  0.062186727
     0.000000000 11.729847000  0.000000000     0.000000000  0.085252604 -0.000000000
    -8.456489000  0.000000000  8.040301000    -0.059126193  0.000000000  0.062186727

  length of vectors
    11.668703715 11.729847000 11.668703715     0.085808482  0.085252604  0.085808482


 FORCES acting on ions
    electron-ion (+dipol)            ewald-force                    non-local-force                 convergence-correction
 -----------------------------------------------------------------------------------------------
   0.361E+02 -.280E+02 -.301E+02   -.359E+02 0.275E+02 0.299E+02   -.196E+00 0.393E+00 0.153E+00   -.576E-03 0.138E-02 -.774E-03
   0.796E+01 -.294E+02 -.236E+02   -.812E+01 0.292E+02 0.233E+02   0.753E-01 0.257E+00 0.116E+00   0.570E-03 0.235E-02 0.168E-03
   0.235E+02 -.202E+02 -.189E+02   -.233E+02 0.204E+02 0.194E+02   -.217E+00 -.603E-02 -.151E+00   0.388E-03 -.181E-02 0.114E-02
   -.294E+02 0.370E+02 0.175E+02   0.294E+02 -.366E+02 -.170E+02   -.763E-01 -.290E+00 -.436E+00   -.329E-03 -.221E-02 -.912E-03
   0.265E+02 -.160E+02 0.319E+02   -.265E+02 0.160E+02 -.316E+02   0.350E-01 0.375E-02 -.132E+00   -.107E-03 0.246E-02 -.351E-03
   0.294E+02 0.340E+01 -.538E+01   -.295E+02 -.342E+01 0.526E+01   0.972E-01 0.100E-01 0.918E-01   0.504E-03 0.179E-02 0.102E-02
   -.390E+02 -.196E+00 -.596E+01   0.384E+02 0.596E+00 0.575E+01   -.579E+00 0.486E+00 0.172E+01   0.103E-02 -.213E-02 0.221E-03
   -.433E+02 0.340E+02 -.382E+02   0.429E+02 -.333E+02 0.378E+02   0.439E+00 -.551E+00 0.381E+00   -.102E-02 -.177E-02 -.378E-03
   -.170E+02 0.309E+01 -.781E+01   0.169E+02 -.320E+01 0.821E+01   0.113E+00 0.942E-01 -.465E+00   0.209E-03 -.110E-02 -.132E-02
   0.679E+01 0.114E+03 -.596E+01   -.671E+01 -.119E+03 0.707E+01   -.322E-01 0.487E+01 -.943E+00   -.633E-03 -.249E-03 0.174E-02
   0.103E+02 0.275E+01 0.921E+01   -.104E+02 -.248E+01 -.917E+01   0.227E+00 -.283E+00 -.164E-01   0.149E-02 -.897E-03 -.642E-03
   -.633E+01 -.473E+00 -.172E+02   0.637E+01 0.547E+00 0.171E+02   -.127E+00 -.133E+00 0.323E-01   -.128E-02 -.741E-03 0.216E-03
   -.320E+02 0.521E+02 0.236E+03   0.548E+02 -.624E+02 -.277E+03   -.758E+01 0.286E+01 0.117E+02   0.416E-02 0.177E-04 -.447E-02
   0.557E+02 -.487E+01 -.102E+03   -.593E+02 0.546E+01 0.104E+03   0.359E+01 -.625E+00 -.276E+01   -.298E-02 0.910E-03 0.871E-03
   -.101E+03 -.164E+02 0.778E+02   0.104E+03 0.171E+02 -.813E+02   -.338E+01 -.660E+00 0.347E+01   0.705E-03 0.119E-02 -.204E-02
   0.136E+02 -.751E+02 0.142E+03   -.117E+02 0.775E+02 -.146E+03   -.204E+01 -.212E+01 0.557E+01   -.216E-03 0.121E-02 0.164E-02
   0.160E+02 -.153E+02 0.611E+02   -.160E+02 0.151E+02 -.613E+02   0.520E-02 0.607E+00 -.658E-01   0.115E-02 -.128E-02 -.532E-03
   0.799E+01 0.845E+01 -.526E+00   -.840E+01 -.842E+01 0.229E+00   0.563E+00 -.480E-01 0.390E+00   -.101E-02 -.117E-02 0.418E-03
   -.297E+02 -.203E+02 0.455E+02   0.298E+02 0.203E+02 -.458E+02   -.153E-01 0.845E-01 0.279E+00   0.230E-03 0.104E-02 -.397E-03
   -.314E+01 -.163E+02 0.515E+02   0.318E+01 0.165E+02 -.519E+02   -.244E-01 -.532E+00 0.394E+00   -.808E-03 0.115E-02 0.104E-02
   -.123E+02 0.173E+02 -.250E+02   0.122E+02 -.173E+02 0.251E+02   0.113E+00 -.856E-01 -.818E-01   0.250E-03 -.982E-03 -.100E-02
   -.394E+01 0.164E+02 -.247E+02   0.411E+01 -.164E+02 0.248E+02   -.222E+00 -.432E+00 -.898E-01   0.935E-03 0.118E-02 -.647E-03
   0.340E+01 -.194E+02 -.509E+02   -.341E+01 0.194E+02 0.512E+02   0.252E-01 0.941E-01 -.224E+00   -.533E-03 0.119E-02 0.704E-04
   -.104E+02 0.421E+01 0.547E+02   0.106E+02 -.426E+01 -.548E+02   -.631E+00 0.555E-01 -.125E+00   0.896E-03 0.578E-03 -.929E-03
   -.344E+02 0.526E+02 0.188E+02   0.351E+02 -.532E+02 -.190E+02   0.162E+01 -.240E+01 -.421E+00   -.259E-03 0.684E-03 0.118E-02
   0.239E+03 -.704E+02 -.259E+03   -.251E+03 0.755E+02 0.279E+03   -.774E+01 0.248E+01 0.966E+01   0.125E-02 0.116E-03 -.731E-04
   -.274E+02 0.208E+01 -.471E+01   0.276E+02 -.202E+01 0.498E+01   -.124E+00 -.296E-01 -.331E+00   0.262E-03 -.256E-03 0.273E-03
   -.190E+02 -.170E+02 -.334E+02   0.192E+02 0.171E+02 0.335E+02   -.124E+00 -.178E+00 -.110E+00   -.548E-03 -.827E-04 -.230E-03
   0.198E+02 0.106E+02 -.240E+02   -.200E+02 -.107E+02 0.242E+02   0.169E+00 0.209E+00 -.129E+00   0.880E-03 -.859E-03 -.231E-03
   0.630E+01 0.409E+02 -.325E+02   -.650E+01 -.411E+02 0.327E+02   0.205E+00 0.115E+00 -.243E+00   -.904E-03 -.409E-03 -.109E-03
   -.224E+02 -.124E+02 0.299E+02   0.227E+02 0.125E+02 -.301E+02   -.250E+00 -.144E+00 0.216E+00   0.193E-03 -.153E-03 -.739E-03
   -.724E+01 -.501E+01 0.254E+02   0.748E+01 0.511E+01 -.256E+02   -.230E+00 -.621E-01 0.189E+00   0.406E-04 -.140E-03 0.106E-02
   0.368E+02 0.440E+02 0.116E+02   -.369E+02 -.441E+02 -.119E+02   0.598E-01 0.903E-01 0.278E+00   0.659E-04 -.425E-03 -.693E-04
   0.949E+01 0.247E+02 0.256E+02   -.974E+01 -.250E+02 -.259E+02   0.296E+00 0.234E+00 0.328E+00   -.854E-04 -.116E-02 -.351E-03
   -.550E+02 -.975E+01 -.447E+02   0.550E+02 0.967E+01 0.449E+02   0.318E+01 -.564E-01 0.114E+01   0.107E-02 0.298E-03 -.379E-03
   0.147E+02 -.374E+02 -.250E+02   -.149E+02 0.375E+02 0.253E+02   0.857E-01 -.771E-01 -.352E+00   -.114E-02 -.233E-03 0.594E-03
   -.228E+02 0.195E+02 -.569E+01   0.221E+02 -.194E+02 0.558E+01   0.148E+01 -.690E+00 -.125E+01   0.254E-03 0.769E-03 0.829E-04
   -.334E+02 0.150E+02 -.490E+02   0.338E+02 -.154E+02 0.493E+02   -.362E+00 0.456E+00 -.344E+00   -.740E-03 0.402E-03 -.370E-03
   -.269E+01 -.937E+02 -.294E+02   0.269E+01 0.946E+02 0.297E+02   -.678E+00 0.153E+01 -.159E+01   -.219E-03 -.655E-03 0.144E-02
 -----------------------------------------------------------------------------------------------
   0.123E+02 -.559E+01 -.258E+02   0.320E-13 -.114E-12 0.711E-14   -.122E+02 0.553E+01 0.258E+02   0.315E-02 -.150E-04 -.376E-02


 POSITION                                       TOTAL-FORCE (eV/Angst)
 -----------------------------------------------------------------------------------
      0.57903      2.86407      3.75628         0.059260     -0.116541     -0.041775
      0.47605      2.84168     11.90955        -0.088191     -0.013539     -0.116758
      3.89429      8.83791      7.95363        -0.045411      0.202534      0.280130
     -4.74619      8.86649      7.92869         0.010963      0.064994      0.116301
     -3.70809      2.93164      8.24858         0.037424      0.028880      0.134300
      4.72889      2.89142      8.16141        -0.032405      0.003141     -0.027582
     -0.59622      8.83600     12.35812        -1.092382      0.817392      1.403957
     -0.54591      8.83987      4.06416        -0.013496      0.069576     -0.060738
      0.00178      0.01737     16.07095        -0.019041     -0.009456     -0.080724
      0.02988      0.05434      7.99956         0.043167      0.095876      0.173632
     -4.23222      0.00449     12.04553         0.122682     -0.015024      0.009054
     -4.22791      0.00742      4.04509        -0.096860     -0.055566     -0.070314
      4.21915      5.88570      4.02801        15.372113     -7.510120    -29.207947
     -4.16026      5.83182      4.00495        -0.017215     -0.034737     -0.481195
     -0.03408      5.84589      0.03502        -0.328108      0.011518      0.019570
     -0.00325      5.78102      8.05489        -0.052027      0.342284      1.405880
     -4.15125      8.80501     11.53601         0.005468      0.499242     -0.220206
      4.22465      8.77437     11.60546         0.192859     -0.047019      0.118757
     -0.05580      2.95026     15.54634         0.017020      0.074006     -0.005583
     -0.04373      2.90847      7.43301         0.012327     -0.357263     -0.003478
      0.01406      8.78741      0.41342         0.031426     -0.056060      0.046238
      4.18112      2.95088      4.50570        -0.075706     -0.373226      0.061181
     -4.35902      2.94229      4.62924         0.007294      0.097368      0.047693
     -5.94026      5.51180      9.61321        -0.449123      0.025934     -0.258090
      2.48973      5.44054      9.67598         2.316261     -2.951958     -0.536616
      3.36587      6.30003      5.62868       -19.244505      7.357745     28.810195
     -1.71040      0.32720     10.42148         0.064745      0.028912     -0.089496
     -1.75284      0.40158      2.40272         0.024313     -0.007682      0.041178
      5.94632     11.38614      6.42682         0.009406      0.056076      0.069214
     -2.46602     11.29668      6.44219         0.007070     -0.040018     -0.008338
     -5.93042      0.38355      9.60215        -0.033868      0.007814     -0.017750
      2.51702      0.34998      9.62236        -0.004911      0.030178     -0.011088
      1.69885     11.29826      5.59448        -0.085739     -0.072100      0.045080
      1.69444     11.33849     13.64095         0.057892      0.013566      0.021210
      5.92220      6.23324      6.47506         3.264138     -0.132280      1.369055
     -2.51741      6.30130      6.48148        -0.088782      0.058848     -0.103515
     -1.69800      5.53122     10.53279         0.848801     -0.621232     -1.410039
     -1.68566      5.44124      2.45060        -0.035216      0.085676      0.003604
      0.93986      7.57421     10.25441        -0.701644      2.442258     -1.424999
 -----------------------------------------------------------------------------------
    total drift:                                0.044048     -0.064566     -0.025781


--------------------------------------------------------------------------------------------------------



  FREE ENERGIE OF THE ION-ELECTRON SYSTEM (eV)
  ---------------------------------------------------
  free  energy   TOTEN  =     -1396.28840547 eV

  energy  without entropy=    -1396.28840547  energy(sigma->0) =    -1396.28840547



--------------------------------------------------------------------------------------------------------


    POTLOK:  cpu time    1.4331: real time    1.4331


--------------------------------------------------------------------------------------------------------


 stress matrix after NEB project (eV)
     21.96608    -11.37171    -25.07609
    -11.37143      7.62176     16.50992
    -25.07382     16.50968     43.25217
  FORCES: max atom, RMS    35.419129    7.920078
  FORCE total and by dimension   49.460869   29.207947
  Stress total and by dimension   66.877720   43.252173
     LOOP+:  cpu time  414.9775: real time  415.6714
    4ORBIT:  cpu time    0.0000: real time    0.0000



 total charge     

# of ion       s       p       d       tot
------------------------------------------
    1        1.786   4.716   0.018   6.520
    2        1.786   4.716   0.018   6.519
    3        1.786   4.716   0.020   6.523
    4        1.786   4.716   0.018   6.520
    5        1.785   4.716   0.018   6.519
    6        1.787   4.715   0.019   6.521
    7        1.800   4.713   0.053   6.566
    8        1.785   4.716   0.016   6.517
    9        1.554   0.417   9.834  11.805
   10        1.537   0.426   9.830  11.793
   11        1.554   0.419   9.833  11.806
   12        1.553   0.411   9.833  11.797
   13        1.523   1.130  10.012  12.665
   14        1.534   0.421   9.829  11.784
   15        1.532   0.447   9.829  11.808
   16        1.506   0.468   9.824  11.797
   17        1.616   3.294   0.008   4.917
   18        1.616   3.277   0.007   4.899
   19        1.615   3.282   0.007   4.904
   20        1.616   3.271   0.007   4.895
   21        1.614   3.283   0.007   4.904
   22        1.615   3.287   0.007   4.910
   23        1.615   3.280   0.006   4.901
   24        1.619   3.270   0.008   4.897
   25        1.628   3.275   0.021   4.924
   26        1.672   3.572   0.159   5.403
   27        1.614   3.278   0.006   4.898
   28        1.614   3.282   0.006   4.901
   29        1.614   3.284   0.006   4.904
   30        1.614   3.280   0.006   4.900
   31        1.614   3.283   0.006   4.904
   32        1.614   3.278   0.006   4.898
   33        1.614   3.280   0.006   4.901
   34        1.614   3.280   0.006   4.901
   35        1.629   3.298   0.016   4.942
   36        1.615   3.277   0.006   4.898
   37        1.627   3.240   0.012   4.879
   38        1.615   3.266   0.006   4.887
   39        1.630   3.326   0.021   4.977
--------------------------------------------------
tot         63.847 117.607  79.350 260.805


 total amount of memory used by VASP MPI-rank0    60632. kBytes
=======================================================================

   base      :      30000. kBytes
   nonlr-proj:       6467. kBytes
   fftplans  :       8423. kBytes
   grid      :       7465. kBytes
   one-center:         77. kBytes
   wavefun   :       8200. kBytes

  
  
 General timing and accounting informations for this job:
 ========================================================
  
                  Total CPU time used (sec):      427.314
                            User time (sec):      425.754
                          System time (sec):        1.560
                         Elapsed time (sec):      428.771
  
                   Maximum memory used (kb):       77524.
                   Average memory used (kb):           0.
  
                          Minor page faults:        20585
                          Major page faults:            1
                 Voluntary context switches:         1733
