  20  20   1   0
  0.4027189E+02  0.8277206E-09  0.8277206E-09  0.1175771E-08  0.5000000E-15
   1.0000000000000000E-004
  CAR 
 CsPbBr3 cubic bulk                      
      8.56368692    -22.27926516  301      0.67303168      1.00000000
    -22.279  0.0000E+00  0.0000E+00
    -22.176  0.0000E+00  0.0000E+00
    -22.074  0.0000E+00  0.0000E+00
    -21.971  0.0000E+00  0.0000E+00
    -21.868  0.0000E+00  0.0000E+00
    -21.765  0.0000E+00  0.0000E+00
    -21.662  0.0000E+00  0.0000E+00
    -21.560  0.0000E+00  0.0000E+00
    -21.457  0.0000E+00  0.0000E+00
    -21.354  0.0000E+00  0.0000E+00
    -21.251  0.0000E+00  0.0000E+00
    -21.148  0.0000E+00  0.0000E+00
    -21.046  0.0000E+00  0.0000E+00
    -20.943  0.0000E+00  0.0000E+00
    -20.840  0.7624E+02  0.7838E+01
    -20.737  0.0000E+00  0.8000E+01
    -20.634  0.0000E+00  0.8000E+01
    -20.531  0.0000E+00  0.8000E+01
    -20.429  0.0000E+00  0.8000E+01
    -20.326  0.0000E+00  0.8000E+01
    -20.223  0.0000E+00  0.8000E+01
    -20.120  0.0000E+00  0.8000E+01
    -20.017  0.0000E+00  0.8000E+01
    -19.915  0.0000E+00  0.8000E+01
    -19.812  0.0000E+00  0.8000E+01
    -19.709  0.0000E+00  0.8000E+01
    -19.606  0.0000E+00  0.8000E+01
    -19.503  0.0000E+00  0.8000E+01
    -19.401  0.0000E+00  0.8000E+01
    -19.298  0.0000E+00  0.8000E+01
    -19.195  0.0000E+00  0.8000E+01
    -19.092  0.0000E+00  0.8000E+01
    -18.989  0.0000E+00  0.8000E+01
    -18.887  0.0000E+00  0.8000E+01
    -18.784  0.0000E+00  0.8000E+01
    -18.681  0.0000E+00  0.8000E+01
    -18.578  0.0000E+00  0.8000E+01
    -18.475  0.0000E+00  0.8000E+01
    -18.372  0.0000E+00  0.8000E+01
    -18.270  0.0000E+00  0.8000E+01
    -18.167  0.0000E+00  0.8000E+01
    -18.064  0.0000E+00  0.8000E+01
    -17.961  0.0000E+00  0.8000E+01
    -17.858  0.0000E+00  0.8000E+01
    -17.756  0.0000E+00  0.8000E+01
    -17.653  0.0000E+00  0.8000E+01
    -17.550  0.0000E+00  0.8000E+01
    -17.447  0.0000E+00  0.8000E+01
    -17.344  0.0000E+00  0.8000E+01
    -17.242  0.0000E+00  0.8000E+01
    -17.139  0.0000E+00  0.8000E+01
    -17.036  0.0000E+00  0.8000E+01
    -16.933  0.0000E+00  0.8000E+01
    -16.830  0.0000E+00  0.8000E+01
    -16.728  0.0000E+00  0.8000E+01
    -16.625  0.0000E+00  0.8000E+01
    -16.522  0.0000E+00  0.8000E+01
    -16.419  0.7293E+00  0.8075E+01
    -16.316  0.1289E+03  0.2314E+02
    -16.213  0.2332E+03  0.4797E+02
    -16.111  0.0000E+00  0.4800E+02
    -16.008  0.0000E+00  0.4800E+02
    -15.905  0.0000E+00  0.4800E+02
    -15.802  0.0000E+00  0.4800E+02
    -15.699  0.0000E+00  0.4800E+02
    -15.597  0.0000E+00  0.4800E+02
    -15.494  0.0000E+00  0.4800E+02
    -15.391  0.0000E+00  0.4800E+02
    -15.288  0.0000E+00  0.4800E+02
    -15.185  0.0000E+00  0.4800E+02
    -15.083  0.0000E+00  0.4800E+02
    -14.980  0.0000E+00  0.4800E+02
    -14.877  0.0000E+00  0.4800E+02
    -14.774  0.0000E+00  0.4800E+02
    -14.671  0.0000E+00  0.4800E+02
    -14.569  0.0000E+00  0.4800E+02
    -14.466  0.0000E+00  0.4800E+02
    -14.363  0.9763E-03  0.4800E+02
    -14.260  0.6482E+01  0.4878E+02
    -14.157  0.2214E+02  0.5105E+02
    -14.054  0.2806E+02  0.5466E+02
    -13.952  0.4733E+02  0.5998E+02
    -13.849  0.4040E+02  0.6460E+02
    -13.746  0.4167E+02  0.7017E+02
    -13.643  0.9727E+01  0.7200E+02
    -13.540  0.0000E+00  0.7200E+02
    -13.438  0.0000E+00  0.7200E+02
    -13.335  0.0000E+00  0.7200E+02
    -13.232  0.0000E+00  0.7200E+02
    -13.129  0.0000E+00  0.7200E+02
    -13.026  0.0000E+00  0.7200E+02
    -12.924  0.0000E+00  0.7200E+02
    -12.821  0.0000E+00  0.7200E+02
    -12.718  0.0000E+00  0.7200E+02
    -12.615  0.0000E+00  0.7200E+02
    -12.512  0.0000E+00  0.7200E+02
    -12.410  0.0000E+00  0.7200E+02
    -12.307  0.0000E+00  0.7200E+02
    -12.204  0.0000E+00  0.7200E+02
    -12.101  0.0000E+00  0.7200E+02
    -11.998  0.0000E+00  0.7200E+02
    -11.895  0.0000E+00  0.7200E+02
    -11.793  0.0000E+00  0.7200E+02
    -11.690  0.0000E+00  0.7200E+02
    -11.587  0.0000E+00  0.7200E+02
    -11.484  0.0000E+00  0.7200E+02
    -11.381  0.0000E+00  0.7200E+02
    -11.279  0.0000E+00  0.7200E+02
    -11.176  0.0000E+00  0.7200E+02
    -11.073  0.0000E+00  0.7200E+02
    -10.970  0.0000E+00  0.7200E+02
    -10.867  0.0000E+00  0.7200E+02
    -10.765  0.0000E+00  0.7200E+02
    -10.662  0.0000E+00  0.7200E+02
    -10.559  0.0000E+00  0.7200E+02
    -10.456  0.0000E+00  0.7200E+02
    -10.353  0.0000E+00  0.7200E+02
    -10.251  0.0000E+00  0.7200E+02
    -10.148  0.0000E+00  0.7200E+02
    -10.045  0.0000E+00  0.7200E+02
     -9.942  0.0000E+00  0.7200E+02
     -9.839  0.0000E+00  0.7200E+02
     -9.736  0.0000E+00  0.7200E+02
     -9.634  0.0000E+00  0.7200E+02
     -9.531  0.0000E+00  0.7200E+02
     -9.428  0.0000E+00  0.7200E+02
     -9.325  0.0000E+00  0.7200E+02
     -9.222  0.0000E+00  0.7200E+02
     -9.120  0.0000E+00  0.7200E+02
     -9.017  0.0000E+00  0.7200E+02
     -8.914  0.0000E+00  0.7200E+02
     -8.811  0.0000E+00  0.7200E+02
     -8.708  0.0000E+00  0.7200E+02
     -8.606  0.0000E+00  0.7200E+02
     -8.503  0.0000E+00  0.7200E+02
     -8.400  0.0000E+00  0.7200E+02
     -8.297  0.0000E+00  0.7200E+02
     -8.194  0.6504E-03  0.7200E+02
     -8.092  0.1080E+01  0.7211E+02
     -7.989  0.5646E-08  0.7211E+02
     -7.886  0.6484E+01  0.7278E+02
     -7.783  0.4272E+01  0.7322E+02
     -7.680  0.8646E+01  0.7411E+02
     -7.577  0.3406E+01  0.7446E+02
     -7.475  0.2161E+01  0.7556E+02
     -7.372  0.8646E+01  0.7644E+02
     -7.269  0.4975E+02  0.8156E+02
     -7.166  0.1266E+03  0.1015E+03
     -7.063  0.9723E+01  0.1028E+03
     -6.961  0.1405E+00  0.1028E+03
     -6.858  0.6715E-04  0.1032E+03
     -6.755  0.6484E+01  0.1039E+03
     -6.652  0.0000E+00  0.1039E+03
     -6.549  0.0000E+00  0.1039E+03
     -6.447  0.7598E+00  0.1040E+03
     -6.344  0.0000E+00  0.1040E+03
     -6.241  0.0000E+00  0.1040E+03
     -6.138  0.0000E+00  0.1040E+03
     -6.035  0.0000E+00  0.1040E+03
     -5.933  0.0000E+00  0.1040E+03
     -5.830  0.0000E+00  0.1040E+03
     -5.727  0.0000E+00  0.1040E+03
     -5.624  0.0000E+00  0.1040E+03
     -5.521  0.0000E+00  0.1040E+03
     -5.418  0.0000E+00  0.1040E+03
     -5.316  0.0000E+00  0.1040E+03
     -5.213  0.0000E+00  0.1040E+03
     -5.110  0.0000E+00  0.1040E+03
     -5.007  0.0000E+00  0.1040E+03
     -4.904  0.0000E+00  0.1040E+03
     -4.802  0.0000E+00  0.1040E+03
     -4.699  0.0000E+00  0.1040E+03
     -4.596  0.0000E+00  0.1040E+03
     -4.493  0.0000E+00  0.1040E+03
     -4.390  0.0000E+00  0.1040E+03
     -4.288  0.0000E+00  0.1040E+03
     -4.185  0.0000E+00  0.1040E+03
     -4.082  0.0000E+00  0.1040E+03
     -3.979  0.0000E+00  0.1040E+03
     -3.876  0.0000E+00  0.1040E+03
     -3.773  0.0000E+00  0.1040E+03
     -3.671  0.0000E+00  0.1040E+03
     -3.568  0.0000E+00  0.1040E+03
     -3.465  0.0000E+00  0.1040E+03
     -3.362  0.1370E-01  0.1040E+03
     -3.259  0.8009E+01  0.1049E+03
     -3.157  0.1990E+02  0.1075E+03
     -3.054  0.5367E+01  0.1087E+03
     -2.951  0.4325E+01  0.1091E+03
     -2.848  0.1272E+02  0.1104E+03
     -2.745  0.1971E+02  0.1127E+03
     -2.643  0.8645E+01  0.1140E+03
     -2.540  0.1487E-04  0.1140E+03
     -2.437  0.1138E+02  0.1152E+03
     -2.334  0.1725E+02  0.1178E+03
     -2.231  0.6012E+01  0.1184E+03
     -2.129  0.1336E+02  0.1198E+03
     -2.026  0.3140E+02  0.1236E+03
     -1.923  0.2162E+02  0.1263E+03
     -1.820  0.8184E+01  0.1273E+03
     -1.717  0.1595E+02  0.1293E+03
     -1.614  0.2611E+02  0.1336E+03
     -1.512  0.2064E+02  0.1363E+03
     -1.409  0.3554E+02  0.1403E+03
     -1.306  0.5219E+02  0.1470E+03
     -1.203  0.5550E+02  0.1546E+03
     -1.100  0.4357E+02  0.1605E+03
     -0.998  0.4131E+02  0.1664E+03
     -0.895  0.1081E+02  0.1679E+03
     -0.792  0.2369E+02  0.1703E+03
     -0.689  0.6484E+01  0.1710E+03
     -0.586  0.6892E+01  0.1717E+03
     -0.484  0.1874E+02  0.1737E+03
     -0.381  0.4323E+01  0.1742E+03
     -0.278  0.4323E+01  0.1747E+03
     -0.175  0.0000E+00  0.1747E+03
     -0.072  0.2839E-04  0.1747E+03
      0.030  0.9594E+01  0.1757E+03
      0.133  0.2161E+01  0.1759E+03
      0.236  0.0000E+00  0.1759E+03
      0.339  0.0000E+00  0.1759E+03
      0.442  0.0000E+00  0.1759E+03
      0.545  0.5156E-06  0.1759E+03
      0.647  0.1081E+01  0.1760E+03
      0.750  0.0000E+00  0.1760E+03
      0.853  0.0000E+00  0.1760E+03
      0.956  0.0000E+00  0.1760E+03
      1.059  0.0000E+00  0.1760E+03
      1.161  0.0000E+00  0.1760E+03
      1.264  0.0000E+00  0.1760E+03
      1.367  0.0000E+00  0.1760E+03
      1.470  0.0000E+00  0.1760E+03
      1.573  0.0000E+00  0.1760E+03
      1.675  0.0000E+00  0.1760E+03
      1.778  0.0000E+00  0.1760E+03
      1.881  0.0000E+00  0.1760E+03
      1.984  0.0000E+00  0.1760E+03
      2.087  0.0000E+00  0.1760E+03
      2.189  0.0000E+00  0.1760E+03
      2.292  0.0000E+00  0.1760E+03
      2.395  0.0000E+00  0.1760E+03
      2.498  0.0000E+00  0.1760E+03
      2.601  0.0000E+00  0.1760E+03
      2.704  0.7259E-14  0.1760E+03
      2.806  0.1167E+01  0.1761E+03
      2.909  0.1079E+01  0.1763E+03
      3.012  0.3915E+01  0.1767E+03
      3.115  0.6674E+01  0.1777E+03
      3.218  0.3114E+01  0.1782E+03
      3.320  0.9704E+01  0.1792E+03
      3.423  0.8646E+01  0.1801E+03
      3.526  0.2161E+01  0.1803E+03
      3.629  0.2903E+01  0.1806E+03
      3.732  0.4323E+01  0.1811E+03
      3.834  0.9762E+01  0.1821E+03
      3.937  0.6815E+00  0.1825E+03
      4.040  0.8421E+01  0.1842E+03
      4.143  0.1207E+01  0.1843E+03
      4.246  0.4323E+01  0.1856E+03
      4.348  0.1657E+01  0.1857E+03
      4.451  0.2161E+01  0.1862E+03
      4.554  0.8427E+01  0.1871E+03
      4.657  0.8591E+01  0.1880E+03
      4.760  0.5056E+01  0.1885E+03
      4.863  0.1297E+02  0.1899E+03
      4.965  0.1659E+01  0.1901E+03
      5.068  0.0000E+00  0.1906E+03
      5.171  0.9025E-01  0.1906E+03
      5.274  0.1276E+02  0.1928E+03
      5.377  0.8652E+01  0.1937E+03
      5.479  0.1297E+02  0.1952E+03
      5.582  0.2521E+01  0.1955E+03
      5.685  0.8901E-01  0.1957E+03
      5.788  0.5316E+01  0.1964E+03
      5.891  0.6484E+01  0.1972E+03
      5.993  0.1749E+02  0.1990E+03
      6.096  0.1396E+02  0.2005E+03
      6.199  0.1546E+02  0.2024E+03
      6.302  0.1467E+02  0.2045E+03
      6.405  0.1199E+02  0.2068E+03
      6.507  0.1934E+02  0.2091E+03
      6.610  0.5722E+01  0.2097E+03
      6.713  0.1939E+02  0.2137E+03
      6.816  0.2374E+02  0.2179E+03
      6.919  0.1742E+02  0.2205E+03
      7.022  0.1731E+02  0.2229E+03
      7.124  0.6136E+01  0.2237E+03
      7.227  0.2161E+01  0.2240E+03
      7.330  0.0000E+00  0.2240E+03
      7.433  0.0000E+00  0.2240E+03
      7.536  0.0000E+00  0.2240E+03
      7.638  0.0000E+00  0.2240E+03
      7.741  0.0000E+00  0.2240E+03
      7.844  0.0000E+00  0.2240E+03
      7.947  0.0000E+00  0.2240E+03
      8.050  0.0000E+00  0.2240E+03
      8.152  0.0000E+00  0.2240E+03
      8.255  0.0000E+00  0.2240E+03
      8.358  0.0000E+00  0.2240E+03
      8.461  0.0000E+00  0.2240E+03
      8.564  0.0000E+00  0.2240E+03
      8.56368692    -22.27926516  301      0.67303168      1.00000000
    -22.279  0.0000E+00  0.0000E+00  0.0000E+00
    -22.176  0.0000E+00  0.0000E+00  0.0000E+00
    -22.074  0.0000E+00  0.0000E+00  0.0000E+00
    -21.971  0.0000E+00  0.0000E+00  0.0000E+00
    -21.868  0.0000E+00  0.0000E+00  0.0000E+00
    -21.765  0.0000E+00  0.0000E+00  0.0000E+00
    -21.662  0.0000E+00  0.0000E+00  0.0000E+00
    -21.560  0.0000E+00  0.0000E+00  0.0000E+00
    -21.457  0.0000E+00  0.0000E+00  0.0000E+00
    -21.354  0.0000E+00  0.0000E+00  0.0000E+00
    -21.251  0.0000E+00  0.0000E+00  0.0000E+00
    -21.148  0.0000E+00  0.0000E+00  0.0000E+00
    -21.046  0.0000E+00  0.0000E+00  0.0000E+00
    -20.943  0.0000E+00  0.0000E+00  0.0000E+00
    -20.840  0.1657E+02  0.2565E-05  0.1394E-04
    -20.737  0.0000E+00  0.0000E+00  0.0000E+00
    -20.634  0.0000E+00  0.0000E+00  0.0000E+00
    -20.531  0.0000E+00  0.0000E+00  0.0000E+00
    -20.429  0.0000E+00  0.0000E+00  0.0000E+00
    -20.326  0.0000E+00  0.0000E+00  0.0000E+00
    -20.223  0.0000E+00  0.0000E+00  0.0000E+00
    -20.120  0.0000E+00  0.0000E+00  0.0000E+00
    -20.017  0.0000E+00  0.0000E+00  0.0000E+00
    -19.915  0.0000E+00  0.0000E+00  0.0000E+00
    -19.812  0.0000E+00  0.0000E+00  0.0000E+00
    -19.709  0.0000E+00  0.0000E+00  0.0000E+00
    -19.606  0.0000E+00  0.0000E+00  0.0000E+00
    -19.503  0.0000E+00  0.0000E+00  0.0000E+00
    -19.401  0.0000E+00  0.0000E+00  0.0000E+00
    -19.298  0.0000E+00  0.0000E+00  0.0000E+00
    -19.195  0.0000E+00  0.0000E+00  0.0000E+00
    -19.092  0.0000E+00  0.0000E+00  0.0000E+00
    -18.989  0.0000E+00  0.0000E+00  0.0000E+00
    -18.887  0.0000E+00  0.0000E+00  0.0000E+00
    -18.784  0.0000E+00  0.0000E+00  0.0000E+00
    -18.681  0.0000E+00  0.0000E+00  0.0000E+00
    -18.578  0.0000E+00  0.0000E+00  0.0000E+00
    -18.475  0.0000E+00  0.0000E+00  0.0000E+00
    -18.372  0.0000E+00  0.0000E+00  0.0000E+00
    -18.270  0.0000E+00  0.0000E+00  0.0000E+00
    -18.167  0.0000E+00  0.0000E+00  0.0000E+00
    -18.064  0.0000E+00  0.0000E+00  0.0000E+00
    -17.961  0.0000E+00  0.0000E+00  0.0000E+00
    -17.858  0.0000E+00  0.0000E+00  0.0000E+00
    -17.756  0.0000E+00  0.0000E+00  0.0000E+00
    -17.653  0.0000E+00  0.0000E+00  0.0000E+00
    -17.550  0.0000E+00  0.0000E+00  0.0000E+00
    -17.447  0.0000E+00  0.0000E+00  0.0000E+00
    -17.344  0.0000E+00  0.0000E+00  0.0000E+00
    -17.242  0.0000E+00  0.0000E+00  0.0000E+00
    -17.139  0.0000E+00  0.0000E+00  0.0000E+00
    -17.036  0.0000E+00  0.0000E+00  0.0000E+00
    -16.933  0.0000E+00  0.0000E+00  0.0000E+00
    -16.830  0.0000E+00  0.0000E+00  0.0000E+00
    -16.728  0.0000E+00  0.0000E+00  0.0000E+00
    -16.625  0.0000E+00  0.0000E+00  0.0000E+00
    -16.522  0.0000E+00  0.0000E+00  0.0000E+00
    -16.419  0.2822E-05  0.1290E-05  0.1711E-06
    -16.316  0.1236E-03  0.1184E-03  0.1856E-04
    -16.213  0.3467E-04  0.2214E-04  0.2649E-05
    -16.111  0.0000E+00  0.0000E+00  0.0000E+00
    -16.008  0.0000E+00  0.0000E+00  0.0000E+00
    -15.905  0.0000E+00  0.0000E+00  0.0000E+00
    -15.802  0.0000E+00  0.0000E+00  0.0000E+00
    -15.699  0.0000E+00  0.0000E+00  0.0000E+00
    -15.597  0.0000E+00  0.0000E+00  0.0000E+00
    -15.494  0.0000E+00  0.0000E+00  0.0000E+00
    -15.391  0.0000E+00  0.0000E+00  0.0000E+00
    -15.288  0.0000E+00  0.0000E+00  0.0000E+00
    -15.185  0.0000E+00  0.0000E+00  0.0000E+00
    -15.083  0.0000E+00  0.0000E+00  0.0000E+00
    -14.980  0.0000E+00  0.0000E+00  0.0000E+00
    -14.877  0.0000E+00  0.0000E+00  0.0000E+00
    -14.774  0.0000E+00  0.0000E+00  0.0000E+00
    -14.671  0.0000E+00  0.0000E+00  0.0000E+00
    -14.569  0.0000E+00  0.0000E+00  0.0000E+00
    -14.466  0.0000E+00  0.0000E+00  0.0000E+00
    -14.363  0.3600E-06  0.6432E-09  0.2246E-08
    -14.260  0.1597E-02  0.5191E-03  0.2034E-04
    -14.157  0.2997E-02  0.3156E-02  0.1146E-03
    -14.054  0.3677E-03  0.4793E-02  0.2603E-03
    -13.952  0.2620E-02  0.5674E-02  0.4866E-03
    -13.849  0.1149E-02  0.4255E-02  0.3922E-03
    -13.746  0.1767E-02  0.2998E-02  0.3917E-03
    -13.643  0.4727E-03  0.8189E-03  0.7014E-04
    -13.540  0.0000E+00  0.0000E+00  0.0000E+00
    -13.438  0.0000E+00  0.0000E+00  0.0000E+00
    -13.335  0.0000E+00  0.0000E+00  0.0000E+00
    -13.232  0.0000E+00  0.0000E+00  0.0000E+00
    -13.129  0.0000E+00  0.0000E+00  0.0000E+00
    -13.026  0.0000E+00  0.0000E+00  0.0000E+00
    -12.924  0.0000E+00  0.0000E+00  0.0000E+00
    -12.821  0.0000E+00  0.0000E+00  0.0000E+00
    -12.718  0.0000E+00  0.0000E+00  0.0000E+00
    -12.615  0.0000E+00  0.0000E+00  0.0000E+00
    -12.512  0.0000E+00  0.0000E+00  0.0000E+00
    -12.410  0.0000E+00  0.0000E+00  0.0000E+00
    -12.307  0.0000E+00  0.0000E+00  0.0000E+00
    -12.204  0.0000E+00  0.0000E+00  0.0000E+00
    -12.101  0.0000E+00  0.0000E+00  0.0000E+00
    -11.998  0.0000E+00  0.0000E+00  0.0000E+00
    -11.895  0.0000E+00  0.0000E+00  0.0000E+00
    -11.793  0.0000E+00  0.0000E+00  0.0000E+00
    -11.690  0.0000E+00  0.0000E+00  0.0000E+00
    -11.587  0.0000E+00  0.0000E+00  0.0000E+00
    -11.484  0.0000E+00  0.0000E+00  0.0000E+00
    -11.381  0.0000E+00  0.0000E+00  0.0000E+00
    -11.279  0.0000E+00  0.0000E+00  0.0000E+00
    -11.176  0.0000E+00  0.0000E+00  0.0000E+00
    -11.073  0.0000E+00  0.0000E+00  0.0000E+00
    -10.970  0.0000E+00  0.0000E+00  0.0000E+00
    -10.867  0.0000E+00  0.0000E+00  0.0000E+00
    -10.765  0.0000E+00  0.0000E+00  0.0000E+00
    -10.662  0.0000E+00  0.0000E+00  0.0000E+00
    -10.559  0.0000E+00  0.0000E+00  0.0000E+00
    -10.456  0.0000E+00  0.0000E+00  0.0000E+00
    -10.353  0.0000E+00  0.0000E+00  0.0000E+00
    -10.251  0.0000E+00  0.0000E+00  0.0000E+00
    -10.148  0.0000E+00  0.0000E+00  0.0000E+00
    -10.045  0.0000E+00  0.0000E+00  0.0000E+00
     -9.942  0.0000E+00  0.0000E+00  0.0000E+00
     -9.839  0.0000E+00  0.0000E+00  0.0000E+00
     -9.736  0.0000E+00  0.0000E+00  0.0000E+00
     -9.634  0.0000E+00  0.0000E+00  0.0000E+00
     -9.531  0.0000E+00  0.0000E+00  0.0000E+00
     -9.428  0.0000E+00  0.0000E+00  0.0000E+00
     -9.325  0.0000E+00  0.0000E+00  0.0000E+00
     -9.222  0.0000E+00  0.0000E+00  0.0000E+00
     -9.120  0.0000E+00  0.0000E+00  0.0000E+00
     -9.017  0.0000E+00  0.0000E+00  0.0000E+00
     -8.914  0.0000E+00  0.0000E+00  0.0000E+00
     -8.811  0.0000E+00  0.0000E+00  0.0000E+00
     -8.708  0.0000E+00  0.0000E+00  0.0000E+00
     -8.606  0.0000E+00  0.0000E+00  0.0000E+00
     -8.503  0.0000E+00  0.0000E+00  0.0000E+00
     -8.400  0.0000E+00  0.0000E+00  0.0000E+00
     -8.297  0.0000E+00  0.0000E+00  0.0000E+00
     -8.194  0.1109E-20  0.2753E-20  0.4192E-09
     -8.092  0.1841E-17  0.4572E-17  0.6961E-06
     -7.989  0.4687E-27  0.4209E-11  0.1313E-13
     -7.886  0.2807E-17  0.4211E-02  0.1122E-04
     -7.783  0.1074E-17  0.1062E-01  0.1353E-04
     -7.680  0.8508E-05  0.2207E-01  0.1928E-04
     -7.577  0.1583E-05  0.4099E-01  0.2555E-05
     -7.475  0.4810E-15  0.2886E-03  0.2156E-04
     -7.372  0.7138E-05  0.1207E+00  0.4297E-04
     -7.269  0.3745E-04  0.7413E+01  0.4707E-04
     -7.166  0.1958E-04  0.2643E+02  0.5391E-04
     -7.063  0.4343E-04  0.5413E+00  0.6320E-04
     -6.961  0.6403E-06  0.7732E-03  0.6447E-06
     -6.858  0.7387E-09  0.2338E-06  0.2924E-09
     -6.755  0.6810E-04  0.1786E-01  0.4085E-04
     -6.652  0.0000E+00  0.0000E+00  0.0000E+00
     -6.549  0.0000E+00  0.0000E+00  0.0000E+00
     -6.447  0.1222E-04  0.3491E-03  0.4169E-05
     -6.344  0.0000E+00  0.0000E+00  0.0000E+00
     -6.241  0.0000E+00  0.0000E+00  0.0000E+00
     -6.138  0.0000E+00  0.0000E+00  0.0000E+00
     -6.035  0.0000E+00  0.0000E+00  0.0000E+00
     -5.933  0.0000E+00  0.0000E+00  0.0000E+00
     -5.830  0.0000E+00  0.0000E+00  0.0000E+00
     -5.727  0.0000E+00  0.0000E+00  0.0000E+00
     -5.624  0.0000E+00  0.0000E+00  0.0000E+00
     -5.521  0.0000E+00  0.0000E+00  0.0000E+00
     -5.418  0.0000E+00  0.0000E+00  0.0000E+00
     -5.316  0.0000E+00  0.0000E+00  0.0000E+00
     -5.213  0.0000E+00  0.0000E+00  0.0000E+00
     -5.110  0.0000E+00  0.0000E+00  0.0000E+00
     -5.007  0.0000E+00  0.0000E+00  0.0000E+00
     -4.904  0.0000E+00  0.0000E+00  0.0000E+00
     -4.802  0.0000E+00  0.0000E+00  0.0000E+00
     -4.699  0.0000E+00  0.0000E+00  0.0000E+00
     -4.596  0.0000E+00  0.0000E+00  0.0000E+00
     -4.493  0.0000E+00  0.0000E+00  0.0000E+00
     -4.390  0.0000E+00  0.0000E+00  0.0000E+00
     -4.288  0.0000E+00  0.0000E+00  0.0000E+00
     -4.185  0.0000E+00  0.0000E+00  0.0000E+00
     -4.082  0.0000E+00  0.0000E+00  0.0000E+00
     -3.979  0.0000E+00  0.0000E+00  0.0000E+00
     -3.876  0.0000E+00  0.0000E+00  0.0000E+00
     -3.773  0.0000E+00  0.0000E+00  0.0000E+00
     -3.671  0.0000E+00  0.0000E+00  0.0000E+00
     -3.568  0.0000E+00  0.0000E+00  0.0000E+00
     -3.465  0.0000E+00  0.0000E+00  0.0000E+00
     -3.362  0.5202E-19  0.2796E-04  0.4596E-07
     -3.259  0.1062E-05  0.1162E-01  0.3559E-03
     -3.157  0.2048E-06  0.1035E-01  0.1993E-02
     -3.054  0.8949E-17  0.1086E-03  0.2406E-03
     -2.951  0.1096E-03  0.9263E-02  0.6743E-04
     -2.848  0.1259E-03  0.1287E-01  0.9177E-03
     -2.745  0.3366E-03  0.1640E-01  0.1604E-02
     -2.643  0.3499E-16  0.2429E-02  0.5406E-03
     -2.540  0.3401E-09  0.2308E-07  0.2656E-08
     -2.437  0.4569E-03  0.1887E-01  0.1510E-02
     -2.334  0.1274E-02  0.7310E-02  0.2581E-02
     -2.231  0.9196E-03  0.6104E-02  0.6054E-03
     -2.129  0.3317E-02  0.2327E-01  0.1153E-02
     -2.026  0.1651E-01  0.3346E-01  0.6885E-02
     -1.923  0.1641E-01  0.3294E-01  0.3493E-02
     -1.820  0.1111E-04  0.4731E-01  0.1061E-02
     -1.717  0.3190E-02  0.7182E-01  0.5491E-02
     -1.614  0.3408E-02  0.8272E-01  0.9239E-02
     -1.512  0.4278E-03  0.2918E-01  0.7275E-02
     -1.409  0.3753E-02  0.5489E-01  0.1244E-01
     -1.306  0.5373E-02  0.6666E-01  0.1862E-01
     -1.203  0.4626E-02  0.7072E-01  0.1388E-01
     -1.100  0.3033E-02  0.5447E-01  0.1003E-01
     -0.998  0.1069E-02  0.5513E-01  0.1181E-01
     -0.895  0.5842E-03  0.1232E-01  0.3306E-02
     -0.792  0.1355E-02  0.2871E-01  0.9622E-02
     -0.689  0.3493E-03  0.1294E-01  0.1913E-02
     -0.586  0.5535E-03  0.5715E-02  0.4590E-03
     -0.484  0.4508E-03  0.7531E-02  0.1851E-02
     -0.381  0.3444E-05  0.1210E-02  0.1283E-03
     -0.278  0.7194E-16  0.1846E-02  0.6082E-03
     -0.175  0.0000E+00  0.0000E+00  0.0000E+00
     -0.072  0.6298E-20  0.1928E-08  0.4097E-08
      0.030  0.4452E-14  0.1190E-02  0.1008E-02
      0.133  0.1984E-13  0.7419E-04  0.1109E-03
      0.236  0.0000E+00  0.0000E+00  0.0000E+00
      0.339  0.0000E+00  0.0000E+00  0.0000E+00
      0.442  0.0000E+00  0.0000E+00  0.0000E+00
      0.545  0.1502E-23  0.6655E-22  0.6790E-12
      0.647  0.3149E-17  0.1395E-15  0.1423E-05
      0.750  0.0000E+00  0.0000E+00  0.0000E+00
      0.853  0.0000E+00  0.0000E+00  0.0000E+00
      0.956  0.0000E+00  0.0000E+00  0.0000E+00
      1.059  0.0000E+00  0.0000E+00  0.0000E+00
      1.161  0.0000E+00  0.0000E+00  0.0000E+00
      1.264  0.0000E+00  0.0000E+00  0.0000E+00
      1.367  0.0000E+00  0.0000E+00  0.0000E+00
      1.470  0.0000E+00  0.0000E+00  0.0000E+00
      1.573  0.0000E+00  0.0000E+00  0.0000E+00
      1.675  0.0000E+00  0.0000E+00  0.0000E+00
      1.778  0.0000E+00  0.0000E+00  0.0000E+00
      1.881  0.0000E+00  0.0000E+00  0.0000E+00
      1.984  0.0000E+00  0.0000E+00  0.0000E+00
      2.087  0.0000E+00  0.0000E+00  0.0000E+00
      2.189  0.0000E+00  0.0000E+00  0.0000E+00
      2.292  0.0000E+00  0.0000E+00  0.0000E+00
      2.395  0.0000E+00  0.0000E+00  0.0000E+00
      2.498  0.0000E+00  0.0000E+00  0.0000E+00
      2.601  0.0000E+00  0.0000E+00  0.0000E+00
      2.704  0.2385E-30  0.4917E-30  0.4779E-17
      2.806  0.4707E-16  0.1563E-05  0.7760E-03
      2.909  0.2988E-16  0.5562E-07  0.1129E-02
      3.012  0.1391E-03  0.3051E-03  0.1609E-02
      3.115  0.9835E-03  0.3142E-03  0.3339E-02
      3.218  0.9065E-16  0.1332E-02  0.5001E-03
      3.320  0.1010E-02  0.1591E-02  0.2538E-02
      3.423  0.6107E-03  0.4495E-02  0.1680E-02
      3.526  0.3299E-03  0.1765E-03  0.2510E-03
      3.629  0.4190E-03  0.1239E-02  0.7950E-03
      3.732  0.1294E-15  0.4169E-03  0.3333E-02
      3.834  0.3111E-03  0.1618E-02  0.9191E-02
      3.937  0.8387E-04  0.1868E-03  0.5809E-03
      4.040  0.7391E-03  0.2236E-02  0.2599E-02
      4.143  0.3890E-04  0.1449E-03  0.3327E-03
      4.246  0.5454E-03  0.1178E-02  0.1742E-02
      4.348  0.1098E-03  0.1742E-03  0.4725E-03
      4.451  0.4800E-12  0.4368E-04  0.3383E-02
      4.554  0.1190E-02  0.2438E-02  0.1051E-01
      4.657  0.1519E-02  0.2287E-02  0.4045E-02
      4.760  0.8303E-02  0.3329E-02  0.3078E-02
      4.863  0.5678E-02  0.3535E-02  0.5509E-02
      4.965  0.1947E-02  0.4874E-03  0.2662E-02
      5.068  0.0000E+00  0.0000E+00  0.0000E+00
      5.171  0.5557E-03  0.1580E-03  0.1799E-03
      5.274  0.3319E-13  0.6475E-02  0.1701E-01
      5.377  0.1537E-01  0.9468E-02  0.1267E-01
      5.479  0.1910E-01  0.9279E-02  0.2761E-01
      5.582  0.8689E-03  0.2569E-03  0.3215E-02
      5.685  0.7735E-03  0.1324E-03  0.7013E-03
      5.788  0.4227E-03  0.4891E-04  0.4064E-01
      5.891  0.2428E-01  0.1161E-01  0.1855E-01
      5.993  0.6654E-01  0.4838E-02  0.9809E-01
      6.096  0.2134E-01  0.6447E-02  0.1182E+00
      6.199  0.8137E-01  0.3012E-01  0.1752E+00
      6.302  0.2922E-01  0.7648E-02  0.2010E+00
      6.405  0.1297E-01  0.1252E-01  0.3346E+00
      6.507  0.5622E-01  0.2843E-01  0.3964E+00
      6.610  0.8777E-02  0.5514E-02  0.2219E+00
      6.713  0.3889E-01  0.5128E-01  0.5822E+00
      6.816  0.9932E-02  0.6379E-01  0.6343E+00
      6.919  0.1017E-01  0.3218E-01  0.6031E+00
      7.022  0.2192E-01  0.3111E-01  0.6915E+00
      7.124  0.3912E-02  0.2414E-01  0.8620E-01
      7.227  0.2123E-02  0.1634E-02  0.6639E-01
      7.330  0.0000E+00  0.0000E+00  0.0000E+00
      7.433  0.0000E+00  0.0000E+00  0.0000E+00
      7.536  0.0000E+00  0.0000E+00  0.0000E+00
      7.638  0.0000E+00  0.0000E+00  0.0000E+00
      7.741  0.0000E+00  0.0000E+00  0.0000E+00
      7.844  0.0000E+00  0.0000E+00  0.0000E+00
      7.947  0.0000E+00  0.0000E+00  0.0000E+00
      8.050  0.0000E+00  0.0000E+00  0.0000E+00
      8.152  0.0000E+00  0.0000E+00  0.0000E+00
      8.255  0.0000E+00  0.0000E+00  0.0000E+00
      8.358  0.0000E+00  0.0000E+00  0.0000E+00
      8.461  0.0000E+00  0.0000E+00  0.0000E+00
      8.564  0.0000E+00  0.0000E+00  0.0000E+00
      8.56368692    -22.27926516  301      0.67303168      1.00000000
    -22.279  0.0000E+00  0.0000E+00  0.0000E+00
    -22.176  0.0000E+00  0.0000E+00  0.0000E+00
    -22.074  0.0000E+00  0.0000E+00  0.0000E+00
    -21.971  0.0000E+00  0.0000E+00  0.0000E+00
    -21.868  0.0000E+00  0.0000E+00  0.0000E+00
    -21.765  0.0000E+00  0.0000E+00  0.0000E+00
    -21.662  0.0000E+00  0.0000E+00  0.0000E+00
    -21.560  0.0000E+00  0.0000E+00  0.0000E+00
    -21.457  0.0000E+00  0.0000E+00  0.0000E+00
    -21.354  0.0000E+00  0.0000E+00  0.0000E+00
    -21.251  0.0000E+00  0.0000E+00  0.0000E+00
    -21.148  0.0000E+00  0.0000E+00  0.0000E+00
    -21.046  0.0000E+00  0.0000E+00  0.0000E+00
    -20.943  0.0000E+00  0.0000E+00  0.0000E+00
    -20.840  0.1657E+02  0.2565E-05  0.1394E-04
    -20.737  0.0000E+00  0.0000E+00  0.0000E+00
    -20.634  0.0000E+00  0.0000E+00  0.0000E+00
    -20.531  0.0000E+00  0.0000E+00  0.0000E+00
    -20.429  0.0000E+00  0.0000E+00  0.0000E+00
    -20.326  0.0000E+00  0.0000E+00  0.0000E+00
    -20.223  0.0000E+00  0.0000E+00  0.0000E+00
    -20.120  0.0000E+00  0.0000E+00  0.0000E+00
    -20.017  0.0000E+00  0.0000E+00  0.0000E+00
    -19.915  0.0000E+00  0.0000E+00  0.0000E+00
    -19.812  0.0000E+00  0.0000E+00  0.0000E+00
    -19.709  0.0000E+00  0.0000E+00  0.0000E+00
    -19.606  0.0000E+00  0.0000E+00  0.0000E+00
    -19.503  0.0000E+00  0.0000E+00  0.0000E+00
    -19.401  0.0000E+00  0.0000E+00  0.0000E+00
    -19.298  0.0000E+00  0.0000E+00  0.0000E+00
    -19.195  0.0000E+00  0.0000E+00  0.0000E+00
    -19.092  0.0000E+00  0.0000E+00  0.0000E+00
    -18.989  0.0000E+00  0.0000E+00  0.0000E+00
    -18.887  0.0000E+00  0.0000E+00  0.0000E+00
    -18.784  0.0000E+00  0.0000E+00  0.0000E+00
    -18.681  0.0000E+00  0.0000E+00  0.0000E+00
    -18.578  0.0000E+00  0.0000E+00  0.0000E+00
    -18.475  0.0000E+00  0.0000E+00  0.0000E+00
    -18.372  0.0000E+00  0.0000E+00  0.0000E+00
    -18.270  0.0000E+00  0.0000E+00  0.0000E+00
    -18.167  0.0000E+00  0.0000E+00  0.0000E+00
    -18.064  0.0000E+00  0.0000E+00  0.0000E+00
    -17.961  0.0000E+00  0.0000E+00  0.0000E+00
    -17.858  0.0000E+00  0.0000E+00  0.0000E+00
    -17.756  0.0000E+00  0.0000E+00  0.0000E+00
    -17.653  0.0000E+00  0.0000E+00  0.0000E+00
    -17.550  0.0000E+00  0.0000E+00  0.0000E+00
    -17.447  0.0000E+00  0.0000E+00  0.0000E+00
    -17.344  0.0000E+00  0.0000E+00  0.0000E+00
    -17.242  0.0000E+00  0.0000E+00  0.0000E+00
    -17.139  0.0000E+00  0.0000E+00  0.0000E+00
    -17.036  0.0000E+00  0.0000E+00  0.0000E+00
    -16.933  0.0000E+00  0.0000E+00  0.0000E+00
    -16.830  0.0000E+00  0.0000E+00  0.0000E+00
    -16.728  0.0000E+00  0.0000E+00  0.0000E+00
    -16.625  0.0000E+00  0.0000E+00  0.0000E+00
    -16.522  0.0000E+00  0.0000E+00  0.0000E+00
    -16.419  0.2822E-05  0.1290E-05  0.1711E-06
    -16.316  0.1236E-03  0.1184E-03  0.1856E-04
    -16.213  0.3467E-04  0.2214E-04  0.2649E-05
    -16.111  0.0000E+00  0.0000E+00  0.0000E+00
    -16.008  0.0000E+00  0.0000E+00  0.0000E+00
    -15.905  0.0000E+00  0.0000E+00  0.0000E+00
    -15.802  0.0000E+00  0.0000E+00  0.0000E+00
    -15.699  0.0000E+00  0.0000E+00  0.0000E+00
    -15.597  0.0000E+00  0.0000E+00  0.0000E+00
    -15.494  0.0000E+00  0.0000E+00  0.0000E+00
    -15.391  0.0000E+00  0.0000E+00  0.0000E+00
    -15.288  0.0000E+00  0.0000E+00  0.0000E+00
    -15.185  0.0000E+00  0.0000E+00  0.0000E+00
    -15.083  0.0000E+00  0.0000E+00  0.0000E+00
    -14.980  0.0000E+00  0.0000E+00  0.0000E+00
    -14.877  0.0000E+00  0.0000E+00  0.0000E+00
    -14.774  0.0000E+00  0.0000E+00  0.0000E+00
    -14.671  0.0000E+00  0.0000E+00  0.0000E+00
    -14.569  0.0000E+00  0.0000E+00  0.0000E+00
    -14.466  0.0000E+00  0.0000E+00  0.0000E+00
    -14.363  0.3600E-06  0.6432E-09  0.2246E-08
    -14.260  0.1597E-02  0.5191E-03  0.2034E-04
    -14.157  0.2997E-02  0.3156E-02  0.1146E-03
    -14.054  0.3677E-03  0.4793E-02  0.2603E-03
    -13.952  0.2620E-02  0.5674E-02  0.4866E-03
    -13.849  0.1149E-02  0.4255E-02  0.3922E-03
    -13.746  0.1767E-02  0.2998E-02  0.3917E-03
    -13.643  0.4727E-03  0.8189E-03  0.7014E-04
    -13.540  0.0000E+00  0.0000E+00  0.0000E+00
    -13.438  0.0000E+00  0.0000E+00  0.0000E+00
    -13.335  0.0000E+00  0.0000E+00  0.0000E+00
    -13.232  0.0000E+00  0.0000E+00  0.0000E+00
    -13.129  0.0000E+00  0.0000E+00  0.0000E+00