       N       E                     dE             d eps       ncg     rms          rms(c)
DAV:   1     0.666496257840E+03    0.66650E+03   -0.56138E+04  1816   0.924E+02
DAV:   2    -0.571106778071E+03   -0.12376E+04   -0.11781E+04  2168   0.286E+02
DAV:   3    -0.748518716354E+03   -0.17741E+03   -0.17621E+03  2424   0.130E+02
DAV:   4    -0.754271698568E+03   -0.57530E+01   -0.57333E+01  2168   0.303E+01
DAV:   5    -0.754551575732E+03   -0.27988E+00   -0.27970E+00  2448   0.536E+00    0.715E+00
DAV:   6    -0.714936364805E+03    0.39615E+02   -0.11640E+01  2384   0.281E+01    0.509E+00
DAV:   7    -0.714703159348E+03    0.23321E+00   -0.37771E+00  2264   0.479E+00    0.257E+00
DAV:   8    -0.714796034138E+03   -0.92875E-01   -0.18155E-01  2168   0.170E+00    0.148E+00
DAV:   9    -0.714836537027E+03   -0.40503E-01   -0.78877E-02  2016   0.117E+00    0.326E-01
DAV:  10    -0.714837224981E+03   -0.68795E-03   -0.44499E-03  2584   0.325E-01    0.185E-01
DAV:  11    -0.714838666873E+03   -0.14419E-02   -0.14880E-03  2040   0.161E-01    0.683E-02
DAV:  12    -0.714838815439E+03   -0.14857E-03   -0.44535E-04  2064   0.950E-02    0.251E-02
DAV:  13    -0.714838838227E+03   -0.22788E-04   -0.36912E-05  2272   0.228E-02    0.726E-03
DAV:  14    -0.714838840592E+03   -0.23647E-05   -0.33372E-06  1800   0.505E-03    0.213E-03
DAV:  15    -0.714838842112E+03   -0.15198E-05   -0.35120E-07  1272   0.260E-03    0.917E-04
DAV:  16    -0.714838840529E+03    0.15828E-05   -0.12862E-07  1248   0.164E-03    0.263E-04
DAV:  17    -0.714838840941E+03   -0.41161E-06   -0.29778E-08  1176   0.962E-04
   1 F= -.71483884E+03 E0= -.71483884E+03  d E =-.172882E-41
