<?xml version="1.0" encoding="ISO-8859-1"?>
<modeling>
 <generator>
  <i name="program" type="string">vasp </i>
  <i name="version" type="string">5.4.4.18Apr17-6-g9f103f2a35  </i>
  <i name="subversion" type="string">(build Jun 22 2020 09:27:21) complex            parallel </i>
  <i name="platform" type="string">tx2_gcc-7.3_libsci-18.07_cray-fftw-3.3.8 </i>
  <i name="date" type="string">2021 09 20 </i>
  <i name="time" type="string">15:14:53 </i>
 </generator>
 <incar>
  <i type="string" name="SYSTEM"> CsPbBr3 cubic bulk</i>
  <i type="string" name="PREC">accurate</i>
  <i type="string" name="ALGO"> NORMAL   ! Electronic minimisation algo</i>
  <i type="logical" name="ADDGRID"> T  </i>
  <i type="int" name="NELM">   200</i>
  <i type="int" name="IBRION">     2</i>
  <i name="EDIFF">      0.00000100</i>
  <i name="EDIFFG">     -0.01000000</i>
  <i type="int" name="NSW">     0</i>
  <i type="int" name="ISIF">     3</i>
  <i type="int" name="ISYM">     2</i>
  <i name="ENCUT">    300.00000000</i>
  <i name="POTIM">      0.50000000</i>
  <i type="string" name="LREAL"> AUTO</i>
  <i type="int" name="ISMEAR">     0</i>
  <i name="SIGMA">      0.01000000</i>
  <i type="logical" name="LWAVE"> F  </i>
  <i type="logical" name="LCHARG"> F  </i>
  <i type="logical" name="LVHAR"> T  </i>
  <i type="int" name="LORBIT">    10</i>
  <i type="logical" name="LASPH"> T  </i>
  <v type="int" name="KPOINT_BSE">    -1     0     0     0</v>
  <i type="int" name="NELM">   200</i>
  <i type="string" name="METAGGA"> SCAN       ! PBE exchange-correlation</i>
  <i type="logical" name="LASPH"> T  </i>
 </incar>
 <structure name="primitive_cell" >
  <crystal>
   <varray name="basis" >
    <v>      -5.80481256      -5.90053272       0.00000000 </v>
    <v>      -5.80481256       5.90053272       0.00000000 </v>
    <v>       0.00000000       0.00000000     -11.75770536 </v>
   </varray>
   <i name="volume">    805.43777125 </i>
   <varray name="rec_basis" >
    <v>      -0.08613543      -0.08473811      -0.00000000 </v>
    <v>      -0.08613543       0.08473811       0.00000000 </v>
    <v>      -0.00000000       0.00000000      -0.08505061 </v>
   </varray>
  </crystal>
  <varray name="positions" >
   <v>      -0.48067380      -0.01932620      -0.25000000 </v>
   <v>       0.29036879       0.20963121      -0.04342614 </v>
   <v>       0.29036879       0.20963121      -0.45657386 </v>
   <v>      -0.04008231      -0.04787977      -0.25000000 </v>
   <v>      -0.45212023      -0.45991769      -0.25000000 </v>
   <v>      -0.29036879      -0.20963121       0.04342614 </v>
   <v>      -0.29036879      -0.20963121       0.45657386 </v>
   <v>      -0.20868562       0.29131438       0.00000000 </v>
   <v>      -0.20868562       0.29131438      -0.50000000 </v>
   <v>       0.20868562      -0.29131438       0.00000000 </v>
   <v>       0.20868562      -0.29131438      -0.50000000 </v>
   <v>       0.00000000       0.00000000       0.00000000 </v>
   <v>       0.00000000       0.00000000      -0.50000000 </v>
   <v>      -0.50000000      -0.50000000       0.00000000 </v>
   <v>      -0.50000000      -0.50000000      -0.50000000 </v>
   <v>       0.02135069       0.47864931      -0.25000000 </v>
   <v>       0.48067380       0.01932620       0.25000000 </v>
   <v>       0.04008231       0.04787977       0.25000000 </v>
   <v>       0.45212023       0.45991769       0.25000000 </v>
   <v>      -0.02135069      -0.47864931       0.25000000 </v>
  </varray>
 </structure>
 <varray name="primitive_index" >
  <v type="int" >        1 </v>
  <v type="int" >       19 </v>
  <v type="int" >       20 </v>
  <v type="int" >       13 </v>
  <v type="int" >       15 </v>
  <v type="int" >       17 </v>
  <v type="int" >       18 </v>
  <v type="int" >        9 </v>
  <v type="int" >       10 </v>
  <v type="int" >       11 </v>
  <v type="int" >       12 </v>
  <v type="int" >        5 </v>
  <v type="int" >        6 </v>
  <v type="int" >        7 </v>
  <v type="int" >        8 </v>
  <v type="int" >        3 </v>
  <v type="int" >        2 </v>
  <v type="int" >       14 </v>
  <v type="int" >       16 </v>
  <v type="int" >        4 </v>
 </varray>
 <kpoints>
  <generation param="Gamma">
   <v type="int" name="divisions">       3        3        2 </v>
   <v name="usershift">      0.00000000       0.00000000       0.00000000 </v>
   <v name="genvec1">      0.33333333      -0.00000000       0.00000000 </v>
   <v name="genvec2">     -0.00000000       0.33333333       0.00000000 </v>
   <v name="genvec3">      0.00000000       0.00000000       0.50000000 </v>
   <v name="shift">      0.00000000       0.00000000       0.00000000 </v>
  </generation>
  <varray name="kpointlist" >
   <v>       0.00000000       0.00000000       0.00000000 </v>
   <v>       0.33333333       0.00000000       0.00000000 </v>
   <v>       0.33333333       0.33333333       0.00000000 </v>
   <v>      -0.33333333       0.33333333       0.00000000 </v>
   <v>       0.00000000       0.00000000       0.50000000 </v>
   <v>       0.33333333       0.00000000       0.50000000 </v>
   <v>       0.33333333       0.33333333       0.50000000 </v>
   <v>      -0.33333333       0.33333333       0.50000000 </v>
  </varray>
  <varray name="weights" >
   <v>       0.05555556 </v>
   <v>       0.22222222 </v>
   <v>       0.11111111 </v>
   <v>       0.11111111 </v>
   <v>       0.05555556 </v>
   <v>       0.22222222 </v>
   <v>       0.11111111 </v>
   <v>       0.11111111 </v>
  </varray>
 </kpoints>
 <parameters>
  <separator name="general" >
   <i type="string" name="SYSTEM">CsPbBr3 cubic bulk</i>
   <i type="logical" name="LCOMPAT"> F  </i>
  </separator>
  <separator name="electronic" >
   <i type="string" name="PREC">accura</i>
   <i name="ENMAX">    300.00000000</i>
   <i name="ENAUG">    503.85200000</i>
   <i name="EDIFF">      0.00000100</i>
   <i type="int" name="IALGO">    38</i>
   <i type="int" name="IWAVPR">    10</i>
   <i type="int" name="NBANDS">   112</i>
   <i name="NELECT">    176.00000000</i>
   <i type="int" name="TURBO">     0</i>
   <i type="int" name="IRESTART">     0</i>
   <i type="int" name="NREBOOT">     0</i>
   <i type="int" name="NMIN">     0</i>
   <i name="EREF">      0.00000000</i>
   <separator name="electronic smearing" >
    <i type="int" name="ISMEAR">     0</i>
    <i name="SIGMA">      0.01000000</i>
    <i name="KSPACING">      0.50000000</i>
    <i type="logical" name="KGAMMA"> T  </i>
   </separator>
   <separator name="electronic projectors" >
    <i type="logical" name="LREAL"> T  </i>
    <v name="ROPT">     -0.00025000     -0.00025000     -0.00025000</v>
    <i type="int" name="LMAXPAW">  -100</i>
    <i type="int" name="LMAXMIX">     2</i>
    <i type="logical" name="NLSPLINE"> F  </i>
   </separator>
   <separator name="electronic startup" >
    <i type="int" name="ISTART">     0</i>
    <i type="int" name="ICHARG">     2</i>
    <i type="int" name="INIWAV">     1</i>
   </separator>
   <separator name="electronic spin" >
    <i type="int" name="ISPIN">     1</i>
    <i type="logical" name="LNONCOLLINEAR"> F  </i>
    <v name="MAGMOM">      1.00000000      1.00000000      1.00000000      1.00000000      1.00000000      1.00000000      1.00000000      1.00000000      1.00000000      1.00000000      1.00000000      1.00000000      1.00000000      1.00000000      1.00000000      1.00000000      1.00000000      1.00000000      1.00000000      1.00000000
</v>
    <i name="NUPDOWN">     -1.00000000</i>
    <i type="logical" name="LSORBIT"> F  </i>
    <v name="SAXIS">      0.00000000      0.00000000      1.00000000</v>
    <i type="logical" name="LSPIRAL"> F  </i>
    <v name="QSPIRAL">      0.00000000      0.00000000      0.00000000</v>
    <i type="logical" name="LZEROZ"> F  </i>
   </separator>
   <separator name="electronic exchange-correlation" >
    <i type="logical" name="LASPH"> T  </i>
    <i type="logical" name="LMETAGGA"> F  </i>
   </separator>
   <separator name="electronic convergence" >
    <i type="int" name="NELM">   200</i>
    <i type="int" name="NELMDL">     0</i>
    <i type="int" name="NELMIN">     2</i>
    <i name="ENINI">    300.00000000</i>
    <separator name="electronic convergence detail" >
     <i type="logical" name="LDIAG"> T  </i>
     <i type="logical" name="LSUBROT"> F  </i>
     <i name="WEIMIN">      0.00000000</i>
     <i name="EBREAK">      0.00000000</i>
     <i name="DEPER">      0.30000000</i>
     <i type="int" name="NRMM">     4</i>
     <i name="TIME">      0.40000000</i>
    </separator>
   </separator>
   <separator name="electronic mixer" >
    <i name="AMIX">      0.40000000</i>
    <i name="BMIX">      1.00000000</i>
    <i name="AMIN">      0.10000000</i>
    <i name="AMIX_MAG">      1.60000000</i>
    <i name="BMIX_MAG">      1.00000000</i>
    <separator name="electronic mixer details" >
     <i type="int" name="IMIX">     4</i>
     <i type="logical" name="MIXFIRST"> F  </i>
     <i type="int" name="MAXMIX">   -45</i>
     <i name="WC">    100.00000000</i>
     <i type="int" name="INIMIX">     1</i>
     <i type="int" name="MIXPRE">     1</i>
     <i type="int" name="MREMOVE">     5</i>
    </separator>
   </separator>
   <separator name="electronic dipolcorrection" >
    <i type="logical" name="LDIPOL"> F  </i>
    <i type="logical" name="LMONO"> F  </i>
    <i type="int" name="IDIPOL">     0</i>
    <i name="EPSILON">      1.00000000</i>
    <v name="DIPOL">   -100.00000000   -100.00000000   -100.00000000</v>
    <i name="EFIELD">      0.00000000</i>
   </separator>
  </separator>
  <separator name="grids" >
   <i type="int" name="NGX">    48</i>
   <i type="int" name="NGY">    48</i>
   <i type="int" name="NGZ">    70</i>
   <i type="int" name="NGXF">    96</i>
   <i type="int" name="NGYF">    96</i>
   <i type="int" name="NGZF">   140</i>
   <i type="logical" name="ADDGRID"> T  </i>
  </separator>
  <separator name="ionic" >
   <i type="int" name="NSW">     0</i>
   <i type="int" name="IBRION">    -1</i>
   <i type="int" name="MDALGO">     0</i>
   <i type="int" name="ISIF">     3</i>
   <i name="PSTRESS">      0.00000000</i>
   <i name="EDIFFG">     -0.01000000</i>
   <i type="int" name="NFREE">     1</i>
   <i name="POTIM">      0.50000000</i>
   <i name="SMASS">     -3.00000000</i>
   <i name="SCALEE">      1.00000000</i>
  </separator>
  <separator name="ionic md" >
   <i name="TEBEG">      0.00010000</i>
   <i name="TEEND">      0.00010000</i>
   <i type="int" name="NBLOCK">     1</i>
   <i type="int" name="KBLOCK">     1</i>
   <i type="int" name="NPACO">   256</i>
   <i name="APACO">     16.00000000</i>
  </separator>
  <separator name="symmetry" >
   <i type="int" name="ISYM">     2</i>
   <i name="SYMPREC">      0.00001000</i>
  </separator>
  <separator name="dos" >
   <i type="int" name="LORBIT">    10</i>
   <v name="RWIGS">     -1.00000000     -1.00000000     -1.00000000</v>
   <i type="int" name="NEDOS">   301</i>
   <i name="EMIN">     10.00000000</i>
   <i name="EMAX">    -10.00000000</i>
   <i name="EFERMI">      0.00000000</i>
  </separator>
  <separator name="writing" >
   <i type="int" name="NWRITE">     2</i>
   <i type="logical" name="LWAVE"> F  </i>
   <i type="logical" name="LDOWNSAMPLE"> F  </i>
   <i type="logical" name="LCHARG"> F  </i>
   <i type="logical" name="LPARD"> F  </i>
   <i type="logical" name="LVTOT"> F  </i>
   <i type="logical" name="LVHAR"> T  </i>
   <i type="logical" name="LELF"> F  </i>
   <i type="logical" name="LOPTICS"> F  </i>
   <v name="STM">      0.00000000      0.00000000      0.00000000      0.00000000      0.00000000      0.00000000      0.00000000</v>
  </separator>
  <separator name="performance" >
   <i type="int" name="NPAR">     8</i>
   <i type="int" name="NSIM">     4</i>
   <i type="int" name="NBLK">    -1</i>
   <i type="logical" name="LPLANE"> T  </i>
   <i type="logical" name="LSCALAPACK"> T  </i>
   <i type="logical" name="LSCAAWARE"> F  </i>
   <i type="logical" name="LSCALU"> F  </i>
   <i type="logical" name="LASYNC"> F  </i>
   <i type="logical" name="LORBITALREAL"> F  </i>
  </separator>
  <separator name="miscellaneous" >
   <i type="int" name="IDIOT">     3</i>
   <i type="int" name="ISPECIAL">     0</i>
   <i type="logical" name="LMUSIC"> F  </i>
   <v name="POMASS">    132.90000000    207.20000000     79.90400000</v>
   <v name="DARWINR">      0.00000000      0.00000000      0.00000000</v>
   <v name="DARWINV">      1.00000000      1.00000000      1.00000000</v>
   <i type="logical" name="LCORR"> T  </i>
  </separator>
  <i type="logical" name="GGA_COMPAT"> T  </i>
  <i type="logical" name="LBERRY"> F  </i>
  <i type="int" name="ICORELEVEL">     0</i>
  <i type="logical" name="LDAU"> F  </i>
  <i type="int" name="I_CONSTRAINED_M">     0</i>
  <separator name="electronic exchange-correlation" >
   <i type="string" name="GGA">--</i>
   <i type="int" name="VOSKOWN">     0</i>
   <i type="logical" name="LHFCALC"> F  </i>
   <i type="string" name="PRECFOCK"></i>
   <i type="logical" name="LSYMGRAD"> F  </i>
   <i type="logical" name="LHFONE"> F  </i>
   <i type="logical" name="LRHFCALC"> F  </i>
   <i type="logical" name="LTHOMAS"> F  </i>
   <i type="logical" name="LMODELHF"> F  </i>
   <i name="ENCUT4O">     -1.00000000</i>
   <i type="int" name="EXXOEP">     0</i>
   <i type="int" name="FOURORBIT">     0</i>
   <i name="AEXX">      0.00000000</i>
   <i name="HFALPHA">      0.00000000</i>
   <i name="MCALPHA">      0.00000000</i>
   <i name="ALDAX">      1.00000000</i>
   <i name="AGGAX">      1.00000000</i>
   <i name="ALDAC">      1.00000000</i>
   <i name="AGGAC">      1.00000000</i>
   <i type="int" name="NKREDX">     1</i>
   <i type="int" name="NKREDY">     1</i>
   <i type="int" name="NKREDZ">     1</i>
   <i type="logical" name="SHIFTRED"> F  </i>
   <i type="logical" name="ODDONLY"> F  </i>
   <i type="logical" name="EVENONLY"> F  </i>
   <i type="int" name="LMAXFOCK">     0</i>
   <i type="int" name="NMAXFOCKAE">     0</i>
   <i type="logical" name="LFOCKAEDFT"> F  </i>
   <i name="HFSCREEN">      0.00000000</i>
   <i name="HFSCREENC">      0.00000000</i>
   <i type="int" name="NBANDSGWLOW">     0</i>
  </separator>
  <separator name="vdW DFT" >
   <i type="logical" name="LUSE_VDW"> F  </i>
   <i name="Zab_VDW">     -0.84910000</i>
   <i name="PARAM1">      0.12340000</i>
   <i name="PARAM2">      1.00000000</i>
   <i name="PARAM3">      0.00000000</i>
  </separator>
  <separator name="model GW" >
   <i type="int" name="MODEL_GW">     0</i>
   <i name="MODEL_EPS0">     24.16313314</i>
   <i name="MODEL_ALPHA">      1.00000000</i>
  </separator>
  <separator name="linear response parameters" >
   <i type="logical" name="LEPSILON"> F  </i>
   <i type="logical" name="LRPA"> F  </i>
   <i type="logical" name="LNABLA"> F  </i>
   <i type="logical" name="LVEL"> F  </i>
   <i type="int" name="KINTER">     0</i>
   <i name="CSHIFT">      0.10000000</i>
   <i name="OMEGAMAX">     -1.00000000</i>
   <i name="DEG_THRESHOLD">      0.00200000</i>
   <i name="RTIME">     -0.10000000</i>
   <i name="WPLASMAI">      0.00000000</i>
   <v name="DFIELD">      0.00000000      0.00000000      0.00000000</v>
   <v name="WPLASMA">      0.00000000      0.00000000      0.00000000      0.00000000      0.00000000      0.00000000      0.00000000      0.00000000      0.00000000</v>
  </separator>
  <separator name="orbital magnetization" >
   <i type="logical" name="NUCIND"> F  </i>
   <v name="MAGPOS">      0.00000000      0.00000000      0.00000000</v>
   <i type="logical" name="LNICSALL"> T  </i>
   <i type="logical" name="ORBITALMAG"> F  </i>
   <i type="logical" name="LMAGBLOCH"> F  </i>
   <i type="logical" name="LCHIMAG"> F  </i>
   <i type="logical" name="LGAUGE"> T  </i>
   <i type="int" name="MAGATOM">     0</i>
   <v name="MAGDIPOL">      0.00000000      0.00000000      0.00000000</v>
   <v name="AVECCONST">      0.00000000      0.00000000      0.00000000</v>
  </separator>
  <separator name="response functions" >
   <i type="logical" name="LADDER"> F  </i>
   <i type="logical" name="LRPAFORCE"> F  </i>
   <i type="logical" name="LFXC"> F  </i>
   <i type="logical" name="LHARTREE"> T  </i>
   <i type="int" name="IBSE">     0</i>
   <v type="int" name="KPOINT">    -1     0     0     0</v>
   <i type="logical" name="LTCTE"> F  </i>
   <i type="logical" name="LTETE"> F  </i>
   <i type="logical" name="LTRIPLET"> F  </i>
   <i type="logical" name="LFXCEPS"> F  </i>
   <i type="logical" name="LFXHEG"> F  </i>
   <i type="int" name="NATURALO">     2</i>
   <i type="logical" name="L2ORDER"> F  </i>
   <i type="logical" name="LMP2LT"> F  </i>
   <i type="logical" name="LUSEW"> F  </i>
   <i name="ENCUTGW">     -2.00000000</i>
   <i name="ENCUTGWSOFT">     -2.00000000</i>
   <i name="ENCUTLF">     -1.00000000</i>
   <i type="int" name="LMAXMP2">    -1</i>
   <i name="SCISSOR">      0.00000000</i>
   <i type="int" name="NOMEGA">     0</i>
   <i type="int" name="NOMEGAR">     0</i>
   <i type="int" name="NBANDSGW">    -1</i>
   <i type="int" name="NBANDSO">    -1</i>
   <i type="int" name="NBANDSV">    -1</i>
   <i type="int" name="NELM">   200</i>
   <i type="int" name="NELMHF">     1</i>
   <i type="int" name="DIM">     3</i>
   <i type="int" name="ANTIRES">     0</i>
   <i name="OMEGAMAX">    -30.00000000</i>
   <i name="OMEGAMIN">    -30.00000000</i>
   <i name="OMEGATL">   -200.00000000</i>
   <i type="int" name="OMEGAGRID">   140</i>
   <i name="CSHIFT">     -0.10000000</i>
   <i type="logical" name="SELFENERGY"> F  </i>
   <i type="logical" name="LSPECTRAL"> F  </i>
   <i type="logical" name="LSPECTRALGW"> F  </i>
   <i type="logical" name="LSINGLES"> F  </i>
   <i type="logical" name="LFERMIGW"> F  </i>
   <i type="logical" name="ODDONLYGW"> F  </i>
   <i type="logical" name="EVENONLYGW"> F  </i>
   <i type="int" name="NKREDLFX">     1</i>
   <i type="int" name="NKREDLFY">     1</i>
   <i type="int" name="NKREDLFZ">     1</i>
   <i type="int" name="MAXMEM">  2800</i>
   <i type="int" name="TELESCOPE">     0</i>
   <i type="int" name="TAUPAR">     1</i>
   <i type="int" name="OMEGAPAR">    -1</i>
   <i name="LAMBDA">      1.00000000</i>
  </separator>
  <separator name="External order field" >
   <i name="OFIELD_KAPPA">      0.00000000</i>
   <v name="OFIELD_K">      0.00000000      0.00000000      0.00000000</v>
   <i name="OFIELD_Q6_NEAR">      0.00000000</i>
   <i name="OFIELD_Q6_FAR">      0.00000000</i>
   <i name="OFIELD_A">      0.00000000</i>
  </separator>
 </parameters>
 <atominfo>
  <atoms>      20 </atoms>
  <types>       3 </types>
  <array name="atoms" >
   <dimension dim="1">ion</dimension>
   <field type="string">element</field>
   <field type="int">atomtype</field>
   <set>
    <rc><c>Cs</c><c>   1</c></rc>
    <rc><c>Cs</c><c>   1</c></rc>
    <rc><c>Cs</c><c>   1</c></rc>
    <rc><c>Cs</c><c>   1</c></rc>
    <rc><c>Pb</c><c>   2</c></rc>
    <rc><c>Pb</c><c>   2</c></rc>
    <rc><c>Pb</c><c>   2</c></rc>
    <rc><c>Pb</c><c>   2</c></rc>
    <rc><c>Br</c><c>   3</c></rc>
    <rc><c>Br</c><c>   3</c></rc>
    <rc><c>Br</c><c>   3</c></rc>
    <rc><c>Br</c><c>   3</c></rc>
    <rc><c>Br</c><c>   3</c></rc>
    <rc><c>Br</c><c>   3</c></rc>
    <rc><c>Br</c><c>   3</c></rc>
    <rc><c>Br</c><c>   3</c></rc>
    <rc><c>Br</c><c>   3</c></rc>
    <rc><c>Br</c><c>   3</c></rc>
    <rc><c>Br</c><c>   3</c></rc>
    <rc><c>Br</c><c>   3</c></rc>
   </set>
  </array>
  <array name="atomtypes" >
   <dimension dim="1">type</dimension>
   <field type="int">atomspertype</field>
   <field type="string">element</field>
   <field>mass</field>
   <field>valence</field>
   <field type="string">pseudopotential</field>
   <set>
    <rc><c>   4</c><c>Cs</c><c>    132.90000000</c><c>      9.00000000</c><c>  PAW_PBE Cs_sv 08Apr2002               </c></rc>
    <rc><c>   4</c><c>Pb</c><c>    207.20000000</c><c>     14.00000000</c><c>  PAW_PBE Pb_d 06Sep2000                </c></rc>
    <rc><c>  12</c><c>Br</c><c>     79.90400000</c><c>      7.00000000</c><c>  PAW_PBE Br 06Sep2000                  </c></rc>
   </set>
  </array>
 </atominfo>
 <structure name="initialpos" >
  <crystal>
   <varray name="basis" >
    <v>      -5.80481256      -5.90053272       0.00000000 </v>
    <v>      -5.80481256       5.90053272       0.00000000 </v>
    <v>       0.00000000       0.00000000     -11.75770536 </v>
   </varray>
   <i name="volume">    805.43777125 </i>
   <varray name="rec_basis" >
    <v>      -0.08613543      -0.08473811      -0.00000000 </v>
    <v>      -0.08613543       0.08473811       0.00000000 </v>
    <v>      -0.00000000       0.00000000      -0.08505061 </v>
   </varray>
  </crystal>
  <varray name="positions" >
   <v>       0.51932620       0.98067380       0.75000000 </v>
   <v>       0.48067380       0.01932620       0.25000000 </v>
   <v>       0.02135069       0.47864931       0.75000000 </v>
   <v>       0.97864931       0.52135069       0.25000000 </v>
   <v>       0.00000000       0.00000000       0.00000000 </v>
   <v>       0.00000000       0.00000000       0.50000000 </v>
   <v>       0.50000000       0.50000000       0.00000000 </v>
   <v>       0.50000000       0.50000000       0.50000000 </v>
   <v>       0.79131438       0.29131438       0.00000000 </v>
   <v>       0.79131438       0.29131438       0.50000000 </v>
   <v>       0.20868562       0.70868562       0.00000000 </v>
   <v>       0.20868562       0.70868562       0.50000000 </v>
   <v>       0.95991769       0.95212023       0.75000000 </v>
   <v>       0.04008231       0.04787977       0.25000000 </v>
   <v>       0.54787977       0.54008231       0.75000000 </v>
   <v>       0.45212023       0.45991769       0.25000000 </v>
   <v>       0.70963121       0.79036879       0.04342614 </v>
   <v>       0.70963121       0.79036879       0.45657386 </v>
   <v>       0.29036879       0.20963121       0.95657386 </v>
   <v>       0.29036879       0.20963121       0.54342614 </v>
  </varray>
 </structure>
 <calculation>
  <scstep>
   <time name="dav">    3.83    3.83</time>
   <time name="total">    5.11    5.13</time>
   <energy>
    <i name="alphaZ">    447.96624474 </i>
    <i name="ewald">  -9207.34546477 </i>
    <i name="hartreedc">  -3672.49160420 </i>
    <i name="XCdc">    462.05767162 </i>
    <i name="pawpsdc">  10816.98087266 </i>
    <i name="pawaedc"> -11353.96092700 </i>
    <i name="eentropy">     -0.00063758 </i>
    <i name="bandstr">   -116.98999692 </i>
    <i name="atom">  13290.28009929 </i>
    <i name="e_fr_energy">    666.49625784 </i>
    <i name="e_wo_entrp">    666.49689542 </i>
    <i name="e_0_energy">    666.49657663 </i>
   </energy>
  </scstep>
  <scstep>
   <time name="dav">    4.33    4.38</time>
   <time name="total">    4.33    4.38</time>
   <energy>
    <i name="e_fr_energy">   -571.10677807 </i>
    <i name="e_wo_entrp">   -571.10677807 </i>
    <i name="e_0_energy">   -571.10677807 </i>
   </energy>
  </scstep>
  <scstep>
   <time name="dav">    4.68    4.69</time>
   <time name="total">    4.68    4.69</time>
   <energy>
    <i name="e_fr_energy">   -748.51871635 </i>
    <i name="e_wo_entrp">   -748.51871635 </i>
    <i name="e_0_energy">   -748.51871635 </i>
   </energy>
  </scstep>
  <scstep>
   <time name="dav">    4.33    4.36</time>
   <time name="total">    4.33    4.36</time>
   <energy>
    <i name="e_fr_energy">   -754.27169857 </i>
    <i name="e_wo_entrp">   -754.27169857 </i>
    <i name="e_0_energy">   -754.27169857 </i>
   </energy>
  </scstep>
  <scstep>
   <time name="dav">    4.70    4.72</time>
   <time name="total">    5.54    5.55</time>
   <energy>
    <i name="e_fr_energy">   -754.55157573 </i>
    <i name="e_wo_entrp">   -754.55157573 </i>
    <i name="e_0_energy">   -754.55157573 </i>
   </energy>
  </scstep>
  <scstep>
   <time name="dav">    4.58    4.58</time>
   <time name="total">    6.67    6.71</time>
   <energy>
    <i name="e_fr_energy">   -714.93636480 </i>
    <i name="e_wo_entrp">   -714.93636480 </i>
    <i name="e_0_energy">   -714.93636480 </i>
   </energy>
  </scstep>
  <scstep>
   <time name="dav">    4.43    4.43</time>
   <time name="total">    6.51    6.56</time>
   <energy>
    <i name="e_fr_energy">   -714.70315935 </i>
    <i name="e_wo_entrp">   -714.70315935 </i>
    <i name="e_0_energy">   -714.70315935 </i>
   </energy>
  </scstep>
  <scstep>
   <time name="dav">    4.29    4.29</time>
   <time name="total">    6.38    6.43</time>
   <energy>
    <i name="e_fr_energy">   -714.79603414 </i>
    <i name="e_wo_entrp">   -714.79603414 </i>
    <i name="e_0_energy">   -714.79603414 </i>
   </energy>
  </scstep>
  <scstep>
   <time name="dav">    4.09    4.09</time>
   <time name="total">    6.22    6.22</time>
   <energy>
    <i name="e_fr_energy">   -714.83653703 </i>
    <i name="e_wo_entrp">   -714.83653703 </i>
    <i name="e_0_energy">   -714.83653703 </i>
   </energy>
  </scstep>
  <scstep>
   <time name="dav">    4.84    4.84</time>
   <time name="total">    6.94    6.98</time>
   <energy>
    <i name="e_fr_energy">   -714.83722498 </i>
    <i name="e_wo_entrp">   -714.83722498 </i>
    <i name="e_0_energy">   -714.83722498 </i>
   </energy>
  </scstep>
  <scstep>
   <time name="dav">    4.11    4.11</time>
   <time name="total">    6.23    6.25</time>
   <energy>
    <i name="e_fr_energy">   -714.83866687 </i>
    <i name="e_wo_entrp">   -714.83866687 </i>
    <i name="e_0_energy">   -714.83866687 </i>
   </energy>
  </scstep>
  <scstep>
   <time name="dav">    4.15    4.15</time>
   <time name="total">    6.26    6.29</time>
   <energy>
    <i name="e_fr_energy">   -714.83881544 </i>
    <i name="e_wo_entrp">   -714.83881544 </i>
    <i name="e_0_energy">   -714.83881544 </i>
   </energy>
  </scstep>
  <scstep>
   <time name="dav">    4.42    4.42</time>
   <time name="total">    6.53    6.55</time>
   <energy>
    <i name="e_fr_energy">   -714.83883823 </i>
    <i name="e_wo_entrp">   -714.83883823 </i>
    <i name="e_0_energy">   -714.83883823 </i>
   </energy>
  </scstep>
  <scstep>
   <time name="dav">    3.85    3.85</time>
   <time name="total">    5.94    5.98</time>
   <energy>
    <i name="e_fr_energy">   -714.83884059 </i>
    <i name="e_wo_entrp">   -714.83884059 </i>
    <i name="e_0_energy">   -714.83884059 </i>
   </energy>
  </scstep>
  <scstep>
   <time name="dav">    3.20    3.20</time>
   <time name="total">    5.30    5.33</time>
   <energy>
    <i name="e_fr_energy">   -714.83884211 </i>
    <i name="e_wo_entrp">   -714.83884211 </i>
    <i name="e_0_energy">   -714.83884211 </i>
   </energy>
  </scstep>
  <scstep>
   <time name="dav">    3.17    3.17</time>
   <time name="total">    5.30    5.31</time>
   <energy>
    <i name="e_fr_energy">   -714.83884053 </i>
    <i name="e_wo_entrp">   -714.83884053 </i>
    <i name="e_0_energy">   -714.83884053 </i>
   </energy>
  </scstep>
  <scstep>
   <time name="dav">    3.08    3.08</time>
   <time name="total">    4.37    4.40</time>
   <energy>
    <i name="alphaZ">    447.96624474 </i>
    <i name="ewald">  -9207.34546477 </i>
    <i name="hartreedc">  -3687.63696677 </i>
    <i name="XCdc">    481.52623665 </i>
    <i name="pawpsdc">  11567.62072845 </i>
    <i name="pawaedc"> -12103.93837362 </i>
    <i name="eentropy">     -0.00000000 </i>
    <i name="bandstr">  -1503.31134492 </i>
    <i name="atom">  13290.28009929 </i>
    <i name="e_fr_energy">   -714.83884094 </i>
    <i name="e_wo_entrp">   -714.83884094 </i>
    <i name="e_0_energy">   -714.83884094 </i>
   </energy>
  </scstep>
  <structure>
   <crystal>
    <varray name="basis" >
     <v>      -5.80481256      -5.90053272       0.00000000 </v>
     <v>      -5.80481256       5.90053272       0.00000000 </v>
     <v>       0.00000000       0.00000000     -11.75770536 </v>
    </varray>
    <i name="volume">    805.43777125 </i>
    <varray name="rec_basis" >
     <v>      -0.08613543      -0.08473811      -0.00000000 </v>
     <v>      -0.08613543       0.08473811       0.00000000 </v>
     <v>      -0.00000000       0.00000000      -0.08505061 </v>
    </varray>
   </crystal>
   <varray name="positions" >
    <v>       0.51932620       0.98067380       0.75000000 </v>
    <v>       0.48067380       0.01932620       0.25000000 </v>
    <v>       0.02135069       0.47864931       0.75000000 </v>
    <v>       0.97864931       0.52135069       0.25000000 </v>
    <v>       0.00000000       0.00000000       0.00000000 </v>
    <v>       0.00000000       0.00000000       0.50000000 </v>
    <v>       0.50000000       0.50000000       0.00000000 </v>
    <v>       0.50000000       0.50000000       0.50000000 </v>
    <v>       0.79131438       0.29131438       0.00000000 </v>
    <v>       0.79131438       0.29131438       0.50000000 </v>
    <v>       0.20868562       0.70868562       0.00000000 </v>
    <v>       0.20868562       0.70868562       0.50000000 </v>
    <v>       0.95991769       0.95212023       0.75000000 </v>
    <v>       0.04008231       0.04787977       0.25000000 </v>
    <v>       0.54787977       0.54008231       0.75000000 </v>
    <v>       0.45212023       0.45991769       0.25000000 </v>
    <v>       0.70963121       0.79036879       0.04342614 </v>
    <v>       0.70963121       0.79036879       0.45657386 </v>
    <v>       0.29036879       0.20963121       0.95657386 </v>
    <v>       0.29036879       0.20963121       0.54342614 </v>
   </varray>
  </structure>
  <varray name="forces" >
   <v>      -0.00000000      -0.00509200       0.00000000 </v>
   <v>       0.00000000       0.00509200       0.00000000 </v>
   <v>       0.00000000      -0.00241917       0.00000000 </v>
   <v>      -0.00000000       0.00241917       0.00000000 </v>
   <v>       0.00000000       0.00000000       0.00000000 </v>
   <v>       0.00000000       0.00000000       0.00000000 </v>
   <v>       0.00000000       0.00000000       0.00000000 </v>
   <v>       0.00000000       0.00000000       0.00000000 </v>
   <v>      -0.01612419       0.00000000       0.00000000 </v>
   <v>      -0.01612419       0.00000000       0.00000000 </v>
   <v>       0.01612419      -0.00000000       0.00000000 </v>
   <v>       0.01612419      -0.00000000       0.00000000 </v>
   <v>       0.03027809       0.00775840       0.00000000 </v>
   <v>      -0.03027809      -0.00775840       0.00000000 </v>
   <v>      -0.03027809       0.00775840       0.00000000 </v>
   <v>       0.03027809      -0.00775840       0.00000000 </v>
   <v>      -0.00000000       0.00735642       0.00728490 </v>
   <v>      -0.00000000       0.00735642      -0.00728490 </v>
   <v>       0.00000000      -0.00735642      -0.00728490 </v>
   <v>       0.00000000      -0.00735642       0.00728490 </v>
  </varray>
  <varray name="stress" >
   <v>      -1.34672290       0.00000000       0.00000000 </v>
   <v>       0.00000000      -1.43481712       0.00000000 </v>
   <v>       0.00000000       0.00000000      -0.66915033 </v>
  </varray>
  <energy>
   <i name="e_fr_energy">   -714.83884094 </i>
   <i name="e_wo_entrp">   -714.83884094 </i>
   <i name="e_0_energy">     -0.00000000 </i>
  </energy>
  <time name="totalsc">  111.41  112.03</time>
  <eigenvalues>
   <array>
    <dimension dim="1">band</dimension>
    <dimension dim="2">kpoint</dimension>
    <dimension dim="3">spin</dimension>
    <field>eigene</field>
    <field>occ</field>
    <set>
     <set comment="spin 1">
      <set comment="kpoint 1">
       <r>  -20.8773    1.0000 </r>
       <r>  -20.8758    1.0000 </r>
       <r>  -20.8530    1.0000 </r>
       <r>  -20.8517    1.0000 </r>
       <r>  -16.4114    1.0000 </r>
       <r>  -16.4050    1.0000 </r>
       <r>  -16.4049    1.0000 </r>
       <r>  -16.3827    1.0000 </r>
       <r>  -16.3507    1.0000 </r>
       <r>  -16.3150    1.0000 </r>
       <r>  -16.3091    1.0000 </r>
       <r>  -16.3090    1.0000 </r>
       <r>  -16.2428    1.0000 </r>
       <r>  -16.2424    1.0000 </r>
       <r>  -16.2415    1.0000 </r>
       <r>  -16.2409    1.0000 </r>
       <r>  -16.2402    1.0000 </r>
       <r>  -16.2394    1.0000 </r>
       <r>  -16.2392    1.0000 </r>
       <r>  -16.2385    1.0000 </r>
       <r>  -16.2337    1.0000 </r>
       <r>  -16.2332    1.0000 </r>
       <r>  -16.2324    1.0000 </r>
       <r>  -16.2319    1.0000 </r>
       <r>  -14.3408    1.0000 </r>
       <r>  -14.1512    1.0000 </r>
       <r>  -14.0108    1.0000 </r>
       <r>  -14.0048    1.0000 </r>
       <r>  -13.9985    1.0000 </r>
       <r>  -13.9980    1.0000 </r>
       <r>  -13.9811    1.0000 </r>
       <r>  -13.9710    1.0000 </r>
       <r>  -13.9253    1.0000 </r>
       <r>  -13.7152    1.0000 </r>
       <r>  -13.7058    1.0000 </r>
       <r>  -13.6992    1.0000 </r>
       <r>   -8.1714    1.0000 </r>
       <r>   -7.6508    1.0000 </r>
       <r>   -7.3085    1.0000 </r>
       <r>   -7.2792    1.0000 </r>
       <r>   -7.2747    1.0000 </r>
       <r>   -7.2714    1.0000 </r>
       <r>   -7.2712    1.0000 </r>
       <r>   -7.2490    1.0000 </r>
       <r>   -7.2450    1.0000 </r>
       <r>   -7.2343    1.0000 </r>
       <r>   -7.2339    1.0000 </r>
       <r>   -7.2326    1.0000 </r>
       <r>   -7.2246    1.0000 </r>
       <r>   -7.2119    1.0000 </r>
       <r>   -7.0919    1.0000 </r>
       <r>   -6.4503    1.0000 </r>
       <r>   -3.3464    1.0000 </r>
       <r>   -3.2978    1.0000 </r>
       <r>   -3.2753    1.0000 </r>
       <r>   -3.1844    1.0000 </r>
       <r>   -3.1651    1.0000 </r>
       <r>   -3.0694    1.0000 </r>
       <r>   -2.1199    1.0000 </r>
       <r>   -1.9020    1.0000 </r>
       <r>   -1.8865    1.0000 </r>
       <r>   -1.8841    1.0000 </r>
       <r>   -1.8744    1.0000 </r>
       <r>   -1.7608    1.0000 </r>
       <r>   -1.5762    1.0000 </r>
       <r>   -1.5347    1.0000 </r>
       <r>   -1.4609    1.0000 </r>
       <r>   -1.4198    1.0000 </r>
       <r>   -1.4092    1.0000 </r>
       <r>   -1.4002    1.0000 </r>
       <r>   -1.3954    1.0000 </r>
       <r>   -1.3531    1.0000 </r>
       <r>   -1.3349    1.0000 </r>
       <r>   -1.2980    1.0000 </r>
       <r>   -1.2660    1.0000 </r>
       <r>   -1.2617    1.0000 </r>
       <r>   -1.2598    1.0000 </r>
       <r>   -1.2457    1.0000 </r>
       <r>   -1.1169    1.0000 </r>
       <r>   -1.1083    1.0000 </r>
       <r>   -1.1021    1.0000 </r>
       <r>   -0.9651    1.0000 </r>
       <r>   -0.9617    1.0000 </r>
       <r>   -0.8548    1.0000 </r>
       <r>   -0.8440    1.0000 </r>
       <r>   -0.5842    1.0000 </r>
       <r>   -0.0433    1.0000 </r>
       <r>    0.5792    1.0000 </r>
       <r>    2.7580    0.0000 </r>
       <r>    2.8163    0.0000 </r>
       <r>    2.8884    0.0000 </r>
       <r>    3.2092    0.0000 </r>
       <r>    3.2741    0.0000 </r>
       <r>    3.6254    0.0000 </r>
       <r>    4.7564    0.0000 </r>
       <r>    5.7782    0.0000 </r>
       <r>    5.8054    0.0000 </r>
       <r>    5.9998    0.0000 </r>
       <r>    6.0402    0.0000 </r>
       <r>    6.0732    0.0000 </r>
       <r>    6.0884    0.0000 </r>
       <r>    6.2357    0.0000 </r>
       <r>    6.4592    0.0000 </r>
       <r>    6.4729    0.0000 </r>
       <r>    6.5661    0.0000 </r>
       <r>    6.6376    0.0000 </r>
       <r>    6.6451    0.0000 </r>
       <r>    6.7378    0.0000 </r>
       <r>    6.7531    0.0000 </r>
       <r>    6.7768    0.0000 </r>
       <r>    6.8177    0.0000 </r>
       <r>    6.8220    0.0000 </r>
      </set>
      <set comment="kpoint 2">
       <r>  -20.8772    1.0000 </r>
       <r>  -20.8757    1.0000 </r>
       <r>  -20.8530    1.0000 </r>
       <r>  -20.8516    1.0000 </r>
       <r>  -16.4040    1.0000 </r>
       <r>  -16.3896    1.0000 </r>
       <r>  -16.3825    1.0000 </r>
       <r>  -16.3824    1.0000 </r>
       <r>  -16.3416    1.0000 </r>
       <r>  -16.3345    1.0000 </r>
       <r>  -16.3345    1.0000 </r>
       <r>  -16.3237    1.0000 </r>
       <r>  -16.2425    1.0000 </r>
       <r>  -16.2420    1.0000 </r>
       <r>  -16.2417    1.0000 </r>
       <r>  -16.2413    1.0000 </r>
       <r>  -16.2398    1.0000 </r>
       <r>  -16.2397    1.0000 </r>
       <r>  -16.2389    1.0000 </r>
       <r>  -16.2386    1.0000 </r>
       <r>  -16.2334    1.0000 </r>
       <r>  -16.2328    1.0000 </r>
       <r>  -16.2326    1.0000 </r>
       <r>  -16.2322    1.0000 </r>
       <r>  -14.2881    1.0000 </r>
       <r>  -14.1470    1.0000 </r>
       <r>  -14.1135    1.0000 </r>
       <r>  -14.0332    1.0000 </r>
       <r>  -13.9980    1.0000 </r>
       <r>  -13.9939    1.0000 </r>
       <r>  -13.9242    1.0000 </r>
       <r>  -13.9179    1.0000 </r>
       <r>  -13.8098    1.0000 </r>
       <r>  -13.7812    1.0000 </r>
       <r>  -13.7767    1.0000 </r>
       <r>  -13.7294    1.0000 </r>
       <r>   -7.9466    1.0000 </r>
       <r>   -7.4322    1.0000 </r>
       <r>   -7.4292    1.0000 </r>
       <r>   -7.2896    1.0000 </r>
       <r>   -7.2702    1.0000 </r>
       <r>   -7.2645    1.0000 </r>
       <r>   -7.2643    1.0000 </r>
       <r>   -7.2602    1.0000 </r>
       <r>   -7.2483    1.0000 </r>
       <r>   -7.2416    1.0000 </r>
       <r>   -7.2340    1.0000 </r>
       <r>   -7.2334    1.0000 </r>
       <r>   -7.2277    1.0000 </r>
       <r>   -7.2178    1.0000 </r>
       <r>   -7.1995    1.0000 </r>
       <r>   -6.8283    1.0000 </r>
       <r>   -3.2638    1.0000 </r>
       <r>   -3.1477    1.0000 </r>
       <r>   -2.9782    1.0000 </r>
       <r>   -2.8585    1.0000 </r>
       <r>   -2.7346    1.0000 </r>
       <r>   -2.6901    1.0000 </r>
       <r>   -2.2400    1.0000 </r>
       <r>   -2.0791    1.0000 </r>
       <r>   -2.0423    1.0000 </r>
       <r>   -1.9758    1.0000 </r>
       <r>   -1.9549    1.0000 </r>
       <r>   -1.8937    1.0000 </r>
       <r>   -1.8126    1.0000 </r>
       <r>   -1.7055    1.0000 </r>
       <r>   -1.6258    1.0000 </r>
       <r>   -1.6081    1.0000 </r>
       <r>   -1.4353    1.0000 </r>
       <r>   -1.4193    1.0000 </r>
       <r>   -1.3778    1.0000 </r>
       <r>   -1.3657    1.0000 </r>
       <r>   -1.3362    1.0000 </r>
       <r>   -1.2994    1.0000 </r>
       <r>   -1.2793    1.0000 </r>
       <r>   -1.2740    1.0000 </r>
       <r>   -1.2234    1.0000 </r>
       <r>   -1.1901    1.0000 </r>
       <r>   -1.1677    1.0000 </r>
       <r>   -1.1335    1.0000 </r>
       <r>   -1.0955    1.0000 </r>
       <r>   -1.0449    1.0000 </r>
       <r>   -0.9894    1.0000 </r>
       <r>   -0.9489    1.0000 </r>
       <r>   -0.8545    1.0000 </r>
       <r>   -0.6267    1.0000 </r>
       <r>   -0.4915    1.0000 </r>
       <r>   -0.0393    1.0000 </r>
       <r>    3.0136    0.0000 </r>
       <r>    3.3898    0.0000 </r>
       <r>    3.6579    0.0000 </r>
       <r>    3.7883    0.0000 </r>
       <r>    4.0277    0.0000 </r>
       <r>    4.1713    0.0000 </r>
       <r>    5.1858    0.0000 </r>
       <r>    5.2276    0.0000 </r>
       <r>    5.2620    0.0000 </r>
       <r>    5.5807    0.0000 </r>
       <r>    5.8133    0.0000 </r>
       <r>    5.9534    0.0000 </r>
       <r>    6.0695    0.0000 </r>
       <r>    6.2683    0.0000 </r>
       <r>    6.2763    0.0000 </r>
       <r>    6.3282    0.0000 </r>
       <r>    6.4634    0.0000 </r>
       <r>    6.6181    0.0000 </r>
       <r>    6.6629    0.0000 </r>
       <r>    6.7348    0.0000 </r>
       <r>    6.8652    0.0000 </r>
       <r>    6.8817    0.0000 </r>
       <r>    6.9136    0.0000 </r>
       <r>    7.0008    0.0000 </r>
      </set>
      <set comment="kpoint 3">
       <r>  -20.8771    1.0000 </r>
       <r>  -20.8756    1.0000 </r>
       <r>  -20.8529    1.0000 </r>
       <r>  -20.8516    1.0000 </r>
       <r>  -16.4089    1.0000 </r>
       <r>  -16.4003    1.0000 </r>
       <r>  -16.3805    1.0000 </r>
       <r>  -16.3622    1.0000 </r>
       <r>  -16.3613    1.0000 </r>
       <r>  -16.3407    1.0000 </r>
       <r>  -16.3263    1.0000 </r>
       <r>  -16.3135    1.0000 </r>
       <r>  -16.2421    1.0000 </r>
       <r>  -16.2421    1.0000 </r>
       <r>  -16.2416    1.0000 </r>
       <r>  -16.2415    1.0000 </r>
       <r>  -16.2401    1.0000 </r>
       <r>  -16.2395    1.0000 </r>
       <r>  -16.2391    1.0000 </r>
       <r>  -16.2383    1.0000 </r>
       <r>  -16.2331    1.0000 </r>
       <r>  -16.2330    1.0000 </r>
       <r>  -16.2325    1.0000 </r>
       <r>  -16.2323    1.0000 </r>
       <r>  -14.2305    1.0000 </r>
       <r>  -14.1381    1.0000 </r>
       <r>  -14.0722    1.0000 </r>
       <r>  -14.0114    1.0000 </r>
       <r>  -13.9944    1.0000 </r>
       <r>  -13.9921    1.0000 </r>
       <r>  -13.9756    1.0000 </r>
       <r>  -13.9493    1.0000 </r>
       <r>  -13.8960    1.0000 </r>
       <r>  -13.8365    1.0000 </r>
       <r>  -13.7413    1.0000 </r>
       <r>  -13.6932    1.0000 </r>
       <r>   -7.8152    1.0000 </r>
       <r>   -7.5323    1.0000 </r>
       <r>   -7.3272    1.0000 </r>
       <r>   -7.2669    1.0000 </r>
       <r>   -7.2631    1.0000 </r>
       <r>   -7.2558    1.0000 </r>
       <r>   -7.2558    1.0000 </r>
       <r>   -7.2548    1.0000 </r>
       <r>   -7.2435    1.0000 </r>
       <r>   -7.2417    1.0000 </r>
       <r>   -7.2387    1.0000 </r>
       <r>   -7.2334    1.0000 </r>
       <r>   -7.2269    1.0000 </r>
       <r>   -7.2226    1.0000 </r>
       <r>   -7.1440    1.0000 </r>
       <r>   -6.9495    1.0000 </r>
       <r>   -3.2604    1.0000 </r>
       <r>   -3.2264    1.0000 </r>
       <r>   -3.1981    1.0000 </r>
       <r>   -3.0714    1.0000 </r>
       <r>   -2.8352    1.0000 </r>
       <r>   -2.6760    1.0000 </r>
       <r>   -2.1685    1.0000 </r>
       <r>   -2.0652    1.0000 </r>
       <r>   -2.0533    1.0000 </r>
       <r>   -2.0527    1.0000 </r>
       <r>   -1.9620    1.0000 </r>
       <r>   -1.7248    1.0000 </r>
       <r>   -1.6993    1.0000 </r>
       <r>   -1.5807    1.0000 </r>
       <r>   -1.5533    1.0000 </r>
       <r>   -1.5205    1.0000 </r>
       <r>   -1.4633    1.0000 </r>
       <r>   -1.3901    1.0000 </r>
       <r>   -1.3623    1.0000 </r>
       <r>   -1.3357    1.0000 </r>
       <r>   -1.3272    1.0000 </r>
       <r>   -1.3200    1.0000 </r>
       <r>   -1.2857    1.0000 </r>
       <r>   -1.2688    1.0000 </r>
       <r>   -1.2638    1.0000 </r>
       <r>   -1.2631    1.0000 </r>
       <r>   -1.2131    1.0000 </r>
       <r>   -1.2111    1.0000 </r>
       <r>   -1.1879    1.0000 </r>
       <r>   -1.0899    1.0000 </r>
       <r>   -1.0168    1.0000 </r>
       <r>   -0.9334    1.0000 </r>
       <r>   -0.8673    1.0000 </r>
       <r>   -0.5064    1.0000 </r>
       <r>   -0.3091    1.0000 </r>
       <r>    0.0088    1.0000 </r>
       <r>    3.0695    0.0000 </r>
       <r>    3.0954    0.0000 </r>
       <r>    3.3040    0.0000 </r>
       <r>    3.4835    0.0000 </r>
       <r>    4.0260    0.0000 </r>
       <r>    4.3602    0.0000 </r>
       <r>    4.9704    0.0000 </r>
       <r>    5.4050    0.0000 </r>
       <r>    5.7355    0.0000 </r>
       <r>    5.8493    0.0000 </r>
       <r>    6.0771    0.0000 </r>
       <r>    6.1993    0.0000 </r>
       <r>    6.2024    0.0000 </r>
       <r>    6.3021    0.0000 </r>
       <r>    6.4123    0.0000 </r>
       <r>    6.6741    0.0000 </r>
       <r>    6.6789    0.0000 </r>
       <r>    6.7005    0.0000 </r>
       <r>    6.7627    0.0000 </r>
       <r>    6.7906    0.0000 </r>
       <r>    6.8132    0.0000 </r>
       <r>    6.8354    0.0000 </r>
       <r>    6.8682    0.0000 </r>
       <r>    7.0582    0.0000 </r>
      </set>
      <set comment="kpoint 4">
       <r>  -20.8771    1.0000 </r>
       <r>  -20.8756    1.0000 </r>
       <r>  -20.8529    1.0000 </r>
       <r>  -20.8516    1.0000 </r>
       <r>  -16.4103    1.0000 </r>
       <r>  -16.3997    1.0000 </r>
       <r>  -16.3824    1.0000 </r>
       <r>  -16.3619    1.0000 </r>
       <r>  -16.3607    1.0000 </r>
       <r>  -16.3396    1.0000 </r>
       <r>  -16.3261    1.0000 </r>
       <r>  -16.3132    1.0000 </r>
       <r>  -16.2424    1.0000 </r>
       <r>  -16.2419    1.0000 </r>
       <r>  -16.2417    1.0000 </r>
       <r>  -16.2413    1.0000 </r>
       <r>  -16.2400    1.0000 </r>
       <r>  -16.2395    1.0000 </r>
       <r>  -16.2390    1.0000 </r>
       <r>  -16.2385    1.0000 </r>
       <r>  -16.2335    1.0000 </r>
       <r>  -16.2329    1.0000 </r>
       <r>  -16.2326    1.0000 </r>
       <r>  -16.2321    1.0000 </r>
       <r>  -14.2371    1.0000 </r>
       <r>  -14.1216    1.0000 </r>
       <r>  -14.0701    1.0000 </r>
       <r>  -14.0121    1.0000 </r>
       <r>  -14.0053    1.0000 </r>
       <r>  -13.9996    1.0000 </r>
       <r>  -13.9918    1.0000 </r>
       <r>  -13.9340    1.0000 </r>
       <r>  -13.8826    1.0000 </r>
       <r>  -13.8408    1.0000 </r>
       <r>  -13.7301    1.0000 </r>
       <r>  -13.7057    1.0000 </r>
       <r>   -7.7971    1.0000 </r>
       <r>   -7.5606    1.0000 </r>
       <r>   -7.3041    1.0000 </r>
       <r>   -7.2719    1.0000 </r>
       <r>   -7.2615    1.0000 </r>
       <r>   -7.2575    1.0000 </r>
       <r>   -7.2554    1.0000 </r>
       <r>   -7.2542    1.0000 </r>
       <r>   -7.2453    1.0000 </r>
       <r>   -7.2433    1.0000 </r>
       <r>   -7.2332    1.0000 </r>
       <r>   -7.2253    1.0000 </r>
       <r>   -7.2152    1.0000 </r>
       <r>   -7.2123    1.0000 </r>
       <r>   -7.1967    1.0000 </r>
       <r>   -6.9429    1.0000 </r>
       <r>   -3.2507    1.0000 </r>
       <r>   -3.2221    1.0000 </r>
       <r>   -3.1881    1.0000 </r>
       <r>   -3.0729    1.0000 </r>
       <r>   -2.8049    1.0000 </r>
       <r>   -2.6662    1.0000 </r>
       <r>   -2.1761    1.0000 </r>
       <r>   -2.0908    1.0000 </r>
       <r>   -2.0772    1.0000 </r>
       <r>   -2.0340    1.0000 </r>
       <r>   -1.9569    1.0000 </r>
       <r>   -1.7089    1.0000 </r>
       <r>   -1.7053    1.0000 </r>
       <r>   -1.6615    1.0000 </r>
       <r>   -1.5020    1.0000 </r>
       <r>   -1.4555    1.0000 </r>
       <r>   -1.4144    1.0000 </r>
       <r>   -1.3877    1.0000 </r>
       <r>   -1.3865    1.0000 </r>
       <r>   -1.3550    1.0000 </r>
       <r>   -1.3475    1.0000 </r>
       <r>   -1.3374    1.0000 </r>
       <r>   -1.3087    1.0000 </r>
       <r>   -1.2840    1.0000 </r>
       <r>   -1.2759    1.0000 </r>
       <r>   -1.2278    1.0000 </r>
       <r>   -1.2042    1.0000 </r>
       <r>   -1.1950    1.0000 </r>
       <r>   -1.1505    1.0000 </r>
       <r>   -1.1135    1.0000 </r>
       <r>   -1.0938    1.0000 </r>
       <r>   -0.9412    1.0000 </r>
       <r>   -0.7537    1.0000 </r>
       <r>   -0.6477    1.0000 </r>
       <r>   -0.3363    1.0000 </r>
       <r>    0.0195    1.0000 </r>
       <r>    3.1242    0.0000 </r>
       <r>    3.1786    0.0000 </r>
       <r>    3.2903    0.0000 </r>
       <r>    3.5627    0.0000 </r>
       <r>    3.9783    0.0000 </r>
       <r>    4.3444    0.0000 </r>
       <r>    4.9764    0.0000 </r>
       <r>    5.3961    0.0000 </r>
       <r>    5.6973    0.0000 </r>
       <r>    5.7195    0.0000 </r>
       <r>    6.1096    0.0000 </r>
       <r>    6.1979    0.0000 </r>
       <r>    6.2121    0.0000 </r>
       <r>    6.2485    0.0000 </r>
       <r>    6.4059    0.0000 </r>
       <r>    6.6168    0.0000 </r>
       <r>    6.6610    0.0000 </r>
       <r>    6.6709    0.0000 </r>
       <r>    6.6908    0.0000 </r>
       <r>    6.7570    0.0000 </r>
       <r>    7.0374    0.0000 </r>
       <r>    7.0493    0.0000 </r>
       <r>    7.1173    0.0000 </r>
       <r>    7.1617    0.0000 </r>
      </set>
      <set comment="kpoint 5">
       <r>  -20.8765    1.0000 </r>
       <r>  -20.8765    1.0000 </r>
       <r>  -20.8523    1.0000 </r>
       <r>  -20.8523    1.0000 </r>
       <r>  -16.4050    1.0000 </r>
       <r>  -16.4050    1.0000 </r>
       <r>  -16.3812    1.0000 </r>
       <r>  -16.3812    1.0000 </r>
       <r>  -16.3495    1.0000 </r>
       <r>  -16.3495    1.0000 </r>
       <r>  -16.3090    1.0000 </r>
       <r>  -16.3090    1.0000 </r>
       <r>  -16.2426    1.0000 </r>
       <r>  -16.2426    1.0000 </r>
       <r>  -16.2411    1.0000 </r>
       <r>  -16.2411    1.0000 </r>
       <r>  -16.2395    1.0000 </r>
       <r>  -16.2395    1.0000 </r>
       <r>  -16.2390    1.0000 </r>
       <r>  -16.2390    1.0000 </r>
       <r>  -16.2335    1.0000 </r>
       <r>  -16.2335    1.0000 </r>
       <r>  -16.2321    1.0000 </r>
       <r>  -16.2321    1.0000 </r>
       <r>  -14.2802    1.0000 </r>
       <r>  -14.2802    1.0000 </r>
       <r>  -14.0039    1.0000 </r>
       <r>  -14.0039    1.0000 </r>
       <r>  -13.9882    1.0000 </r>
       <r>  -13.9882    1.0000 </r>
       <r>  -13.9521    1.0000 </r>
       <r>  -13.9521    1.0000 </r>
       <r>  -13.8186    1.0000 </r>
       <r>  -13.8186    1.0000 </r>
       <r>  -13.7064    1.0000 </r>
       <r>  -13.7064    1.0000 </r>
       <r>   -7.9328    1.0000 </r>
       <r>   -7.9328    1.0000 </r>
       <r>   -7.2916    1.0000 </r>
       <r>   -7.2916    1.0000 </r>
       <r>   -7.2707    1.0000 </r>
       <r>   -7.2707    1.0000 </r>
       <r>   -7.2536    1.0000 </r>
       <r>   -7.2536    1.0000 </r>
       <r>   -7.2447    1.0000 </r>
       <r>   -7.2447    1.0000 </r>
       <r>   -7.2322    1.0000 </r>
       <r>   -7.2322    1.0000 </r>
       <r>   -7.2255    1.0000 </r>
       <r>   -7.2255    1.0000 </r>
       <r>   -6.8227    1.0000 </r>
       <r>   -6.8227    1.0000 </r>
       <r>   -3.2610    1.0000 </r>
       <r>   -3.2610    1.0000 </r>
       <r>   -3.2300    1.0000 </r>
       <r>   -3.2300    1.0000 </r>
       <r>   -2.4629    1.0000 </r>
       <r>   -2.4629    1.0000 </r>
       <r>   -2.2913    1.0000 </r>
       <r>   -2.2913    1.0000 </r>
       <r>   -2.0098    1.0000 </r>
       <r>   -2.0098    1.0000 </r>
       <r>   -1.7952    1.0000 </r>
       <r>   -1.7952    1.0000 </r>
       <r>   -1.7948    1.0000 </r>
       <r>   -1.7948    1.0000 </r>
       <r>   -1.4668    1.0000 </r>
       <r>   -1.4668    1.0000 </r>
       <r>   -1.4338    1.0000 </r>
       <r>   -1.4338    1.0000 </r>
       <r>   -1.3522    1.0000 </r>
       <r>   -1.3522    1.0000 </r>
       <r>   -1.2610    1.0000 </r>
       <r>   -1.2610    1.0000 </r>
       <r>   -1.2530    1.0000 </r>
       <r>   -1.2530    1.0000 </r>
       <r>   -1.1716    1.0000 </r>
       <r>   -1.1716    1.0000 </r>
       <r>   -1.1584    1.0000 </r>
       <r>   -1.1584    1.0000 </r>
       <r>   -1.0673    1.0000 </r>
       <r>   -1.0673    1.0000 </r>
       <r>   -1.0352    1.0000 </r>
       <r>   -1.0352    1.0000 </r>
       <r>   -0.8193    1.0000 </r>
       <r>   -0.8193    1.0000 </r>
       <r>    0.1038    1.0000 </r>
       <r>    0.1038    1.0000 </r>
       <r>    2.9874    0.0000 </r>
       <r>    2.9874    0.0000 </r>
       <r>    3.0896    0.0000 </r>
       <r>    3.0896    0.0000 </r>
       <r>    4.3813    0.0000 </r>
       <r>    4.3813    0.0000 </r>
       <r>    4.9659    0.0000 </r>
       <r>    4.9659    0.0000 </r>
       <r>    5.4481    0.0000 </r>
       <r>    5.4481    0.0000 </r>
       <r>    6.1204    0.0000 </r>
       <r>    6.1204    0.0000 </r>
       <r>    6.1929    0.0000 </r>
       <r>    6.1929    0.0000 </r>
       <r>    6.3200    0.0000 </r>
       <r>    6.3200    0.0000 </r>
       <r>    6.3397    0.0000 </r>
       <r>    6.3397    0.0000 </r>
       <r>    6.7526    0.0000 </r>
       <r>    6.7528    0.0000 </r>
       <r>    6.7804    0.0000 </r>
       <r>    6.7808    0.0000 </r>
       <r>    6.8287    0.0000 </r>
       <r>    6.8297    0.0000 </r>
      </set>
      <set comment="kpoint 6">
       <r>  -20.8764    1.0000 </r>
       <r>  -20.8764    1.0000 </r>
       <r>  -20.8523    1.0000 </r>
       <r>  -20.8523    1.0000 </r>
       <r>  -16.3824    1.0000 </r>
       <r>  -16.3824    1.0000 </r>
       <r>  -16.3731    1.0000 </r>
       <r>  -16.3731    1.0000 </r>
       <r>  -16.3572    1.0000 </r>
       <r>  -16.3572    1.0000 </r>
       <r>  -16.3345    1.0000 </r>
       <r>  -16.3345    1.0000 </r>
       <r>  -16.2422    1.0000 </r>
       <r>  -16.2422    1.0000 </r>
       <r>  -16.2415    1.0000 </r>
       <r>  -16.2415    1.0000 </r>
       <r>  -16.2394    1.0000 </r>
       <r>  -16.2394    1.0000 </r>
       <r>  -16.2391    1.0000 </r>
       <r>  -16.2391    1.0000 </r>
       <r>  -16.2331    1.0000 </r>
       <r>  -16.2331    1.0000 </r>
       <r>  -16.2324    1.0000 </r>
       <r>  -16.2324    1.0000 </r>
       <r>  -14.2339    1.0000 </r>
       <r>  -14.2339    1.0000 </r>
       <r>  -14.1150    1.0000 </r>
       <r>  -14.1150    1.0000 </r>
       <r>  -13.9230    1.0000 </r>
       <r>  -13.9230    1.0000 </r>
       <r>  -13.8746    1.0000 </r>
       <r>  -13.8746    1.0000 </r>
       <r>  -13.8307    1.0000 </r>
       <r>  -13.8307    1.0000 </r>
       <r>  -13.7778    1.0000 </r>
       <r>  -13.7778    1.0000 </r>
       <r>   -7.7077    1.0000 </r>
       <r>   -7.7077    1.0000 </r>
       <r>   -7.2853    1.0000 </r>
       <r>   -7.2853    1.0000 </r>
       <r>   -7.2688    1.0000 </r>
       <r>   -7.2688    1.0000 </r>
       <r>   -7.2530    1.0000 </r>
       <r>   -7.2530    1.0000 </r>
       <r>   -7.2447    1.0000 </r>
       <r>   -7.2447    1.0000 </r>
       <r>   -7.2358    1.0000 </r>
       <r>   -7.2358    1.0000 </r>
       <r>   -7.2204    1.0000 </r>
       <r>   -7.2204    1.0000 </r>
       <r>   -7.1424    1.0000 </r>
       <r>   -7.1424    1.0000 </r>
       <r>   -2.9262    1.0000 </r>
       <r>   -2.9262    1.0000 </r>
       <r>   -2.8067    1.0000 </r>
       <r>   -2.8067    1.0000 </r>
       <r>   -2.4263    1.0000 </r>
       <r>   -2.4263    1.0000 </r>
       <r>   -2.3527    1.0000 </r>
       <r>   -2.3527    1.0000 </r>
       <r>   -2.1486    1.0000 </r>
       <r>   -2.1486    1.0000 </r>
       <r>   -2.0287    1.0000 </r>
       <r>   -2.0287    1.0000 </r>
       <r>   -1.7163    1.0000 </r>
       <r>   -1.7163    1.0000 </r>
       <r>   -1.6486    1.0000 </r>
       <r>   -1.6486    1.0000 </r>
       <r>   -1.5286    1.0000 </r>
       <r>   -1.5286    1.0000 </r>
       <r>   -1.4514    1.0000 </r>
       <r>   -1.4514    1.0000 </r>
       <r>   -1.3362    1.0000 </r>
       <r>   -1.3362    1.0000 </r>
       <r>   -1.2672    1.0000 </r>
       <r>   -1.2672    1.0000 </r>
       <r>   -1.1405    1.0000 </r>
       <r>   -1.1405    1.0000 </r>
       <r>   -1.0893    1.0000 </r>
       <r>   -1.0893    1.0000 </r>
       <r>   -1.0653    1.0000 </r>
       <r>   -1.0653    1.0000 </r>
       <r>   -1.0325    1.0000 </r>
       <r>   -1.0325    1.0000 </r>
       <r>   -0.8444    1.0000 </r>
       <r>   -0.8444    1.0000 </r>
       <r>   -0.5343    1.0000 </r>
       <r>   -0.5343    1.0000 </r>
       <r>    3.8321    0.0000 </r>
       <r>    3.8321    0.0000 </r>
       <r>    3.9472    0.0000 </r>
       <r>    3.9472    0.0000 </r>
       <r>    4.5403    0.0000 </r>
       <r>    4.5403    0.0000 </r>
       <r>    4.8119    0.0000 </r>
       <r>    4.8119    0.0000 </r>
       <r>    5.3311    0.0000 </r>
       <r>    5.3311    0.0000 </r>
       <r>    5.4325    0.0000 </r>
       <r>    5.4325    0.0000 </r>
       <r>    5.9555    0.0000 </r>
       <r>    5.9555    0.0000 </r>
       <r>    6.3078    0.0000 </r>
       <r>    6.3078    0.0000 </r>
       <r>    6.4443    0.0000 </r>
       <r>    6.4443    0.0000 </r>
       <r>    6.6123    0.0000 </r>
       <r>    6.6123    0.0000 </r>
       <r>    6.7357    0.0000 </r>
       <r>    6.7357    0.0000 </r>
       <r>    6.9208    0.0000 </r>
       <r>    6.9209    0.0000 </r>
      </set>
      <set comment="kpoint 7">
       <r>  -20.8763    1.0000 </r>
       <r>  -20.8763    1.0000 </r>
       <r>  -20.8522    1.0000 </r>
       <r>  -20.8522    1.0000 </r>
       <r>  -16.3895    1.0000 </r>
       <r>  -16.3895    1.0000 </r>
       <r>  -16.3763    1.0000 </r>
       <r>  -16.3763    1.0000 </r>
       <r>  -16.3494    1.0000 </r>
       <r>  -16.3494    1.0000 </r>
       <r>  -16.3325    1.0000 </r>
       <r>  -16.3325    1.0000 </r>
       <r>  -16.2418    1.0000 </r>
       <r>  -16.2418    1.0000 </r>
       <r>  -16.2418    1.0000 </r>
       <r>  -16.2418    1.0000 </r>
       <r>  -16.2395    1.0000 </r>
       <r>  -16.2395    1.0000 </r>
       <r>  -16.2389    1.0000 </r>
       <r>  -16.2389    1.0000 </r>
       <r>  -16.2328    1.0000 </r>
       <r>  -16.2328    1.0000 </r>
       <r>  -16.2327    1.0000 </r>
       <r>  -16.2327    1.0000 </r>
       <r>  -14.1821    1.0000 </r>
       <r>  -14.1821    1.0000 </r>
       <r>  -14.0984    1.0000 </r>
       <r>  -14.0984    1.0000 </r>
       <r>  -13.9899    1.0000 </r>
       <r>  -13.9899    1.0000 </r>
       <r>  -13.9081    1.0000 </r>
       <r>  -13.9081    1.0000 </r>
       <r>  -13.8149    1.0000 </r>
       <r>  -13.8149    1.0000 </r>
       <r>  -13.7704    1.0000 </r>
       <r>  -13.7704    1.0000 </r>
       <r>   -7.5780    1.0000 </r>
       <r>   -7.5780    1.0000 </r>
       <r>   -7.2992    1.0000 </r>
       <r>   -7.2992    1.0000 </r>
       <r>   -7.2605    1.0000 </r>
       <r>   -7.2605    1.0000 </r>
       <r>   -7.2573    1.0000 </r>
       <r>   -7.2573    1.0000 </r>
       <r>   -7.2402    1.0000 </r>
       <r>   -7.2402    1.0000 </r>
       <r>   -7.2344    1.0000 </r>
       <r>   -7.2344    1.0000 </r>
       <r>   -7.2289    1.0000 </r>
       <r>   -7.2289    1.0000 </r>
       <r>   -7.2017    1.0000 </r>
       <r>   -7.2017    1.0000 </r>
       <r>   -3.1693    1.0000 </r>
       <r>   -3.1693    1.0000 </r>
       <r>   -2.7969    1.0000 </r>
       <r>   -2.7969    1.0000 </r>
       <r>   -2.5058    1.0000 </r>
       <r>   -2.5058    1.0000 </r>
       <r>   -2.3609    1.0000 </r>
       <r>   -2.3609    1.0000 </r>
       <r>   -2.0972    1.0000 </r>
       <r>   -2.0972    1.0000 </r>
       <r>   -1.9841    1.0000 </r>
       <r>   -1.9841    1.0000 </r>
       <r>   -1.6902    1.0000 </r>
       <r>   -1.6902    1.0000 </r>
       <r>   -1.6476    1.0000 </r>
       <r>   -1.6476    1.0000 </r>
       <r>   -1.4364    1.0000 </r>
       <r>   -1.4364    1.0000 </r>
       <r>   -1.4041    1.0000 </r>
       <r>   -1.4041    1.0000 </r>
       <r>   -1.3639    1.0000 </r>
       <r>   -1.3639    1.0000 </r>
       <r>   -1.2942    1.0000 </r>
       <r>   -1.2942    1.0000 </r>
       <r>   -1.1949    1.0000 </r>
       <r>   -1.1949    1.0000 </r>
       <r>   -1.1388    1.0000 </r>
       <r>   -1.1388    1.0000 </r>
       <r>   -1.0499    1.0000 </r>
       <r>   -1.0499    1.0000 </r>
       <r>   -1.0194    1.0000 </r>
       <r>   -1.0194    1.0000 </r>
       <r>   -0.8066    1.0000 </r>
       <r>   -0.8066    1.0000 </r>
       <r>   -0.4104    1.0000 </r>
       <r>   -0.4104    1.0000 </r>
       <r>    3.2736    0.0000 </r>
       <r>    3.2736    0.0000 </r>
       <r>    4.1570    0.0000 </r>
       <r>    4.1570    0.0000 </r>
       <r>    4.6411    0.0000 </r>
       <r>    4.6411    0.0000 </r>
       <r>    4.7361    0.0000 </r>
       <r>    4.7361    0.0000 </r>
       <r>    5.1903    0.0000 </r>
       <r>    5.1903    0.0000 </r>
       <r>    6.0304    0.0000 </r>
       <r>    6.0304    0.0000 </r>
       <r>    6.1857    0.0000 </r>
       <r>    6.1857    0.0000 </r>
       <r>    6.4938    0.0000 </r>
       <r>    6.4938    0.0000 </r>
       <r>    6.6256    0.0000 </r>
       <r>    6.6256    0.0000 </r>
       <r>    6.7343    0.0000 </r>
       <r>    6.7343    0.0000 </r>
       <r>    6.8110    0.0000 </r>
       <r>    6.8110    0.0000 </r>
       <r>    6.9903    0.0000 </r>
       <r>    6.9917    0.0000 </r>
      </set>
      <set comment="kpoint 8">
       <r>  -20.8764    1.0000 </r>
       <r>  -20.8764    1.0000 </r>
       <r>  -20.8523    1.0000 </r>
       <r>  -20.8523    1.0000 </r>
       <r>  -16.3913    1.0000 </r>
       <r>  -16.3913    1.0000 </r>
       <r>  -16.3752    1.0000 </r>
       <r>  -16.3752    1.0000 </r>
       <r>  -16.3494    1.0000 </r>
       <r>  -16.3494    1.0000 </r>
       <r>  -16.3319    1.0000 </r>
       <r>  -16.3319    1.0000 </r>
       <r>  -16.2423    1.0000 </r>
       <r>  -16.2423    1.0000 </r>
       <r>  -16.2415    1.0000 </r>
       <r>  -16.2415    1.0000 </r>
       <r>  -16.2396    1.0000 </r>
       <r>  -16.2396    1.0000 </r>
       <r>  -16.2391    1.0000 </r>
       <r>  -16.2391    1.0000 </r>
       <r>  -16.2333    1.0000 </r>
       <r>  -16.2333    1.0000 </r>
       <r>  -16.2323    1.0000 </r>
       <r>  -16.2323    1.0000 </r>
       <r>  -14.1872    1.0000 </r>
       <r>  -14.1872    1.0000 </r>
       <r>  -14.0838    1.0000 </r>
       <r>  -14.0838    1.0000 </r>
       <r>  -14.0077    1.0000 </r>
       <r>  -14.0077    1.0000 </r>
       <r>  -13.8992    1.0000 </r>
       <r>  -13.8992    1.0000 </r>
       <r>  -13.8042    1.0000 </r>
       <r>  -13.8042    1.0000 </r>
       <r>  -13.7819    1.0000 </r>
       <r>  -13.7819    1.0000 </r>
       <r>   -7.5552    1.0000 </r>
       <r>   -7.5552    1.0000 </r>
       <r>   -7.3417    1.0000 </r>
       <r>   -7.3417    1.0000 </r>
       <r>   -7.2694    1.0000 </r>
       <r>   -7.2694    1.0000 </r>
       <r>   -7.2592    1.0000 </r>
       <r>   -7.2592    1.0000 </r>
       <r>   -7.2439    1.0000 </r>
       <r>   -7.2439    1.0000 </r>
       <r>   -7.2403    1.0000 </r>
       <r>   -7.2403    1.0000 </r>
       <r>   -7.2216    1.0000 </r>
       <r>   -7.2216    1.0000 </r>
       <r>   -7.1718    1.0000 </r>
       <r>   -7.1718    1.0000 </r>
       <r>   -3.1578    1.0000 </r>
       <r>   -3.1578    1.0000 </r>
       <r>   -2.7648    1.0000 </r>
       <r>   -2.7648    1.0000 </r>
       <r>   -2.5076    1.0000 </r>
       <r>   -2.5076    1.0000 </r>
       <r>   -2.3633    1.0000 </r>
       <r>   -2.3633    1.0000 </r>
       <r>   -2.1180    1.0000 </r>
       <r>   -2.1180    1.0000 </r>
       <r>   -1.9892    1.0000 </r>
       <r>   -1.9892    1.0000 </r>
       <r>   -1.7367    1.0000 </r>
       <r>   -1.7367    1.0000 </r>
       <r>   -1.6129    1.0000 </r>
       <r>   -1.6129    1.0000 </r>
       <r>   -1.5177    1.0000 </r>
       <r>   -1.5177    1.0000 </r>
       <r>   -1.3654    1.0000 </r>
       <r>   -1.3654    1.0000 </r>
       <r>   -1.2899    1.0000 </r>
       <r>   -1.2899    1.0000 </r>
       <r>   -1.2277    1.0000 </r>
       <r>   -1.2277    1.0000 </r>
       <r>   -1.2152    1.0000 </r>
       <r>   -1.2152    1.0000 </r>
       <r>   -1.1454    1.0000 </r>
       <r>   -1.1454    1.0000 </r>
       <r>   -1.1422    1.0000 </r>
       <r>   -1.1422    1.0000 </r>
       <r>   -1.0085    1.0000 </r>
       <r>   -1.0085    1.0000 </r>
       <r>   -0.7421    1.0000 </r>
       <r>   -0.7421    1.0000 </r>
       <r>   -0.4965    1.0000 </r>
       <r>   -0.4965    1.0000 </r>
       <r>    3.3545    0.0000 </r>
       <r>    3.3545    0.0000 </r>
       <r>    4.1475    0.0000 </r>
       <r>    4.1475    0.0000 </r>
       <r>    4.5923    0.0000 </r>
       <r>    4.5923    0.0000 </r>
       <r>    4.8073    0.0000 </r>
       <r>    4.8073    0.0000 </r>
       <r>    5.2203    0.0000 </r>
       <r>    5.2203    0.0000 </r>
       <r>    5.9435    0.0000 </r>
       <r>    5.9435    0.0000 </r>
       <r>    6.1445    0.0000 </r>
       <r>    6.1445    0.0000 </r>
       <r>    6.3889    0.0000 </r>
       <r>    6.3889    0.0000 </r>
       <r>    6.6216    0.0000 </r>
       <r>    6.6216    0.0000 </r>
       <r>    6.7976    0.0000 </r>
       <r>    6.7976    0.0000 </r>
       <r>    6.9777    0.0000 </r>
       <r>    6.9777    0.0000 </r>
       <r>    6.9906    0.0000 </r>
       <r>    6.9906    0.0000 </r>
      </set>
     </set>
    </set>
   </array>
  </eigenvalues>
  <separator name="orbital magnetization" >
   <v name="MAGDIPOLOUT">      0.00000000      0.00000000      0.00000000</v>
  </separator>
  <dos>
   <i name="efermi">      0.67303168 </i>
   <total>
    <array>
     <dimension dim="1">gridpoints</dimension>
     <dimension dim="2">spin</dimension>
     <field>energy</field>
     <field>total</field>
     <field>integrated</field>
     <set>
      <set comment="spin 1">
       <r>   -22.2793     0.0000     0.0000 </r>
       <r>   -22.1765     0.0000     0.0000 </r>
       <r>   -22.0736     0.0000     0.0000 </r>
       <r>   -21.9708     0.0000     0.0000 </r>
       <r>   -21.8680     0.0000     0.0000 </r>
       <r>   -21.7652     0.0000     0.0000 </r>
       <r>   -21.6624     0.0000     0.0000 </r>
       <r>   -21.5596     0.0000     0.0000 </r>
       <r>   -21.4568     0.0000     0.0000 </r>
       <r>   -21.3540     0.0000     0.0000 </r>
       <r>   -21.2512     0.0000     0.0000 </r>
       <r>   -21.1484     0.0000     0.0000 </r>
       <r>   -21.0455     0.0000     0.0000 </r>
       <r>   -20.9427     0.0000     0.0000 </r>
       <r>   -20.8399    76.2366     7.8379 </r>
       <r>   -20.7371     0.0000     8.0000 </r>
       <r>   -20.6343     0.0000     8.0000 </r>
       <r>   -20.5315     0.0000     8.0000 </r>
       <r>   -20.4287     0.0000     8.0000 </r>
       <r>   -20.3259     0.0000     8.0000 </r>
       <r>   -20.2231     0.0000     8.0000 </r>
       <r>   -20.1203     0.0000     8.0000 </r>
       <r>   -20.0174     0.0000     8.0000 </r>
       <r>   -19.9146     0.0000     8.0000 </r>
       <r>   -19.8118     0.0000     8.0000 </r>
       <r>   -19.7090     0.0000     8.0000 </r>
       <r>   -19.6062     0.0000     8.0000 </r>
       <r>   -19.5034     0.0000     8.0000 </r>
       <r>   -19.4006     0.0000     8.0000 </r>
       <r>   -19.2978     0.0000     8.0000 </r>
       <r>   -19.1950     0.0000     8.0000 </r>
       <r>   -19.0922     0.0000     8.0000 </r>
       <r>   -18.9894     0.0000     8.0000 </r>
       <r>   -18.8865     0.0000     8.0000 </r>
       <r>   -18.7837     0.0000     8.0000 </r>
       <r>   -18.6809     0.0000     8.0000 </r>
       <r>   -18.5781     0.0000     8.0000 </r>
       <r>   -18.4753     0.0000     8.0000 </r>
       <r>   -18.3725     0.0000     8.0000 </r>
       <r>   -18.2697     0.0000     8.0000 </r>
       <r>   -18.1669     0.0000     8.0000 </r>
       <r>   -18.0641     0.0000     8.0000 </r>
       <r>   -17.9613     0.0000     8.0000 </r>
       <r>   -17.8584     0.0000     8.0000 </r>
       <r>   -17.7556     0.0000     8.0000 </r>
       <r>   -17.6528     0.0000     8.0000 </r>
       <r>   -17.5500     0.0000     8.0000 </r>
       <r>   -17.4472     0.0000     8.0000 </r>
       <r>   -17.3444     0.0000     8.0000 </r>
       <r>   -17.2416     0.0000     8.0000 </r>
       <r>   -17.1388     0.0000     8.0000 </r>
       <r>   -17.0360     0.0000     8.0000 </r>
       <r>   -16.9332     0.0000     8.0000 </r>
       <r>   -16.8303     0.0000     8.0000 </r>
       <r>   -16.7275     0.0000     8.0000 </r>
       <r>   -16.6247     0.0000     8.0000 </r>
       <r>   -16.5219     0.0000     8.0000 </r>
       <r>   -16.4191     0.7293     8.0750 </r>
       <r>   -16.3163   128.9319    23.1444 </r>
       <r>   -16.2135   233.1754    47.9727 </r>
       <r>   -16.1107     0.0000    48.0000 </r>
       <r>   -16.0079     0.0000    48.0000 </r>
       <r>   -15.9051     0.0000    48.0000 </r>
       <r>   -15.8022     0.0000    48.0000 </r>
       <r>   -15.6994     0.0000    48.0000 </r>
       <r>   -15.5966     0.0000    48.0000 </r>
       <r>   -15.4938     0.0000    48.0000 </r>
       <r>   -15.3910     0.0000    48.0000 </r>
       <r>   -15.2882     0.0000    48.0000 </r>
       <r>   -15.1854     0.0000    48.0000 </r>
       <r>   -15.0826     0.0000    48.0000 </r>
       <r>   -14.9798     0.0000    48.0000 </r>
       <r>   -14.8770     0.0000    48.0000 </r>
       <r>   -14.7741     0.0000    48.0000 </r>
       <r>   -14.6713     0.0000    48.0000 </r>
       <r>   -14.5685     0.0000    48.0000 </r>
       <r>   -14.4657     0.0000    48.0000 </r>
       <r>   -14.3629     0.0010    48.0001 </r>
       <r>   -14.2601     6.4817    48.7775 </r>
       <r>   -14.1573    22.1424    51.0545 </r>
       <r>   -14.0545    28.0622    54.6629 </r>
       <r>   -13.9517    47.3278    59.9769 </r>
       <r>   -13.8489    40.3962    64.5976 </r>
       <r>   -13.7460    41.6750    70.1735 </r>
       <r>   -13.6432     9.7267    72.0000 </r>
       <r>   -13.5404     0.0000    72.0000 </r>
       <r>   -13.4376     0.0000    72.0000 </r>
       <r>   -13.3348     0.0000    72.0000 </r>
       <r>   -13.2320     0.0000    72.0000 </r>
       <r>   -13.1292     0.0000    72.0000 </r>
       <r>   -13.0264     0.0000    72.0000 </r>
       <r>   -12.9236     0.0000    72.0000 </r>
       <r>   -12.8208     0.0000    72.0000 </r>
       <r>   -12.7180     0.0000    72.0000 </r>
       <r>   -12.6151     0.0000    72.0000 </r>
       <r>   -12.5123     0.0000    72.0000 </r>
       <r>   -12.4095     0.0000    72.0000 </r>
       <r>   -12.3067     0.0000    72.0000 </r>
       <r>   -12.2039     0.0000    72.0000 </r>
       <r>   -12.1011     0.0000    72.0000 </r>
       <r>   -11.9983     0.0000    72.0000 </r>
       <r>   -11.8955     0.0000    72.0000 </r>
       <r>   -11.7927     0.0000    72.0000 </r>
       <r>   -11.6899     0.0000    72.0000 </r>
       <r>   -11.5870     0.0000    72.0000 </r>
       <r>   -11.4842     0.0000    72.0000 </r>
       <r>   -11.3814     0.0000    72.0000 </r>
       <r>   -11.2786     0.0000    72.0000 </r>
       <r>   -11.1758     0.0000    72.0000 </r>
       <r>   -11.0730     0.0000    72.0000 </r>
       <r>   -10.9702     0.0000    72.0000 </r>
       <r>   -10.8674     0.0000    72.0000 </r>
       <r>   -10.7646     0.0000    72.0000 </r>
       <r>   -10.6618     0.0000    72.0000 </r>
       <r>   -10.5589     0.0000    72.0000 </r>
       <r>   -10.4561     0.0000    72.0000 </r>
       <r>   -10.3533     0.0000    72.0000 </r>
       <r>   -10.2505     0.0000    72.0000 </r>
       <r>   -10.1477     0.0000    72.0000 </r>
       <r>   -10.0449     0.0000    72.0000 </r>
       <r>    -9.9421     0.0000    72.0000 </r>
       <r>    -9.8393     0.0000    72.0000 </r>
       <r>    -9.7365     0.0000    72.0000 </r>
       <r>    -9.6337     0.0000    72.0000 </r>
       <r>    -9.5308     0.0000    72.0000 </r>
       <r>    -9.4280     0.0000    72.0000 </r>
       <r>    -9.3252     0.0000    72.0000 </r>
       <r>    -9.2224     0.0000    72.0000 </r>
       <r>    -9.1196     0.0000    72.0000 </r>
       <r>    -9.0168     0.0000    72.0000 </r>
       <r>    -8.9140     0.0000    72.0000 </r>
       <r>    -8.8112     0.0000    72.0000 </r>
       <r>    -8.7084     0.0000    72.0000 </r>
       <r>    -8.6056     0.0000    72.0000 </r>
       <r>    -8.5027     0.0000    72.0000 </r>
       <r>    -8.3999     0.0000    72.0000 </r>
       <r>    -8.2971     0.0000    72.0000 </r>
       <r>    -8.1943     0.0007    72.0001 </r>
       <r>    -8.0915     1.0801    72.1111 </r>
       <r>    -7.9887     0.0000    72.1111 </r>
       <r>    -7.8859     6.4845    72.7778 </r>
       <r>    -7.7831     4.2724    73.2170 </r>
       <r>    -7.6803     8.6455    74.1111 </r>
       <r>    -7.5775     3.4058    74.4613 </r>
       <r>    -7.4746     2.1615    75.5556 </r>
       <r>    -7.3718     8.6460    76.4444 </r>
       <r>    -7.2690    49.7453    81.5588 </r>
       <r>    -7.1662   126.6049   101.4613 </r>
       <r>    -7.0634     9.7234   102.7778 </r>
       <r>    -6.9606     0.1405   102.7922 </r>
       <r>    -6.8578     0.0001   103.2222 </r>
       <r>    -6.7550     6.4844   103.8889 </r>
       <r>    -6.6522     0.0000   103.8889 </r>
       <r>    -6.5494     0.0000   103.8889 </r>
       <r>    -6.4465     0.7598   103.9670 </r>
       <r>    -6.3437     0.0000   104.0000 </r>
       <r>    -6.2409     0.0000   104.0000 </r>
       <r>    -6.1381     0.0000   104.0000 </r>
       <r>    -6.0353     0.0000   104.0000 </r>
       <r>    -5.9325     0.0000   104.0000 </r>
       <r>    -5.8297     0.0000   104.0000 </r>
       <r>    -5.7269     0.0000   104.0000 </r>
       <r>    -5.6241     0.0000   104.0000 </r>
       <r>    -5.5213     0.0000   104.0000 </r>
       <r>    -5.4185     0.0000   104.0000 </r>
       <r>    -5.3156     0.0000   104.0000 </r>
       <r>    -5.2128     0.0000   104.0000 </r>
       <r>    -5.1100     0.0000   104.0000 </r>
       <r>    -5.0072     0.0000   104.0000 </r>
       <r>    -4.9044     0.0000   104.0000 </r>
       <r>    -4.8016     0.0000   104.0000 </r>
       <r>    -4.6988     0.0000   104.0000 </r>
       <r>    -4.5960     0.0000   104.0000 </r>
       <r>    -4.4932     0.0000   104.0000 </r>
       <r>    -4.3904     0.0000   104.0000 </r>
       <r>    -4.2875     0.0000   104.0000 </r>
       <r>    -4.1847     0.0000   104.0000 </r>
       <r>    -4.0819     0.0000   104.0000 </r>
       <r>    -3.9791     0.0000   104.0000 </r>
       <r>    -3.8763     0.0000   104.0000 </r>
       <r>    -3.7735     0.0000   104.0000 </r>
       <r>    -3.6707     0.0000   104.0000 </r>
       <r>    -3.5679     0.0000   104.0000 </r>
       <r>    -3.4651     0.0000   104.0000 </r>
       <r>    -3.3623     0.0137   104.0014 </r>
       <r>    -3.2594     8.0094   104.9346 </r>
       <r>    -3.1566    19.8993   107.4903 </r>
       <r>    -3.0538     5.3673   108.6629 </r>
       <r>    -2.9510     4.3246   109.1113 </r>
       <r>    -2.8482    12.7228   110.4193 </r>
       <r>    -2.7454    19.7144   112.6935 </r>
       <r>    -2.6426     8.6451   113.9999 </r>
       <r>    -2.5398     0.0000   114.0000 </r>
       <r>    -2.4370    11.3825   115.1702 </r>
       <r>    -2.3342    17.2537   117.7738 </r>
       <r>    -2.2313     6.0121   118.3959 </r>
       <r>    -2.1285    13.3644   119.8184 </r>
       <r>    -2.0257    31.3988   123.5614 </r>
       <r>    -1.9229    21.6166   126.3335 </r>
       <r>    -1.8201     8.1842   127.2859 </r>
       <r>    -1.7173    15.9510   129.3067 </r>
       <r>    -1.6145    26.1129   133.5736 </r>
       <r>    -1.5117    20.6360   136.3438 </r>
       <r>    -1.4089    35.5394   140.3205 </r>
       <r>    -1.3061    52.1902   147.0323 </r>
       <r>    -1.2032    55.5001   154.5949 </r>
       <r>    -1.1004    43.5650   160.4789 </r>
       <r>    -0.9976    41.3139   166.3586 </r>
       <r>    -0.8948    10.8075   167.8889 </r>
       <r>    -0.7920    23.6925   170.3247 </r>
       <r>    -0.6892     6.4845   171.0000 </r>
       <r>    -0.5864     6.8925   171.7086 </r>
       <r>    -0.4836    18.7371   173.7041 </r>
       <r>    -0.3808     4.3229   174.2222 </r>
       <r>    -0.2780     4.3230   174.6667 </r>
       <r>    -0.1751     0.0000   174.6667 </r>
       <r>    -0.0723     0.0000   174.6667 </r>
       <r>     0.0305     9.5938   175.6530 </r>
       <r>     0.1333     2.1615   175.8889 </r>
       <r>     0.2361     0.0000   175.8889 </r>
       <r>     0.3389     0.0000   175.8889 </r>
       <r>     0.4417     0.0000   175.8889 </r>
       <r>     0.5445     0.0000   175.8889 </r>
       <r>     0.6473     1.0807   176.0000 </r>
       <r>     0.7501     0.0000   176.0000 </r>
       <r>     0.8529     0.0000   176.0000 </r>
       <r>     0.9558     0.0000   176.0000 </r>
       <r>     1.0586     0.0000   176.0000 </r>
       <r>     1.1614     0.0000   176.0000 </r>
       <r>     1.2642     0.0000   176.0000 </r>
       <r>     1.3670     0.0000   176.0000 </r>
       <r>     1.4698     0.0000   176.0000 </r>
       <r>     1.5726     0.0000   176.0000 </r>
       <r>     1.6754     0.0000   176.0000 </r>
       <r>     1.7782     0.0000   176.0000 </r>
       <r>     1.8810     0.0000   176.0000 </r>
       <r>     1.9839     0.0000   176.0000 </r>
       <r>     2.0867     0.0000   176.0000 </r>
       <r>     2.1895     0.0000   176.0000 </r>
       <r>     2.2923     0.0000   176.0000 </r>
       <r>     2.3951     0.0000   176.0000 </r>
       <r>     2.4979     0.0000   176.0000 </r>
       <r>     2.6007     0.0000   176.0000 </r>
       <r>     2.7035     0.0000   176.0000 </r>
       <r>     2.8063     1.1671   176.1200 </r>
       <r>     2.9091     1.0790   176.3332 </r>
       <r>     3.0120     3.9150   176.7358 </r>
       <r>     3.1148     6.6739   177.6861 </r>
       <r>     3.2176     3.1145   178.2091 </r>
       <r>     3.3204     9.7044   179.2199 </r>
       <r>     3.4232     8.6459   180.1111 </r>
       <r>     3.5260     2.1615   180.3333 </r>
       <r>     3.6288     2.9031   180.6318 </r>
       <r>     3.7316     4.3229   181.1111 </r>
       <r>     3.8344     9.7622   182.1148 </r>
       <r>     3.9372     0.6815   182.5145 </r>
       <r>     4.0401     8.4211   184.1991 </r>
       <r>     4.1429     1.2068   184.3463 </r>
       <r>     4.2457     4.3229   185.5556 </r>
       <r>     4.3485     1.6571   185.7259 </r>
       <r>     4.4513     2.1615   186.2222 </r>
       <r>     4.5541     8.4268   187.0886 </r>
       <r>     4.6569     8.5906   187.9943 </r>
       <r>     4.7597     5.0558   188.5198 </r>
       <r>     4.8625    12.9689   189.8889 </r>
       <r>     4.9653     1.6588   190.0594 </r>
       <r>     5.0682     0.0000   190.5556 </r>
       <r>     5.1710     0.0903   190.5648 </r>
       <r>     5.2738    12.7605   192.7564 </r>
       <r>     5.3766     8.6522   193.6673 </r>
       <r>     5.4794    12.9689   195.2222 </r>
       <r>     5.5822     2.5205   195.4814 </r>
       <r>     5.6850     0.0890   195.6758 </r>
       <r>     5.7878     5.3164   196.4355 </r>
       <r>     5.8906     6.4838   197.2222 </r>
       <r>     5.9934    17.4901   199.0204 </r>
       <r>     6.0963    13.9623   200.5466 </r>
       <r>     6.1991    15.4551   202.3668 </r>
       <r>     6.3019    14.6696   204.5082 </r>
       <r>     6.4047    11.9855   206.7878 </r>
       <r>     6.5075    19.3410   209.0996 </r>
       <r>     6.6103     5.7215   209.6993 </r>
       <r>     6.7131    19.3874   213.6599 </r>
       <r>     6.8159    23.7397   217.8851 </r>
       <r>     6.9187    17.4243   220.4581 </r>
       <r>     7.0215    17.3120   222.8910 </r>
       <r>     7.1243     6.1363   223.7420 </r>
       <r>     7.2272     2.1615   224.0000 </r>
       <r>     7.3300     0.0000   224.0000 </r>
       <r>     7.4328     0.0000   224.0000 </r>
       <r>     7.5356     0.0000   224.0000 </r>
       <r>     7.6384     0.0000   224.0000 </r>
       <r>     7.7412     0.0000   224.0000 </r>
       <r>     7.8440     0.0000   224.0000 </r>
       <r>     7.9468     0.0000   224.0000 </r>
       <r>     8.0496     0.0000   224.0000 </r>
       <r>     8.1524     0.0000   224.0000 </r>
       <r>     8.2553     0.0000   224.0000 </r>
       <r>     8.3581     0.0000   224.0000 </r>
       <r>     8.4609     0.0000   224.0000 </r>
       <r>     8.5637     0.0000   224.0000 </r>
      </set>
     </set>
    </array>
   </total>
   <partial>
    <array>
     <dimension dim="1">gridpoints</dimension>
     <dimension dim="2">spin</dimension>
     <dimension dim="3">ion</dimension>
     <field>energy</field>
     <field>  s  </field>
     <field>  p  </field>
     <field>  d  </field>
     <set>
      <set comment="ion 1">
       <set comment="spin 1">
        <r>   -22.2793     0.0000     0.0000     0.0000 </r>
        <r>   -22.1765     0.0000     0.0000     0.0000 </r>
        <r>   -22.0736     0.0000     0.0000     0.0000 </r>
        <r>   -21.9708     0.0000     0.0000     0.0000 </r>
        <r>   -21.8680     0.0000     0.0000     0.0000 </r>
        <r>   -21.7652     0.0000     0.0000     0.0000 </r>
[...]
        <r>  0.0002  0.0003  0.0003 </r>
        <r>  0.0033  0.1520  0.0019 </r>
        <r>  0.0006  0.0266  0.0004 </r>
        <r>  0.0033  0.1520  0.0019 </r>
        <r>  0.0006  0.0266  0.0004 </r>
        <r>  0.0130  0.0334  0.0072 </r>
        <r>  0.0022  0.0055  0.0012 </r>
        <r>  0.0130  0.0334  0.0072 </r>
        <r>  0.0022  0.0055  0.0012 </r>
        <r>  0.0000  0.0019  0.0018 </r>
        <r>  0.0001  0.0059  0.0006 </r>
        <r>  0.0000  0.0019  0.0018 </r>
        <r>  0.0001  0.0059  0.0006 </r>
        <r>  0.0004  0.0128  0.0005 </r>
        <r>  0.0001  0.0026  0.0002 </r>
        <r>  0.0003  0.0122  0.0004 </r>
        <r>  0.0001  0.0021  0.0000 </r>
       </set>
       <set comment="band 93">
        <r>  0.0000  0.0000  0.0002 </r>
        <r>  0.0000  0.0010  0.0007 </r>
        <r>  0.0000  0.0000  0.0007 </r>
        <r>  0.0000  0.0003  0.0009 </r>
        <r>  0.0024  0.0899  0.0011 </r>
        <r>  0.0030  0.0670  0.0015 </r>
        <r>  0.0024  0.0899  0.0011 </r>
        <r>  0.0030  0.0670  0.0015 </r>
        <r>  0.0002  0.0067  0.0012 </r>
        <r>  0.0001  0.0050  0.0010 </r>
        <r>  0.0002  0.0067  0.0012 </r>
        <r>  0.0001  0.0050  0.0010 </r>
        <r>  0.0001  0.0646  0.0008 </r>
        <r>  0.0109  0.0026  0.0044 </r>
        <r>  0.0001  0.0646  0.0008 </r>
        <r>  0.0109  0.0026  0.0044 </r>
        <r>  0.0000  0.0013  0.0026 </r>
        <r>  0.0000  0.0011  0.0019 </r>
        <r>  0.0000  0.0004  0.0026 </r>
        <r>  0.0000  0.0002  0.0020 </r>
       </set>
       <set comment="band 94">
        <r>  0.0000  0.0010  0.0007 </r>
        <r>  0.0000  0.0000  0.0002 </r>
        <r>  0.0000  0.0003  0.0009 </r>
        <r>  0.0000  0.0000  0.0007 </r>
        <r>  0.0030  0.0670  0.0015 </r>
        <r>  0.0024  0.0899  0.0011 </r>
        <r>  0.0030  0.0670  0.0015 </r>
        <r>  0.0024  0.0899  0.0011 </r>
        <r>  0.0001  0.0050  0.0010 </r>
        <r>  0.0002  0.0067  0.0012 </r>
        <r>  0.0001  0.0050  0.0010 </r>
        <r>  0.0002  0.0067  0.0012 </r>
        <r>  0.0109  0.0026  0.0044 </r>
        <r>  0.0001  0.0646  0.0008 </r>
        <r>  0.0109  0.0026  0.0044 </r>
        <r>  0.0001  0.0646  0.0008 </r>
        <r>  0.0000  0.0002  0.0020 </r>
        <r>  0.0000  0.0004  0.0026 </r>
        <r>  0.0000  0.0011  0.0019 </r>
        <r>  0.0000  0.0013  0.0026 </r>
       </set>
       <set comment="band 95">
        <r>  0.0002  0.0001  0.0007 </r>
        <r>  0.0006  0.0002  0.0004 </r>
        <r>  0.0001  0.0004  0.0003 </r>
        <r>  0.0002  0.0008  0.0008 </r>
        <r>  0.0026  0.0713  0.0016 </r>
        <r>  0.0031  0.0918  0.0012 </r>
        <r>  0.0026  0.0713  0.0016 </r>
        <r>  0.0031  0.0918  0.0012 </r>
        <r>  0.0000  0.0017  0.0018 </r>
        <r>  0.0002  0.0029  0.0021 </r>
        <r>  0.0000  0.0017  0.0018 </r>
        <r>  0.0002  0.0029  0.0021 </r>
        <r>  0.0033  0.0444  0.0018 </r>
        <r>  0.0090  0.0163  0.0040 </r>
        <r>  0.0033  0.0444  0.0018 </r>
        <r>  0.0090  0.0163  0.0040 </r>
        <r>  0.0003  0.0042  0.0003 </r>
        <r>  0.0006  0.0064  0.0003 </r>
        <r>  0.0005  0.0071  0.0004 </r>
        <r>  0.0007  0.0093  0.0004 </r>
       </set>
       <set comment="band 96">
        <r>  0.0006  0.0002  0.0004 </r>
        <r>  0.0002  0.0001  0.0007 </r>
        <r>  0.0002  0.0008  0.0008 </r>
        <r>  0.0001  0.0004  0.0003 </r>
        <r>  0.0031  0.0918  0.0012 </r>
        <r>  0.0026  0.0713  0.0016 </r>
        <r>  0.0031  0.0918  0.0012 </r>
        <r>  0.0026  0.0713  0.0016 </r>
        <r>  0.0002  0.0029  0.0021 </r>
        <r>  0.0000  0.0017  0.0018 </r>
        <r>  0.0002  0.0029  0.0021 </r>
        <r>  0.0000  0.0017  0.0018 </r>
        <r>  0.0090  0.0163  0.0040 </r>
        <r>  0.0033  0.0444  0.0018 </r>
        <r>  0.0090  0.0163  0.0040 </r>
        <r>  0.0033  0.0444  0.0018 </r>
        <r>  0.0007  0.0093  0.0004 </r>
        <r>  0.0005  0.0071  0.0004 </r>
        <r>  0.0006  0.0064  0.0003 </r>
        <r>  0.0003  0.0042  0.0003 </r>
       </set>
       <set comment="band 97">
        <r>  0.0000  0.0005  0.0017 </r>
        <r>  0.0000  0.0005  0.0017 </r>
        <r>  0.0000  0.0004  0.0011 </r>
        <r>  0.0000  0.0004  0.0011 </r>
        <r>  0.0012  0.0821  0.0015 </r>
        <r>  0.0036  0.0653  0.0006 </r>
        <r>  0.0012  0.0821  0.0015 </r>
        <r>  0.0036  0.0653  0.0006 </r>
        <r>  0.0040  0.0456  0.0018 </r>
        <r>  0.0036  0.0388  0.0008 </r>
        <r>  0.0040  0.0456  0.0018 </r>
        <r>  0.0036  0.0388  0.0008 </r>
        <r>  0.0003  0.0034  0.0017 </r>
        <r>  0.0003  0.0034  0.0017 </r>
        <r>  0.0003  0.0034  0.0017 </r>
        <r>  0.0003  0.0034  0.0017 </r>
        <r>  0.0000  0.0003  0.0030 </r>
        <r>  0.0000  0.0009  0.0027 </r>
        <r>  0.0000  0.0003  0.0030 </r>
        <r>  0.0000  0.0009  0.0027 </r>
       </set>
       <set comment="band 98">
        <r>  0.0000  0.0005  0.0017 </r>
        <r>  0.0000  0.0005  0.0017 </r>
        <r>  0.0000  0.0004  0.0011 </r>
        <r>  0.0000  0.0004  0.0011 </r>
        <r>  0.0036  0.0653  0.0006 </r>
        <r>  0.0012  0.0821  0.0015 </r>
        <r>  0.0036  0.0653  0.0006 </r>
        <r>  0.0012  0.0821  0.0015 </r>
        <r>  0.0036  0.0388  0.0008 </r>
        <r>  0.0040  0.0456  0.0018 </r>
        <r>  0.0036  0.0388  0.0008 </r>
        <r>  0.0040  0.0456  0.0018 </r>
        <r>  0.0003  0.0034  0.0017 </r>
        <r>  0.0003  0.0034  0.0017 </r>
        <r>  0.0003  0.0034  0.0017 </r>
        <r>  0.0003  0.0034  0.0017 </r>
        <r>  0.0000  0.0009  0.0027 </r>
        <r>  0.0000  0.0003  0.0030 </r>
        <r>  0.0000  0.0009  0.0027 </r>
        <r>  0.0000  0.0003  0.0030 </r>
       </set>
       <set comment="band 99">
        <r>  0.0000  0.0000  0.0054 </r>
        <r>  0.0000  0.0003  0.0014 </r>
        <r>  0.0000  0.0000  0.0006 </r>
        <r>  0.0000  0.0000  0.0009 </r>
        <r>  0.0000  0.0861  0.0004 </r>
        <r>  0.0000  0.0694  0.0008 </r>
        <r>  0.0000  0.0861  0.0004 </r>
        <r>  0.0000  0.0694  0.0008 </r>
        <r>  0.0000  0.0015  0.0027 </r>
        <r>  0.0000  0.0011  0.0026 </r>
        <r>  0.0000  0.0015  0.0027 </r>
        <r>  0.0000  0.0011  0.0026 </r>
        <r>  0.0000  0.0009  0.0043 </r>
        <r>  0.0002  0.0026  0.0008 </r>
        <r>  0.0000  0.0009  0.0043 </r>
        <r>  0.0002  0.0026  0.0008 </r>
        <r>  0.0000  0.0561  0.0018 </r>
        <r>  0.0000  0.0430  0.0017 </r>
        <r>  0.0000  0.0564  0.0011 </r>
        <r>  0.0000  0.0433  0.0010 </r>
       </set>
       <set comment="band 100">
        <r>  0.0000  0.0003  0.0014 </r>
        <r>  0.0000  0.0000  0.0054 </r>
        <r>  0.0000  0.0000  0.0009 </r>
        <r>  0.0000  0.0000  0.0006 </r>
        <r>  0.0000  0.0694  0.0008 </r>
        <r>  0.0000  0.0861  0.0004 </r>
        <r>  0.0000  0.0694  0.0008 </r>
        <r>  0.0000  0.0861  0.0004 </r>
        <r>  0.0000  0.0011  0.0026 </r>
        <r>  0.0000  0.0015  0.0027 </r>
        <r>  0.0000  0.0011  0.0026 </r>
        <r>  0.0000  0.0015  0.0027 </r>
        <r>  0.0002  0.0026  0.0008 </r>
        <r>  0.0000  0.0009  0.0043 </r>
        <r>  0.0002  0.0026  0.0008 </r>
        <r>  0.0000  0.0009  0.0043 </r>
        <r>  0.0000  0.0433  0.0010 </r>
        <r>  0.0000  0.0564  0.0011 </r>
        <r>  0.0000  0.0430  0.0017 </r>
        <r>  0.0000  0.0561  0.0018 </r>
       </set>
       <set comment="band 101">
        <r>  0.0189  0.0021  0.0205 </r>
        <r>  0.0012  0.0015  0.0030 </r>
        <r>  0.0084  0.0017  0.0131 </r>
        <r>  0.0005  0.0022  0.0085 </r>
        <r>  0.0000  0.0049  0.0001 </r>
        <r>  0.0001  0.0071  0.0002 </r>
        <r>  0.0000  0.0049  0.0001 </r>
        <r>  0.0001  0.0071  0.0002 </r>
        <r>  0.0014  0.0073  0.0013 </r>
        <r>  0.0032  0.0050  0.0026 </r>
        <r>  0.0014  0.0073  0.0013 </r>
        <r>  0.0032  0.0050  0.0026 </r>
        <r>  0.0020  0.0135  0.0022 </r>
        <r>  0.0001  0.0056  0.0002 </r>
        <r>  0.0020  0.0135  0.0022 </r>
        <r>  0.0001  0.0056  0.0002 </r>
        <r>  0.0009  0.0004  0.0009 </r>
        <r>  0.0022  0.0018  0.0011 </r>
        <r>  0.0014  0.0025  0.0008 </r>
        <r>  0.0027  0.0038  0.0010 </r>
       </set>
       <set comment="band 102">
        <r>  0.0012  0.0015  0.0030 </r>
        <r>  0.0189  0.0021  0.0205 </r>
        <r>  0.0005  0.0022  0.0085 </r>
        <r>  0.0084  0.0017  0.0131 </r>
        <r>  0.0001  0.0071  0.0002 </r>
        <r>  0.0000  0.0049  0.0001 </r>
        <r>  0.0001  0.0071  0.0002 </r>
        <r>  0.0000  0.0049  0.0001 </r>
        <r>  0.0032  0.0050  0.0026 </r>
        <r>  0.0014  0.0073  0.0013 </r>
        <r>  0.0032  0.0050  0.0026 </r>
        <r>  0.0014  0.0073  0.0013 </r>
        <r>  0.0001  0.0056  0.0002 </r>
        <r>  0.0020  0.0135  0.0022 </r>
        <r>  0.0001  0.0056  0.0002 </r>
        <r>  0.0020  0.0135  0.0022 </r>
        <r>  0.0027  0.0038  0.0010 </r>
        <r>  0.0014  0.0025  0.0008 </r>
        <r>  0.0022  0.0018  0.0011 </r>
        <r>  0.0009  0.0004  0.0009 </r>
       </set>
       <set comment="band 103">
        <r>  0.0004  0.0015  0.0164 </r>
        <r>  0.0016  0.0010  0.0228 </r>
        <r>  0.0015  0.0005  0.0209 </r>
        <r>  0.0061  0.0018  0.0455 </r>
        <r>  0.0002  0.0032  0.0002 </r>
        <r>  0.0001  0.0023  0.0002 </r>
        <r>  0.0002  0.0032  0.0002 </r>
        <r>  0.0001  0.0023  0.0002 </r>
        <r>  0.0001  0.0035  0.0033 </r>
        <r>  0.0001  0.0027  0.0010 </r>
        <r>  0.0001  0.0035  0.0033 </r>
        <r>  0.0001  0.0027  0.0010 </r>
        <r>  0.0000  0.0021  0.0013 </r>
        <r>  0.0001  0.0027  0.0031 </r>
        <r>  0.0000  0.0021  0.0013 </r>
        <r>  0.0001  0.0027  0.0031 </r>
        <r>  0.0065  0.0023  0.0025 </r>
        <r>  0.0022  0.0007  0.0024 </r>
        <r>  0.0043  0.0023  0.0022 </r>
        <r>  0.0000  0.0007  0.0021 </r>
       </set>
       <set comment="band 104">
        <r>  0.0016  0.0010  0.0228 </r>
        <r>  0.0004  0.0015  0.0164 </r>
        <r>  0.0061  0.0018  0.0455 </r>
        <r>  0.0015  0.0005  0.0209 </r>
        <r>  0.0001  0.0023  0.0002 </r>
        <r>  0.0002  0.0032  0.0002 </r>
        <r>  0.0001  0.0023  0.0002 </r>
        <r>  0.0002  0.0032  0.0002 </r>
        <r>  0.0001  0.0027  0.0010 </r>
        <r>  0.0001  0.0035  0.0033 </r>
        <r>  0.0001  0.0027  0.0010 </r>
        <r>  0.0001  0.0035  0.0033 </r>
        <r>  0.0001  0.0027  0.0031 </r>
        <r>  0.0000  0.0021  0.0013 </r>
        <r>  0.0001  0.0027  0.0031 </r>
        <r>  0.0000  0.0021  0.0013 </r>
        <r>  0.0000  0.0007  0.0021 </r>
        <r>  0.0043  0.0023  0.0022 </r>
        <r>  0.0022  0.0007  0.0024 </r>
        <r>  0.0065  0.0023  0.0025 </r>
       </set>
       <set comment="band 105">
        <r>  0.0003  0.0014  0.0231 </r>
        <r>  0.0005  0.0017  0.0288 </r>
        <r>  0.0038  0.0012  0.0304 </r>
        <r>  0.0055  0.0015  0.0259 </r>
        <r>  0.0001  0.0039  0.0008 </r>
        <r>  0.0002  0.0034  0.0002 </r>
        <r>  0.0001  0.0039  0.0008 </r>
        <r>  0.0002  0.0034  0.0002 </r>
        <r>  0.0001  0.0025  0.0022 </r>
        <r>  0.0003  0.0009  0.0017 </r>
        <r>  0.0001  0.0025  0.0022 </r>
        <r>  0.0003  0.0009  0.0017 </r>
        <r>  0.0009  0.0029  0.0019 </r>
        <r>  0.0013  0.0036  0.0023 </r>
        <r>  0.0009  0.0029  0.0019 </r>
        <r>  0.0013  0.0036  0.0023 </r>
        <r>  0.0009  0.0021  0.0037 </r>
        <r>  0.0015  0.0025  0.0040 </r>
        <r>  0.0014  0.0016  0.0034 </r>
        <r>  0.0020  0.0019  0.0037 </r>
       </set>
       <set comment="band 106">
        <r>  0.0005  0.0017  0.0289 </r>
        <r>  0.0003  0.0014  0.0231 </r>
        <r>  0.0055  0.0015  0.0259 </r>
        <r>  0.0038  0.0012  0.0304 </r>
        <r>  0.0002  0.0034  0.0002 </r>
        <r>  0.0001  0.0039  0.0008 </r>
        <r>  0.0002  0.0034  0.0002 </r>
        <r>  0.0001  0.0039  0.0008 </r>
        <r>  0.0003  0.0009  0.0017 </r>
        <r>  0.0001  0.0025  0.0022 </r>
        <r>  0.0003  0.0009  0.0017 </r>
        <r>  0.0001  0.0025  0.0022 </r>
        <r>  0.0013  0.0036  0.0023 </r>
        <r>  0.0009  0.0029  0.0019 </r>
        <r>  0.0013  0.0036  0.0023 </r>
        <r>  0.0009  0.0029  0.0019 </r>
        <r>  0.0020  0.0019  0.0037 </r>
        <r>  0.0014  0.0016  0.0034 </r>
        <r>  0.0015  0.0025  0.0040 </r>
        <r>  0.0009  0.0021  0.0037 </r>
       </set>
       <set comment="band 107">
        <r>  0.0000  0.0141  0.0190 </r>
        <r>  0.0000  0.0017  0.0350 </r>
        <r>  0.0000  0.0088  0.0149 </r>
        <r>  0.0000  0.0010  0.0214 </r>
        <r>  0.0000  0.0099  0.0007 </r>
        <r>  0.0000  0.0061  0.0007 </r>
        <r>  0.0000  0.0099  0.0007 </r>
        <r>  0.0000  0.0061  0.0007 </r>
        <r>  0.0029  0.0046  0.0033 </r>
        <r>  0.0036  0.0051  0.0030 </r>
        <r>  0.0029  0.0046  0.0033 </r>
        <r>  0.0036  0.0051  0.0030 </r>
        <r>  0.0034  0.0017  0.0042 </r>
        <r>  0.0004  0.0053  0.0008 </r>
        <r>  0.0034  0.0017  0.0042 </r>
        <r>  0.0004  0.0053  0.0008 </r>
        <r>  0.0000  0.0018  0.0012 </r>
        <r>  0.0000  0.0026  0.0007 </r>
        <r>  0.0000  0.0022  0.0014 </r>
        <r>  0.0000  0.0029  0.0009 </r>
       </set>
       <set comment="band 108">
        <r>  0.0000  0.0017  0.0350 </r>
        <r>  0.0000  0.0141  0.0190 </r>
        <r>  0.0000  0.0010  0.0214 </r>
        <r>  0.0000  0.0088  0.0149 </r>
        <r>  0.0000  0.0061  0.0007 </r>
        <r>  0.0000  0.0099  0.0007 </r>
        <r>  0.0000  0.0061  0.0007 </r>
        <r>  0.0000  0.0099  0.0007 </r>
        <r>  0.0036  0.0051  0.0030 </r>
        <r>  0.0029  0.0046  0.0033 </r>
        <r>  0.0036  0.0051  0.0030 </r>
        <r>  0.0029  0.0046  0.0033 </r>
        <r>  0.0004  0.0053  0.0008 </r>
        <r>  0.0034  0.0017  0.0042 </r>
        <r>  0.0004  0.0053  0.0008 </r>
        <r>  0.0034  0.0017  0.0042 </r>
        <r>  0.0000  0.0029  0.0009 </r>
        <r>  0.0000  0.0022  0.0014 </r>
        <r>  0.0000  0.0026  0.0007 </r>
        <r>  0.0000  0.0018  0.0012 </r>
       </set>
       <set comment="band 109">
        <r>  0.0014  0.0011  0.0324 </r>
        <r>  0.0017  0.0012  0.0363 </r>
        <r>  0.0017  0.0026  0.0234 </r>
        <r>  0.0020  0.0027  0.0242 </r>
        <r>  0.0000  0.0067  0.0004 </r>
        <r>  0.0000  0.0017  0.0003 </r>
        <r>  0.0000  0.0067  0.0004 </r>
        <r>  0.0000  0.0017  0.0003 </r>
        <r>  0.0005  0.0022  0.0021 </r>
        <r>  0.0008  0.0000  0.0016 </r>
        <r>  0.0005  0.0022  0.0021 </r>
        <r>  0.0008  0.0000  0.0016 </r>
        <r>  0.0004  0.0042  0.0011 </r>
        <r>  0.0005  0.0047  0.0011 </r>
        <r>  0.0004  0.0042  0.0011 </r>
        <r>  0.0005  0.0047  0.0011 </r>
        <r>  0.0028  0.0027  0.0057 </r>
        <r>  0.0004  0.0098  0.0032 </r>
        <r>  0.0027  0.0029  0.0054 </r>
        <r>  0.0003  0.0100  0.0028 </r>
       </set>
       <set comment="band 110">
        <r>  0.0017  0.0012  0.0363 </r>
        <r>  0.0014  0.0011  0.0323 </r>
        <r>  0.0020  0.0027  0.0241 </r>
        <r>  0.0017  0.0026  0.0235 </r>
        <r>  0.0000  0.0017  0.0003 </r>
        <r>  0.0000  0.0067  0.0004 </r>
        <r>  0.0000  0.0017  0.0003 </r>
        <r>  0.0000  0.0067  0.0004 </r>
        <r>  0.0008  0.0000  0.0016 </r>
        <r>  0.0005  0.0022  0.0021 </r>
        <r>  0.0008  0.0000  0.0016 </r>
        <r>  0.0005  0.0022  0.0021 </r>
        <r>  0.0005  0.0047  0.0011 </r>
        <r>  0.0004  0.0042  0.0011 </r>
        <r>  0.0005  0.0047  0.0011 </r>
        <r>  0.0004  0.0042  0.0011 </r>
        <r>  0.0003  0.0100  0.0029 </r>
        <r>  0.0027  0.0029  0.0054 </r>
        <r>  0.0004  0.0098  0.0032 </r>
        <r>  0.0028  0.0027  0.0057 </r>
       </set>
       <set comment="band 111">
        <r>  0.0000  0.0023  0.0359 </r>
        <r>  0.0000  0.0011  0.0637 </r>
        <r>  0.0000  0.0011  0.0229 </r>
        <r>  0.0000  0.0005  0.0168 </r>
        <r>  0.0000  0.0060  0.0024 </r>
        <r>  0.0000  0.0039  0.0017 </r>
        <r>  0.0000  0.0059  0.0024 </r>
        <r>  0.0000  0.0039  0.0018 </r>
        <r>  0.0000  0.0032  0.0033 </r>
        <r>  0.0000  0.0057  0.0026 </r>
        <r>  0.0000  0.0032  0.0033 </r>
        <r>  0.0000  0.0056  0.0026 </r>
        <r>  0.0005  0.0063  0.0024 </r>
        <r>  0.0002  0.0031  0.0019 </r>
        <r>  0.0005  0.0063  0.0024 </r>
        <r>  0.0002  0.0031  0.0019 </r>
        <r>  0.0000  0.0056  0.0033 </r>
        <r>  0.0000  0.0026  0.0029 </r>
        <r>  0.0000  0.0052  0.0036 </r>
        <r>  0.0000  0.0022  0.0032 </r>
       </set>
       <set comment="band 112">
        <r>  0.0000  0.0011  0.0637 </r>
        <r>  0.0000  0.0023  0.0359 </r>
        <r>  0.0000  0.0005  0.0168 </r>
        <r>  0.0000  0.0011  0.0230 </r>
        <r>  0.0000  0.0038  0.0018 </r>
        <r>  0.0000  0.0060  0.0024 </r>
        <r>  0.0000  0.0039  0.0017 </r>
        <r>  0.0000  0.0059  0.0024 </r>
        <r>  0.0000  0.0056  0.0027 </r>
        <r>  0.0000  0.0032  0.0033 </r>
        <r>  0.0000  0.0057  0.0026 </r>
        <r>  0.0000  0.0032  0.0033 </r>
        <r>  0.0002  0.0031  0.0019 </r>
        <r>  0.0005  0.0064  0.0024 </r>
        <r>  0.0002  0.0031  0.0019 </r>
        <r>  0.0005  0.0062  0.0024 </r>
        <r>  0.0000  0.0022  0.0032 </r>
        <r>  0.0000  0.0052  0.0036 </r>
        <r>  0.0000  0.0026  0.0029 </r>
        <r>  0.0000  0.0056  0.0033 </r>
       </set>
      </set>
     </set>
    </set>
   </array>
  </projected>
 </calculation>
 <structure name="finalpos" >
  <crystal>
   <varray name="basis" >
    <v>      -5.80481256      -5.90053272       0.00000000 </v>
    <v>      -5.80481256       5.90053272       0.00000000 </v>
    <v>       0.00000000       0.00000000     -11.75770536 </v>
   </varray>
   <i name="volume">    805.43777125 </i>
   <varray name="rec_basis" >
    <v>      -0.08613543      -0.08473811      -0.00000000 </v>
    <v>      -0.08613543       0.08473811       0.00000000 </v>
    <v>      -0.00000000       0.00000000      -0.08505061 </v>
   </varray>
  </crystal>
  <varray name="positions" >
   <v>       0.51932620       0.98067380       0.75000000 </v>
   <v>       0.48067380       0.01932620       0.25000000 </v>
   <v>       0.02135069       0.47864931       0.75000000 </v>
   <v>       0.97864931       0.52135069       0.25000000 </v>
   <v>       0.00000000       0.00000000       0.00000000 </v>
   <v>       0.00000000       0.00000000       0.50000000 </v>
   <v>       0.50000000       0.50000000       0.00000000 </v>
   <v>       0.50000000       0.50000000       0.50000000 </v>
   <v>       0.79131438       0.29131438       0.00000000 </v>
   <v>       0.79131438       0.29131438       0.50000000 </v>
   <v>       0.20868562       0.70868562       0.00000000 </v>
   <v>       0.20868562       0.70868562       0.50000000 </v>
   <v>       0.95991769       0.95212023       0.75000000 </v>
   <v>       0.04008231       0.04787977       0.25000000 </v>
   <v>       0.54787977       0.54008231       0.75000000 </v>
   <v>       0.45212023       0.45991769       0.25000000 </v>
   <v>       0.70963121       0.79036879       0.04342614 </v>
   <v>       0.70963121       0.79036879       0.45657386 </v>
   <v>       0.29036879       0.20963121       0.95657386 </v>
   <v>       0.29036879       0.20963121       0.54342614 </v>
  </varray>
 </structure>
</modeling>
