CsPbBr3 cubic bulk                      
           1
    -5.804813   -5.900533    0.000000
    -5.804813    5.900533    0.000000
     0.000000    0.000000  -11.757705
   Cs   Pb   Br
   4   4  12
Direct configuration=     1
   0.51932620  0.98067380  0.75000000
   0.48067380  0.01932620  0.25000000
   0.02135069  0.47864931  0.75000000
   0.97864931  0.52135069  0.25000000
   0.00000000  0.00000000  0.00000000
   0.00000000  0.00000000  0.50000000
   0.50000000  0.50000000  0.00000000
   0.50000000  0.50000000  0.50000000
   0.79131438  0.29131438  0.00000000
   0.79131438  0.29131438  0.50000000
   0.20868562  0.70868562  0.00000000
   0.20868562  0.70868562  0.50000000
   0.95991769  0.95212023  0.75000000
   0.04008231  0.04787977  0.25000000
   0.54787977  0.54008231  0.75000000
   0.45212023  0.45991769  0.25000000
   0.70963121  0.79036879  0.04342614
   0.70963121  0.79036879  0.45657386
   0.29036879  0.20963121  0.95657386
   0.29036879  0.20963121  0.54342614
