 vasp.5.4.4.18Apr17-6-g9f103f2a35 (build Jun 22 2020 09:27:21) complex           
 executed on tx2_gcc-7.3_libsci-1 date 2021.10.11  23:24:24
 running on   64 total cores
 distrk:  each k-point on   64 cores,    1 groups
 distr:  one band on NCORES_PER_BAND=   8 cores,    8 groups


--------------------------------------------------------------------------------------------------------


 INCAR:
 POTCAR:    PAW_PBE Cs_sv 08Apr2002               
 POTCAR:    PAW_PBE Pb_d 06Sep2000                
 POTCAR:    PAW_PBE Br 06Sep2000                  
 POTCAR:    PAW_PBE Cs_sv 08Apr2002               
   SHA256 =  c1463496f0f6037ed62c6012a8013a89ee9ad6ffb38599dcd6c079e7ed31779b Cs
   COPYR  = (c) Copyright 08Apr2002 Georg Kresse                                
   COPYR  = This file is part of the software VASP. Any use, copying, and all ot
   COPYR  = If you do not have a valid VASP license, you may not use, copy or di
   VRHFIN =Cs: 5s5p6s                                                           
   LEXCH  = PE                                                                  
   EATOM  =   555.6835 eV,   40.8416 Ry                                         
                                                                                
   TITEL  = PAW_PBE Cs_sv 08Apr2002                                             
   LULTRA =        F    use ultrasoft PP ?                                      
   IUNSCR =        1    unscreen: 0-lin 1-nonlin 2-no                           
   RPACOR =    2.200    partial core radius                                     
   POMASS =  132.900; ZVAL   =    9.000    mass and valenz                      
   RCORE  =    2.500    outmost cutoff radius                                   
   RWIGS  =    2.500; RWIGS  =    1.323    wigner-seitz radius (au A)           
   ENMAX  =  220.318; ENMIN  =  165.238 eV                                      
   RCLOC  =    2.207    cutoff for local pot                                    
   LCOR   =        T    correct aug charges                                     
   LPAW   =        T    paw PP                                                  
   EAUG   =  407.933                                                            
   DEXC   =    0.000                                                            
   RMAX   =    2.554    core radius for proj-oper                               
   RAUG   =    1.300    factor for augmentation sphere                          
   RDEP   =    2.590    radius for radial grids                                 
   RDEPT  =    2.117    core radius for aug-charge                              
                                                                                
   Atomic configuration                                                         
   13 entries                                                                   
     n  l   j            E        occ.                                          
     1  0  0.50    -35790.1377   2.0000                                         
     2  0  0.50     -5613.6201   2.0000                                         
     2  1  1.50     -5035.0101   6.0000                                         
     3  0  0.50     -1167.0767   2.0000                                         
     3  1  1.50      -980.9754   6.0000                                         
     3  2  2.50      -708.0703  10.0000                                         
     4  0  0.50      -220.2386   2.0000                                         
     4  1  1.50      -160.7596   6.0000                                         
     4  2  2.50       -74.2354  10.0000                                         
     5  0  0.50       -26.7287   2.0000                                         
     6  0  0.50        -2.0862   1.0000                                         
     5  1  1.50       -13.5159   6.0000                                         
     5  2  2.50        -0.4136   0.0000                                         
   Description                                                                  
     l       E           TYP  RCUT    TYP  RCUT                                 
     0    -26.7287425     23  1.900                                             
     0     -2.0862306     23  1.900                                             
     1    -13.5158719     23  2.500                                             
     1     -2.7211652     23  2.500                                             
     2     -0.4136171     23  2.500                                             
  local pseudopotential read in
  partial core-charges read in
  partial kinetic energy density read in
  atomic valenz-charges read in
  non local Contribution for L=           0  read in
    real space projection operators read in
  non local Contribution for L=           0  read in
    real space projection operators read in
  non local Contribution for L=           1  read in
    real space projection operators read in
  non local Contribution for L=           1  read in
    real space projection operators read in
  non local Contribution for L=           2  read in
    real space projection operators read in
    PAW grid and wavefunctions read in

   number of l-projection  operators is LMAX  =           5
   number of lm-projection operators is LMMAX =          13

 POTCAR:    PAW_PBE Pb_d 06Sep2000                
   SHA256 =  fb885b08f0fba73a15f6a6b0e39bd200c13ec96ef97cf3ecd8e63bade5137abd Pb
   COPYR  = (c) Copyright 06Sep2000 Georg Kresse                                
   COPYR  = This file is part of the software VASP. Any use, copying, and all ot
   COPYR  = If you do not have a valid VASP license, you may not use, copy or di
   VRHFIN =Pb:                                                                  
   LEXCH  = PE                                                                  
   EATOM  =  1661.6185 eV,  122.1255 Ry                                         
                                                                                
   TITEL  = PAW_PBE Pb_d 06Sep2000                                              
   LULTRA =        F    use ultrasoft PP ?                                      
   IUNSCR =        1    unscreen: 0-lin 1-nonlin 2-no                           
   RPACOR =    2.200    partial core radius                                     
   POMASS =  207.200; ZVAL   =   14.000    mass and valenz                      
   RCORE  =    2.500    outmost cutoff radius                                   
   RWIGS  =    3.260; RWIGS  =    1.725    wigner-seitz radius (au A)           
   ENMAX  =  237.835; ENMIN  =  178.376 eV                                      
   ICORE  =        3    local potential                                         
   LCOR   =        T    correct aug charges                                     
   LPAW   =        T    paw PP                                                  
   EAUG   =  391.914                                                            
   DEXC   =    0.000                                                            
   RMAX   =    2.565    core radius for proj-oper                               
   RAUG   =    1.300    factor for augmentation sphere                          
   RDEP   =    2.643    radius for radial grids                                 
   RDEPT  =    2.092    core radius for aug-charge                              
                                                                                
   Atomic configuration                                                         
   16 entries                                                                   
     n  l   j            E        occ.                                          
     1  0  0.50    -88091.8466   2.0000                                         
     2  0  0.50    -15753.4197   2.0000                                         
     2  1  1.50    -13508.1797   6.0000                                         
     3  0  0.50     -3781.7194   2.0000                                         
     3  1  1.50     -3138.2529   6.0000                                         
     3  2  2.50     -2483.2977  10.0000                                         
     4  0  0.50      -856.2895   2.0000                                         
     4  1  1.50      -645.4942   6.0000                                         
     4  2  2.50      -401.8768  10.0000                                         
     4  3  3.50      -132.9059  14.0000                                         
     5  0  0.50      -144.0950   2.0000                                         
     5  1  1.50       -85.7879   6.0000                                         
     5  2  2.50       -21.1769  10.0000                                         
     6  0  0.50       -12.0372   2.0000                                         
     6  1  1.50        -3.4971   2.0000                                         
     5  3  2.50        -2.7212   0.0000                                         
   Description                                                                  
     l       E           TYP  RCUT    TYP  RCUT                                 
     2    -21.1768523     23  2.500                                             
     2      1.3605826     23  2.500                                             
     0    -12.0371562     23  2.500                                             
     0     13.6058260     23  2.500                                             
     1     -3.4971339     23  2.500                                             
     1     13.6058260     23  2.500                                             
     3     -1.3605826      7  2.500                                             
  local pseudopotential read in
  partial core-charges read in
  partial kinetic energy density read in
  atomic valenz-charges read in
  non local Contribution for L=           2  read in
    real space projection operators read in
  non local Contribution for L=           2  read in
    real space projection operators read in
  non local Contribution for L=           0  read in
    real space projection operators read in
  non local Contribution for L=           0  read in
    real space projection operators read in
  non local Contribution for L=           1  read in
    real space projection operators read in
  non local Contribution for L=           1  read in
    real space projection operators read in
    PAW grid and wavefunctions read in

   number of l-projection  operators is LMAX  =           6
   number of lm-projection operators is LMMAX =          18

 POTCAR:    PAW_PBE Br 06Sep2000                  
   SHA256 =  96a73d2954943bbee26f4990d676cc6c3bf44b8dd2c75cd4b3b825d8403f0103 Br
   COPYR  = (c) Copyright 06Sep2000 Georg Kresse                                
   COPYR  = This file is part of the software VASP. Any use, copying, and all ot
   COPYR  = If you do not have a valid VASP license, you may not use, copy or di
   VRHFIN =Br: s2p5                                                             
   LEXCH  = PE                                                                  
   EATOM  =   368.4488 eV,   27.0802 Ry                                         
                                                                                
   TITEL  = PAW_PBE Br 06Sep2000                                                
   LULTRA =        F    use ultrasoft PP ?                                      
   IUNSCR =        1    unscreen: 0-lin 1-nonlin 2-no                           
   RPACOR =    1.900    partial core radius                                     
   POMASS =   79.904; ZVAL   =    7.000    mass and valenz                      
   RCORE  =    2.100    outmost cutoff radius                                   
   RWIGS  =    2.200; RWIGS  =    1.164    wigner-seitz radius (au A)           
   ENMAX  =  216.285; ENMIN  =  162.214 eV                                      
   ICORE  =        3    local potential                                         
   LCOR   =        T    correct aug charges                                     
   LPAW   =        T    paw PP                                                  
   EAUG   =  503.852                                                            
   DEXC   =    0.000                                                            
   RMAX   =    2.139    core radius for proj-oper                               
   RAUG   =    1.300    factor for augmentation sphere                          
   RDEP   =    2.186    radius for radial grids                                 
   RDEPT  =    1.890    core radius for aug-charge                              
                                                                                
   Atomic configuration                                                         
   10 entries                                                                   
     n  l   j            E        occ.                                          
     1  0  0.50    -13316.2796   2.0000                                         
     2  0  0.50     -1732.8239   2.0000                                         
     2  1  1.50     -1528.2193   6.0000                                         
     3  0  0.50      -238.0460   2.0000                                         
     3  1  1.50      -173.4609   6.0000                                         
     3  2  2.50       -66.7132  10.0000                                         
     4  0  0.50       -20.1334   2.0000                                         
     4  1  0.50        -7.8591   5.0000                                         
     4  2  2.50        -8.1635   0.0000                                         
     4  3  2.50        -8.1635   0.0000                                         
   Description                                                                  
     l       E           TYP  RCUT    TYP  RCUT                                 
     0    -20.1333652     23  2.100                                             
     0    -21.4939478     23  2.100                                             
     1     -7.8591052     23  2.100                                             
     1     -3.1608434     23  2.100                                             
     2     -8.1634956     23  2.100                                             
     3     -1.3605826      7  2.100                                             
  local pseudopotential read in
  partial core-charges read in
  partial kinetic energy density read in
  atomic valenz-charges read in
  non local Contribution for L=           0  read in
    real space projection operators read in
  non local Contribution for L=           0  read in
    real space projection operators read in
  non local Contribution for L=           1  read in
    real space projection operators read in
  non local Contribution for L=           1  read in
    real space projection operators read in
  non local Contribution for L=           2  read in
    real space projection operators read in
    PAW grid and wavefunctions read in

   number of l-projection  operators is LMAX  =           5
   number of lm-projection operators is LMMAX =          13

 Optimization of the real space projectors (new method)

 maximal supplied QI-value         = 15.12
 optimisation between [QCUT,QGAM] = [  8.77, 17.69] = [ 21.53, 87.61] Ry 
 Optimized for a Real-space Cutoff    1.85 Angstroem

   l    n(q)    QCUT    max X(q) W(low)/X(q) W(high)/X(q)  e(spline) 
   0     10     8.768    25.322    0.81E-04    0.51E-04    0.48E-06
   0     10     8.768    99.187    0.78E-04    0.50E-04    0.47E-06
   1      9     8.768    11.761    0.21E-03    0.20E-03    0.37E-06
   1      9     8.768     8.275    0.24E-03    0.22E-03    0.41E-06
   2      9     8.768     3.829    0.23E-04    0.15E-03    0.18E-06
 Optimization of the real space projectors (new method)

 maximal supplied QI-value         = 15.12
 optimisation between [QCUT,QGAM] = [  8.77, 17.69] = [ 21.53, 87.61] Ry 
 Optimized for a Real-space Cutoff    1.59 Angstroem

   l    n(q)    QCUT    max X(q) W(low)/X(q) W(high)/X(q)  e(spline) 
   2      7     8.768     3.846    0.48E-04    0.11E-03    0.11E-06
   2      7     8.768     8.593    0.20E-03    0.22E-04    0.24E-06
   0      8     8.768    20.082    0.68E-04    0.88E-04    0.41E-07
   0      8     8.768     8.597    0.89E-04    0.13E-03    0.59E-07
   1      8     8.768    33.223    0.15E-03    0.53E-04    0.87E-07
   1      8     8.768    15.899    0.14E-03    0.44E-04    0.78E-07
 Optimization of the real space projectors (new method)

 maximal supplied QI-value         = 17.95
 optimisation between [QCUT,QGAM] = [  8.80, 17.59] = [ 21.67, 86.68] Ry 
 Optimized for a Real-space Cutoff    1.59 Angstroem

   l    n(q)    QCUT    max X(q) W(low)/X(q) W(high)/X(q)  e(spline) 
   0      8     8.797   175.082    0.82E-04    0.14E-03    0.89E-07
   0      8     8.797   174.004    0.79E-04    0.14E-03    0.86E-07
   1      8     8.797    54.315    0.16E-03    0.14E-04    0.30E-06
   1      8     8.797    42.441    0.16E-03    0.14E-04    0.30E-06
   2      7     8.797     3.596    0.92E-04    0.15E-03    0.85E-07
  PAW_PBE Cs_sv 08Apr2002               :
 energy of atom  1       EATOM= -555.6835
 kinetic energy error for atom=    0.0069 (will be added to EATOM!!)
  PAW_PBE Pb_d 06Sep2000                :
 energy of atom  2       EATOM=-1661.6185
 kinetic energy error for atom=    0.0498 (will be added to EATOM!!)
  PAW_PBE Br 06Sep2000                  :
 energy of atom  3       EATOM= -368.4488
 kinetic energy error for atom=    0.0072 (will be added to EATOM!!)


 POSCAR: Cs8 Pb8 Br23                            
  positions in direct lattice
  No initial velocities read in

 METAGGA = SCAN     LMAXTAU =  6    LMIXTAU =  F

 exchange correlation table for  LEXCH =        8
   RHO(1)=    0.500       N(1)  =     2000
   RHO(2)=  100.500       N(2)  =     4000

 VTST: version 3.2, (02/03/18)

 CHAIN: initializing optimizer
 
 OPT: Using VASP Conjugate-Gradient optimizer
 CHAIN: Read ICHAIN            0

 POSCAR: Cs8 Pb8 Br23                            
  positions in direct lattice
  No initial velocities read in



--------------------------------------------------------------------------------------------------------


 ion  position               nearest neighbor table
   1  0.249  0.236  0.193-
   2  0.776  0.245  0.719-
   3  0.777  0.765  0.257-
   4  0.193  0.748  0.772-
   5  0.300  0.251  0.731-
   6  0.785  0.245  0.227-
   7  0.736  0.752  0.806-
   8  0.214  0.753  0.290-
   9  0.998  0.001  0.998-  34 2.94  19 2.95  21 2.98  31 3.00  29 3.00  28 3.03
  10  0.500  0.002  0.484-  20 2.86  32 2.96  33 2.99  27 3.00  30 3.02
  11  0.493  0.002  0.993-  33 2.97  17 2.98  31 2.98  29 3.00  22 3.03  27 3.09
  12  0.006  0.000  0.507-  23 2.95  30 2.97  28 2.98  18 2.99  34 3.00  32 3.08
  13  0.501  0.507  0.004-  37 2.86  35 2.95  17 2.97  22 2.97  24 3.01
  14  0.007  0.493  0.507-  23 2.95  38 2.98  18 2.99  25 3.03  36 3.03  26 3.04
  15  1.000  0.498  0.001-  19 2.95  26 2.95  21 2.98  24 2.99  35 3.04  38 3.05
  16  0.508  0.487  0.508-  39 2.80  25 2.97  36 3.00  20 3.03  37 3.07
  17  0.465  0.753  0.951-  13 2.97  11 2.98
  18  0.981  0.746  0.494-  14 2.99  12 2.99
  19  0.968  0.250  0.979-  15 2.95   9 2.95
  20  0.456  0.240  0.451-  10 2.86  16 3.03
  21  0.017  0.750  0.032-   9 2.98  15 2.98
  22  0.518  0.256  0.034-  13 2.97  11 3.03
  23  0.039  0.247  0.549-  14 2.95  12 2.95
  24  0.248  0.471  0.955-  15 2.99  13 3.01
  25  0.753  0.451  0.460-  16 2.97  14 3.03
  26  0.944  0.528  0.754-  15 2.95  14 3.04
  27  0.546  0.032  0.738-  10 3.00  11 3.09
  28  0.035  0.021  0.255-  12 2.98   9 3.03
  29  0.747  0.979  0.038-  11 3.00   9 3.00
  30  0.256  0.958  0.548-  12 2.97  10 3.02
  31  0.243  0.030  0.937-  11 2.98   9 3.00
  32  0.747  0.029  0.449-  10 2.96  12 3.08
  33  0.432  0.976  0.235-  11 2.97  10 2.99
  34  0.943  0.970  0.751-   9 2.94  12 3.00
  35  0.750  0.529  0.057-  13 2.95  15 3.04
  36  0.261  0.532  0.554-  16 3.00  14 3.03
  37  0.553  0.478  0.769-  13 2.86  16 3.07
  38  0.050  0.471  0.258-  14 2.98  15 3.05
  39  0.504  0.667  0.351-  16 2.80


IMPORTANT INFORMATION: All symmetrisations will be switched off!
NOSYMM: (Re-)initialisation of all symmetry stuff for point group C_1.



 KPOINTS: 1x1x1                                   

Automatic generation of k-mesh.
Space group operators:
 irot       det(A)        alpha          n_x          n_y          n_z        tau_x        tau_y        tau_z
    1     1.000000     0.000001     1.000000     0.000000     0.000000     0.000000     0.000000     0.000000
 
 Subroutine IBZKPT returns following result:
 ===========================================
 
 Found      8 irreducible k-points:
 
 Following reciprocal coordinates:
            Coordinates               Weight
  0.000000  0.000000  0.000000      1.000000
  0.500000  0.000000  0.000000      1.000000
  0.000000  0.500000  0.000000      1.000000
  0.500000  0.500000  0.000000      1.000000
  0.000000  0.000000  0.500000      1.000000
  0.500000  0.000000  0.500000      1.000000
  0.000000  0.500000  0.500000      1.000000
  0.500000  0.500000  0.500000      1.000000
 
 Following cartesian coordinates:
            Coordinates               Weight
 -0.000000  0.000000  0.000000      1.000000
  0.029563  0.000000  0.031093      1.000000
 -0.000000  0.042626  0.000000      1.000000
  0.029563  0.042626  0.031093      1.000000
 -0.029563  0.000000  0.031093      1.000000
  0.000000  0.000000  0.062187      1.000000
 -0.029563  0.042626  0.031093      1.000000
  0.000000  0.042626  0.062187      1.000000
 


--------------------------------------------------------------------------------------------------------




 Dimension of arrays:
   k-points           NKPTS =      8   k-points in BZ     NKDIM =      8   number of bands    NBANDS=    208
   number of dos      NEDOS =    301   number of ions     NIONS =     39
   non local maximal  LDIM  =      6   non local SUM 2l+1 LMDIM =     18
   total plane-waves  NPLWV = 343000
   max r-space proj   IRMAX =   5734   max aug-charges    IRDMAX=  91523
   dimension x,y,z NGX =    70 NGY =   70 NGZ =   70
   dimension x,y,z NGXF=   140 NGYF=  140 NGZF=  140
   support grid    NGXF=   280 NGYF=  280 NGZF=  280
   ions per type =               8   8  23
   NGX,Y,Z   is equivalent  to a cutoff of   9.97,  9.92,  9.97 a.u.
   NGXF,Y,Z  is equivalent  to a cutoff of  19.95, 19.84, 19.95 a.u.

 SYSTEM =  CsPbBr3 cubic bulk                      
 POSCAR =  Cs8 Pb8 Br23                            

 Startparameter for this run:
   NWRITE =      2    write-flag & timer
   PREC   = accura    normal or accurate (medium, high low for compatibility)
   ISTART =      0    job   : 0-new  1-cont  2-samecut
   ICHARG =      2    charge: 1-file 2-atom 10-const
   ISPIN  =      1    spin polarized calculation?
   LNONCOLLINEAR =      F non collinear calculations
   LSORBIT =      F    spin-orbit coupling
   INIWAV =      1    electr: 0-lowe 1-rand  2-diag
   LASPH  =      T    aspherical Exc in radial PAW
   METAGGA=      F    non-selfconsistent MetaGGA calc.

 Electronic Relaxation 1
   ENCUT  =  300.0 eV  22.05 Ry    4.70 a.u.  16.48 16.57 16.48*2*pi/ulx,y,z
   ENINI  =  300.0     initial cutoff
   ENAUG  =  503.9 eV  augmentation charge cutoff
   NELM   =    200;   NELMIN=  2; NELMDL= -5     # of ELM steps 
   EDIFF  = 0.1E-05   stopping-criterion for ELM
   LREAL  =      T    real-space projection
   NLSPLINE    = F    spline interpolate recip. space projectors
   LCOMPAT=      F    compatible to vasp.4.4
   GGA_COMPAT  = T    GGA compatible to vasp.4.4-vasp.4.6
   LMAXPAW     = -100 max onsite density
   LMAXMIX     =    2 max onsite mixed and CHGCAR
   VOSKOWN=      0    Vosko Wilk Nusair interpolation
   ROPT   =   -0.00025  -0.00025  -0.00025
 Ionic relaxation
   EDIFFG = -.1E-01   stopping-criterion for IOM
   NSW    =      0    number of steps for IOM
   NBLOCK =      1;   KBLOCK =      1    inner block; outer block 
   IBRION =     -1    ionic relax: 0-MD 1-quasi-New 2-CG
   NFREE  =      1    steps in history (QN), initial steepest desc. (CG)
   ISIF   =      2    stress and relaxation
   IWAVPR =     10    prediction:  0-non 1-charg 2-wave 3-comb
   ISYM   =      0    0-nonsym 1-usesym 2-fastsym
   LCORR  =      T    Harris-Foulkes like correction to forces

   POTIM  = 0.5000    time-step for ionic-motion
   TEIN   =    0.0    initial temperature
   TEBEG  =    0.0;   TEEND  =   0.0 temperature during run
   SMASS  =  -3.00    Nose mass-parameter (am)
   estimated Nose-frequenzy (Omega)   =  0.10E-29 period in steps =****** mass=  -0.311E-26a.u.
   SCALEE = 1.0000    scale energy and forces
   NPACO  =    256;   APACO  = 16.0  distance and # of slots for P.C.
   PSTRESS=    0.0 pullay stress

  Mass of Ions in am
   POMASS = 132.90207.20 79.90
  Ionic Valenz
   ZVAL   =   9.00 14.00  7.00
  Atomic Wigner-Seitz radii
   RWIGS  =  -1.00 -1.00 -1.00
  virtual crystal weights 
   VCA    =   1.00  1.00  1.00
   NELECT =     344.0000    total number of electrons
   NUPDOWN=       0.0000    fix difference up-down

 DOS related values:
   EMIN   =  10.00;   EMAX   =-10.00  energy-range for DOS
   EFERMI =   0.00
   ISMEAR =     0;   SIGMA  =   0.01  broadening in eV -4-tet -1-fermi 0-gaus

 Electronic relaxation 2 (details)
   IALGO  =     38    algorithm
   LDIAG  =      T    sub-space diagonalisation (order eigenvalues)
   LSUBROT=      F    optimize rotation matrix (better conditioning)
   TURBO    =      0    0=normal 1=particle mesh
   IRESTART =      0    0=no restart 2=restart with 2 vectors
   NREBOOT  =      0    no. of reboots
   NMIN     =      0    reboot dimension
   EREF     =   0.00    reference energy to select bands
   IMIX   =      4    mixing-type and parameters
     AMIX     =   0.40;   BMIX     =  1.00
     AMIX_MAG =   1.60;   BMIX_MAG =  1.00
     AMIN     =   0.10
     WC   =   100.;   INIMIX=   1;  MIXPRE=   1;  MAXMIX= -45

 Intra band minimization:
   WEIMIN = 0.0000     energy-eigenvalue tresh-hold
   EBREAK =  0.12E-08  absolut break condition
   DEPER  =   0.30     relativ break condition  

   TIME   =   0.40     timestep for ELM

  volume/ion in A,a.u.               =      40.90       276.00
  Fermi-wavevector in a.u.,A,eV,Ry     =   0.981747  1.855232 13.113654  0.963826
  Thomas-Fermi vector in A             =   2.112777

 Write flags
   LWAVE        =      F    write WAVECAR
   LDOWNSAMPLE  =      F    k-point downsampling of WAVECAR
   LCHARG       =      F    write CHGCAR
   LVTOT        =      F    write LOCPOT, total local potential
   LVHAR        =      T    write LOCPOT, Hartree potential only
   LELF         =      F    write electronic localiz. function (ELF)
   LORBIT       =     10    0 simple, 1 ext, 2 COOP (PROOUT), +10 PAW based schemes


 Dipole corrections
   LMONO  =      F    monopole corrections only (constant potential shift)
   LDIPOL =      F    correct potential (dipole corrections)
   IDIPOL =      0    1-x, 2-y, 3-z, 4-all directions 
   EPSILON=  1.0000000 bulk dielectric constant

 Exchange correlation treatment:
   GGA     =    --    GGA type
   LEXCH   =     8    internal setting for exchange type
   VOSKOWN=      0    Vosko Wilk Nusair interpolation
   LHFCALC =     F    Hartree Fock is set to
   LHFONE  =     F    Hartree Fock one center treatment
   AEXX    =    0.0000 exact exchange contribution

 Linear response parameters
   LEPSILON=     F    determine dielectric tensor
   LRPA    =     F    only Hartree local field effects (RPA)
   LNABLA  =     F    use nabla operator in PAW spheres
   LVEL    =     F    velocity operator in full k-point grid
   LINTERFAST=   F  fast interpolation
   KINTER  =     0    interpolate to denser k-point grid
   CSHIFT  =0.1000    complex shift for real part using Kramers Kronig
   OMEGAMAX=  -1.0    maximum frequency
   DEG_THRESHOLD= 0.2000000E-02 threshold for treating states as degnerate
   RTIME   =   -0.100 relaxation time in fs
  (WPLASMAI=    0.000 imaginary part of plasma frequency in eV, 0.658/RTIME)
   DFIELD  = 0.0000000 0.0000000 0.0000000 field for delta impulse in time

 Orbital magnetization related:
   ORBITALMAG=     F  switch on orbital magnetization
   LCHIMAG   =     F  perturbation theory with respect to B field
   DQ        =  0.001000  dq finite difference perturbation B field
   LLRAUG    =     F  two centre corrections for induced B field



--------------------------------------------------------------------------------------------------------


 Static calculation
 charge density and potential will be updated during run
 non-spin polarized calculation
 Variant of blocked Davidson
 Davidson routine will perform the subspace rotation
 perform sub-space diagonalisation
    after iterative eigenvector-optimisation
 modified Broyden-mixing scheme, WC =      100.0
 initial mixing is a Kerker type mixing with AMIX =  0.4000 and BMIX =      1.0000
 Hartree-type preconditioning will be used
 using additional bands           36
 real space projection scheme for non local part
 use partial core corrections
 calculate Harris-corrections to forces   (improved forces if not selfconsistent)
 use gradient corrections 
 use of overlap-Matrix (Vanderbilt PP)
 Gauss-broadening in eV      SIGMA  =   0.01


--------------------------------------------------------------------------------------------------------


  energy-cutoff  :      300.00
  volume of cell :     1595.09
      direct lattice vectors                 reciprocal lattice vectors
     8.456489000  0.000000000  8.040301000     0.059126193 -0.000000000  0.062186727
     0.000000000 11.729847000  0.000000000     0.000000000  0.085252604 -0.000000000
    -8.456489000  0.000000000  8.040301000    -0.059126193  0.000000000  0.062186727

  length of vectors
    11.668703715 11.729847000 11.668703715     0.085808482  0.085252604  0.085808482



 k-points in units of 2pi/SCALE and weight: 1x1x1                                   
  -0.00000000  0.00000000  0.00000000       0.125
   0.02956310  0.00000000  0.03109336       0.125
  -0.00000000  0.04262630  0.00000000       0.125
   0.02956310  0.04262630  0.03109336       0.125
  -0.02956310  0.00000000  0.03109336       0.125
   0.00000000  0.00000000  0.06218673       0.125
  -0.02956310  0.04262630  0.03109336       0.125
   0.00000000  0.04262630  0.06218673       0.125

 k-points in reciprocal lattice and weights: 1x1x1                                   
   0.00000000  0.00000000  0.00000000       0.125
   0.50000000  0.00000000  0.00000000       0.125
   0.00000000  0.50000000  0.00000000       0.125
   0.50000000  0.50000000  0.00000000       0.125
   0.00000000  0.00000000  0.50000000       0.125
   0.50000000  0.00000000  0.50000000       0.125
   0.00000000  0.50000000  0.50000000       0.125
   0.50000000  0.50000000  0.50000000       0.125

 position of ions in fractional coordinates (direct lattice) 
   0.24884200  0.23590000  0.19262500
   0.77562300  0.24479500  0.71929400
   0.77711100  0.76459900  0.25719000
   0.19289700  0.74818900  0.77174100
   0.30031400  0.25146500  0.73114900
   0.78494500  0.24511400  0.22711800
   0.73641800  0.75175600  0.80583800
   0.21428600  0.75265800  0.28994200
   0.99822500  0.00070900  0.99769000
   0.49957200  0.00156700  0.48447500
   0.49308200  0.00150600  0.99262400
   0.00596600  0.00026400  0.50655100
   0.50127200  0.50718100  0.00402600
   0.00663200  0.49274800  0.50664100
   0.99993400  0.49797800  0.00092200
   0.50762100  0.48675900  0.50826300
   0.46515000  0.75265600  0.95062100
   0.98133600  0.74644400  0.49431200
   0.96819100  0.24971300  0.97871200
   0.45606100  0.23983200  0.45122000
   0.01650200  0.74980700  0.03187400
   0.51760900  0.25592600  0.03413700
   0.03903200  0.24660700  0.54890900
   0.24818400  0.47079600  0.95526000
   0.75273000  0.45067300  0.46033700
   0.94426100  0.52795600  0.75370700
   0.54634600  0.03247100  0.73798400
   0.03473500  0.02141600  0.25548900
   0.74726300  0.97942300  0.03841700
   0.25577100  0.95827700  0.54801900
   0.24274800  0.02996800  0.93669000
   0.74740300  0.02872900  0.44894500
   0.43231200  0.97629400  0.23513200
   0.94296600  0.96970700  0.75093400
   0.75038500  0.52879000  0.05719900
   0.26100400  0.53165100  0.55397600
   0.55318600  0.47768900  0.76924400
   0.05003000  0.47051500  0.25836400
   0.50403200  0.66711200  0.35055600

 position of ions in cartesian coordinates  (Angst):
   0.47539844  2.76707091  3.54952756
   0.47634557  2.87140790 12.01958265
   4.39670622  8.96862929  8.31609136
  -4.89498792  8.77614250  7.75597988
  -3.64335144  2.94964598  8.29327299
   4.71725789  2.87514972  8.13729115
  -0.58704947  8.81798286 12.40020246
  -0.63978413  8.82856318  4.05414489
   0.00452422  0.00831646 16.04775737
   0.12766761  0.01838067  7.91203408
  -4.22437143  0.01766515 11.94552344
  -4.23319155  0.00309668  4.12079095
   4.20495533  5.94915553  4.06274801
  -4.22832061  5.77985865  4.12686942
   8.44813399  5.84120575  8.04718350
  -0.00542907  5.70960860  8.16801314
  -4.10538017  8.82853972 11.38322499
   4.11851310  8.75567391 11.86465409
  -0.08897072  2.92909528 15.65368614
   0.04093786  2.81319267  7.29481233
  -0.12999315  8.79512139  0.38895760
   4.08847565  3.00197282  4.43620392
  -4.31176924  2.89266238  4.72722261
  -5.97938042  5.52236505  9.67605200
   2.47261819  5.28632534  9.75342381
   1.61141780  6.19284310 13.65217381
  -1.62058464  0.38087986 10.32639978
  -1.86680377  0.25120640  2.33348832
   5.99434840 11.48848194  6.31710369
  -2.47139200 11.24044259  6.46271354
  -5.86831289  0.35152005  9.48303653
   2.52390679  0.33698677  9.61899802
   1.66745050 11.45177925  5.36645066
   1.62391650 11.37451474 13.61946586
   5.86191978  6.20262580  6.49321844
  -2.47751450  6.23618489  6.55268451
  -1.82709210  5.60321888 10.63273525
  -1.76177418  5.51906896  2.47958059
   1.29786811  7.82512169  6.87114475



--------------------------------------------------------------------------------------------------------


 k-point  1 :   0.0000 0.0000 0.0000  plane waves:   18809
 k-point  2 :   0.5000 0.0000 0.0000  plane waves:   18808
 k-point  3 :   0.0000 0.5000 0.0000  plane waves:   18794
 k-point  4 :   0.5000 0.5000 0.0000  plane waves:   18804
 k-point  5 :   0.0000 0.0000 0.5000  plane waves:   18808
 k-point  6 :   0.5000 0.0000 0.5000  plane waves:   18790
 k-point  7 :   0.0000 0.5000 0.5000  plane waves:   18804
 k-point  8 :   0.5000 0.5000 0.5000  plane waves:   18800

 maximum and minimum number of plane-waves per node :      2389     2304

 maximum number of plane-waves:     18809
 maximum index in each direction: 
   IXMAX=   16   IYMAX=   16   IZMAX=   16
   IXMIN=  -16   IYMIN=  -17   IZMIN=  -16


 real space projection operators:
  total allocation   :      16727.80 KBytes
  max/ min on nodes  :       2194.37       1835.61


 parallel 3D FFT for wavefunctions:
    minimum data exchange during FFTs selected (reduces bandwidth)
 parallel 3D FFT for charge:
    minimum data exchange during FFTs selected (reduces bandwidth)


 total amount of memory used by VASP MPI-rank0    60663. kBytes
=======================================================================

   base      :      30000. kBytes
   nonlr-proj:       6498. kBytes
   fftplans  :       8423. kBytes
   grid      :       7465. kBytes
   one-center:         77. kBytes
   wavefun   :       8200. kBytes

     INWAV:  cpu time    0.0000: real time    0.0000
 Broyden mixing: mesh for mixing (old mesh)
   NGX = 33   NGY = 33   NGZ = 33
  (NGX  =140   NGY  =140   NGZ  =140)
  gives a total of  35937 points

 initial charge density was supplied:
 charge density of overlapping atoms calculated
 number of electron     345.0000000 magnetization 
 keeping initial charge density in first step


--------------------------------------------------------------------------------------------------------


 Maximum index for non-local projection operator          725
 Maximum index for augmentation-charges         3073 (set IRDMAX)


--------------------------------------------------------------------------------------------------------


 First call to EWALD:  gamma=   0.152
 Maximum number of real-space cells 3x 3x 3
 Maximum number of reciprocal cells 3x 3x 3

    FEWALD:  cpu time    0.0038: real time    0.0038


--------------------------------------- Iteration      1(   1)  ---------------------------------------


    POTLOK:  cpu time    0.2622: real time    0.2773
    SETDIJ:  cpu time    1.2010: real time    1.2011
     EDDAV:  cpu time   16.6857: real time   16.6923
       DOS:  cpu time    0.0007: real time    0.0007
    --------------------------------------------
      LOOP:  cpu time   18.1497: real time   18.1714

 eigenvalue-minimisations  :  3480
 total energy-change (2. order) : 0.1336682E+04  (-0.1105516E+05)
 number of electron     345.0000000 magnetization 
 augmentation part      345.0000000 magnetization 

 Free energy of the ion-electron system (eV)
  ---------------------------------------------------
  alpha Z        PSCENC =       872.70583573
  Ewald energy   TEWEN  =    -17892.30425046
  -Hartree energ DENC   =     -7463.51503155
  -exchange      EXHF   =         0.00000000
  -V(xc)+E(xc)   XCENC  =       908.14975480
  PAW double counting   =     21345.28103884   -22405.85761495
  entropy T*S    EENTRO =        -0.00025559
  eigenvalues    EBANDS =      -239.89647849
  atomic energy  EATOM  =     26212.11861568
  Solvation  Ediel_sol  =         0.00000000
  ---------------------------------------------------
  free energy    TOTEN  =      1336.68161401 eV

  energy without entropy =     1336.68186960  energy(sigma->0) =     1336.68174181


--------------------------------------------------------------------------------------------------------




--------------------------------------- Iteration      1(   2)  ---------------------------------------


     EDDAV:  cpu time   18.5055: real time   18.5671
       DOS:  cpu time    0.0004: real time    0.0004
    --------------------------------------------
      LOOP:  cpu time   18.5058: real time   18.5675

 eigenvalue-minimisations  :  4088
 total energy-change (2. order) :-0.2447346E+04  (-0.2359149E+04)
 number of electron     345.0000000 magnetization 
 augmentation part      345.0000000 magnetization 

 Free energy of the ion-electron system (eV)
  ---------------------------------------------------
  alpha Z        PSCENC =       872.70583573
  Ewald energy   TEWEN  =    -17892.30425046
  -Hartree energ DENC   =     -7463.51503155
  -exchange      EXHF   =         0.00000000
  -V(xc)+E(xc)   XCENC  =       908.14975480
  PAW double counting   =     21345.28103884   -22405.85761495
  entropy T*S    EENTRO =        -0.00000000
  eigenvalues    EBANDS =     -2687.24243368
  atomic energy  EATOM  =     26212.11861568
  Solvation  Ediel_sol  =         0.00000000
  ---------------------------------------------------
  free energy    TOTEN  =     -1110.66408559 eV

  energy without entropy =    -1110.66408559  energy(sigma->0) =    -1110.66408559


--------------------------------------------------------------------------------------------------------




--------------------------------------- Iteration      1(   3)  ---------------------------------------


     EDDAV:  cpu time   19.5208: real time   19.5544
       DOS:  cpu time    0.0004: real time    0.0004
    --------------------------------------------
      LOOP:  cpu time   19.5212: real time   19.5548

 eigenvalue-minimisations  :  4432
 total energy-change (2. order) :-0.3641309E+03  (-0.3621392E+03)
 number of electron     345.0000000 magnetization 
 augmentation part      345.0000000 magnetization 

 Free energy of the ion-electron system (eV)
  ---------------------------------------------------
  alpha Z        PSCENC =       872.70583573
  Ewald energy   TEWEN  =    -17892.30425046
  -Hartree energ DENC   =     -7463.51503155
  -exchange      EXHF   =         0.00000000
  -V(xc)+E(xc)   XCENC  =       908.14975480
  PAW double counting   =     21345.28103884   -22405.85761495
  entropy T*S    EENTRO =        -0.00000000
  eigenvalues    EBANDS =     -3051.37334489
  atomic energy  EATOM  =     26212.11861568
  Solvation  Ediel_sol  =         0.00000000
  ---------------------------------------------------
  free energy    TOTEN  =     -1474.79499679 eV

  energy without entropy =    -1474.79499679  energy(sigma->0) =    -1474.79499679


--------------------------------------------------------------------------------------------------------




--------------------------------------- Iteration      1(   4)  ---------------------------------------


     EDDAV:  cpu time   18.1152: real time   18.1564
       DOS:  cpu time    0.0004: real time    0.0004
    --------------------------------------------
      LOOP:  cpu time   18.1156: real time   18.1568

 eigenvalue-minimisations  :  3952
 total energy-change (2. order) :-0.1219283E+02  (-0.1215949E+02)
 number of electron     345.0000000 magnetization 
 augmentation part      345.0000000 magnetization 

 Free energy of the ion-electron system (eV)
  ---------------------------------------------------
  alpha Z        PSCENC =       872.70583573
  Ewald energy   TEWEN  =    -17892.30425046
  -Hartree energ DENC   =     -7463.51503155
  -exchange      EXHF   =         0.00000000
  -V(xc)+E(xc)   XCENC  =       908.14975480
  PAW double counting   =     21345.28103884   -22405.85761495
  entropy T*S    EENTRO =        -0.00000000
  eigenvalues    EBANDS =     -3063.56617623
  atomic energy  EATOM  =     26212.11861568
  Solvation  Ediel_sol  =         0.00000000
  ---------------------------------------------------
  free energy    TOTEN  =     -1486.98782814 eV

  energy without entropy =    -1486.98782814  energy(sigma->0) =    -1486.98782814


--------------------------------------------------------------------------------------------------------




--------------------------------------- Iteration      1(   5)  ---------------------------------------


     EDDAV:  cpu time   19.4358: real time   19.4832
       DOS:  cpu time    0.0005: real time    0.0005
    CHARGE:  cpu time    2.7171: real time    2.7172
    MIXING:  cpu time    0.0015: real time    0.0015
    --------------------------------------------
      LOOP:  cpu time   22.1549: real time   22.2024

 eigenvalue-minimisations  :  4416
 total energy-change (2. order) :-0.5466087E+00  (-0.5463726E+00)
 number of electron     343.9999998 magnetization 
 augmentation part       -5.0350391 magnetization 

 Broyden mixing:
  rms(total) = 0.10054E+01    rms(broyden)= 0.10047E+01
  rms(prec ) = 0.13990E+01
  weight for this iteration     100.00

 Free energy of the ion-electron system (eV)
  ---------------------------------------------------
  alpha Z        PSCENC =       872.70583573
  Ewald energy   TEWEN  =    -17892.30425046
  -Hartree energ DENC   =     -7463.51503155
  -exchange      EXHF   =         0.00000000
  -V(xc)+E(xc)   XCENC  =       908.14975480
  PAW double counting   =     21345.28103884   -22405.85761495
  entropy T*S    EENTRO =        -0.00000000
  eigenvalues    EBANDS =     -3064.11278492
  atomic energy  EATOM  =     26212.11861568
  Solvation  Ediel_sol  =         0.00000000
  ---------------------------------------------------
  free energy    TOTEN  =     -1487.53443683 eV

  energy without entropy =    -1487.53443683  energy(sigma->0) =    -1487.53443683


--------------------------------------------------------------------------------------------------------




--------------------------------------- Iteration      1(   6)  ---------------------------------------


    POTLOK:  cpu time    0.2685: real time    0.3263
    SETDIJ:  cpu time    1.1996: real time    1.1996
     EDDAV:  cpu time   19.1403: real time   19.1410
       DOS:  cpu time    0.0005: real time    0.0005
    CHARGE:  cpu time    2.6968: real time    2.6969
    MIXING:  cpu time    0.0016: real time    0.0016
    --------------------------------------------
      LOOP:  cpu time   23.3073: real time   23.3660

 eigenvalue-minimisations  :  4304
 total energy-change (2. order) : 0.7775945E+02  (-0.2368916E+01)
 number of electron     343.9999998 magnetization 
 augmentation part       -3.6477865 magnetization 

 Broyden mixing:
  rms(total) = 0.71736E+00    rms(broyden)= 0.71727E+00
  rms(prec ) = 0.90108E+00
  weight for this iteration     100.00

 eigenvalues of (default mixing * dielectric matrix)
  average eigenvalue GAMMA=   1.1819
  1.1819

 Free energy of the ion-electron system (eV)
  ---------------------------------------------------
  alpha Z        PSCENC =       872.70583573
  Ewald energy   TEWEN  =    -17892.30425046
  -Hartree energ DENC   =     -7443.53621429
  -exchange      EXHF   =         0.00000000
  -V(xc)+E(xc)   XCENC  =       936.12032148
  PAW double counting   =     21621.84035305   -22680.43658947
  entropy T*S    EENTRO =        -0.00000000
  eigenvalues    EBANDS =     -3036.28306335
  atomic energy  EATOM  =     26212.11861568
  Solvation  Ediel_sol  =         0.00000000
  ---------------------------------------------------
  free energy    TOTEN  =     -1409.77499164 eV

  energy without entropy =    -1409.77499164  energy(sigma->0) =    -1409.77499164


--------------------------------------------------------------------------------------------------------




--------------------------------------- Iteration      1(   7)  ---------------------------------------


    POTLOK:  cpu time    0.2998: real time    0.3213
    SETDIJ:  cpu time    1.1987: real time    1.1988
     EDDAV:  cpu time   18.5593: real time   18.5602
       DOS:  cpu time    0.0005: real time    0.0005
    CHARGE:  cpu time    2.7057: real time    2.7058
    MIXING:  cpu time    0.0016: real time    0.0016
    --------------------------------------------
      LOOP:  cpu time   22.7656: real time   22.7882

 eigenvalue-minimisations  :  4104
 total energy-change (2. order) : 0.5185858E+00  (-0.8696214E+00)
 number of electron     343.9999998 magnetization 
 augmentation part       -3.0807551 magnetization 

 Broyden mixing:
  rms(total) = 0.37281E+00    rms(broyden)= 0.37279E+00
  rms(prec ) = 0.41594E+00
  weight for this iteration     100.00

 eigenvalues of (default mixing * dielectric matrix)
  average eigenvalue GAMMA=   1.2990
  1.2990  1.2990

 Free energy of the ion-electron system (eV)
  ---------------------------------------------------
  alpha Z        PSCENC =       872.70583573
  Ewald energy   TEWEN  =    -17892.30425046
  -Hartree energ DENC   =     -7485.10394607
  -exchange      EXHF   =         0.00000000
  -V(xc)+E(xc)   XCENC  =       941.09419654
  PAW double counting   =     22229.05672391   -23285.61245573
  entropy T*S    EENTRO =        -0.00000000
  eigenvalues    EBANDS =     -3001.21112542
  atomic energy  EATOM  =     26212.11861568
  Solvation  Ediel_sol  =         0.00000000
  ---------------------------------------------------
  free energy    TOTEN  =     -1409.25640582 eV

  energy without entropy =    -1409.25640582  energy(sigma->0) =    -1409.25640582


--------------------------------------------------------------------------------------------------------




--------------------------------------- Iteration      1(   8)  ---------------------------------------


    POTLOK:  cpu time    0.2547: real time    0.3217
    SETDIJ:  cpu time    1.2002: real time    1.2002
     EDDAV:  cpu time   18.0341: real time   18.0348
       DOS:  cpu time    0.0004: real time    0.0004
    CHARGE:  cpu time    2.6985: real time    2.6987
    MIXING:  cpu time    0.0019: real time    0.0019
    --------------------------------------------
      LOOP:  cpu time   22.1898: real time   22.2577

 eigenvalue-minimisations  :  3928
 total energy-change (2. order) :-0.1759215E+00  (-0.4577631E-01)
 number of electron     343.9999998 magnetization 
 augmentation part       -3.1746267 magnetization 

 Broyden mixing:
  rms(total) = 0.21715E+00    rms(broyden)= 0.21714E+00
  rms(prec ) = 0.24726E+00
  weight for this iteration     100.00

 eigenvalues of (default mixing * dielectric matrix)
  average eigenvalue GAMMA=   1.6828
  1.1473  1.2739  2.6274

 Free energy of the ion-electron system (eV)
  ---------------------------------------------------
  alpha Z        PSCENC =       872.70583573
  Ewald energy   TEWEN  =    -17892.30425046
  -Hartree energ DENC   =     -7491.15101984
  -exchange      EXHF   =         0.00000000
  -V(xc)+E(xc)   XCENC  =       941.79520944
  PAW double counting   =     22457.82278577   -23514.72685361
  entropy T*S    EENTRO =        -0.00000000
  eigenvalues    EBANDS =     -2995.69265001
  atomic energy  EATOM  =     26212.11861568
  Solvation  Ediel_sol  =         0.00000000
  ---------------------------------------------------
  free energy    TOTEN  =     -1409.43232731 eV

  energy without entropy =    -1409.43232731  energy(sigma->0) =    -1409.43232731


--------------------------------------------------------------------------------------------------------




--------------------------------------- Iteration      1(   9)  ---------------------------------------


    POTLOK:  cpu time    0.2875: real time    0.3200
    SETDIJ:  cpu time    1.1999: real time    1.1999
     EDDAV:  cpu time   17.4737: real time   17.4746
       DOS:  cpu time    0.0005: real time    0.0005
    CHARGE:  cpu time    2.6980: real time    2.6982
    MIXING:  cpu time    0.0016: real time    0.0016
    --------------------------------------------
      LOOP:  cpu time   21.6612: real time   21.6948

 eigenvalue-minimisations  :  3736
 total energy-change (2. order) :-0.6739342E-01  (-0.1817814E-01)
 number of electron     343.9999998 magnetization 
 augmentation part       -3.2128509 magnetization 

 Broyden mixing:
  rms(total) = 0.45648E-01    rms(broyden)= 0.45645E-01
  rms(prec ) = 0.55517E-01
  weight for this iteration     100.00

 eigenvalues of (default mixing * dielectric matrix)
  average eigenvalue GAMMA=   1.4653
  2.5245  1.2453  1.2453  0.8463

 Free energy of the ion-electron system (eV)
  ---------------------------------------------------
  alpha Z        PSCENC =       872.70583573
  Ewald energy   TEWEN  =    -17892.30425046
  -Hartree energ DENC   =     -7498.52413804
  -exchange      EXHF   =         0.00000000
  -V(xc)+E(xc)   XCENC  =       943.70661501
  PAW double counting   =     22788.19902375   -23845.91229754
  entropy T*S    EENTRO =        -0.00000000
  eigenvalues    EBANDS =     -2989.48912485
  atomic energy  EATOM  =     26212.11861568
  Solvation  Ediel_sol  =         0.00000000
  ---------------------------------------------------
  free energy    TOTEN  =     -1409.49972073 eV

  energy without entropy =    -1409.49972073  energy(sigma->0) =    -1409.49972073


--------------------------------------------------------------------------------------------------------




--------------------------------------- Iteration      1(  10)  ---------------------------------------


    POTLOK:  cpu time    0.2820: real time    0.3177
    SETDIJ:  cpu time    1.1991: real time    1.1991
     EDDAV:  cpu time   19.3914: real time   19.3924
       DOS:  cpu time    0.0004: real time    0.0004
    CHARGE:  cpu time    2.6942: real time    2.6944
    MIXING:  cpu time    0.0017: real time    0.0016
    --------------------------------------------
      LOOP:  cpu time   23.5687: real time   23.6055

 eigenvalue-minimisations  :  4392
 total energy-change (2. order) :-0.3929978E-02  (-0.2459272E-02)
 number of electron     343.9999998 magnetization 
 augmentation part       -3.2004813 magnetization 

 Broyden mixing:
  rms(total) = 0.33046E-01    rms(broyden)= 0.33044E-01
  rms(prec ) = 0.41886E-01
  weight for this iteration     100.00

 eigenvalues of (default mixing * dielectric matrix)
  average eigenvalue GAMMA=   1.3026
  2.4156  1.3136  1.3136  0.8276  0.6425

 Free energy of the ion-electron system (eV)
  ---------------------------------------------------
  alpha Z        PSCENC =       872.70583573
  Ewald energy   TEWEN  =    -17892.30425046
  -Hartree energ DENC   =     -7496.91601982
  -exchange      EXHF   =         0.00000000
  -V(xc)+E(xc)   XCENC  =       943.56752272
  PAW double counting   =     22760.42807973   -23818.21750815
  entropy T*S    EENTRO =        -0.00000000
  eigenvalues    EBANDS =     -2990.88592615
  atomic energy  EATOM  =     26212.11861568
  Solvation  Ediel_sol  =         0.00000000
  ---------------------------------------------------
  free energy    TOTEN  =     -1409.50365070 eV

  energy without entropy =    -1409.50365070  energy(sigma->0) =    -1409.50365070


--------------------------------------------------------------------------------------------------------




--------------------------------------- Iteration      1(  11)  ---------------------------------------


    POTLOK:  cpu time    0.2931: real time    0.2968
    SETDIJ:  cpu time    1.1979: real time    1.1979
     EDDAV:  cpu time   17.3623: real time   17.3634
       DOS:  cpu time    0.0010: real time    0.0010
    CHARGE:  cpu time    2.7062: real time    2.7063
    MIXING:  cpu time    0.0018: real time    0.0018
    --------------------------------------------
      LOOP:  cpu time   21.5623: real time   21.5672

 eigenvalue-minimisations  :  3696
 total energy-change (2. order) :-0.2110733E-02  (-0.2931031E-03)
 number of electron     343.9999998 magnetization 
 augmentation part       -3.1993275 magnetization 

 Broyden mixing:
  rms(total) = 0.15737E-01    rms(broyden)= 0.15737E-01
  rms(prec ) = 0.23927E-01
  weight for this iteration     100.00

 eigenvalues of (default mixing * dielectric matrix)
  average eigenvalue GAMMA=   1.5976
  2.7437  2.7437  1.1993  1.1993  0.8499  0.8499

 Free energy of the ion-electron system (eV)
  ---------------------------------------------------
  alpha Z        PSCENC =       872.70583573
  Ewald energy   TEWEN  =    -17892.30425046
  -Hartree energ DENC   =     -7495.68219806
  -exchange      EXHF   =         0.00000000
  -V(xc)+E(xc)   XCENC  =       943.50829615
  PAW double counting   =     22744.98479525   -23802.96341329
  entropy T*S    EENTRO =        -0.00000000
  eigenvalues    EBANDS =     -2991.87344244
  atomic energy  EATOM  =     26212.11861568
  Solvation  Ediel_sol  =         0.00000000
  ---------------------------------------------------
  free energy    TOTEN  =     -1409.50576144 eV

  energy without entropy =    -1409.50576144  energy(sigma->0) =    -1409.50576144


--------------------------------------------------------------------------------------------------------




--------------------------------------- Iteration      1(  12)  ---------------------------------------


    POTLOK:  cpu time    0.2676: real time    0.3189
    SETDIJ:  cpu time    1.2009: real time    1.2009
     EDDAV:  cpu time   17.3223: real time   17.3230
       DOS:  cpu time    0.0009: real time    0.0009
    CHARGE:  cpu time    2.7031: real time    2.7031
    MIXING:  cpu time    0.0021: real time    0.0021
    --------------------------------------------
      LOOP:  cpu time   21.4968: real time   21.5489

 eigenvalue-minimisations  :  3688
 total energy-change (2. order) :-0.3118400E-02  (-0.5625906E-03)
 number of electron     343.9999998 magnetization 
 augmentation part       -3.2029187 magnetization 

 Broyden mixing:
  rms(total) = 0.10589E-01    rms(broyden)= 0.10588E-01
  rms(prec ) = 0.13565E-01
  weight for this iteration     100.00

 eigenvalues of (default mixing * dielectric matrix)
  average eigenvalue GAMMA=   1.5831
  2.8187  2.8187  1.3045  1.3045  0.8926  0.9714  0.9714

 Free energy of the ion-electron system (eV)
  ---------------------------------------------------
  alpha Z        PSCENC =       872.70583573
  Ewald energy   TEWEN  =    -17892.30425046
  -Hartree energ DENC   =     -7495.02029963
  -exchange      EXHF   =         0.00000000
  -V(xc)+E(xc)   XCENC  =       943.54546705
  PAW double counting   =     22739.33775224   -23797.61670718
  entropy T*S    EENTRO =        -0.00000000
  eigenvalues    EBANDS =     -2992.27529327
  atomic energy  EATOM  =     26212.11861568
  Solvation  Ediel_sol  =         0.00000000
  ---------------------------------------------------
  free energy    TOTEN  =     -1409.50887984 eV

  energy without entropy =    -1409.50887984  energy(sigma->0) =    -1409.50887984


--------------------------------------------------------------------------------------------------------




--------------------------------------- Iteration      1(  13)  ---------------------------------------


    POTLOK:  cpu time    0.2899: real time    0.3212
    SETDIJ:  cpu time    1.2010: real time    1.2011
     EDDAV:  cpu time   19.5670: real time   19.5679
       DOS:  cpu time    0.0006: real time    0.0006
    CHARGE:  cpu time    2.7036: real time    2.7037
    MIXING:  cpu time    0.0019: real time    0.0019
    --------------------------------------------
      LOOP:  cpu time   23.7640: real time   23.7963

 eigenvalue-minimisations  :  4448
 total energy-change (2. order) : 0.3107483E-03  (-0.1521035E-03)
 number of electron     343.9999998 magnetization 
 augmentation part       -3.2033090 magnetization 

 Broyden mixing:
  rms(total) = 0.51586E-02    rms(broyden)= 0.51580E-02
  rms(prec ) = 0.61467E-02
  weight for this iteration     100.00

 eigenvalues of (default mixing * dielectric matrix)
  average eigenvalue GAMMA=   1.5482
  3.1545  2.5339  1.4063  1.3536  1.0992  1.0992  0.9495  0.7896

 Free energy of the ion-electron system (eV)
  ---------------------------------------------------
  alpha Z        PSCENC =       872.70583573
  Ewald energy   TEWEN  =    -17892.30425046
  -Hartree energ DENC   =     -7496.06418823
  -exchange      EXHF   =         0.00000000
  -V(xc)+E(xc)   XCENC  =       943.60758189
  PAW double counting   =     22738.30889000   -23796.53843405
  entropy T*S    EENTRO =        -0.00000000
  eigenvalues    EBANDS =     -2991.34261966
  atomic energy  EATOM  =     26212.11861568
  Solvation  Ediel_sol  =         0.00000000
  ---------------------------------------------------
  free energy    TOTEN  =     -1409.50856909 eV

  energy without entropy =    -1409.50856909  energy(sigma->0) =    -1409.50856909


--------------------------------------------------------------------------------------------------------




--------------------------------------- Iteration      1(  14)  ---------------------------------------


    POTLOK:  cpu time    0.2779: real time    0.3230
    SETDIJ:  cpu time    1.2005: real time    1.2006
     EDDAV:  cpu time   17.7556: real time   17.7563
       DOS:  cpu time    0.0004: real time    0.0004
    CHARGE:  cpu time    2.7069: real time    2.7070
    MIXING:  cpu time    0.0018: real time    0.0018
    --------------------------------------------
      LOOP:  cpu time   21.9431: real time   21.9891

 eigenvalue-minimisations  :  3832
 total energy-change (2. order) : 0.4814770E-04  (-0.4490221E-04)
 number of electron     343.9999998 magnetization 
 augmentation part       -3.2025053 magnetization 

 Broyden mixing:
  rms(total) = 0.26356E-02    rms(broyden)= 0.26346E-02
  rms(prec ) = 0.34582E-02
  weight for this iteration     100.00

 eigenvalues of (default mixing * dielectric matrix)
  average eigenvalue GAMMA=   1.5344
  3.2059  2.1847  2.1847  1.1052  1.1052  1.1415  1.1415  0.8706  0.8706

 Free energy of the ion-electron system (eV)
  ---------------------------------------------------
  alpha Z        PSCENC =       872.70583573
  Ewald energy   TEWEN  =    -17892.30425046
  -Hartree energ DENC   =     -7496.36744739
  -exchange      EXHF   =         0.00000000
  -V(xc)+E(xc)   XCENC  =       943.62630098
  PAW double counting   =     22739.94937950   -23798.15735865
  entropy T*S    EENTRO =        -0.00000000
  eigenvalues    EBANDS =     -2991.07959633
  atomic energy  EATOM  =     26212.11861568
  Solvation  Ediel_sol  =         0.00000000
  ---------------------------------------------------
  free energy    TOTEN  =     -1409.50852094 eV

  energy without entropy =    -1409.50852094  energy(sigma->0) =    -1409.50852094


--------------------------------------------------------------------------------------------------------




--------------------------------------- Iteration      1(  15)  ---------------------------------------


    POTLOK:  cpu time    0.2686: real time    0.3198
    SETDIJ:  cpu time    1.2006: real time    1.2006
     EDDAV:  cpu time   18.3390: real time   18.3398
       DOS:  cpu time    0.0005: real time    0.0005
    CHARGE:  cpu time    2.7069: real time    2.7070
    MIXING:  cpu time    0.0019: real time    0.0019
    --------------------------------------------
      LOOP:  cpu time   22.5174: real time   22.5696

 eigenvalue-minimisations  :  4032
 total energy-change (2. order) : 0.1131999E-04  (-0.3328841E-05)
 number of electron     343.9999998 magnetization 
 augmentation part       -3.2025574 magnetization 

 Broyden mixing:
  rms(total) = 0.14787E-02    rms(broyden)= 0.14777E-02
  rms(prec ) = 0.20988E-02
  weight for this iteration     100.00

 eigenvalues of (default mixing * dielectric matrix)
  average eigenvalue GAMMA=   1.6283
  3.7338  2.4909  2.4909  1.2902  1.2902  1.1925  1.1925  0.9044  0.9044  0.7931

 Free energy of the ion-electron system (eV)
  ---------------------------------------------------
  alpha Z        PSCENC =       872.70583573
  Ewald energy   TEWEN  =    -17892.30425046
  -Hartree energ DENC   =     -7496.50861467
  -exchange      EXHF   =         0.00000000
  -V(xc)+E(xc)   XCENC  =       943.63069972
  PAW double counting   =     22740.53180952   -23798.73077268
  entropy T*S    EENTRO =        -0.00000000
  eigenvalues    EBANDS =     -2990.95183246
  atomic energy  EATOM  =     26212.11861568
  Solvation  Ediel_sol  =         0.00000000
  ---------------------------------------------------
  free energy    TOTEN  =     -1409.50850962 eV

  energy without entropy =    -1409.50850962  energy(sigma->0) =    -1409.50850962


--------------------------------------------------------------------------------------------------------




--------------------------------------- Iteration      1(  16)  ---------------------------------------


    POTLOK:  cpu time    0.3025: real time    0.3166
    SETDIJ:  cpu time    1.1997: real time    1.1997
     EDDAV:  cpu time   17.4671: real time   17.4679
       DOS:  cpu time    0.0005: real time    0.0005
    CHARGE:  cpu time    2.6985: real time    2.6986
    MIXING:  cpu time    0.0019: real time    0.0019
    --------------------------------------------
      LOOP:  cpu time   21.6701: real time   21.6852

 eigenvalue-minimisations  :  3728
 total energy-change (2. order) :-0.4877993E-04  (-0.3465909E-05)
 number of electron     343.9999998 magnetization 
 augmentation part       -3.2022472 magnetization 

 Broyden mixing:
  rms(total) = 0.61505E-03    rms(broyden)= 0.61262E-03
  rms(prec ) = 0.78453E-03
  weight for this iteration     100.00

 eigenvalues of (default mixing * dielectric matrix)
  average eigenvalue GAMMA=   1.6846
  4.2456  2.7821  2.1480  2.1480  1.1222  1.1222  1.1432  1.1432  0.9305  0.9305
  0.8158

 Free energy of the ion-electron system (eV)
  ---------------------------------------------------
  alpha Z        PSCENC =       872.70583573
  Ewald energy   TEWEN  =    -17892.30425046
  -Hartree energ DENC   =     -7496.58032958
  -exchange      EXHF   =         0.00000000
  -V(xc)+E(xc)   XCENC  =       943.62556015
  PAW double counting   =     22740.02310867   -23798.21567773
  entropy T*S    EENTRO =        -0.00000000
  eigenvalues    EBANDS =     -2990.88142085
  atomic energy  EATOM  =     26212.11861568
  Solvation  Ediel_sol  =         0.00000000
  ---------------------------------------------------
  free energy    TOTEN  =     -1409.50855840 eV

  energy without entropy =    -1409.50855840  energy(sigma->0) =    -1409.50855840


--------------------------------------------------------------------------------------------------------




--------------------------------------- Iteration      1(  17)  ---------------------------------------


    POTLOK:  cpu time    0.2581: real time    0.3124
    SETDIJ:  cpu time    1.2005: real time    1.2005
     EDDAV:  cpu time   18.3512: real time   18.3520
       DOS:  cpu time    0.0004: real time    0.0004
    CHARGE:  cpu time    2.7034: real time    2.7036
    MIXING:  cpu time    0.0020: real time    0.0020
    --------------------------------------------
      LOOP:  cpu time   22.5156: real time   22.5709

 eigenvalue-minimisations  :  4024
 total energy-change (2. order) :-0.1157579E-04  (-0.9939744E-06)
 number of electron     343.9999998 magnetization 
 augmentation part       -3.2021367 magnetization 

 Broyden mixing:
  rms(total) = 0.40648E-03    rms(broyden)= 0.40284E-03
  rms(prec ) = 0.44733E-03
  weight for this iteration     100.00

 eigenvalues of (default mixing * dielectric matrix)
  average eigenvalue GAMMA=   1.6684
  4.4005  3.0014  2.1598  2.1598  1.2253  1.2253  1.1353  1.1353  0.9863  0.9863
  0.8025  0.8025

 Free energy of the ion-electron system (eV)
  ---------------------------------------------------
  alpha Z        PSCENC =       872.70583573
  Ewald energy   TEWEN  =    -17892.30425046
  -Hartree energ DENC   =     -7496.56664060
  -exchange      EXHF   =         0.00000000
  -V(xc)+E(xc)   XCENC  =       943.62157553
  PAW double counting   =     22739.94876529   -23798.13914571
  entropy T*S    EENTRO =        -0.00000000
  eigenvalues    EBANDS =     -2990.89332544
  atomic energy  EATOM  =     26212.11861568
  Solvation  Ediel_sol  =         0.00000000
  ---------------------------------------------------
  free energy    TOTEN  =     -1409.50856998 eV

  energy without entropy =    -1409.50856998  energy(sigma->0) =    -1409.50856998


--------------------------------------------------------------------------------------------------------




--------------------------------------- Iteration      1(  18)  ---------------------------------------


    POTLOK:  cpu time    0.2726: real time    0.3197
    SETDIJ:  cpu time    1.2010: real time    1.2010
     EDDAV:  cpu time   14.9545: real time   14.9551
       DOS:  cpu time    0.0007: real time    0.0007
    CHARGE:  cpu time    2.7001: real time    2.7002
    MIXING:  cpu time    0.0020: real time    0.0020
    --------------------------------------------
      LOOP:  cpu time   19.1309: real time   19.1787

 eigenvalue-minimisations  :  2840
 total energy-change (2. order) : 0.7504917E-05  (-0.2235437E-06)
 number of electron     343.9999998 magnetization 
 augmentation part       -3.2021618 magnetization 

 Broyden mixing:
  rms(total) = 0.17155E-03    rms(broyden)= 0.16275E-03
  rms(prec ) = 0.19207E-03
  weight for this iteration     100.00

 eigenvalues of (default mixing * dielectric matrix)
  average eigenvalue GAMMA=   1.6745
  4.5986  2.9447  2.4260  2.0812  1.3233  1.3233  1.1648  1.1648  1.0427  1.0427
  0.8111  0.9224  0.9224

 Free energy of the ion-electron system (eV)
  ---------------------------------------------------
  alpha Z        PSCENC =       872.70583573
  Ewald energy   TEWEN  =    -17892.30425046
  -Hartree energ DENC   =     -7496.57175198
  -exchange      EXHF   =         0.00000000
  -V(xc)+E(xc)   XCENC  =       943.62164670
  PAW double counting   =     22740.03701526   -23798.22604286
  entropy T*S    EENTRO =        -0.00000000
  eigenvalues    EBANDS =     -2990.88963054
  atomic energy  EATOM  =     26212.11861568
  Solvation  Ediel_sol  =         0.00000000
  ---------------------------------------------------
  free energy    TOTEN  =     -1409.50856247 eV

  energy without entropy =    -1409.50856247  energy(sigma->0) =    -1409.50856247


--------------------------------------------------------------------------------------------------------




--------------------------------------- Iteration      1(  19)  ---------------------------------------


    POTLOK:  cpu time    0.2632: real time    0.3191
    SETDIJ:  cpu time    1.2012: real time    1.2012
     EDDAV:  cpu time   13.2744: real time   13.2749
       DOS:  cpu time    0.0004: real time    0.0004
    CHARGE:  cpu time    2.7012: real time    2.7013
    MIXING:  cpu time    0.0022: real time    0.0022
    --------------------------------------------
      LOOP:  cpu time   17.4426: real time   17.4992

 eigenvalue-minimisations  :  2248
 total energy-change (2. order) : 0.4496319E-05  (-0.3487962E-07)
 number of electron     343.9999998 magnetization 
 augmentation part       -3.2021870 magnetization 

 Broyden mixing:
  rms(total) = 0.10106E-03    rms(broyden)= 0.85326E-04
  rms(prec ) = 0.99940E-04
  weight for this iteration     100.00
  WARNING: grid for Broyden might be to small

 eigenvalues of (default mixing * dielectric matrix)
  average eigenvalue GAMMA=   1.6431
  4.6948  2.9980  2.4833  1.7813  1.2623  1.2623  1.5040  1.3459  1.0044  1.0044
  1.0449  1.0449  0.7866  0.7866

 Free energy of the ion-electron system (eV)
  ---------------------------------------------------
  alpha Z        PSCENC =       872.70583573
  Ewald energy   TEWEN  =    -17892.30425046
  -Hartree energ DENC   =     -7496.57548055
  -exchange      EXHF   =         0.00000000
  -V(xc)+E(xc)   XCENC  =       943.62184748
  PAW double counting   =     22740.13457226   -23798.32406267
  entropy T*S    EENTRO =        -0.00000000
  eigenvalues    EBANDS =     -2990.88563544
  atomic energy  EATOM  =     26212.11861568
  Solvation  Ediel_sol  =         0.00000000
  ---------------------------------------------------
  free energy    TOTEN  =     -1409.50855797 eV

  energy without entropy =    -1409.50855797  energy(sigma->0) =    -1409.50855797


--------------------------------------------------------------------------------------------------------




--------------------------------------- Iteration      1(  20)  ---------------------------------------


    POTLOK:  cpu time    0.3071: real time    0.3203
    SETDIJ:  cpu time    1.1989: real time    1.1989
     EDDAV:  cpu time   12.8265: real time   12.8270
       DOS:  cpu time    0.0004: real time    0.0004
    CHARGE:  cpu time    2.6961: real time    2.6962
    MIXING:  cpu time    0.0021: real time    0.0021
    --------------------------------------------
      LOOP:  cpu time   17.0311: real time   17.0449

 eigenvalue-minimisations  :  2096
 total energy-change (2. order) : 0.2418827E-05  (-0.1725552E-07)
 number of electron     343.9999998 magnetization 
 augmentation part       -3.2021847 magnetization 

 Broyden mixing:
  rms(total) = 0.77107E-04    rms(broyden)= 0.54899E-04
  rms(prec ) = 0.63342E-04
  weight for this iteration     100.00
  WARNING: grid for Broyden might be to small

 eigenvalues of (default mixing * dielectric matrix)
  average eigenvalue GAMMA=   1.6304
  4.7730  3.0639  2.4663  2.0665  2.0665  1.2399  1.2399  1.1495  1.1495  0.9955
  0.9955  0.9518  0.7638  0.7668  0.7668

 Free energy of the ion-electron system (eV)
  ---------------------------------------------------
  alpha Z        PSCENC =       872.70583573
  Ewald energy   TEWEN  =    -17892.30425046
  -Hartree energ DENC   =     -7496.57933114
  -exchange      EXHF   =         0.00000000
  -V(xc)+E(xc)   XCENC  =       943.62201239
  PAW double counting   =     22740.13493975   -23798.32348996
  entropy T*S    EENTRO =        -0.00000000
  eigenvalues    EBANDS =     -2990.88288756
  atomic energy  EATOM  =     26212.11861568
  Solvation  Ediel_sol  =         0.00000000
  ---------------------------------------------------
  free energy    TOTEN  =     -1409.50855556 eV

  energy without entropy =    -1409.50855556  energy(sigma->0) =    -1409.50855556


--------------------------------------------------------------------------------------------------------




--------------------------------------- Iteration      1(  21)  ---------------------------------------


    POTLOK:  cpu time    0.2584: real time    0.3218
    SETDIJ:  cpu time    1.2009: real time    1.2009
     EDDAV:  cpu time   12.5193: real time   12.5199
       DOS:  cpu time    0.0004: real time    0.0004
    --------------------------------------------
      LOOP:  cpu time   13.9789: real time   14.0429

 eigenvalue-minimisations  :  1984
 total energy-change (2. order) : 0.1681337E-07  (-0.4861950E-08)
 number of electron     343.9999998 magnetization 
 augmentation part       -3.2021847 magnetization 

 Free energy of the ion-electron system (eV)
  ---------------------------------------------------
  alpha Z        PSCENC =       872.70583573
  Ewald energy   TEWEN  =    -17892.30425046
  -Hartree energ DENC   =     -7496.57945825
  -exchange      EXHF   =         0.00000000
  -V(xc)+E(xc)   XCENC  =       943.62202191
  PAW double counting   =     22740.13426362   -23798.32267132
  entropy T*S    EENTRO =        -0.00000000
  eigenvalues    EBANDS =     -2990.88291245
  atomic energy  EATOM  =     26212.11861568
  Solvation  Ediel_sol  =         0.00000000
  ---------------------------------------------------
  free energy    TOTEN  =     -1409.50855554 eV

  energy without entropy =    -1409.50855554  energy(sigma->0) =    -1409.50855554


--------------------------------------------------------------------------------------------------------




 average (electrostatic) potential at core
  the test charge radii are     1.1312  1.1541  1.0178
  (the norm of the test charge is              1.0000)
       1 -55.2763       2 -55.2079       3 -55.1771       4 -55.1504       5 -55.2270
       6 -55.1842       7 -55.3540       8 -55.1668       9-101.6250      10-101.8903
      11-101.6378      12-101.6409      13-101.8899      14-101.6484      15-101.6398
      16-101.9864      17 -69.0230      18 -68.9911      19 -69.0893      20 -69.4557
      21 -69.1106      22 -68.9939      23 -69.0280      24 -69.0325      25 -69.0032
      26 -68.9889      27 -68.9038      28 -69.0381      29 -68.9900      30 -68.9936
      31 -68.9993      32 -68.9865      33 -68.9400      34 -69.0333      35 -69.0501
      36 -68.9870      37 -69.4094      38 -68.9793      39 -68.9775



 E-fermi :   0.4021     XC(G=0):  -7.9520     alpha+bet : -6.9586


 k-point     1 :       0.0000    0.0000    0.0000
  band No.  band energies     occupation 
      1     -20.8855      2.00000
      2     -20.8101      2.00000
      3     -20.7567      2.00000
      4     -20.7359      2.00000
      5     -20.7181      2.00000
      6     -20.7142      2.00000
      7     -20.7037      2.00000
      8     -20.6829      2.00000
      9     -16.7560      2.00000
     10     -16.7221      2.00000
     11     -16.6982      2.00000
     12     -16.6740      2.00000
     13     -16.6693      2.00000
     14     -16.6599      2.00000
     15     -16.6432      2.00000
     16     -16.6215      2.00000
     17     -16.5746      2.00000
     18     -16.5561      2.00000
     19     -16.5553      2.00000
     20     -16.5498      2.00000
     21     -16.5487      2.00000
     22     -16.5143      2.00000
     23     -16.5075      2.00000
     24     -16.4761      2.00000
     25     -16.4603      2.00000
     26     -16.4442      2.00000
     27     -16.4343      2.00000
     28     -16.4196      2.00000
     29     -16.3991      2.00000
     30     -16.3949      2.00000
     31     -16.3900      2.00000
     32     -16.3748      2.00000
     33     -16.3694      2.00000
     34     -16.3128      2.00000
     35     -16.3096      2.00000
     36     -16.3071      2.00000
     37     -16.3065      2.00000
     38     -16.3033      2.00000
     39     -16.3026      2.00000
     40     -16.3018      2.00000
     41     -16.2976      2.00000
     42     -16.2975      2.00000
     43     -16.2949      2.00000
     44     -16.2943      2.00000
     45     -16.2928      2.00000
     46     -16.2916      2.00000
     47     -16.2873      2.00000
     48     -16.2838      2.00000
     49     -14.5076      2.00000
     50     -14.4206      2.00000
     51     -14.3319      2.00000
     52     -14.1814      2.00000
     53     -14.1647      2.00000
     54     -14.1378      2.00000
     55     -14.0871      2.00000
     56     -14.0729      2.00000
     57     -14.0694      2.00000
     58     -14.0601      2.00000
     59     -14.0355      2.00000
     60     -14.0337      2.00000
     61     -14.0211      2.00000
     62     -14.0162      2.00000
     63     -14.0025      2.00000
     64     -13.9947      2.00000
     65     -13.9295      2.00000
     66     -13.9194      2.00000
     67     -13.8784      2.00000
     68     -13.7838      2.00000
     69     -13.7652      2.00000
     70     -13.7560      2.00000
     71     -13.7213      2.00000
     72      -8.2179      2.00000
     73      -7.8066      2.00000
     74      -7.7646      2.00000
     75      -7.7131      2.00000
     76      -7.3550      2.00000
     77      -7.3289      2.00000
     78      -7.2780      2.00000
     79      -7.2612      2.00000
     80      -7.2525      2.00000
     81      -7.2374      2.00000
     82      -7.2113      2.00000
     83      -7.2047      2.00000
     84      -7.1903      2.00000
     85      -7.1753      2.00000
     86      -7.1574      2.00000
     87      -7.1516      2.00000
     88      -7.1450      2.00000
     89      -7.1441      2.00000
     90      -7.1390      2.00000
     91      -7.1315      2.00000
     92      -7.1285      2.00000
     93      -7.1231      2.00000
     94      -7.1183      2.00000
     95      -7.1123      2.00000
     96      -7.1077      2.00000
     97      -7.1028      2.00000
     98      -7.0950      2.00000
     99      -7.0859      2.00000
    100      -7.0792      2.00000
    101      -7.0662      2.00000
    102      -7.0476      2.00000
    103      -6.6005      2.00000
    104      -3.4179      2.00000
    105      -3.3230      2.00000
    106      -3.2920      2.00000
    107      -3.2782      2.00000
    108      -3.2349      2.00000
    109      -3.2149      2.00000
    110      -3.1975      2.00000
    111      -3.1325      2.00000
    112      -3.0943      2.00000
    113      -3.0533      2.00000
    114      -2.9356      2.00000
    115      -2.8870      2.00000
    116      -2.2488      2.00000
    117      -2.1855      2.00000
    118      -2.1610      2.00000
    119      -2.0778      2.00000
    120      -2.0269      2.00000
    121      -1.9949      2.00000
    122      -1.9437      2.00000
    123      -1.8929      2.00000
    124      -1.8517      2.00000
    125      -1.8241      2.00000
    126      -1.7788      2.00000
    127      -1.7393      2.00000
    128      -1.7172      2.00000
    129      -1.6745      2.00000
    130      -1.6381      2.00000
    131      -1.6051      2.00000
    132      -1.5657      2.00000
    133      -1.5565      2.00000
    134      -1.5510      2.00000
    135      -1.5437      2.00000
    136      -1.5124      2.00000
    137      -1.5018      2.00000
    138      -1.4911      2.00000
    139      -1.4753      2.00000
    140      -1.4665      2.00000
    141      -1.4539      2.00000
    142      -1.4332      2.00000
    143      -1.4158      2.00000
    144      -1.3975      2.00000
    145      -1.3927      2.00000
    146      -1.3646      2.00000
    147      -1.3622      2.00000
    148      -1.3383      2.00000
    149      -1.3315      2.00000
    150      -1.3266      2.00000
    151      -1.3192      2.00000
    152      -1.2897      2.00000
    153      -1.2873      2.00000
[...]


--------------------------------------------------------------------------------------------------------


 soft charge-density along one line, spin component           1
         0         1         2         3         4         5         6         7         8         9
 total charge-density along one line

 pseudopotential strength for first ion, spin component:           1
 17.970  -4.704   0.004   0.001  -0.001  -0.005  -0.001   0.002
 -4.704   1.240  -0.001  -0.000   0.000   0.001   0.000  -0.000
  0.004  -0.001   2.264   0.001   0.001  -2.707  -0.002  -0.001
  0.001  -0.000   0.001   2.265  -0.001  -0.002  -2.709   0.001
 -0.001   0.000   0.001  -0.001   2.263  -0.001   0.001  -2.707
 -0.005   0.001  -2.707  -0.002  -0.001   3.206   0.002   0.001
 -0.001   0.000  -0.002  -2.709   0.001   0.002   3.208  -0.001
  0.002  -0.000  -0.001   0.001  -2.707   0.001  -0.001   3.205
  0.001  -0.000   0.000   0.000   0.002  -0.000  -0.000  -0.002
  0.001  -0.000   0.001   0.002   0.000  -0.002  -0.003  -0.000
  0.001  -0.000  -0.001  -0.000   0.000   0.001   0.001  -0.000
 -0.001   0.000   0.000  -0.001   0.001  -0.000   0.001  -0.001
 -0.000   0.000  -0.002  -0.000  -0.002   0.003   0.001   0.002
 total augmentation occupancy for first ion, spin component:           1
  1.913  -0.136   0.001   0.000  -0.000   0.002   0.001  -0.001   0.001   0.002   0.001  -0.001  -0.000
 -0.136   0.120   0.011   0.002  -0.003  -0.005  -0.002   0.002  -0.001  -0.003  -0.002   0.005  -0.000
  0.001   0.011   2.018   0.004   0.002   0.005   0.003   0.001   0.001   0.003  -0.002   0.001  -0.005
  0.000   0.002   0.004   2.020  -0.002   0.003   0.006  -0.001   0.001   0.004  -0.002  -0.002  -0.001
 -0.000  -0.003   0.002  -0.002   2.016   0.001  -0.001   0.003   0.003   0.001   0.000   0.002  -0.003
  0.002  -0.005   0.005   0.003   0.001   0.009  -0.001  -0.000  -0.001  -0.002   0.000  -0.001   0.001
  0.001  -0.002   0.003   0.006  -0.001  -0.001   0.008   0.001  -0.001  -0.001   0.001   0.000   0.000
 -0.001   0.002   0.001  -0.001   0.003  -0.000   0.001   0.009  -0.001  -0.001  -0.000  -0.001   0.002
  0.001  -0.001   0.001   0.001   0.003  -0.001  -0.001  -0.001   0.007   0.001  -0.000   0.000   0.001
  0.002  -0.003   0.003   0.004   0.001  -0.002  -0.001  -0.001   0.001   0.005   0.000  -0.001   0.001
  0.001  -0.002  -0.002  -0.002   0.000   0.000   0.001  -0.000  -0.000   0.000   0.006  -0.001  -0.000
 -0.001   0.005   0.001  -0.002   0.002  -0.001   0.000  -0.001   0.000  -0.001  -0.001   0.004   0.001
 -0.000  -0.000  -0.005  -0.001  -0.003   0.001   0.000   0.002   0.001   0.001  -0.000   0.001   0.004


------------------------ aborting loop because EDIFF is reached ----------------------------------------





 total charge     

# of ion       s       p       d       tot
------------------------------------------
    1        1.786   4.717   0.019   6.522
    2        1.785   4.716   0.018   6.519
    3        1.787   4.717   0.020   6.524
    4        1.786   4.717   0.019   6.521
    5        1.786   4.716   0.018   6.520
    6        1.786   4.717   0.018   6.520
    7        1.786   4.717   0.019   6.521
    8        1.786   4.717   0.020   6.523
    9        1.553   0.428   9.835  11.816
   10        1.535   0.427   9.830  11.792
   11        1.553   0.412   9.833  11.797
   12        1.553   0.419   9.834  11.806
   13        1.531   0.438   9.832  11.801
   14        1.553   0.413   9.833  11.800
   15        1.554   0.422   9.834  11.810
   16        1.542   0.435   9.828  11.804
   17        1.615   3.281   0.006   4.902
   18        1.614   3.288   0.007   4.909
   19        1.615   3.288   0.007   4.910
   20        1.616   3.270   0.007   4.892
   21        1.614   3.288   0.007   4.909
   22        1.614   3.280   0.006   4.900
   23        1.615   3.284   0.007   4.905
   24        1.614   3.279   0.006   4.899
   25        1.614   3.277   0.006   4.897
   26        1.614   3.282   0.006   4.903
   27        1.613   3.278   0.005   4.896
   28        1.614   3.285   0.006   4.905
   29        1.614   3.286   0.006   4.906
   30        1.614   3.277   0.006   4.898
   31        1.614   3.283   0.006   4.904
   32        1.614   3.279   0.006   4.899
   33        1.615   3.277   0.006   4.898
   34        1.615   3.286   0.007   4.907
   35        1.614   3.282   0.006   4.903
   36        1.614   3.277   0.006   4.896
   37        1.616   3.270   0.007   4.893
   38        1.614   3.280   0.006   4.900
   39        1.615   3.273   0.006   4.894
--------------------------------------------------
tot         63.794 116.575  78.954 259.323

    CHARGE:  cpu time    0.3982: real time    0.3982
    FORLOC:  cpu time    0.0111: real time    0.0111
    FORNL :  cpu time    1.9098: real time    1.9099
    STRESS:  cpu time   49.8894: real time   49.8912
    FORCOR:  cpu time    0.2416: real time    0.2416
    FORHAR:  cpu time    0.0278: real time    0.0278
    MIXING:  cpu time    0.0022: real time    0.0022
    OFIELD:  cpu time    0.0001: real time    0.0001

  FORCE on cell =-STRESS in cart. coord.  units (eV):
  Direction    XX          YY          ZZ          XY          YZ          ZX
  --------------------------------------------------------------------------------------
  Alpha Z   872.70584   872.70584   872.70584
  Ewald   -5904.91509 -5879.26888 -6108.19946    77.84401   -68.83052   175.22490
  Hartree  2551.60923  2534.69994  2410.26874    45.55882   -40.61906   111.17370
  E(xc)   -1449.35322 -1449.23703 -1449.34817     0.11238    -0.09410     0.13980
  Local   -3037.73851 -3044.59225 -2694.35466  -123.92560   110.53937  -287.41382
  n-local  1748.25289  1748.38969  1746.33864     1.22314    -1.48185     0.78288
  augment   818.37899   817.23724   817.18364     0.20601    -0.24361     0.40332
  Kinetic  4393.67840  4395.20605  4400.56550    -0.62032     0.60163     0.31578
  Fock        0.00000     0.00000     0.00000     0.00000     0.00000     0.00000
  -------------------------------------------------------------------------------------
  Total      -7.38147    -4.85940    -4.83993     0.39845    -0.12813     0.62656
  in kB      -7.41427    -4.88099    -4.86144     0.40023    -0.12870     0.62934
  external pressure =       -5.72 kB  Pullay stress =        0.00 kB


 VOLUME and BASIS-vectors are now :
 -----------------------------------------------------------------------------
  energy-cutoff  :      300.00
  volume of cell :     1595.09
      direct lattice vectors                 reciprocal lattice vectors
     8.456489000  0.000000000  8.040301000     0.059126193 -0.000000000  0.062186727
     0.000000000 11.729847000  0.000000000     0.000000000  0.085252604 -0.000000000
    -8.456489000  0.000000000  8.040301000    -0.059126193  0.000000000  0.062186727

  length of vectors
    11.668703715 11.729847000 11.668703715     0.085808482  0.085252604  0.085808482


 FORCES acting on ions
    electron-ion (+dipol)            ewald-force                    non-local-force                 convergence-correction
 -----------------------------------------------------------------------------------------------
   0.168E+02 -.478E+02 -.546E+02   -.167E+02 0.475E+02 0.545E+02   -.117E+00 0.352E+00 0.109E+00   -.639E-04 -.750E-04 -.141E-04
   0.344E+02 -.762E+01 0.199E+02   -.341E+02 0.751E+01 -.197E+02   -.233E+00 0.127E+00 -.213E+00   0.841E-05 0.693E-04 -.157E-03
   0.559E+02 0.241E+02 0.153E+02   -.559E+02 -.241E+02 -.154E+02   -.108E-02 -.296E-02 0.639E-01   0.315E-04 -.183E-04 0.156E-03
   -.572E+02 0.107E+02 -.351E+02   0.572E+02 -.107E+02 0.351E+02   0.103E-01 -.400E-01 0.727E-02   0.145E-03 -.567E-04 -.126E-03
   0.572E+01 -.105E+02 0.685E+01   -.585E+01 0.104E+02 -.698E+01   0.126E+00 0.131E+00 0.149E+00   0.168E-03 0.551E-04 -.779E-05
   0.496E+02 -.201E+02 0.149E+02   -.495E+02 0.201E+02 -.149E+02   -.111E+00 0.767E-01 0.735E-01   -.710E-04 -.848E-05 0.779E-04
   -.283E+02 0.663E+01 0.871E+02   0.282E+02 -.653E+01 -.866E+02   0.155E+00 -.925E-01 -.488E+00   0.306E-04 -.546E-04 0.264E-04
   -.568E+02 0.352E+02 -.228E+02   0.567E+02 -.351E+02 0.230E+02   0.152E+00 -.176E+00 -.200E+00   -.247E-03 0.270E-04 0.443E-04
   -.688E+01 -.188E+01 -.162E+02   0.652E+01 0.174E+01 0.175E+02   0.362E+00 0.133E+00 -.131E+01   -.406E-04 -.188E-03 -.543E-04
   -.108E+02 0.122E+03 -.336E+02   0.108E+02 -.128E+03 0.342E+02   0.545E-01 0.576E+01 -.569E+00   -.131E-03 0.998E-03 -.110E-03
   -.107E+02 0.160E+02 -.759E+01   0.119E+02 -.154E+02 0.748E+01   -.120E+01 -.628E+00 0.110E+00   0.874E-04 -.733E-04 -.423E-04
   0.454E+01 -.906E+01 0.883E+01   -.525E+01 0.904E+01 -.961E+01   0.706E+00 0.203E-01 0.787E+00   0.140E-04 -.247E-03 0.306E-04
   0.117E+03 -.254E+02 -.653E+02   -.122E+03 0.263E+02 0.685E+02   0.539E+01 -.885E+00 -.314E+01   0.117E-02 -.589E-04 -.706E-03
   -.132E+02 -.113E+01 0.129E+02   0.129E+02 0.158E+01 -.127E+02   0.335E+00 -.446E+00 -.125E+00   -.573E-04 0.248E-03 0.434E-04
   -.124E+01 0.301E+01 -.250E+02   0.424E+00 -.278E+01 0.259E+02   0.823E+00 -.222E+00 -.831E+00   -.766E-05 0.192E-03 -.146E-03
   -.222E+02 -.507E+02 0.176E+02   0.203E+02 0.486E+02 -.157E+02   0.195E+01 0.209E+01 -.194E+01   -.187E-03 0.521E-04 0.196E-03
   0.786E+01 0.135E+02 0.357E+02   -.790E+01 -.135E+02 -.361E+02   0.249E-01 0.199E-01 0.409E+00   0.112E-03 0.120E-04 -.103E-03
   0.320E+02 0.107E+02 0.305E+02   -.322E+02 -.107E+02 -.305E+02   0.235E+00 0.124E-01 0.392E-01   0.296E-06 -.405E-04 0.352E-04
   -.372E+01 -.973E+01 0.300E+02   0.377E+01 0.973E+01 -.302E+02   -.410E-01 0.410E-02 0.260E+00   -.315E-04 0.150E-04 -.369E-04
   -.184E+02 -.449E+02 0.525E+02   0.184E+02 0.453E+02 -.530E+02   0.618E-02 -.354E+00 0.483E+00   -.691E-04 -.280E-04 0.189E-03
   0.205E+01 0.105E+02 -.410E+02   -.219E+01 -.105E+02 0.412E+02   0.137E+00 0.152E-02 -.204E+00   -.170E-04 -.845E-05 -.477E-04
   0.102E+02 -.133E+02 -.415E+02   -.101E+02 0.132E+02 0.417E+02   -.202E-01 0.654E-01 -.234E+00   0.138E-03 -.502E-04 -.529E-04
   -.161E+02 -.570E+01 -.331E+02   0.161E+02 0.569E+01 0.335E+02   0.956E-04 -.251E-02 -.343E+00   0.817E-06 0.400E-04 -.208E-04
   -.226E+02 0.469E+01 -.855E+01   0.228E+02 -.489E+01 0.836E+01   -.244E+00 0.185E+00 0.181E+00   0.143E-03 0.874E-04 -.156E-03
   -.789E+01 -.798E+00 0.479E+02   0.814E+01 0.640E+00 -.481E+02   -.240E+00 0.150E+00 0.198E+00   -.481E-04 0.735E-04 0.626E-04
   0.159E+02 -.164E+02 0.475E+02   -.160E+02 0.166E+02 -.480E+02   0.134E+00 -.182E+00 0.410E+00   0.706E-04 0.893E-04 -.652E-04
   -.257E+02 0.100E+02 -.147E+02   0.258E+02 -.993E+01 0.150E+02   -.109E+00 -.835E-01 -.272E+00   -.917E-05 0.117E-04 -.586E-04
   -.139E+02 -.186E+02 -.244E+02   0.141E+02 0.187E+02 0.244E+02   -.140E+00 -.964E-01 -.434E-01   -.942E-04 -.127E-03 0.137E-04
   0.389E+02 0.704E+01 -.286E+01   -.390E+02 -.706E+01 0.302E+01   0.160E+00 0.290E-01 -.149E+00   -.635E-05 -.585E-04 0.567E-05
   -.619E+01 0.375E+02 -.519E+02   0.606E+01 -.377E+02 0.523E+02   0.132E+00 0.228E+00 -.367E+00   -.493E-04 -.916E-04 0.155E-04
   -.342E+02 -.893E+01 0.214E+02   0.344E+02 0.907E+01 -.218E+02   -.251E+00 -.131E+00 0.326E+00   0.891E-04 -.100E-03 -.393E-04
   -.514E+00 0.292E+01 0.272E+02   0.807E+00 -.279E+01 -.272E+02   -.268E+00 -.124E+00 0.600E-01   0.192E-05 -.442E-05 0.245E-04
   0.253E+02 0.350E+02 0.448E+01   -.256E+02 -.353E+02 -.474E+01   0.326E+00 0.231E+00 0.252E+00   0.286E-05 -.222E-04 0.525E-04
   0.173E+02 0.192E+02 0.500E+02   -.174E+02 -.194E+02 -.504E+02   0.168E+00 0.178E+00 0.391E+00   0.618E-04 -.101E-03 -.287E-04
   0.527E+02 -.736E+01 -.218E+02   -.528E+02 0.746E+01 0.222E+02   0.165E+00 -.954E-01 -.317E+00   0.660E-04 0.579E-04 0.125E-04
   -.142E+02 -.317E+02 -.323E+02   0.140E+02 0.320E+02 0.325E+02   0.163E+00 -.255E+00 -.163E+00   -.558E-04 0.975E-04 0.770E-04
   -.519E+02 -.473E+01 0.105E+02   0.525E+02 0.453E+01 -.105E+02   -.577E+00 0.190E+00 -.123E-02   0.175E-04 0.469E-04 -.107E-03
   -.305E+02 0.148E+02 -.366E+02   0.307E+02 -.150E+02 0.367E+02   -.238E+00 0.121E+00 -.944E-01   -.145E-03 0.125E-03 0.619E-05
   -.399E+02 -.526E+02 0.342E+02   0.403E+02 0.533E+02 -.347E+02   -.389E+00 -.676E+00 0.413E+00   -.109E-03 -.491E-05 0.166E-03
 -----------------------------------------------------------------------------------------------
   -.754E+01 -.564E+01 0.636E+01   -.426E-13 0.711E-14 0.426E-13   0.753E+01 0.560E+01 -.627E+01   0.921E-03 0.880E-03 -.846E-03


 POSITION                                       TOTAL-FORCE (eV/Angst)
 -----------------------------------------------------------------------------------
      0.47540      2.76707      3.54953        -0.001639     -0.000909      0.000989
      0.47635      2.87141     12.01958         0.001377      0.000559     -0.000001
      4.39671      8.96863      8.31609        -0.000238      0.001213      0.001537
     -4.89499      8.77614      7.75598         0.000413      0.001337      0.000089
     -3.64335      2.94965      8.29327         0.000174      0.000004      0.003424
      4.71726      2.87515      8.13729        -0.000960      0.000090      0.002147
     -0.58705      8.81798     12.40020        -0.000569      0.001630      0.001237
     -0.63978      8.82856      4.05414         0.002728      0.001035     -0.000252
      0.00452      0.00832     16.04776         0.003824     -0.003697      0.000800
      0.12767      0.01838      7.91203        -0.001199     -0.001697     -0.000397
     -4.22437      0.01767     11.94552        -0.001856     -0.000785     -0.006729
     -4.23319      0.00310      4.12079        -0.002424      0.000154      0.002614
      4.20496      5.94916      4.06275        -0.007188      0.002049     -0.001461
     -4.22832      5.77986      4.12687         0.001243      0.000657      0.005752
      8.44813      5.84121      8.04718        -0.002013      0.001866      0.003252
     -0.00543      5.70961      8.16801        -0.004600     -0.006846      0.000432
     -4.10538      8.82854     11.38322         0.001143      0.002630     -0.000944
      4.11851      8.75567     11.86465         0.001429      0.003394      0.002061
     -0.08897      2.92910     15.65369        -0.003470      0.006029      0.000646
      0.04094      2.81319      7.29481         0.001155      0.006185      0.001098
     -0.12999      8.79512      0.38896         0.000012     -0.006187     -0.000686
      4.08848      3.00197      4.43620        -0.001400     -0.002780     -0.003529
     -4.31177      2.89266      4.72722        -0.001169     -0.006493      0.002287
     -5.97938      5.52237      9.67605        -0.003176      0.000453     -0.001521
      2.47262      5.28633      9.75342        -0.001247     -0.001229     -0.000629
      1.61142      6.19284     13.65217         0.001877     -0.001473     -0.005200
     -1.62058      0.38088     10.32640        -0.000635      0.001447      0.001414
     -1.86680      0.25121      2.33349         0.002052     -0.000012     -0.002423
      5.99435     11.48848      6.31710         0.000096     -0.001848     -0.004349
     -2.47139     11.24044      6.46271        -0.001596      0.002908     -0.002098
     -5.86831      0.35152      9.48304        -0.000273     -0.000786     -0.002071
      2.52391      0.33699      9.61900         0.001323      0.000335      0.001538
      1.66745     11.45178      5.36645         0.003792     -0.000222     -0.002958
      1.62392     11.37451     13.61947        -0.003960     -0.000520     -0.001966
      5.86192      6.20263      6.49322         0.003748     -0.000317      0.004769
     -2.47751      6.23618      6.55268         0.001844     -0.000621      0.002651
     -1.82709      5.60322     10.63274         0.005930     -0.000253     -0.002651
     -1.76177      5.51907      2.47958         0.002673     -0.000018      0.001366
      1.29787      7.82512      6.87114         0.002781      0.002715     -0.000238
 -----------------------------------------------------------------------------------
    total drift:                               -0.003776     -0.030582      0.083790


--------------------------------------------------------------------------------------------------------



  FREE ENERGIE OF THE ION-ELECTRON SYSTEM (eV)
  ---------------------------------------------------
  free  energy   TOTEN  =     -1409.50855554 eV

  energy  without entropy=    -1409.50855554  energy(sigma->0) =    -1409.50855554



--------------------------------------------------------------------------------------------------------


    POTLOK:  cpu time    1.4364: real time    1.4364


--------------------------------------------------------------------------------------------------------


 stress matrix after NEB project (eV)
     -7.38147      0.39850      0.62656
      0.39845     -4.85940     -0.12818
      0.62653     -0.12813     -4.83993
  FORCES: max atom, RMS     0.008259    0.004561
  FORCE total and by dimension    0.028486    0.007188
  Stress total and by dimension   10.132139    7.381466
     LOOP+:  cpu time  488.2291: real time  489.1262
    4ORBIT:  cpu time    0.0000: real time    0.0000



 total charge     

# of ion       s       p       d       tot
------------------------------------------
    1        1.786   4.717   0.019   6.522
    2        1.785   4.716   0.018   6.519
    3        1.787   4.717   0.020   6.524
    4        1.786   4.717   0.019   6.521
    5        1.786   4.716   0.018   6.520
    6        1.786   4.717   0.018   6.520
    7        1.786   4.717   0.019   6.521
    8        1.786   4.717   0.020   6.523
    9        1.553   0.428   9.835  11.816
   10        1.535   0.427   9.830  11.792
   11        1.553   0.412   9.833  11.797
   12        1.553   0.419   9.834  11.806
   13        1.531   0.438   9.832  11.801
   14        1.553   0.413   9.833  11.800
   15        1.554   0.422   9.834  11.810
   16        1.542   0.435   9.828  11.804
   17        1.615   3.281   0.006   4.902
   18        1.614   3.288   0.007   4.909
   19        1.615   3.288   0.007   4.910
   20        1.616   3.270   0.007   4.892
   21        1.614   3.288   0.007   4.909
   22        1.614   3.280   0.006   4.900
   23        1.615   3.284   0.007   4.905
   24        1.614   3.279   0.006   4.899
   25        1.614   3.277   0.006   4.897
   26        1.614   3.282   0.006   4.903
   27        1.613   3.278   0.005   4.896
   28        1.614   3.285   0.006   4.905
   29        1.614   3.286   0.006   4.906
   30        1.614   3.277   0.006   4.898
   31        1.614   3.283   0.006   4.904
   32        1.614   3.279   0.006   4.899
   33        1.615   3.277   0.006   4.898
   34        1.615   3.286   0.007   4.907
   35        1.614   3.282   0.006   4.903
   36        1.614   3.277   0.006   4.896
   37        1.616   3.270   0.007   4.893
   38        1.614   3.280   0.006   4.900
   39        1.615   3.273   0.006   4.894
--------------------------------------------------
tot         63.794 116.575  78.954 259.323


 total amount of memory used by VASP MPI-rank0    60663. kBytes
=======================================================================

   base      :      30000. kBytes
   nonlr-proj:       6498. kBytes
   fftplans  :       8423. kBytes
   grid      :       7465. kBytes
   one-center:         77. kBytes
   wavefun   :       8200. kBytes

  
  
 General timing and accounting informations for this job:
 ========================================================
  
                  Total CPU time used (sec):      500.682
                            User time (sec):      499.086
                          System time (sec):        1.596
                         Elapsed time (sec):      502.212
  
                   Maximum memory used (kb):       78188.
                   Average memory used (kb):           0.
  
                          Minor page faults:        20924
                          Major page faults:            0
                 Voluntary context switches:         2010
