 running on   64 total cores
 distrk:  each k-point on   64 cores,    1 groups
 distr:  one band on    8 cores,    8 groups
 using from now: INCAR     
 vasp.5.4.4.18Apr17-6-g9f103f2a35 (build Jun 22 2020 09:27:21) complex           
 POSCAR found type information on POSCAR  Cs Pb Br
 POSCAR found :  3 types and      39 ions
 scaLAPACK will be used
 LDA part: xc-table for Pade appr. of Perdew
 POSCAR found type information on POSCAR  Cs Pb Br
 POSCAR found :  3 types and      39 ions
 POSCAR, INCAR and KPOINTS ok, starting setup
 FFT: planning ...
 WAVECAR not read
 entering main loop
       N       E                     dE             d eps       ncg     rms          rms(c)
DAV:   1     0.133668161401E+04    0.13367E+04   -0.11055E+05  3480   0.973E+02
DAV:   2    -0.111066408559E+04   -0.24473E+04   -0.23591E+04  4088   0.300E+02
DAV:   3    -0.147479499679E+04   -0.36413E+03   -0.36214E+03  4432   0.138E+02
DAV:   4    -0.148698782814E+04   -0.12193E+02   -0.12159E+02  3952   0.331E+01
DAV:   5    -0.148753443683E+04   -0.54661E+00   -0.54637E+00  4416   0.548E+00BRMIX: very serious problems
 the old and the new charge density differ
 old charge density:   345.00000 new  344.00000
    0.101E+01
DAV:   6    -0.140977499164E+04    0.77759E+02   -0.23689E+01  4304   0.316E+01    0.717E+00
DAV:   7    -0.140925640582E+04    0.51859E+00   -0.86962E+00  4104   0.569E+00    0.373E+00
DAV:   8    -0.140943232731E+04   -0.17592E+00   -0.45776E-01  3928   0.207E+00    0.217E+00
DAV:   9    -0.140949972073E+04   -0.67393E-01   -0.18178E-01  3736   0.136E+00    0.456E-01
DAV:  10    -0.140950365070E+04   -0.39300E-02   -0.24593E-02  4392   0.443E-01    0.330E-01
DAV:  11    -0.140950576144E+04   -0.21107E-02   -0.29310E-03  3696   0.156E-01    0.157E-01
DAV:  12    -0.140950887984E+04   -0.31184E-02   -0.56259E-03  3688   0.197E-01    0.106E-01
DAV:  13    -0.140950856909E+04    0.31075E-03   -0.15210E-03  4448   0.110E-01    0.516E-02
DAV:  14    -0.140950852094E+04    0.48148E-04   -0.44902E-04  3832   0.406E-02    0.264E-02
DAV:  15    -0.140950850962E+04    0.11320E-04   -0.33288E-05  4032   0.159E-02    0.148E-02
DAV:  16    -0.140950855840E+04   -0.48780E-04   -0.34659E-05  3728   0.160E-02    0.615E-03
DAV:  17    -0.140950856998E+04   -0.11576E-04   -0.99397E-06  4024   0.839E-03    0.406E-03
DAV:  18    -0.140950856247E+04    0.75049E-05   -0.22354E-06  2840   0.323E-03    0.172E-03
DAV:  19    -0.140950855797E+04    0.44963E-05   -0.34880E-07  2248   0.186E-03    0.101E-03
DAV:  20    -0.140950855556E+04    0.24188E-05   -0.17256E-07  2096   0.123E-03    0.771E-04
DAV:  21    -0.140950855554E+04    0.16813E-07   -0.48619E-08  1984   0.776E-04
   1 F= -.14095086E+04 E0= -.14095086E+04  d E =-.431297E-14
Application 1920073 resources: utime ~31973s, stime ~129s, Rss ~78188, inblocks ~1328, outblocks ~111464
