<?xml version="1.0" encoding="ISO-8859-1"?>
<modeling>
 <generator>
  <i name="program" type="string">vasp </i>
  <i name="version" type="string">5.4.4.18Apr17-6-g9f103f2a35  </i>
  <i name="subversion" type="string">(build Jun 22 2020 09:27:21) complex            parallel </i>
  <i name="platform" type="string">tx2_gcc-7.3_libsci-18.07_cray-fftw-3.3.8 </i>
  <i name="date" type="string">2021 10 11 </i>
  <i name="time" type="string">23:24:24 </i>
 </generator>
 <incar>
  <i type="string" name="SYSTEM"> CsPbBr3 cubic bulk</i>
  <i type="string" name="PREC">accurate</i>
  <i type="string" name="ALGO"> NORMAL   ! Electronic minimisation algo</i>
  <i type="logical" name="ADDGRID"> T  </i>
  <i type="int" name="ISPIN">     1</i>
  <i type="int" name="NELM">   200</i>
  <i type="int" name="IBRION">     2</i>
  <i name="EDIFF">      0.00000100</i>
  <i name="EDIFFG">     -0.01000000</i>
  <i type="int" name="NSW">     0</i>
  <i type="int" name="ISIF">     2</i>
  <i type="int" name="ISYM">     0</i>
  <i name="ENCUT">    300.00000000</i>
  <i name="POTIM">      0.50000000</i>
  <i name="NUPDOWN">      0.00000000</i>
  <i name="NELECT">    344.00000000</i>
  <i type="string" name="LREAL"> AUTO</i>
  <i type="int" name="ISMEAR">     0</i>
  <i name="SIGMA">      0.01000000</i>
  <i type="logical" name="LWAVE"> F  </i>
  <i type="logical" name="LCHARG"> F  </i>
  <i type="logical" name="LVHAR"> T  </i>
  <i type="int" name="LORBIT">    10</i>
  <i type="logical" name="LASPH"> T  </i>
  <v type="int" name="KPOINT_BSE">    -1     0     0     0</v>
  <i type="int" name="NELM">   200</i>
  <i type="string" name="METAGGA"> SCAN       ! PBE exchange-correlation</i>
  <i type="logical" name="LASPH"> T  </i>
 </incar>
 <structure name="primitive_cell" >
  <crystal>
   <varray name="basis" >
    <v>       8.45648900       0.00000000       8.04030100 </v>
    <v>       0.00000000      11.72984700       0.00000000 </v>
    <v>      -8.45648900       0.00000000       8.04030100 </v>
   </varray>
   <i name="volume">   1595.08833419 </i>
   <varray name="rec_basis" >
    <v>       0.05912619      -0.00000000       0.06218673 </v>
    <v>       0.00000000       0.08525260      -0.00000000 </v>
    <v>      -0.05912619       0.00000000       0.06218673 </v>
   </varray>
  </crystal>
  <varray name="positions" >
   <v>       0.24884200       0.23590000       0.19262500 </v>
   <v>       0.03473500       0.02141600       0.25548900 </v>
   <v>       0.05003000       0.47051500       0.25836400 </v>
   <v>      -0.48239100       0.25592600       0.03413700 </v>
   <v>       0.43231200      -0.02370600       0.23513200 </v>
   <v>       0.45606100       0.23983200       0.45122000 </v>
   <v>       0.24274800       0.02996800      -0.06331000 </v>
   <v>       0.24818400       0.47079600      -0.04474000 </v>
   <v>      -0.03180900       0.24971300      -0.02128800 </v>
   <v>      -0.00177500       0.00070900      -0.00231000 </v>
   <v>       0.49308200       0.00150600      -0.00737600 </v>
   <v>      -0.00006600       0.49797800       0.00092200 </v>
   <v>      -0.49872800      -0.49281900       0.00402600 </v>
   <v>       0.03903200       0.24660700      -0.45109100 </v>
   <v>       0.49957200       0.00156700       0.48447500 </v>
   <v>       0.25577100      -0.04172300      -0.45198100 </v>
   <v>      -0.21505500       0.24511400       0.22711800 </v>
   <v>       0.30031400       0.25146500      -0.26885100 </v>
   <v>       0.26100400      -0.46834900      -0.44602400 </v>
   <v>       0.00596600       0.00026400      -0.49344900 </v>
   <v>      -0.49237900       0.48675900      -0.49173700 </v>
   <v>       0.00663200       0.49274800      -0.49335900 </v>
   <v>       0.21428600      -0.24734200       0.28994200 </v>
   <v>      -0.49596800      -0.33288800       0.35055600 </v>
   <v>       0.01650200      -0.25019300       0.03187400 </v>
   <v>      -0.25273700      -0.02057700       0.03841700 </v>
   <v>      -0.44681400       0.47768900      -0.23075600 </v>
   <v>      -0.25259700       0.02872900       0.44894500 </v>
   <v>       0.46515000      -0.24734400      -0.04937900 </v>
   <v>      -0.05703400      -0.03029300      -0.24906600 </v>
   <v>      -0.24961500      -0.47121000       0.05719900 </v>
   <v>      -0.45365400       0.03247100      -0.26201600 </v>
   <v>      -0.05573900      -0.47204400      -0.24629300 </v>
   <v>      -0.24727000       0.45067300       0.46033700 </v>
   <v>      -0.01866400      -0.25355600       0.49431200 </v>
   <v>       0.19289700      -0.25181100      -0.22825900 </v>
   <v>      -0.22437700       0.24479500      -0.28070600 </v>
   <v>      -0.22288900      -0.23540100       0.25719000 </v>
   <v>      -0.26358200      -0.24824400      -0.19416200 </v>
  </varray>
 </structure>
 <varray name="primitive_index" >
  <v type="int" >        1 </v>
  <v type="int" >       28 </v>
  <v type="int" >       38 </v>
  <v type="int" >       22 </v>
  <v type="int" >       33 </v>
  <v type="int" >       20 </v>
  <v type="int" >       31 </v>
  <v type="int" >       24 </v>
  <v type="int" >       19 </v>
  <v type="int" >        9 </v>
  <v type="int" >       11 </v>
  <v type="int" >       15 </v>
  <v type="int" >       13 </v>
  <v type="int" >       23 </v>
  <v type="int" >       10 </v>
  <v type="int" >       30 </v>
  <v type="int" >        6 </v>
  <v type="int" >        5 </v>
  <v type="int" >       36 </v>
  <v type="int" >       12 </v>
  <v type="int" >       16 </v>
  <v type="int" >       14 </v>
  <v type="int" >        8 </v>
  <v type="int" >       39 </v>
  <v type="int" >       21 </v>
  <v type="int" >       29 </v>
  <v type="int" >       37 </v>
  <v type="int" >       32 </v>
  <v type="int" >       17 </v>
  <v type="int" >       34 </v>
  <v type="int" >       35 </v>
  <v type="int" >       27 </v>
  <v type="int" >       26 </v>
  <v type="int" >       25 </v>
  <v type="int" >       18 </v>
  <v type="int" >        4 </v>
  <v type="int" >        2 </v>
  <v type="int" >        3 </v>
  <v type="int" >        7 </v>
 </varray>
 <kpoints>
  <generation param="Gamma">
   <v type="int" name="divisions">       2        2        2 </v>
   <v name="usershift">      0.00000000       0.00000000       0.00000000 </v>
   <v name="genvec1">      0.50000000       0.00000000       0.00000000 </v>
   <v name="genvec2">      0.00000000       0.50000000       0.00000000 </v>
   <v name="genvec3">      0.00000000       0.00000000       0.50000000 </v>
   <v name="shift">      0.00000000       0.00000000       0.00000000 </v>
  </generation>
  <varray name="kpointlist" >
   <v>       0.00000000       0.00000000       0.00000000 </v>
   <v>       0.50000000       0.00000000       0.00000000 </v>
   <v>       0.00000000       0.50000000       0.00000000 </v>
   <v>       0.50000000       0.50000000       0.00000000 </v>
   <v>       0.00000000       0.00000000       0.50000000 </v>
   <v>       0.50000000       0.00000000       0.50000000 </v>
   <v>       0.00000000       0.50000000       0.50000000 </v>
   <v>       0.50000000       0.50000000       0.50000000 </v>
  </varray>
  <varray name="weights" >
   <v>       0.12500000 </v>
   <v>       0.12500000 </v>
   <v>       0.12500000 </v>
   <v>       0.12500000 </v>
   <v>       0.12500000 </v>
   <v>       0.12500000 </v>
   <v>       0.12500000 </v>
   <v>       0.12500000 </v>
  </varray>
 </kpoints>
 <parameters>
  <separator name="general" >
   <i type="string" name="SYSTEM">CsPbBr3 cubic bulk</i>
   <i type="logical" name="LCOMPAT"> F  </i>
  </separator>
  <separator name="electronic" >
   <i type="string" name="PREC">accura</i>
   <i name="ENMAX">    300.00000000</i>
   <i name="ENAUG">    503.85200000</i>
   <i name="EDIFF">      0.00000100</i>
   <i type="int" name="IALGO">    38</i>
   <i type="int" name="IWAVPR">    10</i>
   <i type="int" name="NBANDS">   208</i>
   <i name="NELECT">    344.00000000</i>
   <i type="int" name="TURBO">     0</i>
   <i type="int" name="IRESTART">     0</i>
   <i type="int" name="NREBOOT">     0</i>
   <i type="int" name="NMIN">     0</i>
   <i name="EREF">      0.00000000</i>
   <separator name="electronic smearing" >
    <i type="int" name="ISMEAR">     0</i>
    <i name="SIGMA">      0.01000000</i>
    <i name="KSPACING">      0.50000000</i>
    <i type="logical" name="KGAMMA"> T  </i>
   </separator>
   <separator name="electronic projectors" >
    <i type="logical" name="LREAL"> T  </i>
    <v name="ROPT">     -0.00025000     -0.00025000     -0.00025000</v>
    <i type="int" name="LMAXPAW">  -100</i>
    <i type="int" name="LMAXMIX">     2</i>
    <i type="logical" name="NLSPLINE"> F  </i>
   </separator>
   <separator name="electronic startup" >
    <i type="int" name="ISTART">     0</i>
    <i type="int" name="ICHARG">     2</i>
    <i type="int" name="INIWAV">     1</i>
   </separator>
   <separator name="electronic spin" >
    <i type="int" name="ISPIN">     1</i>
    <i type="logical" name="LNONCOLLINEAR"> F  </i>
    <v name="MAGMOM">      0.00000000      0.00000000      0.00000000      0.00000000      0.00000000      0.00000000      0.00000000      0.00000000      0.00000000      0.00000000      0.00000000      0.00000000      0.00000000      0.00000000      0.00000000      0.00000000      0.00000000      0.00000000      0.00000000      0.00000000
      0.00000000      0.00000000      0.00000000      0.00000000      0.00000000      0.00000000      0.00000000      0.00000000      0.00000000      0.00000000      0.00000000      0.00000000      0.00000000      0.00000000      0.00000000      0.00000000      0.00000000      0.00000000      0.00000000</v>
    <i name="NUPDOWN">      0.00000000</i>
    <i type="logical" name="LSORBIT"> F  </i>
    <v name="SAXIS">      0.00000000      0.00000000      1.00000000</v>
    <i type="logical" name="LSPIRAL"> F  </i>
    <v name="QSPIRAL">      0.00000000      0.00000000      0.00000000</v>
    <i type="logical" name="LZEROZ"> F  </i>
   </separator>
   <separator name="electronic exchange-correlation" >
    <i type="logical" name="LASPH"> T  </i>
    <i type="logical" name="LMETAGGA"> F  </i>
   </separator>
   <separator name="electronic convergence" >
    <i type="int" name="NELM">   200</i>
    <i type="int" name="NELMDL">    -5</i>
    <i type="int" name="NELMIN">     2</i>
    <i name="ENINI">    300.00000000</i>
    <separator name="electronic convergence detail" >
     <i type="logical" name="LDIAG"> T  </i>
     <i type="logical" name="LSUBROT"> F  </i>
     <i name="WEIMIN">      0.00000000</i>
     <i name="EBREAK">      0.00000000</i>
     <i name="DEPER">      0.30000000</i>
     <i type="int" name="NRMM">     4</i>
     <i name="TIME">      0.40000000</i>
    </separator>
   </separator>
   <separator name="electronic mixer" >
    <i name="AMIX">      0.40000000</i>
    <i name="BMIX">      1.00000000</i>
    <i name="AMIN">      0.10000000</i>
    <i name="AMIX_MAG">      1.60000000</i>
    <i name="BMIX_MAG">      1.00000000</i>
    <separator name="electronic mixer details" >
     <i type="int" name="IMIX">     4</i>
     <i type="logical" name="MIXFIRST"> F  </i>
     <i type="int" name="MAXMIX">   -45</i>
     <i name="WC">    100.00000000</i>
     <i type="int" name="INIMIX">     1</i>
     <i type="int" name="MIXPRE">     1</i>
     <i type="int" name="MREMOVE">     5</i>
    </separator>
   </separator>
   <separator name="electronic dipolcorrection" >
    <i type="logical" name="LDIPOL"> F  </i>
    <i type="logical" name="LMONO"> F  </i>
    <i type="int" name="IDIPOL">     0</i>
    <i name="EPSILON">      1.00000000</i>
    <v name="DIPOL">   -100.00000000   -100.00000000   -100.00000000</v>
    <i name="EFIELD">      0.00000000</i>
   </separator>
  </separator>
  <separator name="grids" >
   <i type="int" name="NGX">    70</i>
   <i type="int" name="NGY">    70</i>
   <i type="int" name="NGZ">    70</i>
   <i type="int" name="NGXF">   140</i>
   <i type="int" name="NGYF">   140</i>
   <i type="int" name="NGZF">   140</i>
   <i type="logical" name="ADDGRID"> T  </i>
  </separator>
  <separator name="ionic" >
   <i type="int" name="NSW">     0</i>
   <i type="int" name="IBRION">    -1</i>
   <i type="int" name="MDALGO">     0</i>
   <i type="int" name="ISIF">     2</i>
   <i name="PSTRESS">      0.00000000</i>
   <i name="EDIFFG">     -0.01000000</i>
   <i type="int" name="NFREE">     1</i>
   <i name="POTIM">      0.50000000</i>
   <i name="SMASS">     -3.00000000</i>
   <i name="SCALEE">      1.00000000</i>
  </separator>
  <separator name="ionic md" >
   <i name="TEBEG">      0.00010000</i>
   <i name="TEEND">      0.00010000</i>
   <i type="int" name="NBLOCK">     1</i>
   <i type="int" name="KBLOCK">     1</i>
   <i type="int" name="NPACO">   256</i>
   <i name="APACO">     16.00000000</i>
  </separator>
  <separator name="symmetry" >
   <i type="int" name="ISYM">     0</i>
   <i name="SYMPREC">      0.00001000</i>
  </separator>
  <separator name="dos" >
   <i type="int" name="LORBIT">    10</i>
   <v name="RWIGS">     -1.00000000     -1.00000000     -1.00000000</v>
   <i type="int" name="NEDOS">   301</i>
   <i name="EMIN">     10.00000000</i>
   <i name="EMAX">    -10.00000000</i>
   <i name="EFERMI">      0.00000000</i>
  </separator>
  <separator name="writing" >
   <i type="int" name="NWRITE">     2</i>
   <i type="logical" name="LWAVE"> F  </i>
   <i type="logical" name="LDOWNSAMPLE"> F  </i>
   <i type="logical" name="LCHARG"> F  </i>
   <i type="logical" name="LPARD"> F  </i>
   <i type="logical" name="LVTOT"> F  </i>
   <i type="logical" name="LVHAR"> T  </i>
   <i type="logical" name="LELF"> F  </i>
   <i type="logical" name="LOPTICS"> F  </i>
   <v name="STM">      0.00000000      0.00000000      0.00000000      0.00000000      0.00000000      0.00000000      0.00000000</v>
  </separator>
  <separator name="performance" >
   <i type="int" name="NPAR">     8</i>
   <i type="int" name="NSIM">     4</i>
   <i type="int" name="NBLK">    -1</i>
   <i type="logical" name="LPLANE"> T  </i>
   <i type="logical" name="LSCALAPACK"> T  </i>
   <i type="logical" name="LSCAAWARE"> F  </i>
   <i type="logical" name="LSCALU"> F  </i>
   <i type="logical" name="LASYNC"> F  </i>
   <i type="logical" name="LORBITALREAL"> F  </i>
  </separator>
  <separator name="miscellaneous" >
   <i type="int" name="IDIOT">     3</i>
   <i type="int" name="ISPECIAL">     0</i>
   <i type="logical" name="LMUSIC"> F  </i>
   <v name="POMASS">    132.90000000    207.20000000     79.90400000</v>
   <v name="DARWINR">      0.00000000      0.00000000      0.00000000</v>
   <v name="DARWINV">      1.00000000      1.00000000      1.00000000</v>
   <i type="logical" name="LCORR"> T  </i>
  </separator>
  <i type="logical" name="GGA_COMPAT"> T  </i>
  <i type="logical" name="LBERRY"> F  </i>
  <i type="int" name="ICORELEVEL">     0</i>
  <i type="logical" name="LDAU"> F  </i>
  <i type="int" name="I_CONSTRAINED_M">     0</i>
  <separator name="electronic exchange-correlation" >
   <i type="string" name="GGA">--</i>
   <i type="int" name="VOSKOWN">     0</i>
   <i type="logical" name="LHFCALC"> F  </i>
   <i type="string" name="PRECFOCK"></i>
   <i type="logical" name="LSYMGRAD"> F  </i>
   <i type="logical" name="LHFONE"> F  </i>
   <i type="logical" name="LRHFCALC"> F  </i>
   <i type="logical" name="LTHOMAS"> F  </i>
   <i type="logical" name="LMODELHF"> F  </i>
   <i name="ENCUT4O">     -1.00000000</i>
   <i type="int" name="EXXOEP">     0</i>
   <i type="int" name="FOURORBIT">     0</i>
   <i name="AEXX">      0.00000000</i>
   <i name="HFALPHA">      0.00000000</i>
   <i name="MCALPHA">      0.00000000</i>
   <i name="ALDAX">      1.00000000</i>
   <i name="AGGAX">      1.00000000</i>
   <i name="ALDAC">      1.00000000</i>
   <i name="AGGAC">      1.00000000</i>
   <i type="int" name="NKREDX">     1</i>
   <i type="int" name="NKREDY">     1</i>
   <i type="int" name="NKREDZ">     1</i>
   <i type="logical" name="SHIFTRED"> F  </i>
   <i type="logical" name="ODDONLY"> F  </i>
   <i type="logical" name="EVENONLY"> F  </i>
   <i type="int" name="LMAXFOCK">     0</i>
   <i type="int" name="NMAXFOCKAE">     0</i>
   <i type="logical" name="LFOCKAEDFT"> F  </i>
   <i name="HFSCREEN">      0.00000000</i>
   <i name="HFSCREENC">      0.00000000</i>
   <i type="int" name="NBANDSGWLOW">     0</i>
  </separator>
  <separator name="vdW DFT" >
   <i type="logical" name="LUSE_VDW"> F  </i>
   <i name="Zab_VDW">     -0.84910000</i>
   <i name="PARAM1">      0.12340000</i>
   <i name="PARAM2">      1.00000000</i>
   <i name="PARAM3">      0.00000000</i>
  </separator>
  <separator name="model GW" >
   <i type="int" name="MODEL_GW">     0</i>
   <i name="MODEL_EPS0">     24.53982053</i>
   <i name="MODEL_ALPHA">      1.00000000</i>
  </separator>
  <separator name="linear response parameters" >
   <i type="logical" name="LEPSILON"> F  </i>
   <i type="logical" name="LRPA"> F  </i>
   <i type="logical" name="LNABLA"> F  </i>
   <i type="logical" name="LVEL"> F  </i>
   <i type="int" name="KINTER">     0</i>
   <i name="CSHIFT">      0.10000000</i>
   <i name="OMEGAMAX">     -1.00000000</i>
   <i name="DEG_THRESHOLD">      0.00200000</i>
   <i name="RTIME">     -0.10000000</i>
   <i name="WPLASMAI">      0.00000000</i>
   <v name="DFIELD">      0.00000000      0.00000000      0.00000000</v>
   <v name="WPLASMA">      0.00000000      0.00000000      0.00000000      0.00000000      0.00000000      0.00000000      0.00000000      0.00000000      0.00000000</v>
  </separator>
  <separator name="orbital magnetization" >
   <i type="logical" name="NUCIND"> F  </i>
   <v name="MAGPOS">      0.00000000      0.00000000      0.00000000</v>
   <i type="logical" name="LNICSALL"> T  </i>
   <i type="logical" name="ORBITALMAG"> F  </i>
   <i type="logical" name="LMAGBLOCH"> F  </i>
   <i type="logical" name="LCHIMAG"> F  </i>
   <i type="logical" name="LGAUGE"> T  </i>
   <i type="int" name="MAGATOM">     0</i>
   <v name="MAGDIPOL">      0.00000000      0.00000000      0.00000000</v>
   <v name="AVECCONST">      0.00000000      0.00000000      0.00000000</v>
  </separator>
  <separator name="response functions" >
   <i type="logical" name="LADDER"> F  </i>
   <i type="logical" name="LRPAFORCE"> F  </i>
   <i type="logical" name="LFXC"> F  </i>
   <i type="logical" name="LHARTREE"> T  </i>
   <i type="int" name="IBSE">     0</i>
   <v type="int" name="KPOINT">    -1     0     0     0</v>
   <i type="logical" name="LTCTE"> F  </i>
   <i type="logical" name="LTETE"> F  </i>
   <i type="logical" name="LTRIPLET"> F  </i>
   <i type="logical" name="LFXCEPS"> F  </i>
   <i type="logical" name="LFXHEG"> F  </i>
   <i type="int" name="NATURALO">     2</i>
   <i type="logical" name="L2ORDER"> F  </i>
   <i type="logical" name="LMP2LT"> F  </i>
   <i type="logical" name="LUSEW"> F  </i>
   <i name="ENCUTGW">     -2.00000000</i>
   <i name="ENCUTGWSOFT">     -2.00000000</i>
   <i name="ENCUTLF">     -1.00000000</i>
   <i type="int" name="LMAXMP2">    -1</i>
   <i name="SCISSOR">      0.00000000</i>
   <i type="int" name="NOMEGA">     0</i>
   <i type="int" name="NOMEGAR">     0</i>
   <i type="int" name="NBANDSGW">    -1</i>
   <i type="int" name="NBANDSO">    -1</i>
   <i type="int" name="NBANDSV">    -1</i>
   <i type="int" name="NELM">   200</i>
   <i type="int" name="NELMHF">     1</i>
   <i type="int" name="DIM">     3</i>
   <i type="int" name="ANTIRES">     0</i>
   <i name="OMEGAMAX">    -30.00000000</i>
   <i name="OMEGAMIN">    -30.00000000</i>
   <i name="OMEGATL">   -200.00000000</i>
   <i type="int" name="OMEGAGRID">   140</i>
   <i name="CSHIFT">     -0.10000000</i>
   <i type="logical" name="SELFENERGY"> F  </i>
   <i type="logical" name="LSPECTRAL"> F  </i>
   <i type="logical" name="LSPECTRALGW"> F  </i>
   <i type="logical" name="LSINGLES"> F  </i>
   <i type="logical" name="LFERMIGW"> F  </i>
   <i type="logical" name="ODDONLYGW"> F  </i>
   <i type="logical" name="EVENONLYGW"> F  </i>
   <i type="int" name="NKREDLFX">     1</i>
   <i type="int" name="NKREDLFY">     1</i>
   <i type="int" name="NKREDLFZ">     1</i>
   <i type="int" name="MAXMEM">  2800</i>
   <i type="int" name="TELESCOPE">     0</i>
   <i type="int" name="TAUPAR">     1</i>
   <i type="int" name="OMEGAPAR">    -1</i>
   <i name="LAMBDA">      1.00000000</i>
  </separator>
  <separator name="External order field" >
   <i name="OFIELD_KAPPA">      0.00000000</i>
   <v name="OFIELD_K">      0.00000000      0.00000000      0.00000000</v>
   <i name="OFIELD_Q6_NEAR">      0.00000000</i>
   <i name="OFIELD_Q6_FAR">      0.00000000</i>
   <i name="OFIELD_A">      0.00000000</i>
  </separator>
 </parameters>
 <atominfo>
  <atoms>      39 </atoms>
  <types>       3 </types>
  <array name="atoms" >
   <dimension dim="1">ion</dimension>
   <field type="string">element</field>
   <field type="int">atomtype</field>
   <set>
    <rc><c>Cs</c><c>   1</c></rc>
    <rc><c>Cs</c><c>   1</c></rc>
    <rc><c>Cs</c><c>   1</c></rc>
    <rc><c>Cs</c><c>   1</c></rc>
    <rc><c>Cs</c><c>   1</c></rc>
    <rc><c>Cs</c><c>   1</c></rc>
    <rc><c>Cs</c><c>   1</c></rc>
    <rc><c>Cs</c><c>   1</c></rc>
    <rc><c>Pb</c><c>   2</c></rc>
    <rc><c>Pb</c><c>   2</c></rc>
    <rc><c>Pb</c><c>   2</c></rc>
    <rc><c>Pb</c><c>   2</c></rc>
    <rc><c>Pb</c><c>   2</c></rc>
    <rc><c>Pb</c><c>   2</c></rc>
    <rc><c>Pb</c><c>   2</c></rc>
    <rc><c>Pb</c><c>   2</c></rc>
    <rc><c>Br</c><c>   3</c></rc>
    <rc><c>Br</c><c>   3</c></rc>
    <rc><c>Br</c><c>   3</c></rc>
    <rc><c>Br</c><c>   3</c></rc>
    <rc><c>Br</c><c>   3</c></rc>
    <rc><c>Br</c><c>   3</c></rc>
    <rc><c>Br</c><c>   3</c></rc>
    <rc><c>Br</c><c>   3</c></rc>
    <rc><c>Br</c><c>   3</c></rc>
    <rc><c>Br</c><c>   3</c></rc>
    <rc><c>Br</c><c>   3</c></rc>
    <rc><c>Br</c><c>   3</c></rc>
    <rc><c>Br</c><c>   3</c></rc>
    <rc><c>Br</c><c>   3</c></rc>
    <rc><c>Br</c><c>   3</c></rc>
    <rc><c>Br</c><c>   3</c></rc>
    <rc><c>Br</c><c>   3</c></rc>
    <rc><c>Br</c><c>   3</c></rc>
    <rc><c>Br</c><c>   3</c></rc>
    <rc><c>Br</c><c>   3</c></rc>
    <rc><c>Br</c><c>   3</c></rc>
    <rc><c>Br</c><c>   3</c></rc>
    <rc><c>Br</c><c>   3</c></rc>
   </set>
  </array>
  <array name="atomtypes" >
   <dimension dim="1">type</dimension>
   <field type="int">atomspertype</field>
   <field type="string">element</field>
   <field>mass</field>
   <field>valence</field>
   <field type="string">pseudopotential</field>
   <set>
    <rc><c>   8</c><c>Cs</c><c>    132.90000000</c><c>      9.00000000</c><c>  PAW_PBE Cs_sv 08Apr2002               </c></rc>
    <rc><c>   8</c><c>Pb</c><c>    207.20000000</c><c>     14.00000000</c><c>  PAW_PBE Pb_d 06Sep2000                </c></rc>
    <rc><c>  23</c><c>Br</c><c>     79.90400000</c><c>      7.00000000</c><c>  PAW_PBE Br 06Sep2000                  </c></rc>
   </set>
  </array>
 </atominfo>
 <structure name="initialpos" >
  <crystal>
   <varray name="basis" >
    <v>       8.45648900       0.00000000       8.04030100 </v>
    <v>       0.00000000      11.72984700       0.00000000 </v>
    <v>      -8.45648900       0.00000000       8.04030100 </v>
   </varray>
   <i name="volume">   1595.08833419 </i>
   <varray name="rec_basis" >
    <v>       0.05912619      -0.00000000       0.06218673 </v>
    <v>       0.00000000       0.08525260      -0.00000000 </v>
    <v>      -0.05912619       0.00000000       0.06218673 </v>
   </varray>
  </crystal>
  <varray name="positions" >
   <v>       0.24884200       0.23590000       0.19262500 </v>
   <v>       0.77562300       0.24479500       0.71929400 </v>
   <v>       0.77711100       0.76459900       0.25719000 </v>
   <v>       0.19289700       0.74818900       0.77174100 </v>
   <v>       0.30031400       0.25146500       0.73114900 </v>
   <v>       0.78494500       0.24511400       0.22711800 </v>
   <v>       0.73641800       0.75175600       0.80583800 </v>
   <v>       0.21428600       0.75265800       0.28994200 </v>
   <v>       0.99822500       0.00070900       0.99769000 </v>
   <v>       0.49957200       0.00156700       0.48447500 </v>
   <v>       0.49308200       0.00150600       0.99262400 </v>
   <v>       0.00596600       0.00026400       0.50655100 </v>
   <v>       0.50127200       0.50718100       0.00402600 </v>
   <v>       0.00663200       0.49274800       0.50664100 </v>
   <v>       0.99993400       0.49797800       0.00092200 </v>
   <v>       0.50762100       0.48675900       0.50826300 </v>
   <v>       0.46515000       0.75265600       0.95062100 </v>
   <v>       0.98133600       0.74644400       0.49431200 </v>
   <v>       0.96819100       0.24971300       0.97871200 </v>
   <v>       0.45606100       0.23983200       0.45122000 </v>
   <v>       0.01650200       0.74980700       0.03187400 </v>
   <v>       0.51760900       0.25592600       0.03413700 </v>
   <v>       0.03903200       0.24660700       0.54890900 </v>
   <v>       0.24818400       0.47079600       0.95526000 </v>
   <v>       0.75273000       0.45067300       0.46033700 </v>
   <v>       0.94426100       0.52795600       0.75370700 </v>
   <v>       0.54634600       0.03247100       0.73798400 </v>
   <v>       0.03473500       0.02141600       0.25548900 </v>
   <v>       0.74726300       0.97942300       0.03841700 </v>
   <v>       0.25577100       0.95827700       0.54801900 </v>
   <v>       0.24274800       0.02996800       0.93669000 </v>
   <v>       0.74740300       0.02872900       0.44894500 </v>
   <v>       0.43231200       0.97629400       0.23513200 </v>
   <v>       0.94296600       0.96970700       0.75093400 </v>
   <v>       0.75038500       0.52879000       0.05719900 </v>
   <v>       0.26100400       0.53165100       0.55397600 </v>
   <v>       0.55318600       0.47768900       0.76924400 </v>
   <v>       0.05003000       0.47051500       0.25836400 </v>
   <v>       0.50403200       0.66711200       0.35055600 </v>
  </varray>
 </structure>
 <calculation>
  <scstep>
   <time name="dav">   16.69   16.69</time>
   <time name="total">   18.15   18.17</time>
   <energy>
    <i name="alphaZ">    872.70583573 </i>
    <i name="ewald"> -17892.30425046 </i>
    <i name="hartreedc">  -7463.51503155 </i>
    <i name="XCdc">    908.14975480 </i>
    <i name="pawpsdc">  21345.28103884 </i>
    <i name="pawaedc"> -22405.85761495 </i>
    <i name="eentropy">     -0.00025559 </i>
    <i name="bandstr">   -239.89647849 </i>
    <i name="atom">  26212.11861568 </i>
    <i name="e_fr_energy">   1336.68161401 </i>
    <i name="e_wo_entrp">   1336.68186960 </i>
    <i name="e_0_energy">   1336.68174181 </i>
   </energy>
  </scstep>
  <scstep>
   <time name="dav">   18.51   18.57</time>
   <time name="total">   18.51   18.57</time>
   <energy>
    <i name="e_fr_energy">  -1110.66408559 </i>
    <i name="e_wo_entrp">  -1110.66408559 </i>
    <i name="e_0_energy">  -1110.66408559 </i>
   </energy>
  </scstep>
  <scstep>
   <time name="dav">   19.52   19.55</time>
   <time name="total">   19.52   19.55</time>
   <energy>
    <i name="e_fr_energy">  -1474.79499679 </i>
    <i name="e_wo_entrp">  -1474.79499679 </i>
    <i name="e_0_energy">  -1474.79499679 </i>
   </energy>
  </scstep>
  <scstep>
   <time name="dav">   18.12   18.16</time>
   <time name="total">   18.12   18.16</time>
   <energy>
    <i name="e_fr_energy">  -1486.98782814 </i>
    <i name="e_wo_entrp">  -1486.98782814 </i>
    <i name="e_0_energy">  -1486.98782814 </i>
   </energy>
  </scstep>
  <scstep>
   <time name="dav">   19.44   19.48</time>
   <time name="total">   22.15   22.20</time>
   <energy>
    <i name="e_fr_energy">  -1487.53443683 </i>
    <i name="e_wo_entrp">  -1487.53443683 </i>
    <i name="e_0_energy">  -1487.53443683 </i>
   </energy>
  </scstep>
  <scstep>
   <time name="dav">   19.14   19.14</time>
   <time name="total">   23.31   23.37</time>
   <energy>
    <i name="e_fr_energy">  -1409.77499164 </i>
    <i name="e_wo_entrp">  -1409.77499164 </i>
    <i name="e_0_energy">  -1409.77499164 </i>
   </energy>
  </scstep>
  <scstep>
   <time name="dav">   18.56   18.56</time>
   <time name="total">   22.77   22.79</time>
   <energy>
    <i name="e_fr_energy">  -1409.25640582 </i>
    <i name="e_wo_entrp">  -1409.25640582 </i>
    <i name="e_0_energy">  -1409.25640582 </i>
   </energy>
  </scstep>
  <scstep>
   <time name="dav">   18.03   18.03</time>
   <time name="total">   22.19   22.26</time>
   <energy>
    <i name="e_fr_energy">  -1409.43232731 </i>
    <i name="e_wo_entrp">  -1409.43232731 </i>
    <i name="e_0_energy">  -1409.43232731 </i>
   </energy>
  </scstep>
  <scstep>
   <time name="dav">   17.47   17.47</time>
   <time name="total">   21.66   21.69</time>
   <energy>
    <i name="e_fr_energy">  -1409.49972073 </i>
    <i name="e_wo_entrp">  -1409.49972073 </i>
    <i name="e_0_energy">  -1409.49972073 </i>
   </energy>
  </scstep>
  <scstep>
   <time name="dav">   19.39   19.39</time>
   <time name="total">   23.57   23.61</time>
   <energy>
    <i name="e_fr_energy">  -1409.50365070 </i>
    <i name="e_wo_entrp">  -1409.50365070 </i>
    <i name="e_0_energy">  -1409.50365070 </i>
   </energy>
  </scstep>
  <scstep>
   <time name="dav">   17.36   17.36</time>
   <time name="total">   21.56   21.57</time>
   <energy>
    <i name="e_fr_energy">  -1409.50576144 </i>
    <i name="e_wo_entrp">  -1409.50576144 </i>
    <i name="e_0_energy">  -1409.50576144 </i>
   </energy>
  </scstep>
  <scstep>
   <time name="dav">   17.32   17.32</time>
   <time name="total">   21.50   21.55</time>
   <energy>
    <i name="e_fr_energy">  -1409.50887984 </i>
    <i name="e_wo_entrp">  -1409.50887984 </i>
    <i name="e_0_energy">  -1409.50887984 </i>
   </energy>
  </scstep>
  <scstep>
   <time name="dav">   19.57   19.57</time>
   <time name="total">   23.76   23.80</time>
   <energy>
    <i name="e_fr_energy">  -1409.50856909 </i>
    <i name="e_wo_entrp">  -1409.50856909 </i>
    <i name="e_0_energy">  -1409.50856909 </i>
   </energy>
  </scstep>
  <scstep>
   <time name="dav">   17.76   17.76</time>
   <time name="total">   21.94   21.99</time>
   <energy>
    <i name="e_fr_energy">  -1409.50852094 </i>
    <i name="e_wo_entrp">  -1409.50852094 </i>
    <i name="e_0_energy">  -1409.50852094 </i>
   </energy>
  </scstep>
  <scstep>
   <time name="dav">   18.34   18.34</time>
   <time name="total">   22.52   22.57</time>
   <energy>
    <i name="e_fr_energy">  -1409.50850962 </i>
    <i name="e_wo_entrp">  -1409.50850962 </i>
    <i name="e_0_energy">  -1409.50850962 </i>
   </energy>
  </scstep>
  <scstep>
   <time name="dav">   17.47   17.47</time>
   <time name="total">   21.67   21.69</time>
   <energy>
    <i name="e_fr_energy">  -1409.50855840 </i>
    <i name="e_wo_entrp">  -1409.50855840 </i>
    <i name="e_0_energy">  -1409.50855840 </i>
   </energy>
  </scstep>
  <scstep>
   <time name="dav">   18.35   18.35</time>
   <time name="total">   22.52   22.57</time>
   <energy>
    <i name="e_fr_energy">  -1409.50856998 </i>
    <i name="e_wo_entrp">  -1409.50856998 </i>
    <i name="e_0_energy">  -1409.50856998 </i>
   </energy>
  </scstep>
  <scstep>
   <time name="dav">   14.95   14.96</time>
   <time name="total">   19.13   19.18</time>
   <energy>
    <i name="e_fr_energy">  -1409.50856247 </i>
    <i name="e_wo_entrp">  -1409.50856247 </i>
    <i name="e_0_energy">  -1409.50856247 </i>
   </energy>
  </scstep>
  <scstep>
   <time name="dav">   13.27   13.27</time>
   <time name="total">   17.44   17.50</time>
   <energy>
    <i name="e_fr_energy">  -1409.50855797 </i>
    <i name="e_wo_entrp">  -1409.50855797 </i>
    <i name="e_0_energy">  -1409.50855797 </i>
   </energy>
  </scstep>
  <scstep>
   <time name="dav">   12.83   12.83</time>
   <time name="total">   17.03   17.04</time>
   <energy>
    <i name="e_fr_energy">  -1409.50855556 </i>
    <i name="e_wo_entrp">  -1409.50855556 </i>
    <i name="e_0_energy">  -1409.50855556 </i>
   </energy>
  </scstep>
  <scstep>
   <time name="dav">   12.52   12.52</time>
   <time name="total">   13.98   14.04</time>
   <energy>
    <i name="alphaZ">    872.70583573 </i>
    <i name="ewald"> -17892.30425046 </i>
    <i name="hartreedc">  -7496.57945825 </i>
    <i name="XCdc">    943.62202191 </i>
    <i name="pawpsdc">  22740.13426362 </i>
    <i name="pawaedc"> -23798.32267132 </i>
    <i name="eentropy">     -0.00000000 </i>
    <i name="bandstr">  -2990.88291245 </i>
    <i name="atom">  26212.11861568 </i>
    <i name="e_fr_energy">  -1409.50855554 </i>
    <i name="e_wo_entrp">  -1409.50855554 </i>
    <i name="e_0_energy">  -1409.50855554 </i>
   </energy>
  </scstep>
  <structure>
   <crystal>
    <varray name="basis" >
     <v>       8.45648900       0.00000000       8.04030100 </v>
     <v>       0.00000000      11.72984700       0.00000000 </v>
     <v>      -8.45648900       0.00000000       8.04030100 </v>
    </varray>
    <i name="volume">   1595.08833419 </i>
    <varray name="rec_basis" >
     <v>       0.05912619      -0.00000000       0.06218673 </v>
     <v>       0.00000000       0.08525260      -0.00000000 </v>
     <v>      -0.05912619       0.00000000       0.06218673 </v>
    </varray>
   </crystal>
   <varray name="positions" >
    <v>       0.24884200       0.23590000       0.19262500 </v>
    <v>       0.77562300       0.24479500       0.71929400 </v>
    <v>       0.77711100       0.76459900       0.25719000 </v>
    <v>       0.19289700       0.74818900       0.77174100 </v>
    <v>       0.30031400       0.25146500       0.73114900 </v>
    <v>       0.78494500       0.24511400       0.22711800 </v>
    <v>       0.73641800       0.75175600       0.80583800 </v>
    <v>       0.21428600       0.75265800       0.28994200 </v>
    <v>       0.99822500       0.00070900       0.99769000 </v>
    <v>       0.49957200       0.00156700       0.48447500 </v>
    <v>       0.49308200       0.00150600       0.99262400 </v>
    <v>       0.00596600       0.00026400       0.50655100 </v>
    <v>       0.50127200       0.50718100       0.00402600 </v>
    <v>       0.00663200       0.49274800       0.50664100 </v>
    <v>       0.99993400       0.49797800       0.00092200 </v>
    <v>       0.50762100       0.48675900       0.50826300 </v>
    <v>       0.46515000       0.75265600       0.95062100 </v>
    <v>       0.98133600       0.74644400       0.49431200 </v>
    <v>       0.96819100       0.24971300       0.97871200 </v>
    <v>       0.45606100       0.23983200       0.45122000 </v>
    <v>       0.01650200       0.74980700       0.03187400 </v>
    <v>       0.51760900       0.25592600       0.03413700 </v>
    <v>       0.03903200       0.24660700       0.54890900 </v>
    <v>       0.24818400       0.47079600       0.95526000 </v>
    <v>       0.75273000       0.45067300       0.46033700 </v>
    <v>       0.94426100       0.52795600       0.75370700 </v>
    <v>       0.54634600       0.03247100       0.73798400 </v>
    <v>       0.03473500       0.02141600       0.25548900 </v>
    <v>       0.74726300       0.97942300       0.03841700 </v>
    <v>       0.25577100       0.95827700       0.54801900 </v>
    <v>       0.24274800       0.02996800       0.93669000 </v>
    <v>       0.74740300       0.02872900       0.44894500 </v>
    <v>       0.43231200       0.97629400       0.23513200 </v>
    <v>       0.94296600       0.96970700       0.75093400 </v>
    <v>       0.75038500       0.52879000       0.05719900 </v>
    <v>       0.26100400       0.53165100       0.55397600 </v>
    <v>       0.55318600       0.47768900       0.76924400 </v>
    <v>       0.05003000       0.47051500       0.25836400 </v>
    <v>       0.50403200       0.66711200       0.35055600 </v>
   </varray>
  </structure>
  <varray name="forces" >
   <v>      -0.00163914      -0.00090893       0.00098898 </v>
   <v>       0.00137689       0.00055938      -0.00000140 </v>
   <v>      -0.00023818       0.00121339       0.00153726 </v>
   <v>       0.00041340       0.00133657       0.00008929 </v>
   <v>       0.00017353       0.00000449       0.00342359 </v>
   <v>      -0.00095998       0.00009013       0.00214684 </v>
   <v>      -0.00056937       0.00162986       0.00123706 </v>
   <v>       0.00272826       0.00103453      -0.00025164 </v>
   <v>       0.00382359      -0.00369744       0.00079962 </v>
   <v>      -0.00119908      -0.00169687      -0.00039661 </v>
   <v>      -0.00185611      -0.00078496      -0.00672885 </v>
   <v>      -0.00242449       0.00015398       0.00261354 </v>
   <v>      -0.00718766       0.00204934      -0.00146139 </v>
   <v>       0.00124283       0.00065749       0.00575184 </v>
   <v>      -0.00201311       0.00186621       0.00325222 </v>
   <v>      -0.00459977      -0.00684585       0.00043180 </v>
   <v>       0.00114343       0.00262996      -0.00094404 </v>
   <v>       0.00142888       0.00339395       0.00206079 </v>
   <v>      -0.00347048       0.00602934       0.00064647 </v>
   <v>       0.00115537       0.00618476       0.00109807 </v>
   <v>       0.00001234      -0.00618741      -0.00068639 </v>
   <v>      -0.00140029      -0.00277983      -0.00352869 </v>
   <v>      -0.00116939      -0.00649329       0.00228678 </v>
   <v>      -0.00317590       0.00045315      -0.00152076 </v>
   <v>      -0.00124703      -0.00122872      -0.00062882 </v>
   <v>       0.00187734      -0.00147261      -0.00519976 </v>
   <v>      -0.00063538       0.00144655       0.00141392 </v>
   <v>       0.00205247      -0.00001171      -0.00242329 </v>
   <v>       0.00009563      -0.00184794      -0.00434874 </v>
   <v>      -0.00159649       0.00290823      -0.00209786 </v>
   <v>      -0.00027286      -0.00078568      -0.00207094 </v>
   <v>       0.00132299       0.00033508       0.00153802 </v>
   <v>       0.00379185      -0.00022156      -0.00295796 </v>
   <v>      -0.00396008      -0.00052015      -0.00196638 </v>
   <v>       0.00374756      -0.00031691       0.00476890 </v>
   <v>       0.00184422      -0.00062111       0.00265054 </v>
   <v>       0.00592975      -0.00025304      -0.00265060 </v>
   <v>       0.00267306      -0.00001778       0.00136635 </v>
   <v>       0.00278142       0.00271541      -0.00023772 </v>
  </varray>
  <varray name="stress" >
   <v>      -7.41427146       0.40026802       0.62934371 </v>
   <v>       0.40022561      -4.88099487      -0.12875223 </v>
   <v>       0.62931404      -0.12870193      -4.86143794 </v>
  </varray>
  <energy>
   <i name="e_fr_energy">  -1409.50855554 </i>
   <i name="e_wo_entrp">  -1409.50855554 </i>
   <i name="e_0_energy">     -0.00000000 </i>
  </energy>
  <time name="totalsc">  488.23  489.13</time>
  <eigenvalues>
   <array>
    <dimension dim="1">band</dimension>
    <dimension dim="2">kpoint</dimension>
    <dimension dim="3">spin</dimension>
    <field>eigene</field>
    <field>occ</field>
    <set>
     <set comment="spin 1">
      <set comment="kpoint 1">
       <r>  -20.8855    1.0000 </r>
       <r>  -20.8101    1.0000 </r>
       <r>  -20.7567    1.0000 </r>
       <r>  -20.7359    1.0000 </r>
       <r>  -20.7181    1.0000 </r>
       <r>  -20.7142    1.0000 </r>
       <r>  -20.7037    1.0000 </r>
       <r>  -20.6829    1.0000 </r>
       <r>  -16.7560    1.0000 </r>
       <r>  -16.7221    1.0000 </r>
       <r>  -16.6982    1.0000 </r>
       <r>  -16.6740    1.0000 </r>
       <r>  -16.6693    1.0000 </r>
       <r>  -16.6599    1.0000 </r>
       <r>  -16.6432    1.0000 </r>
       <r>  -16.6215    1.0000 </r>
       <r>  -16.5746    1.0000 </r>
       <r>  -16.5561    1.0000 </r>
       <r>  -16.5553    1.0000 </r>
       <r>  -16.5498    1.0000 </r>
       <r>  -16.5487    1.0000 </r>
       <r>  -16.5143    1.0000 </r>
       <r>  -16.5075    1.0000 </r>
       <r>  -16.4761    1.0000 </r>
       <r>  -16.4603    1.0000 </r>
       <r>  -16.4442    1.0000 </r>
       <r>  -16.4343    1.0000 </r>
       <r>  -16.4196    1.0000 </r>
       <r>  -16.3991    1.0000 </r>
       <r>  -16.3949    1.0000 </r>
       <r>  -16.3900    1.0000 </r>
       <r>  -16.3748    1.0000 </r>
       <r>  -16.3694    1.0000 </r>
       <r>  -16.3128    1.0000 </r>
       <r>  -16.3096    1.0000 </r>
       <r>  -16.3071    1.0000 </r>
       <r>  -16.3065    1.0000 </r>
       <r>  -16.3033    1.0000 </r>
       <r>  -16.3026    1.0000 </r>
       <r>  -16.3018    1.0000 </r>
       <r>  -16.2976    1.0000 </r>
       <r>  -16.2975    1.0000 </r>
       <r>  -16.2949    1.0000 </r>
       <r>  -16.2943    1.0000 </r>
       <r>  -16.2928    1.0000 </r>
       <r>  -16.2916    1.0000 </r>
       <r>  -16.2873    1.0000 </r>
       <r>  -16.2838    1.0000 </r>
       <r>  -14.5076    1.0000 </r>
       <r>  -14.4206    1.0000 </r>
       <r>  -14.3319    1.0000 </r>
       <r>  -14.1814    1.0000 </r>
       <r>  -14.1647    1.0000 </r>
       <r>  -14.1378    1.0000 </r>
       <r>  -14.0871    1.0000 </r>
       <r>  -14.0729    1.0000 </r>
       <r>  -14.0694    1.0000 </r>
       <r>  -14.0601    1.0000 </r>
       <r>  -14.0355    1.0000 </r>
       <r>  -14.0337    1.0000 </r>
       <r>  -14.0211    1.0000 </r>
       <r>  -14.0162    1.0000 </r>
       <r>  -14.0025    1.0000 </r>
       <r>  -13.9947    1.0000 </r>
       <r>  -13.9295    1.0000 </r>
       <r>  -13.9194    1.0000 </r>
       <r>  -13.8784    1.0000 </r>
       <r>  -13.7838    1.0000 </r>
       <r>  -13.7652    1.0000 </r>
       <r>  -13.7560    1.0000 </r>
       <r>  -13.7213    1.0000 </r>
       <r>   -8.2179    1.0000 </r>
       <r>   -7.8066    1.0000 </r>
       <r>   -7.7646    1.0000 </r>
       <r>   -7.7131    1.0000 </r>
       <r>   -7.3550    1.0000 </r>
       <r>   -7.3289    1.0000 </r>
       <r>   -7.2780    1.0000 </r>
       <r>   -7.2612    1.0000 </r>
       <r>   -7.2525    1.0000 </r>
       <r>   -7.2374    1.0000 </r>
       <r>   -7.2113    1.0000 </r>
       <r>   -7.2047    1.0000 </r>
       <r>   -7.1903    1.0000 </r>
       <r>   -7.1753    1.0000 </r>
       <r>   -7.1574    1.0000 </r>
       <r>   -7.1516    1.0000 </r>
       <r>   -7.1450    1.0000 </r>
       <r>   -7.1441    1.0000 </r>
       <r>   -7.1390    1.0000 </r>
       <r>   -7.1315    1.0000 </r>
       <r>   -7.1285    1.0000 </r>
       <r>   -7.1231    1.0000 </r>
       <r>   -7.1183    1.0000 </r>
       <r>   -7.1123    1.0000 </r>
       <r>   -7.1077    1.0000 </r>
       <r>   -7.1028    1.0000 </r>
       <r>   -7.0950    1.0000 </r>
       <r>   -7.0859    1.0000 </r>
       <r>   -7.0792    1.0000 </r>
       <r>   -7.0662    1.0000 </r>
       <r>   -7.0476    1.0000 </r>
       <r>   -6.6005    1.0000 </r>
       <r>   -3.4179    1.0000 </r>
       <r>   -3.3230    1.0000 </r>
       <r>   -3.2920    1.0000 </r>
       <r>   -3.2782    1.0000 </r>
       <r>   -3.2349    1.0000 </r>
       <r>   -3.2149    1.0000 </r>
       <r>   -3.1975    1.0000 </r>
       <r>   -3.1325    1.0000 </r>
       <r>   -3.0943    1.0000 </r>
       <r>   -3.0533    1.0000 </r>
       <r>   -2.9356    1.0000 </r>
       <r>   -2.8870    1.0000 </r>
       <r>   -2.2488    1.0000 </r>
       <r>   -2.1855    1.0000 </r>
       <r>   -2.1610    1.0000 </r>
       <r>   -2.0778    1.0000 </r>
       <r>   -2.0269    1.0000 </r>
       <r>   -1.9949    1.0000 </r>
       <r>   -1.9437    1.0000 </r>
       <r>   -1.8929    1.0000 </r>
       <r>   -1.8517    1.0000 </r>
       <r>   -1.8241    1.0000 </r>
       <r>   -1.7788    1.0000 </r>
       <r>   -1.7393    1.0000 </r>
       <r>   -1.7172    1.0000 </r>
       <r>   -1.6745    1.0000 </r>
       <r>   -1.6381    1.0000 </r>
       <r>   -1.6051    1.0000 </r>
       <r>   -1.5657    1.0000 </r>
       <r>   -1.5565    1.0000 </r>
       <r>   -1.5510    1.0000 </r>
       <r>   -1.5437    1.0000 </r>
       <r>   -1.5124    1.0000 </r>
       <r>   -1.5018    1.0000 </r>
       <r>   -1.4911    1.0000 </r>
       <r>   -1.4753    1.0000 </r>
       <r>   -1.4665    1.0000 </r>
       <r>   -1.4539    1.0000 </r>
       <r>   -1.4332    1.0000 </r>
       <r>   -1.4158    1.0000 </r>
       <r>   -1.3975    1.0000 </r>
       <r>   -1.3927    1.0000 </r>
       <r>   -1.3646    1.0000 </r>
       <r>   -1.3622    1.0000 </r>
       <r>   -1.3383    1.0000 </r>
       <r>   -1.3315    1.0000 </r>
       <r>   -1.3266    1.0000 </r>
       <r>   -1.3192    1.0000 </r>
       <r>   -1.2897    1.0000 </r>
       <r>   -1.2873    1.0000 </r>
       <r>   -1.2604    1.0000 </r>
       <r>   -1.2324    1.0000 </r>
       <r>   -1.2016    1.0000 </r>
       <r>   -1.2002    1.0000 </r>
       <r>   -1.1711    1.0000 </r>
       <r>   -1.1054    1.0000 </r>
       <r>   -1.0931    1.0000 </r>
       <r>   -1.0676    1.0000 </r>
       <r>   -1.0082    1.0000 </r>
       <r>   -0.9970    1.0000 </r>
       <r>   -0.9733    1.0000 </r>
       <r>   -0.8814    1.0000 </r>
       <r>   -0.8116    1.0000 </r>
       <r>   -0.7625    1.0000 </r>
       <r>   -0.7216    1.0000 </r>
       <r>   -0.3892    1.0000 </r>
       <r>   -0.2366    1.0000 </r>
       <r>   -0.1452    1.0000 </r>
       <r>    0.3513    1.0000 </r>
       <r>    2.5746    0.0000 </r>
       <r>    2.7241    0.0000 </r>
       <r>    2.8112    0.0000 </r>
       <r>    2.9431    0.0000 </r>
       <r>    3.0223    0.0000 </r>
       <r>    3.1115    0.0000 </r>
       <r>    3.1252    0.0000 </r>
       <r>    3.2197    0.0000 </r>
       <r>    3.2736    0.0000 </r>
       <r>    3.4694    0.0000 </r>
       <r>    3.4831    0.0000 </r>
       <r>    3.5297    0.0000 </r>
       <r>    4.2326    0.0000 </r>
       <r>    4.6599    0.0000 </r>
       <r>    4.8600    0.0000 </r>
       <r>    5.4923    0.0000 </r>
       <r>    5.6003    0.0000 </r>
       <r>    5.7417    0.0000 </r>
       <r>    5.7876    0.0000 </r>
       <r>    5.8260    0.0000 </r>
       <r>    5.8744    0.0000 </r>
       <r>    5.9208    0.0000 </r>
       <r>    6.0098    0.0000 </r>
       <r>    6.0551    0.0000 </r>
       <r>    6.0810    0.0000 </r>
       <r>    6.1341    0.0000 </r>
       <r>    6.1579    0.0000 </r>
       <r>    6.2222    0.0000 </r>
       <r>    6.2886    0.0000 </r>
       <r>    6.3655    0.0000 </r>
       <r>    6.3964    0.0000 </r>
       <r>    6.4452    0.0000 </r>
       <r>    6.4984    0.0000 </r>
       <r>    6.5546    0.0000 </r>
       <r>    6.5893    0.0000 </r>
       <r>    6.6802    0.0000 </r>
      </set>
      <set comment="kpoint 2">
       <r>  -20.8855    1.0000 </r>
       <r>  -20.8101    1.0000 </r>
       <r>  -20.7566    1.0000 </r>
       <r>  -20.7359    1.0000 </r>
       <r>  -20.7179    1.0000 </r>
       <r>  -20.7142    1.0000 </r>
       <r>  -20.7039    1.0000 </r>
       <r>  -20.6829    1.0000 </r>
       <r>  -16.7551    1.0000 </r>
       <r>  -16.7219    1.0000 </r>
       <r>  -16.6974    1.0000 </r>
       <r>  -16.6740    1.0000 </r>
       <r>  -16.6684    1.0000 </r>
       <r>  -16.6593    1.0000 </r>
       <r>  -16.6406    1.0000 </r>
       <r>  -16.6193    1.0000 </r>
       <r>  -16.5746    1.0000 </r>
       <r>  -16.5561    1.0000 </r>
       <r>  -16.5553    1.0000 </r>
       <r>  -16.5499    1.0000 </r>
       <r>  -16.5487    1.0000 </r>
       <r>  -16.5143    1.0000 </r>
       <r>  -16.5076    1.0000 </r>
       <r>  -16.4761    1.0000 </r>
       <r>  -16.4592    1.0000 </r>
       <r>  -16.4417    1.0000 </r>
       <r>  -16.4326    1.0000 </r>
       <r>  -16.4100    1.0000 </r>
       <r>  -16.4011    1.0000 </r>
       <r>  -16.3964    1.0000 </r>
       <r>  -16.3952    1.0000 </r>
       <r>  -16.3876    1.0000 </r>
       <r>  -16.3736    1.0000 </r>
       <r>  -16.3129    1.0000 </r>
       <r>  -16.3096    1.0000 </r>
       <r>  -16.3071    1.0000 </r>
       <r>  -16.3065    1.0000 </r>
       <r>  -16.3034    1.0000 </r>
       <r>  -16.3026    1.0000 </r>
       <r>  -16.3018    1.0000 </r>
       <r>  -16.2976    1.0000 </r>
       <r>  -16.2975    1.0000 </r>
       <r>  -16.2949    1.0000 </r>
       <r>  -16.2943    1.0000 </r>
       <r>  -16.2928    1.0000 </r>
       <r>  -16.2917    1.0000 </r>
       <r>  -16.2873    1.0000 </r>
       <r>  -16.2838    1.0000 </r>
       <r>  -14.4998    1.0000 </r>
       <r>  -14.4172    1.0000 </r>
       <r>  -14.3535    1.0000 </r>
       <r>  -14.1753    1.0000 </r>
       <r>  -14.1694    1.0000 </r>
       <r>  -14.1587    1.0000 </r>
       <r>  -14.1502    1.0000 </r>
       <r>  -14.0848    1.0000 </r>
       <r>  -14.0700    1.0000 </r>
       <r>  -14.0629    1.0000 </r>
       <r>  -14.0391    1.0000 </r>
       <r>  -14.0232    1.0000 </r>
       <r>  -14.0081    1.0000 </r>
       <r>  -13.9906    1.0000 </r>
       <r>  -13.9762    1.0000 </r>
       <r>  -13.9362    1.0000 </r>
       <r>  -13.8905    1.0000 </r>
       <r>  -13.8513    1.0000 </r>
       <r>  -13.8466    1.0000 </r>
       <r>  -13.8356    1.0000 </r>
       <r>  -13.8290    1.0000 </r>
       <r>  -13.7674    1.0000 </r>
       <r>  -13.7506    1.0000 </r>
       <r>   -8.0066    1.0000 </r>
       <r>   -7.9900    1.0000 </r>
       <r>   -7.6269    1.0000 </r>
       <r>   -7.5815    1.0000 </r>
       <r>   -7.5003    1.0000 </r>
       <r>   -7.4502    1.0000 </r>
       <r>   -7.3315    1.0000 </r>
       <r>   -7.2758    1.0000 </r>
       <r>   -7.2567    1.0000 </r>
       <r>   -7.2466    1.0000 </r>
       <r>   -7.2173    1.0000 </r>
       <r>   -7.2035    1.0000 </r>
       <r>   -7.1882    1.0000 </r>
       <r>   -7.1783    1.0000 </r>
       <r>   -7.1609    1.0000 </r>
       <r>   -7.1545    1.0000 </r>
       <r>   -7.1511    1.0000 </r>
       <r>   -7.1457    1.0000 </r>
       <r>   -7.1383    1.0000 </r>
       <r>   -7.1315    1.0000 </r>
       <r>   -7.1280    1.0000 </r>
       <r>   -7.1235    1.0000 </r>
       <r>   -7.1124    1.0000 </r>
       <r>   -7.1060    1.0000 </r>
       <r>   -7.1037    1.0000 </r>
       <r>   -7.0952    1.0000 </r>
       <r>   -7.0904    1.0000 </r>
       <r>   -7.0739    1.0000 </r>
       <r>   -7.0706    1.0000 </r>
       <r>   -7.0542    1.0000 </r>
       <r>   -7.0213    1.0000 </r>
       <r>   -6.8424    1.0000 </r>
       <r>   -3.3951    1.0000 </r>
       <r>   -3.2793    1.0000 </r>
       <r>   -3.2629    1.0000 </r>
       <r>   -3.2599    1.0000 </r>
       <r>   -3.1342    1.0000 </r>
       <r>   -3.1310    1.0000 </r>
       <r>   -2.9812    1.0000 </r>
       <r>   -2.9606    1.0000 </r>
       <r>   -2.5778    1.0000 </r>
       <r>   -2.5449    1.0000 </r>
       <r>   -2.5288    1.0000 </r>
       <r>   -2.4769    1.0000 </r>
       <r>   -2.4625    1.0000 </r>
       <r>   -2.3822    1.0000 </r>
       <r>   -2.3639    1.0000 </r>
       <r>   -2.3393    1.0000 </r>
       <r>   -2.1679    1.0000 </r>
       <r>   -2.0960    1.0000 </r>
       <r>   -2.0852    1.0000 </r>
       <r>   -2.0380    1.0000 </r>
       <r>   -2.0097    1.0000 </r>
       <r>   -1.9339    1.0000 </r>
       <r>   -1.8567    1.0000 </r>
       <r>   -1.8480    1.0000 </r>
       <r>   -1.7938    1.0000 </r>
       <r>   -1.7869    1.0000 </r>
       <r>   -1.7638    1.0000 </r>
       <r>   -1.7057    1.0000 </r>
       <r>   -1.6381    1.0000 </r>
       <r>   -1.5696    1.0000 </r>
       <r>   -1.5535    1.0000 </r>
       <r>   -1.5256    1.0000 </r>
       <r>   -1.5197    1.0000 </r>
       <r>   -1.5030    1.0000 </r>
       <r>   -1.4852    1.0000 </r>
       <r>   -1.4665    1.0000 </r>
       <r>   -1.4541    1.0000 </r>
       <r>   -1.4409    1.0000 </r>
       <r>   -1.4347    1.0000 </r>
       <r>   -1.4225    1.0000 </r>
       <r>   -1.4016    1.0000 </r>
       <r>   -1.3876    1.0000 </r>
       <r>   -1.3735    1.0000 </r>
       <r>   -1.3364    1.0000 </r>
       <r>   -1.3311    1.0000 </r>
       <r>   -1.3203    1.0000 </r>
       <r>   -1.3074    1.0000 </r>
       <r>   -1.2920    1.0000 </r>
       <r>   -1.2754    1.0000 </r>
       <r>   -1.2724    1.0000 </r>
       <r>   -1.2487    1.0000 </r>
       <r>   -1.2237    1.0000 </r>
       <r>   -1.2012    1.0000 </r>
       <r>   -1.1784    1.0000 </r>
       <r>   -1.1614    1.0000 </r>
       <r>   -1.1335    1.0000 </r>
       <r>   -1.1152    1.0000 </r>
       <r>   -1.0960    1.0000 </r>
       <r>   -1.0891    1.0000 </r>
       <r>   -1.0396    1.0000 </r>
       <r>   -1.0071    1.0000 </r>
       <r>   -0.9265    1.0000 </r>
       <r>   -0.8759    1.0000 </r>
       <r>   -0.7653    1.0000 </r>
       <r>   -0.7455    1.0000 </r>
       <r>   -0.5844    1.0000 </r>
       <r>   -0.4933    1.0000 </r>
       <r>   -0.2582    1.0000 </r>
       <r>    0.0488    1.0000 </r>
       <r>    2.6483    0.0000 </r>
       <r>    2.9382    0.0000 </r>
       <r>    2.9506    0.0000 </r>
       <r>    2.9731    0.0000 </r>
       <r>    3.1487    0.0000 </r>
       <r>    3.3093    0.0000 </r>
       <r>    3.3260    0.0000 </r>
       <r>    3.3956    0.0000 </r>
       <r>    4.1604    0.0000 </r>
       <r>    4.1948    0.0000 </r>
       <r>    4.2651    0.0000 </r>
       <r>    4.4407    0.0000 </r>
       <r>    4.5009    0.0000 </r>
       <r>    4.5148    0.0000 </r>
       <r>    4.5883    0.0000 </r>
       <r>    4.7142    0.0000 </r>
       <r>    4.7468    0.0000 </r>
       <r>    4.8465    0.0000 </r>
       <r>    5.3433    0.0000 </r>
       <r>    5.5705    0.0000 </r>
       <r>    5.6764    0.0000 </r>
       <r>    5.8046    0.0000 </r>
       <r>    5.8817    0.0000 </r>
       <r>    5.9310    0.0000 </r>
       <r>    6.0028    0.0000 </r>
       <r>    6.0364    0.0000 </r>
       <r>    6.1519    0.0000 </r>
       <r>    6.2401    0.0000 </r>
       <r>    6.2649    0.0000 </r>
       <r>    6.3224    0.0000 </r>
       <r>    6.3576    0.0000 </r>
       <r>    6.4018    0.0000 </r>
       <r>    6.4490    0.0000 </r>
       <r>    6.5124    0.0000 </r>
       <r>    6.5922    0.0000 </r>
       <r>    6.6432    0.0000 </r>
      </set>
      <set comment="kpoint 3">
       <r>  -20.8855    1.0000 </r>
       <r>  -20.8101    1.0000 </r>
       <r>  -20.7567    1.0000 </r>
       <r>  -20.7359    1.0000 </r>
       <r>  -20.7179    1.0000 </r>
       <r>  -20.7144    1.0000 </r>
       <r>  -20.7037    1.0000 </r>
       <r>  -20.6829    1.0000 </r>
       <r>  -16.7561    1.0000 </r>
       <r>  -16.7219    1.0000 </r>
       <r>  -16.6976    1.0000 </r>
       <r>  -16.6740    1.0000 </r>
       <r>  -16.6695    1.0000 </r>
       <r>  -16.6596    1.0000 </r>
       <r>  -16.6406    1.0000 </r>
       <r>  -16.6216    1.0000 </r>
       <r>  -16.5746    1.0000 </r>
       <r>  -16.5561    1.0000 </r>
       <r>  -16.5553    1.0000 </r>
       <r>  -16.5499    1.0000 </r>
       <r>  -16.5487    1.0000 </r>
       <r>  -16.5143    1.0000 </r>
       <r>  -16.5075    1.0000 </r>
       <r>  -16.4536    1.0000 </r>
       <r>  -16.4481    1.0000 </r>
       <r>  -16.4423    1.0000 </r>
       <r>  -16.4290    1.0000 </r>
       <r>  -16.4233    1.0000 </r>
       <r>  -16.4159    1.0000 </r>
       <r>  -16.4032    1.0000 </r>
       <r>  -16.3971    1.0000 </r>
       <r>  -16.3862    1.0000 </r>
       <r>  -16.3703    1.0000 </r>
       <r>  -16.3128    1.0000 </r>
       <r>  -16.3095    1.0000 </r>
       <r>  -16.3068    1.0000 </r>
       <r>  -16.3066    1.0000 </r>
       <r>  -16.3033    1.0000 </r>
       <r>  -16.3026    1.0000 </r>
       <r>  -16.3017    1.0000 </r>
       <r>  -16.2976    1.0000 </r>
       <r>  -16.2975    1.0000 </r>
       <r>  -16.2950    1.0000 </r>
       <r>  -16.2943    1.0000 </r>
       <r>  -16.2928    1.0000 </r>
       <r>  -16.2917    1.0000 </r>
       <r>  -16.2873    1.0000 </r>
       <r>  -16.2838    1.0000 </r>
       <r>  -14.4971    1.0000 </r>
       <r>  -14.4315    1.0000 </r>
       <r>  -14.3144    1.0000 </r>
       <r>  -14.2598    1.0000 </r>
       <r>  -14.1614    1.0000 </r>
       <r>  -14.1479    1.0000 </r>
       <r>  -14.1057    1.0000 </r>
       <r>  -14.0854    1.0000 </r>
       <r>  -14.0684    1.0000 </r>
       <r>  -14.0372    1.0000 </r>
       <r>  -14.0215    1.0000 </r>
       <r>  -14.0159    1.0000 </r>
       <r>  -14.0094    1.0000 </r>
       <r>  -14.0044    1.0000 </r>
       <r>  -13.9899    1.0000 </r>
       <r>  -13.9322    1.0000 </r>
       <r>  -13.9040    1.0000 </r>
       <r>  -13.8866    1.0000 </r>
       <r>  -13.8771    1.0000 </r>
       <r>  -13.8234    1.0000 </r>
       <r>  -13.8181    1.0000 </r>
       <r>  -13.7678    1.0000 </r>
       <r>  -13.7268    1.0000 </r>
       <r>   -8.0516    1.0000 </r>
       <r>   -7.9562    1.0000 </r>
       <r>   -7.6781    1.0000 </r>
       <r>   -7.5324    1.0000 </r>
       <r>   -7.4594    1.0000 </r>
       <r>   -7.4535    1.0000 </r>
       <r>   -7.3350    1.0000 </r>
       <r>   -7.2741    1.0000 </r>
       <r>   -7.2564    1.0000 </r>
       <r>   -7.2463    1.0000 </r>
       <r>   -7.2148    1.0000 </r>
       <r>   -7.1989    1.0000 </r>
       <r>   -7.1815    1.0000 </r>
       <r>   -7.1610    1.0000 </r>
       <r>   -7.1544    1.0000 </r>
       <r>   -7.1508    1.0000 </r>
       <r>   -7.1482    1.0000 </r>
       <r>   -7.1418    1.0000 </r>
       <r>   -7.1393    1.0000 </r>
       <r>   -7.1350    1.0000 </r>
       <r>   -7.1285    1.0000 </r>
       <r>   -7.1239    1.0000 </r>
       <r>   -7.1117    1.0000 </r>
       <r>   -7.1050    1.0000 </r>
       <r>   -7.1017    1.0000 </r>
       <r>   -7.0983    1.0000 </r>
       <r>   -7.0962    1.0000 </r>
       <r>   -7.0864    1.0000 </r>
       <r>   -7.0732    1.0000 </r>
       <r>   -7.0699    1.0000 </r>
       <r>   -7.0062    1.0000 </r>
       <r>   -6.8899    1.0000 </r>
       <r>   -3.2999    1.0000 </r>
       <r>   -3.2853    1.0000 </r>
       <r>   -3.2287    1.0000 </r>
       <r>   -3.1874    1.0000 </r>
       <r>   -3.1636    1.0000 </r>
       <r>   -3.1287    1.0000 </r>
       <r>   -3.0905    1.0000 </r>
       <r>   -2.9391    1.0000 </r>
       <r>   -2.8719    1.0000 </r>
       <r>   -2.5612    1.0000 </r>
       <r>   -2.5200    1.0000 </r>
       <r>   -2.4961    1.0000 </r>
       <r>   -2.4687    1.0000 </r>
       <r>   -2.3986    1.0000 </r>
       <r>   -2.3848    1.0000 </r>
       <r>   -2.1952    1.0000 </r>
       <r>   -2.1350    1.0000 </r>
       <r>   -2.0849    1.0000 </r>
       <r>   -2.0334    1.0000 </r>
       <r>   -1.9940    1.0000 </r>
       <r>   -1.9902    1.0000 </r>
       <r>   -1.9207    1.0000 </r>
       <r>   -1.9198    1.0000 </r>
       <r>   -1.8641    1.0000 </r>
       <r>   -1.8058    1.0000 </r>
       <r>   -1.7574    1.0000 </r>
       <r>   -1.7160    1.0000 </r>
       <r>   -1.6896    1.0000 </r>
       <r>   -1.6781    1.0000 </r>
       <r>   -1.6083    1.0000 </r>
       <r>   -1.5761    1.0000 </r>
       <r>   -1.5379    1.0000 </r>
       <r>   -1.5110    1.0000 </r>
       <r>   -1.5046    1.0000 </r>
       <r>   -1.4863    1.0000 </r>
       <r>   -1.4686    1.0000 </r>
       <r>   -1.4505    1.0000 </r>
       <r>   -1.4349    1.0000 </r>
       <r>   -1.4182    1.0000 </r>
       <r>   -1.4018    1.0000 </r>
       <r>   -1.3972    1.0000 </r>
       <r>   -1.3792    1.0000 </r>
       <r>   -1.3630    1.0000 </r>
       <r>   -1.3471    1.0000 </r>
       <r>   -1.3383    1.0000 </r>
       <r>   -1.3248    1.0000 </r>
       <r>   -1.3086    1.0000 </r>
       <r>   -1.2988    1.0000 </r>
       <r>   -1.2805    1.0000 </r>
       <r>   -1.2555    1.0000 </r>
       <r>   -1.2392    1.0000 </r>
       <r>   -1.2150    1.0000 </r>
       <r>   -1.2000    1.0000 </r>
       <r>   -1.1789    1.0000 </r>
       <r>   -1.1609    1.0000 </r>
       <r>   -1.1323    1.0000 </r>
       <r>   -1.1155    1.0000 </r>
       <r>   -1.1092    1.0000 </r>
       <r>   -1.0802    1.0000 </r>
       <r>   -1.0615    1.0000 </r>
       <r>   -1.0308    1.0000 </r>
       <r>   -0.8844    1.0000 </r>
       <r>   -0.8431    1.0000 </r>
       <r>   -0.7732    1.0000 </r>
       <r>   -0.6406    1.0000 </r>
       <r>   -0.5980    1.0000 </r>
       <r>   -0.5284    1.0000 </r>
       <r>   -0.1596    1.0000 </r>
       <r>   -0.0001    1.0000 </r>
       <r>    2.4705    0.0000 </r>
       <r>    2.8831    0.0000 </r>
       <r>    2.9239    0.0000 </r>
       <r>    3.0713    0.0000 </r>
       <r>    3.1939    0.0000 </r>
       <r>    3.2306    0.0000 </r>
       <r>    3.3094    0.0000 </r>
       <r>    3.3364    0.0000 </r>
       <r>    3.4638    0.0000 </r>
       <r>    3.9584    0.0000 </r>
       <r>    4.4111    0.0000 </r>
       <r>    4.4793    0.0000 </r>
       <r>    4.5630    0.0000 </r>
       <r>    4.6301    0.0000 </r>
       <r>    4.7391    0.0000 </r>
       <r>    4.8102    0.0000 </r>
       <r>    4.9152    0.0000 </r>
       <r>    5.4651    0.0000 </r>
       <r>    5.5637    0.0000 </r>
       <r>    5.6455    0.0000 </r>
       <r>    5.7100    0.0000 </r>
       <r>    5.7506    0.0000 </r>
       <r>    5.8429    0.0000 </r>
       <r>    5.8948    0.0000 </r>
       <r>    5.9829    0.0000 </r>
       <r>    6.1057    0.0000 </r>
       <r>    6.1390    0.0000 </r>
       <r>    6.1775    0.0000 </r>
       <r>    6.2779    0.0000 </r>
       <r>    6.3663    0.0000 </r>
       <r>    6.4090    0.0000 </r>
       <r>    6.4640    0.0000 </r>
       <r>    6.4926    0.0000 </r>
       <r>    6.5552    0.0000 </r>
       <r>    6.5937    0.0000 </r>
       <r>    6.6343    0.0000 </r>
      </set>
      <set comment="kpoint 4">
       <r>  -20.8855    1.0000 </r>
       <r>  -20.8101    1.0000 </r>
       <r>  -20.7566    1.0000 </r>
       <r>  -20.7359    1.0000 </r>
       <r>  -20.7177    1.0000 </r>
       <r>  -20.7144    1.0000 </r>
       <r>  -20.7038    1.0000 </r>
       <r>  -20.6829    1.0000 </r>
       <r>  -16.7551    1.0000 </r>
       <r>  -16.7217    1.0000 </r>
       <r>  -16.6968    1.0000 </r>
       <r>  -16.6740    1.0000 </r>
       <r>  -16.6686    1.0000 </r>
       <r>  -16.6590    1.0000 </r>
       <r>  -16.6381    1.0000 </r>
       <r>  -16.6194    1.0000 </r>
       <r>  -16.5746    1.0000 </r>
       <r>  -16.5561    1.0000 </r>
       <r>  -16.5553    1.0000 </r>
       <r>  -16.5499    1.0000 </r>
       <r>  -16.5487    1.0000 </r>
       <r>  -16.5143    1.0000 </r>
       <r>  -16.5076    1.0000 </r>
       <r>  -16.4532    1.0000 </r>
       <r>  -16.4479    1.0000 </r>
       <r>  -16.4322    1.0000 </r>
       <r>  -16.4257    1.0000 </r>
       <r>  -16.4219    1.0000 </r>
       <r>  -16.4172    1.0000 </r>
       <r>  -16.4128    1.0000 </r>
       <r>  -16.3975    1.0000 </r>
       <r>  -16.3877    1.0000 </r>
       <r>  -16.3839    1.0000 </r>
       <r>  -16.3128    1.0000 </r>
       <r>  -16.3096    1.0000 </r>
       <r>  -16.3069    1.0000 </r>
       <r>  -16.3066    1.0000 </r>
       <r>  -16.3033    1.0000 </r>
       <r>  -16.3026    1.0000 </r>
       <r>  -16.3018    1.0000 </r>
       <r>  -16.2976    1.0000 </r>
       <r>  -16.2975    1.0000 </r>
       <r>  -16.2950    1.0000 </r>
       <r>  -16.2943    1.0000 </r>
       <r>  -16.2928    1.0000 </r>
       <r>  -16.2917    1.0000 </r>
       <r>  -16.2873    1.0000 </r>
       <r>  -16.2838    1.0000 </r>
       <r>  -14.4932    1.0000 </r>
       <r>  -14.4255    1.0000 </r>
       <r>  -14.3143    1.0000 </r>
       <r>  -14.2914    1.0000 </r>
       <r>  -14.1802    1.0000 </r>
       <r>  -14.1504    1.0000 </r>
       <r>  -14.1472    1.0000 </r>
       <r>  -14.0907    1.0000 </r>
       <r>  -14.0829    1.0000 </r>
       <r>  -14.0511    1.0000 </r>
       <r>  -14.0096    1.0000 </r>
       <r>  -13.9818    1.0000 </r>
       <r>  -13.9644    1.0000 </r>
       <r>  -13.9473    1.0000 </r>
       <r>  -13.9264    1.0000 </r>
       <r>  -13.9093    1.0000 </r>
       <r>  -13.8952    1.0000 </r>
       <r>  -13.8883    1.0000 </r>
       <r>  -13.8878    1.0000 </r>
       <r>  -13.8402    1.0000 </r>
       <r>  -13.8366    1.0000 </r>
       <r>  -13.8081    1.0000 </r>
       <r>  -13.7595    1.0000 </r>
       <r>   -7.8997    1.0000 </r>
       <r>   -7.7721    1.0000 </r>
       <r>   -7.7306    1.0000 </r>
       <r>   -7.7176    1.0000 </r>
       <r>   -7.4849    1.0000 </r>
       <r>   -7.3354    1.0000 </r>
       <r>   -7.2916    1.0000 </r>
       <r>   -7.2785    1.0000 </r>
       <r>   -7.2622    1.0000 </r>
       <r>   -7.2455    1.0000 </r>
       <r>   -7.2353    1.0000 </r>
       <r>   -7.2231    1.0000 </r>
       <r>   -7.2055    1.0000 </r>
       <r>   -7.1934    1.0000 </r>
       <r>   -7.1803    1.0000 </r>
       <r>   -7.1712    1.0000 </r>
       <r>   -7.1602    1.0000 </r>
       <r>   -7.1501    1.0000 </r>
       <r>   -7.1426    1.0000 </r>
       <r>   -7.1379    1.0000 </r>
       <r>   -7.1352    1.0000 </r>
       <r>   -7.1246    1.0000 </r>
       <r>   -7.1229    1.0000 </r>
       <r>   -7.1159    1.0000 </r>
       <r>   -7.1088    1.0000 </r>
       <r>   -7.1032    1.0000 </r>
       <r>   -7.0999    1.0000 </r>
       <r>   -7.0943    1.0000 </r>
       <r>   -7.0815    1.0000 </r>
       <r>   -7.0676    1.0000 </r>
       <r>   -7.0601    1.0000 </r>
       <r>   -7.0407    1.0000 </r>
       <r>   -3.2590    1.0000 </r>
       <r>   -3.1778    1.0000 </r>
       <r>   -3.1436    1.0000 </r>
       <r>   -2.9959    1.0000 </r>
       <r>   -2.9163    1.0000 </r>
       <r>   -2.7096    1.0000 </r>
       <r>   -2.6714    1.0000 </r>
       <r>   -2.6621    1.0000 </r>
       <r>   -2.5912    1.0000 </r>
       <r>   -2.5829    1.0000 </r>
       <r>   -2.5577    1.0000 </r>
       <r>   -2.4494    1.0000 </r>
       <r>   -2.4162    1.0000 </r>
       <r>   -2.3977    1.0000 </r>
       <r>   -2.3714    1.0000 </r>
       <r>   -2.3410    1.0000 </r>
       <r>   -2.3056    1.0000 </r>
       <r>   -2.2946    1.0000 </r>
       <r>   -2.2727    1.0000 </r>
       <r>   -2.1256    1.0000 </r>
       <r>   -2.0337    1.0000 </r>
       <r>   -2.0217    1.0000 </r>
       <r>   -1.9560    1.0000 </r>
       <r>   -1.8911    1.0000 </r>
       <r>   -1.8255    1.0000 </r>
       <r>   -1.7868    1.0000 </r>
       <r>   -1.7609    1.0000 </r>
       <r>   -1.7489    1.0000 </r>
       <r>   -1.6928    1.0000 </r>
       <r>   -1.6786    1.0000 </r>
       <r>   -1.6534    1.0000 </r>
       <r>   -1.6311    1.0000 </r>
       <r>   -1.5987    1.0000 </r>
       <r>   -1.5911    1.0000 </r>
       <r>   -1.5776    1.0000 </r>
       <r>   -1.5015    1.0000 </r>
       <r>   -1.4933    1.0000 </r>
       <r>   -1.4837    1.0000 </r>
       <r>   -1.4657    1.0000 </r>
       <r>   -1.4536    1.0000 </r>
       <r>   -1.4242    1.0000 </r>
       <r>   -1.3880    1.0000 </r>
       <r>   -1.3702    1.0000 </r>
       <r>   -1.3370    1.0000 </r>
       <r>   -1.3258    1.0000 </r>
       <r>   -1.2893    1.0000 </r>
       <r>   -1.2714    1.0000 </r>
       <r>   -1.2533    1.0000 </r>
       <r>   -1.2442    1.0000 </r>
       <r>   -1.2239    1.0000 </r>
       <r>   -1.2014    1.0000 </r>
       <r>   -1.1811    1.0000 </r>
       <r>   -1.1710    1.0000 </r>
       <r>   -1.1636    1.0000 </r>
       <r>   -1.1500    1.0000 </r>
       <r>   -1.1338    1.0000 </r>
       <r>   -1.1275    1.0000 </r>
       <r>   -1.1176    1.0000 </r>
       <r>   -1.1067    1.0000 </r>
       <r>   -1.0653    1.0000 </r>
       <r>   -1.0471    1.0000 </r>
       <r>   -0.9539    1.0000 </r>
       <r>   -0.9217    1.0000 </r>
       <r>   -0.8605    1.0000 </r>
       <r>   -0.8180    1.0000 </r>
       <r>   -0.6888    1.0000 </r>
       <r>   -0.4805    1.0000 </r>
       <r>   -0.4627    1.0000 </r>
       <r>   -0.4304    1.0000 </r>
       <r>    2.5128    0.0000 </r>
       <r>    3.1364    0.0000 </r>
       <r>    3.1510    0.0000 </r>
       <r>    3.1851    0.0000 </r>
       <r>    3.3752    0.0000 </r>
       <r>    3.9500    0.0000 </r>
       <r>    4.2536    0.0000 </r>
       <r>    4.2746    0.0000 </r>
       <r>    4.3408    0.0000 </r>
       <r>    4.3679    0.0000 </r>
       <r>    4.4347    0.0000 </r>
       <r>    4.4874    0.0000 </r>
       <r>    4.5224    0.0000 </r>
       <r>    4.5480    0.0000 </r>
       <r>    4.5921    0.0000 </r>
       <r>    4.6635    0.0000 </r>
       <r>    4.7327    0.0000 </r>
       <r>    4.7393    0.0000 </r>
       <r>    4.7881    0.0000 </r>
       <r>    4.8795    0.0000 </r>
       <r>    4.8997    0.0000 </r>
       <r>    5.7148    0.0000 </r>
       <r>    5.7638    0.0000 </r>
       <r>    5.7807    0.0000 </r>
       <r>    5.9144    0.0000 </r>
       <r>    5.9815    0.0000 </r>
       <r>    6.0627    0.0000 </r>
       <r>    6.1139    0.0000 </r>
       <r>    6.1553    0.0000 </r>
       <r>    6.2855    0.0000 </r>
       <r>    6.3371    0.0000 </r>
       <r>    6.3518    0.0000 </r>
       <r>    6.4977    0.0000 </r>
       <r>    6.5093    0.0000 </r>
       <r>    6.5564    0.0000 </r>
       <r>    6.6005    0.0000 </r>
      </set>
      <set comment="kpoint 5">
       <r>  -20.8855    1.0000 </r>
       <r>  -20.8101    1.0000 </r>
       <r>  -20.7567    1.0000 </r>
       <r>  -20.7358    1.0000 </r>
       <r>  -20.7181    1.0000 </r>
       <r>  -20.7142    1.0000 </r>
       <r>  -20.7037    1.0000 </r>
       <r>  -20.6829    1.0000 </r>
       <r>  -16.7560    1.0000 </r>
       <r>  -16.7217    1.0000 </r>
       <r>  -16.6980    1.0000 </r>
       <r>  -16.6741    1.0000 </r>
       <r>  -16.6696    1.0000 </r>
       <r>  -16.6597    1.0000 </r>
       <r>  -16.6432    1.0000 </r>
       <r>  -16.6193    1.0000 </r>
       <r>  -16.5746    1.0000 </r>
       <r>  -16.5561    1.0000 </r>
       <r>  -16.5553    1.0000 </r>
       <r>  -16.5498    1.0000 </r>
       <r>  -16.5487    1.0000 </r>
       <r>  -16.5143    1.0000 </r>
       <r>  -16.5075    1.0000 </r>
       <r>  -16.4693    1.0000 </r>
       <r>  -16.4600    1.0000 </r>
       <r>  -16.4354    1.0000 </r>
       <r>  -16.4145    1.0000 </r>
       <r>  -16.4138    1.0000 </r>
       <r>  -16.4115    1.0000 </r>
       <r>  -16.4014    1.0000 </r>
       <r>  -16.3963    1.0000 </r>
       <r>  -16.3904    1.0000 </r>
       <r>  -16.3748    1.0000 </r>
       <r>  -16.3129    1.0000 </r>
       <r>  -16.3096    1.0000 </r>
       <r>  -16.3070    1.0000 </r>
       <r>  -16.3064    1.0000 </r>
       <r>  -16.3034    1.0000 </r>
       <r>  -16.3026    1.0000 </r>
       <r>  -16.3018    1.0000 </r>
       <r>  -16.2976    1.0000 </r>
       <r>  -16.2975    1.0000 </r>
       <r>  -16.2949    1.0000 </r>
       <r>  -16.2944    1.0000 </r>
       <r>  -16.2928    1.0000 </r>
       <r>  -16.2917    1.0000 </r>
       <r>  -16.2873    1.0000 </r>
       <r>  -16.2838    1.0000 </r>
       <r>  -14.4965    1.0000 </r>
       <r>  -14.4348    1.0000 </r>
       <r>  -14.3111    1.0000 </r>
       <r>  -14.2429    1.0000 </r>
       <r>  -14.1643    1.0000 </r>
       <r>  -14.1358    1.0000 </r>
       <r>  -14.1228    1.0000 </r>
       <r>  -14.0740    1.0000 </r>
       <r>  -14.0652    1.0000 </r>
       <r>  -14.0621    1.0000 </r>
       <r>  -14.0375    1.0000 </r>
       <r>  -14.0349    1.0000 </r>
       <r>  -14.0110    1.0000 </r>
       <r>  -14.0053    1.0000 </r>
       <r>  -13.9863    1.0000 </r>
       <r>  -13.9430    1.0000 </r>
       <r>  -13.9071    1.0000 </r>
       <r>  -13.8746    1.0000 </r>
       <r>  -13.8530    1.0000 </r>
       <r>  -13.8065    1.0000 </r>
       <r>  -13.7866    1.0000 </r>
       <r>  -13.7719    1.0000 </r>
       <r>  -13.7598    1.0000 </r>
       <r>   -8.0712    1.0000 </r>
       <r>   -7.9820    1.0000 </r>
       <r>   -7.6606    1.0000 </r>
       <r>   -7.5220    1.0000 </r>
       <r>   -7.4870    1.0000 </r>
       <r>   -7.4363    1.0000 </r>
       <r>   -7.3369    1.0000 </r>
       <r>   -7.2755    1.0000 </r>
       <r>   -7.2564    1.0000 </r>
       <r>   -7.2447    1.0000 </r>
       <r>   -7.2142    1.0000 </r>
       <r>   -7.1987    1.0000 </r>
       <r>   -7.1867    1.0000 </r>
       <r>   -7.1638    1.0000 </r>
       <r>   -7.1545    1.0000 </r>
       <r>   -7.1503    1.0000 </r>
       <r>   -7.1466    1.0000 </r>
       <r>   -7.1419    1.0000 </r>
       <r>   -7.1400    1.0000 </r>
       <r>   -7.1347    1.0000 </r>
       <r>   -7.1303    1.0000 </r>
       <r>   -7.1200    1.0000 </r>
       <r>   -7.1180    1.0000 </r>
       <r>   -7.1123    1.0000 </r>
       <r>   -7.1052    1.0000 </r>
       <r>   -7.0962    1.0000 </r>
       <r>   -7.0905    1.0000 </r>
       <r>   -7.0825    1.0000 </r>
       <r>   -7.0714    1.0000 </r>
       <r>   -7.0702    1.0000 </r>
       <r>   -6.9546    1.0000 </r>
       <r>   -6.8512    1.0000 </r>
       <r>   -3.4058    1.0000 </r>
       <r>   -3.2949    1.0000 </r>
       <r>   -3.2796    1.0000 </r>
       <r>   -3.2415    1.0000 </r>
       <r>   -3.2228    1.0000 </r>
       <r>   -3.1534    1.0000 </r>
       <r>   -3.1175    1.0000 </r>
       <r>   -2.9719    1.0000 </r>
       <r>   -2.9219    1.0000 </r>
       <r>   -2.5479    1.0000 </r>
       <r>   -2.5180    1.0000 </r>
       <r>   -2.4836    1.0000 </r>
       <r>   -2.4176    1.0000 </r>
       <r>   -2.3997    1.0000 </r>
       <r>   -2.3206    1.0000 </r>
       <r>   -2.1635    1.0000 </r>
       <r>   -2.1286    1.0000 </r>
       <r>   -2.0735    1.0000 </r>
       <r>   -2.0609    1.0000 </r>
       <r>   -2.0172    1.0000 </r>
       <r>   -1.9518    1.0000 </r>
       <r>   -1.9449    1.0000 </r>
       <r>   -1.8944    1.0000 </r>
       <r>   -1.8321    1.0000 </r>
       <r>   -1.7672    1.0000 </r>
       <r>   -1.7079    1.0000 </r>
       <r>   -1.6892    1.0000 </r>
       <r>   -1.6744    1.0000 </r>
       <r>   -1.6162    1.0000 </r>
       <r>   -1.5873    1.0000 </r>
       <r>   -1.5547    1.0000 </r>
       <r>   -1.5431    1.0000 </r>
       <r>   -1.5263    1.0000 </r>
       <r>   -1.5073    1.0000 </r>
       <r>   -1.4808    1.0000 </r>
       <r>   -1.4684    1.0000 </r>
       <r>   -1.4540    1.0000 </r>
       <r>   -1.4387    1.0000 </r>
       <r>   -1.4261    1.0000 </r>
       <r>   -1.4204    1.0000 </r>
       <r>   -1.3974    1.0000 </r>
       <r>   -1.3888    1.0000 </r>
       <r>   -1.3761    1.0000 </r>
       <r>   -1.3635    1.0000 </r>
       <r>   -1.3484    1.0000 </r>
       <r>   -1.3254    1.0000 </r>
       <r>   -1.3102    1.0000 </r>
       <r>   -1.2974    1.0000 </r>
       <r>   -1.2691    1.0000 </r>
       <r>   -1.2543    1.0000 </r>
       <r>   -1.2490    1.0000 </r>
       <r>   -1.2328    1.0000 </r>
       <r>   -1.2090    1.0000 </r>
       <r>   -1.1843    1.0000 </r>
       <r>   -1.1675    1.0000 </r>
       <r>   -1.1393    1.0000 </r>
       <r>   -1.1057    1.0000 </r>
       <r>   -1.0932    1.0000 </r>
       <r>   -1.0652    1.0000 </r>
       <r>   -1.0319    1.0000 </r>
       <r>   -0.9760    1.0000 </r>
       <r>   -0.9130    1.0000 </r>
       <r>   -0.8881    1.0000 </r>
       <r>   -0.7541    1.0000 </r>
       <r>   -0.6069    1.0000 </r>
       <r>   -0.5658    1.0000 </r>
       <r>   -0.5119    1.0000 </r>
       <r>   -0.0968    1.0000 </r>
       <r>    0.0140    1.0000 </r>
       <r>    2.5582    0.0000 </r>
       <r>    2.8679    0.0000 </r>
       <r>    2.9418    0.0000 </r>
       <r>    2.9494    0.0000 </r>
       <r>    3.1076    0.0000 </r>
       <r>    3.2412    0.0000 </r>
       <r>    3.2800    0.0000 </r>
       <r>    3.3478    0.0000 </r>
       <r>    3.4907    0.0000 </r>
       <r>    4.0100    0.0000 </r>
       <r>    4.2757    0.0000 </r>
       <r>    4.3888    0.0000 </r>
       <r>    4.4843    0.0000 </r>
       <r>    4.5429    0.0000 </r>
       <r>    4.6426    0.0000 </r>
       <r>    4.7423    0.0000 </r>
       <r>    4.8614    0.0000 </r>
       <r>    5.4266    0.0000 </r>
       <r>    5.5750    0.0000 </r>
       <r>    5.6519    0.0000 </r>
       <r>    5.6780    0.0000 </r>
       <r>    5.8642    0.0000 </r>
       <r>    5.9371    0.0000 </r>
       <r>    6.0298    0.0000 </r>
       <r>    6.0527    0.0000 </r>
       <r>    6.0922    0.0000 </r>
       <r>    6.1679    0.0000 </r>
       <r>    6.2225    0.0000 </r>
       <r>    6.2375    0.0000 </r>
       <r>    6.3025    0.0000 </r>
       <r>    6.3596    0.0000 </r>
       <r>    6.3929    0.0000 </r>
       <r>    6.4733    0.0000 </r>
       <r>    6.5562    0.0000 </r>
       <r>    6.5636    0.0000 </r>
       <r>    6.6000    0.0000 </r>
      </set>
      <set comment="kpoint 6">
       <r>  -20.8855    1.0000 </r>
       <r>  -20.8101    1.0000 </r>
       <r>  -20.7566    1.0000 </r>
       <r>  -20.7359    1.0000 </r>
       <r>  -20.7179    1.0000 </r>
       <r>  -20.7142    1.0000 </r>
       <r>  -20.7038    1.0000 </r>
       <r>  -20.6829    1.0000 </r>
       <r>  -16.7551    1.0000 </r>
       <r>  -16.7215    1.0000 </r>
       <r>  -16.6972    1.0000 </r>
       <r>  -16.6741    1.0000 </r>
       <r>  -16.6688    1.0000 </r>
       <r>  -16.6590    1.0000 </r>
       <r>  -16.6406    1.0000 </r>
       <r>  -16.6172    1.0000 </r>
       <r>  -16.5746    1.0000 </r>
       <r>  -16.5561    1.0000 </r>
       <r>  -16.5553    1.0000 </r>
       <r>  -16.5499    1.0000 </r>
       <r>  -16.5487    1.0000 </r>
       <r>  -16.5143    1.0000 </r>
       <r>  -16.5076    1.0000 </r>
       <r>  -16.4685    1.0000 </r>
       <r>  -16.4605    1.0000 </r>
       <r>  -16.4167    1.0000 </r>
       <r>  -16.4166    1.0000 </r>
       <r>  -16.4138    1.0000 </r>
       <r>  -16.4104    1.0000 </r>
       <r>  -16.4078    1.0000 </r>
       <r>  -16.3994    1.0000 </r>
       <r>  -16.3929    1.0000 </r>
       <r>  -16.3916    1.0000 </r>
       <r>  -16.3128    1.0000 </r>
       <r>  -16.3096    1.0000 </r>
       <r>  -16.3070    1.0000 </r>
       <r>  -16.3064    1.0000 </r>
       <r>  -16.3034    1.0000 </r>
       <r>  -16.3026    1.0000 </r>
       <r>  -16.3018    1.0000 </r>
       <r>  -16.2976    1.0000 </r>
       <r>  -16.2975    1.0000 </r>
       <r>  -16.2949    1.0000 </r>
       <r>  -16.2944    1.0000 </r>
       <r>  -16.2928    1.0000 </r>
       <r>  -16.2918    1.0000 </r>
       <r>  -16.2873    1.0000 </r>
       <r>  -16.2839    1.0000 </r>
       <r>  -14.4924    1.0000 </r>
       <r>  -14.4278    1.0000 </r>
       <r>  -14.3253    1.0000 </r>
       <r>  -14.2631    1.0000 </r>
       <r>  -14.1705    1.0000 </r>
       <r>  -14.1591    1.0000 </r>
       <r>  -14.1342    1.0000 </r>
       <r>  -14.1071    1.0000 </r>
       <r>  -14.0690    1.0000 </r>
       <r>  -14.0625    1.0000 </r>
       <r>  -14.0396    1.0000 </r>
       <r>  -14.0171    1.0000 </r>
       <r>  -14.0116    1.0000 </r>
       <r>  -13.9140    1.0000 </r>
       <r>  -13.9090    1.0000 </r>
       <r>  -13.9055    1.0000 </r>
       <r>  -13.8786    1.0000 </r>
       <r>  -13.8678    1.0000 </r>
       <r>  -13.8610    1.0000 </r>
       <r>  -13.8406    1.0000 </r>
       <r>  -13.8169    1.0000 </r>
       <r>  -13.8094    1.0000 </r>
       <r>  -13.8005    1.0000 </r>
       <r>   -7.9129    1.0000 </r>
       <r>   -7.7961    1.0000 </r>
       <r>   -7.7558    1.0000 </r>
       <r>   -7.7422    1.0000 </r>
       <r>   -7.4563    1.0000 </r>
       <r>   -7.3443    1.0000 </r>
       <r>   -7.2926    1.0000 </r>
       <r>   -7.2778    1.0000 </r>
       <r>   -7.2617    1.0000 </r>
       <r>   -7.2470    1.0000 </r>
       <r>   -7.2178    1.0000 </r>
       <r>   -7.2147    1.0000 </r>
       <r>   -7.2102    1.0000 </r>
       <r>   -7.1832    1.0000 </r>
       <r>   -7.1712    1.0000 </r>
       <r>   -7.1632    1.0000 </r>
       <r>   -7.1482    1.0000 </r>
       <r>   -7.1471    1.0000 </r>
       <r>   -7.1398    1.0000 </r>
       <r>   -7.1291    1.0000 </r>
[...]
        <r>  0.0000  0.0023  0.0003 </r>
        <r>  0.0004  0.0032  0.0005 </r>
        <r>  0.0014  0.0000  0.0010 </r>
        <r>  0.0002  0.0008  0.0007 </r>
        <r>  0.0000  0.0012  0.0016 </r>
        <r>  0.0005  0.0028  0.0005 </r>
        <r>  0.0006  0.0008  0.0005 </r>
        <r>  0.0003  0.0032  0.0011 </r>
        <r>  0.0000  0.0026  0.0004 </r>
       </set>
       <set comment="band 199">
        <r>  0.0019  0.0007  0.0038 </r>
        <r>  0.0017  0.0008  0.0042 </r>
        <r>  0.0001  0.0017  0.0053 </r>
        <r>  0.0003  0.0003  0.0105 </r>
        <r>  0.0014  0.0003  0.0068 </r>
        <r>  0.0028  0.0007  0.0074 </r>
        <r>  0.0084  0.0009  0.0142 </r>
        <r>  0.0015  0.0001  0.0061 </r>
        <r>  0.0001  0.0027  0.0001 </r>
        <r>  0.0002  0.0101  0.0003 </r>
        <r>  0.0000  0.0045  0.0002 </r>
        <r>  0.0000  0.0024  0.0005 </r>
        <r>  0.0000  0.0063  0.0002 </r>
        <r>  0.0000  0.0028  0.0001 </r>
        <r>  0.0001  0.0033  0.0003 </r>
        <r>  0.0003  0.0095  0.0004 </r>
        <r>  0.0005  0.0018  0.0020 </r>
        <r>  0.0012  0.0027  0.0021 </r>
        <r>  0.0000  0.0005  0.0012 </r>
        <r>  0.0043  0.0013  0.0015 </r>
        <r>  0.0002  0.0021  0.0006 </r>
        <r>  0.0001  0.0027  0.0006 </r>
        <r>  0.0000  0.0022  0.0002 </r>
        <r>  0.0000  0.0018  0.0001 </r>
        <r>  0.0000  0.0069  0.0002 </r>
        <r>  0.0008  0.0026  0.0010 </r>
        <r>  0.0002  0.0016  0.0014 </r>
        <r>  0.0000  0.0011  0.0004 </r>
        <r>  0.0005  0.0009  0.0004 </r>
        <r>  0.0000  0.0031  0.0015 </r>
        <r>  0.0001  0.0001  0.0005 </r>
        <r>  0.0027  0.0000  0.0030 </r>
        <r>  0.0002  0.0040  0.0001 </r>
        <r>  0.0008  0.0039  0.0010 </r>
        <r>  0.0003  0.0008  0.0016 </r>
        <r>  0.0005  0.0011  0.0012 </r>
        <r>  0.0000  0.0037  0.0010 </r>
        <r>  0.0001  0.0023  0.0003 </r>
        <r>  0.0001  0.0014  0.0004 </r>
       </set>
       <set comment="band 200">
        <r>  0.0133  0.0011  0.0095 </r>
        <r>  0.0027  0.0006  0.0103 </r>
        <r>  0.0027  0.0000  0.0138 </r>
        <r>  0.0000  0.0001  0.0075 </r>
        <r>  0.0007  0.0013  0.0063 </r>
        <r>  0.0000  0.0009  0.0053 </r>
        <r>  0.0002  0.0002  0.0029 </r>
        <r>  0.0000  0.0012  0.0076 </r>
        <r>  0.0000  0.0040  0.0001 </r>
        <r>  0.0002  0.0033  0.0002 </r>
        <r>  0.0000  0.0018  0.0002 </r>
        <r>  0.0000  0.0065  0.0002 </r>
        <r>  0.0000  0.0061  0.0003 </r>
        <r>  0.0000  0.0018  0.0001 </r>
        <r>  0.0000  0.0035  0.0002 </r>
        <r>  0.0000  0.0067  0.0003 </r>
        <r>  0.0001  0.0049  0.0005 </r>
        <r>  0.0002  0.0033  0.0011 </r>
        <r>  0.0001  0.0032  0.0004 </r>
        <r>  0.0013  0.0057  0.0014 </r>
        <r>  0.0001  0.0007  0.0013 </r>
        <r>  0.0022  0.0005  0.0027 </r>
        <r>  0.0009  0.0018  0.0029 </r>
        <r>  0.0005  0.0011  0.0009 </r>
        <r>  0.0001  0.0002  0.0004 </r>
        <r>  0.0000  0.0022  0.0004 </r>
        <r>  0.0002  0.0048  0.0003 </r>
        <r>  0.0004  0.0037  0.0011 </r>
        <r>  0.0004  0.0025  0.0007 </r>
        <r>  0.0011  0.0008  0.0009 </r>
        <r>  0.0015  0.0008  0.0010 </r>
        <r>  0.0001  0.0005  0.0004 </r>
        <r>  0.0007  0.0007  0.0015 </r>
        <r>  0.0000  0.0012  0.0005 </r>
        <r>  0.0003  0.0042  0.0002 </r>
        <r>  0.0001  0.0018  0.0006 </r>
        <r>  0.0016  0.0032  0.0011 </r>
        <r>  0.0031  0.0007  0.0030 </r>
        <r>  0.0004  0.0009  0.0005 </r>
       </set>
       <set comment="band 201">
        <r>  0.0002  0.0017  0.0083 </r>
        <r>  0.0003  0.0006  0.0058 </r>
        <r>  0.0051  0.0005  0.0054 </r>
        <r>  0.0023  0.0007  0.0058 </r>
        <r>  0.0036  0.0007  0.0069 </r>
        <r>  0.0054  0.0004  0.0080 </r>
        <r>  0.0001  0.0013  0.0076 </r>
        <r>  0.0002  0.0008  0.0164 </r>
        <r>  0.0000  0.0002  0.0003 </r>
        <r>  0.0000  0.0003  0.0005 </r>
        <r>  0.0000  0.0060  0.0002 </r>
        <r>  0.0000  0.0032  0.0001 </r>
        <r>  0.0000  0.0071  0.0000 </r>
        <r>  0.0001  0.0022  0.0002 </r>
        <r>  0.0001  0.0063  0.0002 </r>
        <r>  0.0000  0.0151  0.0003 </r>
        <r>  0.0007  0.0056  0.0011 </r>
        <r>  0.0015  0.0032  0.0013 </r>
        <r>  0.0000  0.0021  0.0003 </r>
        <r>  0.0006  0.0021  0.0009 </r>
        <r>  0.0003  0.0027  0.0003 </r>
        <r>  0.0012  0.0023  0.0022 </r>
        <r>  0.0008  0.0013  0.0011 </r>
        <r>  0.0010  0.0019  0.0018 </r>
        <r>  0.0011  0.0012  0.0007 </r>
        <r>  0.0007  0.0021  0.0005 </r>
        <r>  0.0001  0.0009  0.0005 </r>
        <r>  0.0002  0.0011  0.0013 </r>
        <r>  0.0001  0.0008  0.0005 </r>
        <r>  0.0000  0.0015  0.0005 </r>
        <r>  0.0001  0.0002  0.0004 </r>
        <r>  0.0000  0.0026  0.0006 </r>
        <r>  0.0004  0.0004  0.0008 </r>
        <r>  0.0000  0.0004  0.0012 </r>
        <r>  0.0008  0.0011  0.0010 </r>
        <r>  0.0005  0.0036  0.0006 </r>
        <r>  0.0046  0.0067  0.0015 </r>
        <r>  0.0013  0.0036  0.0030 </r>
        <r>  0.0001  0.0023  0.0014 </r>
       </set>
       <set comment="band 202">
        <r>  0.0024  0.0014  0.0063 </r>
        <r>  0.0045  0.0016  0.0069 </r>
        <r>  0.0033  0.0001  0.0081 </r>
        <r>  0.0023  0.0009  0.0079 </r>
        <r>  0.0033  0.0008  0.0070 </r>
        <r>  0.0033  0.0001  0.0059 </r>
        <r>  0.0003  0.0011  0.0096 </r>
        <r>  0.0005  0.0011  0.0048 </r>
        <r>  0.0000  0.0016  0.0002 </r>
        <r>  0.0000  0.0176  0.0005 </r>
        <r>  0.0000  0.0026  0.0005 </r>
        <r>  0.0000  0.0048  0.0001 </r>
        <r>  0.0002  0.0046  0.0002 </r>
        <r>  0.0000  0.0069  0.0001 </r>
        <r>  0.0000  0.0027  0.0002 </r>
        <r>  0.0004  0.0096  0.0006 </r>
        <r>  0.0007  0.0020  0.0018 </r>
        <r>  0.0013  0.0027  0.0011 </r>
        <r>  0.0013  0.0005  0.0016 </r>
        <r>  0.0014  0.0035  0.0022 </r>
        <r>  0.0005  0.0026  0.0008 </r>
        <r>  0.0008  0.0025  0.0012 </r>
        <r>  0.0003  0.0027  0.0016 </r>
        <r>  0.0000  0.0001  0.0004 </r>
        <r>  0.0001  0.0015  0.0004 </r>
        <r>  0.0006  0.0000  0.0009 </r>
        <r>  0.0020  0.0020  0.0039 </r>
        <r>  0.0008  0.0012  0.0015 </r>
        <r>  0.0005  0.0015  0.0011 </r>
        <r>  0.0011  0.0018  0.0012 </r>
        <r>  0.0000  0.0031  0.0004 </r>
        <r>  0.0000  0.0031  0.0005 </r>
        <r>  0.0002  0.0059  0.0011 </r>
        <r>  0.0002  0.0027  0.0001 </r>
        <r>  0.0000  0.0013  0.0003 </r>
        <r>  0.0000  0.0015  0.0005 </r>
        <r>  0.0009  0.0029  0.0014 </r>
        <r>  0.0005  0.0024  0.0007 </r>
        <r>  0.0004  0.0007  0.0017 </r>
       </set>
       <set comment="band 203">
        <r>  0.0000  0.0009  0.0179 </r>
        <r>  0.0077  0.0010  0.0119 </r>
        <r>  0.0030  0.0004  0.0104 </r>
        <r>  0.0001  0.0005  0.0042 </r>
        <r>  0.0057  0.0007  0.0053 </r>
        <r>  0.0012  0.0017  0.0036 </r>
        <r>  0.0002  0.0001  0.0034 </r>
        <r>  0.0006  0.0006  0.0122 </r>
        <r>  0.0000  0.0059  0.0001 </r>
        <r>  0.0000  0.0022  0.0000 </r>
        <r>  0.0000  0.0068  0.0001 </r>
        <r>  0.0000  0.0004  0.0004 </r>
        <r>  0.0000  0.0130  0.0001 </r>
        <r>  0.0000  0.0061  0.0001 </r>
        <r>  0.0000  0.0017  0.0002 </r>
        <r>  0.0000  0.0012  0.0001 </r>
        <r>  0.0000  0.0016  0.0002 </r>
        <r>  0.0003  0.0034  0.0018 </r>
        <r>  0.0026  0.0042  0.0033 </r>
        <r>  0.0004  0.0008  0.0017 </r>
        <r>  0.0004  0.0045  0.0009 </r>
        <r>  0.0010  0.0018  0.0034 </r>
        <r>  0.0014  0.0023  0.0011 </r>
        <r>  0.0012  0.0046  0.0021 </r>
        <r>  0.0000  0.0021  0.0004 </r>
        <r>  0.0003  0.0018  0.0003 </r>
        <r>  0.0000  0.0007  0.0005 </r>
        <r>  0.0008  0.0011  0.0024 </r>
        <r>  0.0008  0.0034  0.0007 </r>
        <r>  0.0000  0.0012  0.0004 </r>
        <r>  0.0008  0.0025  0.0015 </r>
        <r>  0.0003  0.0003  0.0014 </r>
        <r>  0.0000  0.0004  0.0008 </r>
        <r>  0.0007  0.0002  0.0005 </r>
        <r>  0.0014  0.0022  0.0020 </r>
        <r>  0.0002  0.0001  0.0010 </r>
        <r>  0.0003  0.0026  0.0009 </r>
        <r>  0.0002  0.0023  0.0003 </r>
        <r>  0.0001  0.0017  0.0007 </r>
       </set>
       <set comment="band 204">
        <r>  0.0003  0.0005  0.0163 </r>
        <r>  0.0012  0.0004  0.0052 </r>
        <r>  0.0011  0.0012  0.0102 </r>
        <r>  0.0010  0.0009  0.0113 </r>
        <r>  0.0017  0.0009  0.0186 </r>
        <r>  0.0008  0.0005  0.0077 </r>
        <r>  0.0010  0.0004  0.0066 </r>
        <r>  0.0055  0.0013  0.0070 </r>
        <r>  0.0000  0.0006  0.0005 </r>
        <r>  0.0000  0.0039  0.0003 </r>
        <r>  0.0001  0.0008  0.0000 </r>
        <r>  0.0000  0.0049  0.0001 </r>
        <r>  0.0000  0.0058  0.0003 </r>
        <r>  0.0000  0.0030  0.0007 </r>
        <r>  0.0000  0.0128  0.0001 </r>
        <r>  0.0000  0.0053  0.0004 </r>
        <r>  0.0010  0.0016  0.0011 </r>
        <r>  0.0002  0.0036  0.0016 </r>
        <r>  0.0013  0.0021  0.0016 </r>
        <r>  0.0000  0.0029  0.0010 </r>
        <r>  0.0007  0.0029  0.0017 </r>
        <r>  0.0004  0.0016  0.0007 </r>
        <r>  0.0000  0.0036  0.0010 </r>
        <r>  0.0002  0.0040  0.0015 </r>
        <r>  0.0001  0.0009  0.0008 </r>
        <r>  0.0010  0.0013  0.0019 </r>
        <r>  0.0003  0.0016  0.0015 </r>
        <r>  0.0009  0.0008  0.0009 </r>
        <r>  0.0001  0.0005  0.0008 </r>
        <r>  0.0002  0.0019  0.0006 </r>
        <r>  0.0006  0.0011  0.0018 </r>
        <r>  0.0003  0.0002  0.0008 </r>
        <r>  0.0000  0.0014  0.0008 </r>
        <r>  0.0003  0.0001  0.0006 </r>
        <r>  0.0000  0.0015  0.0007 </r>
        <r>  0.0003  0.0043  0.0009 </r>
        <r>  0.0010  0.0027  0.0011 </r>
        <r>  0.0018  0.0008  0.0022 </r>
        <r>  0.0001  0.0013  0.0017 </r>
       </set>
       <set comment="band 205">
        <r>  0.0000  0.0002  0.0123 </r>
        <r>  0.0000  0.0002  0.0093 </r>
        <r>  0.0043  0.0010  0.0199 </r>
        <r>  0.0058  0.0004  0.0026 </r>
        <r>  0.0005  0.0004  0.0029 </r>
        <r>  0.0010  0.0006  0.0086 </r>
        <r>  0.0018  0.0024  0.0176 </r>
        <r>  0.0001  0.0014  0.0110 </r>
        <r>  0.0000  0.0014  0.0004 </r>
        <r>  0.0000  0.0029  0.0001 </r>
        <r>  0.0000  0.0108  0.0002 </r>
        <r>  0.0000  0.0086  0.0001 </r>
        <r>  0.0000  0.0040  0.0001 </r>
        <r>  0.0000  0.0002  0.0002 </r>
        <r>  0.0000  0.0041  0.0003 </r>
        <r>  0.0000  0.0063  0.0003 </r>
        <r>  0.0002  0.0045  0.0017 </r>
        <r>  0.0000  0.0007  0.0007 </r>
        <r>  0.0002  0.0046  0.0009 </r>
        <r>  0.0007  0.0029  0.0003 </r>
        <r>  0.0027  0.0003  0.0041 </r>
        <r>  0.0001  0.0001  0.0004 </r>
        <r>  0.0001  0.0004  0.0005 </r>
        <r>  0.0004  0.0012  0.0010 </r>
        <r>  0.0000  0.0016  0.0005 </r>
        <r>  0.0002  0.0004  0.0009 </r>
        <r>  0.0001  0.0008  0.0003 </r>
        <r>  0.0001  0.0027  0.0005 </r>
        <r>  0.0023  0.0038  0.0035 </r>
        <r>  0.0007  0.0014  0.0020 </r>
        <r>  0.0010  0.0024  0.0020 </r>
        <r>  0.0005  0.0033  0.0014 </r>
        <r>  0.0000  0.0025  0.0004 </r>
        <r>  0.0007  0.0000  0.0002 </r>
        <r>  0.0024  0.0034  0.0029 </r>
        <r>  0.0003  0.0005  0.0011 </r>
        <r>  0.0000  0.0013  0.0007 </r>
        <r>  0.0003  0.0014  0.0004 </r>
        <r>  0.0001  0.0004  0.0012 </r>
       </set>
       <set comment="band 206">
        <r>  0.0004  0.0006  0.0074 </r>
        <r>  0.0004  0.0001  0.0197 </r>
        <r>  0.0025  0.0002  0.0204 </r>
        <r>  0.0017  0.0006  0.0077 </r>
        <r>  0.0001  0.0000  0.0047 </r>
        <r>  0.0004  0.0006  0.0021 </r>
        <r>  0.0002  0.0009  0.0353 </r>
        <r>  0.0022  0.0000  0.0151 </r>
        <r>  0.0000  0.0065  0.0005 </r>
        <r>  0.0000  0.0019  0.0007 </r>
        <r>  0.0000  0.0033  0.0000 </r>
        <r>  0.0000  0.0016  0.0002 </r>
        <r>  0.0000  0.0023  0.0002 </r>
        <r>  0.0000  0.0053  0.0005 </r>
        <r>  0.0000  0.0101  0.0002 </r>
        <r>  0.0000  0.0017  0.0002 </r>
        <r>  0.0000  0.0016  0.0008 </r>
        <r>  0.0001  0.0002  0.0002 </r>
        <r>  0.0002  0.0013  0.0005 </r>
        <r>  0.0001  0.0003  0.0008 </r>
        <r>  0.0027  0.0011  0.0046 </r>
        <r>  0.0000  0.0022  0.0003 </r>
        <r>  0.0000  0.0004  0.0006 </r>
        <r>  0.0005  0.0029  0.0009 </r>
        <r>  0.0005  0.0007  0.0029 </r>
        <r>  0.0001  0.0026  0.0025 </r>
        <r>  0.0003  0.0025  0.0010 </r>
        <r>  0.0006  0.0009  0.0009 </r>
        <r>  0.0015  0.0004  0.0030 </r>
        <r>  0.0000  0.0014  0.0014 </r>
        <r>  0.0000  0.0019  0.0004 </r>
        <r>  0.0002  0.0009  0.0015 </r>
        <r>  0.0001  0.0007  0.0005 </r>
        <r>  0.0003  0.0032  0.0027 </r>
        <r>  0.0005  0.0033  0.0018 </r>
        <r>  0.0000  0.0014  0.0012 </r>
        <r>  0.0007  0.0005  0.0012 </r>
        <r>  0.0000  0.0008  0.0009 </r>
        <r>  0.0013  0.0000  0.0022 </r>
       </set>
       <set comment="band 207">
        <r>  0.0015  0.0001  0.0092 </r>
        <r>  0.0001  0.0002  0.0175 </r>
        <r>  0.0002  0.0013  0.0239 </r>
        <r>  0.0019  0.0001  0.0122 </r>
        <r>  0.0003  0.0002  0.0127 </r>
        <r>  0.0027  0.0001  0.0075 </r>
        <r>  0.0000  0.0014  0.0141 </r>
        <r>  0.0045  0.0007  0.0047 </r>
        <r>  0.0000  0.0067  0.0005 </r>
        <r>  0.0001  0.0021  0.0001 </r>
        <r>  0.0001  0.0037  0.0007 </r>
        <r>  0.0002  0.0037  0.0002 </r>
        <r>  0.0000  0.0066  0.0000 </r>
        <r>  0.0000  0.0031  0.0002 </r>
        <r>  0.0000  0.0050  0.0006 </r>
        <r>  0.0000  0.0031  0.0004 </r>
        <r>  0.0011  0.0008  0.0021 </r>
        <r>  0.0003  0.0029  0.0010 </r>
        <r>  0.0003  0.0020  0.0006 </r>
        <r>  0.0005  0.0005  0.0016 </r>
        <r>  0.0006  0.0027  0.0013 </r>
        <r>  0.0004  0.0022  0.0007 </r>
        <r>  0.0001  0.0004  0.0003 </r>
        <r>  0.0001  0.0003  0.0012 </r>
        <r>  0.0002  0.0007  0.0005 </r>
        <r>  0.0008  0.0015  0.0020 </r>
        <r>  0.0001  0.0009  0.0019 </r>
        <r>  0.0021  0.0005  0.0026 </r>
        <r>  0.0002  0.0034  0.0021 </r>
        <r>  0.0001  0.0020  0.0003 </r>
        <r>  0.0007  0.0006  0.0018 </r>
        <r>  0.0003  0.0012  0.0020 </r>
        <r>  0.0006  0.0032  0.0006 </r>
        <r>  0.0001  0.0052  0.0013 </r>
        <r>  0.0005  0.0007  0.0031 </r>
        <r>  0.0008  0.0013  0.0015 </r>
        <r>  0.0002  0.0015  0.0017 </r>
        <r>  0.0003  0.0016  0.0009 </r>
        <r>  0.0002  0.0009  0.0006 </r>
       </set>
       <set comment="band 208">
        <r>  0.0004  0.0001  0.0123 </r>
        <r>  0.0005  0.0004  0.0133 </r>
        <r>  0.0013  0.0002  0.0253 </r>
        <r>  0.0027  0.0005  0.0153 </r>
        <r>  0.0001  0.0001  0.0134 </r>
        <r>  0.0001  0.0004  0.0082 </r>
        <r>  0.0024  0.0015  0.0167 </r>
        <r>  0.0007  0.0001  0.0065 </r>
        <r>  0.0000  0.0086  0.0002 </r>
        <r>  0.0000  0.0120  0.0001 </r>
        <r>  0.0000  0.0017  0.0005 </r>
        <r>  0.0000  0.0028  0.0006 </r>
        <r>  0.0000  0.0022  0.0002 </r>
        <r>  0.0000  0.0114  0.0001 </r>
        <r>  0.0001  0.0020  0.0007 </r>
        <r>  0.0001  0.0039  0.0003 </r>
        <r>  0.0002  0.0012  0.0023 </r>
        <r>  0.0006  0.0013  0.0012 </r>
        <r>  0.0001  0.0016  0.0009 </r>
        <r>  0.0000  0.0009  0.0004 </r>
        <r>  0.0003  0.0004  0.0007 </r>
        <r>  0.0000  0.0007  0.0005 </r>
        <r>  0.0001  0.0009  0.0003 </r>
        <r>  0.0009  0.0010  0.0019 </r>
        <r>  0.0002  0.0008  0.0013 </r>
        <r>  0.0009  0.0018  0.0019 </r>
        <r>  0.0006  0.0023  0.0022 </r>
        <r>  0.0005  0.0030  0.0013 </r>
        <r>  0.0003  0.0014  0.0031 </r>
        <r>  0.0002  0.0013  0.0008 </r>
        <r>  0.0002  0.0009  0.0008 </r>
        <r>  0.0004  0.0030  0.0016 </r>
        <r>  0.0004  0.0009  0.0014 </r>
        <r>  0.0013  0.0013  0.0037 </r>
        <r>  0.0002  0.0019  0.0022 </r>
        <r>  0.0004  0.0006  0.0014 </r>
        <r>  0.0002  0.0008  0.0017 </r>
        <r>  0.0004  0.0028  0.0008 </r>
        <r>  0.0001  0.0002  0.0002 </r>
       </set>
      </set>
     </set>
    </set>
   </array>
  </projected>
 </calculation>
 <structure name="finalpos" >
  <crystal>
   <varray name="basis" >
    <v>       8.45648900       0.00000000       8.04030100 </v>
    <v>       0.00000000      11.72984700       0.00000000 </v>
    <v>      -8.45648900       0.00000000       8.04030100 </v>
   </varray>
   <i name="volume">   1595.08833419 </i>
   <varray name="rec_basis" >
    <v>       0.05912619      -0.00000000       0.06218673 </v>
    <v>       0.00000000       0.08525260      -0.00000000 </v>
    <v>      -0.05912619       0.00000000       0.06218673 </v>
   </varray>
  </crystal>
  <varray name="positions" >
   <v>       0.24884200       0.23590000       0.19262500 </v>
   <v>       0.77562300       0.24479500       0.71929400 </v>
   <v>       0.77711100       0.76459900       0.25719000 </v>
   <v>       0.19289700       0.74818900       0.77174100 </v>
   <v>       0.30031400       0.25146500       0.73114900 </v>
   <v>       0.78494500       0.24511400       0.22711800 </v>
   <v>       0.73641800       0.75175600       0.80583800 </v>
   <v>       0.21428600       0.75265800       0.28994200 </v>
   <v>       0.99822500       0.00070900       0.99769000 </v>
   <v>       0.49957200       0.00156700       0.48447500 </v>
   <v>       0.49308200       0.00150600       0.99262400 </v>
   <v>       0.00596600       0.00026400       0.50655100 </v>
   <v>       0.50127200       0.50718100       0.00402600 </v>
   <v>       0.00663200       0.49274800       0.50664100 </v>
   <v>       0.99993400       0.49797800       0.00092200 </v>
   <v>       0.50762100       0.48675900       0.50826300 </v>
   <v>       0.46515000       0.75265600       0.95062100 </v>
   <v>       0.98133600       0.74644400       0.49431200 </v>
   <v>       0.96819100       0.24971300       0.97871200 </v>
   <v>       0.45606100       0.23983200       0.45122000 </v>
   <v>       0.01650200       0.74980700       0.03187400 </v>
   <v>       0.51760900       0.25592600       0.03413700 </v>
   <v>       0.03903200       0.24660700       0.54890900 </v>
   <v>       0.24818400       0.47079600       0.95526000 </v>
   <v>       0.75273000       0.45067300       0.46033700 </v>
   <v>       0.94426100       0.52795600       0.75370700 </v>
   <v>       0.54634600       0.03247100       0.73798400 </v>
   <v>       0.03473500       0.02141600       0.25548900 </v>
   <v>       0.74726300       0.97942300       0.03841700 </v>
   <v>       0.25577100       0.95827700       0.54801900 </v>
   <v>       0.24274800       0.02996800       0.93669000 </v>
   <v>       0.74740300       0.02872900       0.44894500 </v>
   <v>       0.43231200       0.97629400       0.23513200 </v>
   <v>       0.94296600       0.96970700       0.75093400 </v>
   <v>       0.75038500       0.52879000       0.05719900 </v>
   <v>       0.26100400       0.53165100       0.55397600 </v>
   <v>       0.55318600       0.47768900       0.76924400 </v>
   <v>       0.05003000       0.47051500       0.25836400 </v>
   <v>       0.50403200       0.66711200       0.35055600 </v>
  </varray>
 </structure>
</modeling>
