CsPbBr3 cubic bulk                      
           1
     8.456489    0.000000    8.040301
     0.000000   11.729847    0.000000
    -8.456489    0.000000    8.040301
   Cs   Pb   Br
   8   8  23
Direct configuration=     1
   0.24884200  0.23590000  0.19262500
   0.77562300  0.24479500  0.71929400
   0.77711100  0.76459900  0.25719000
   0.19289700  0.74818900  0.77174100
   0.30031400  0.25146500  0.73114900
   0.78494500  0.24511400  0.22711800
   0.73641800  0.75175600  0.80583800
   0.21428600  0.75265800  0.28994200
   0.99822500  0.00070900  0.99769000
   0.49957200  0.00156700  0.48447500
   0.49308200  0.00150600  0.99262400
   0.00596600  0.00026400  0.50655100
   0.50127200  0.50718100  0.00402600
   0.00663200  0.49274800  0.50664100
   0.99993400  0.49797800  0.00092200
   0.50762100  0.48675900  0.50826300
   0.46515000  0.75265600  0.95062100
   0.98133600  0.74644400  0.49431200
   0.96819100  0.24971300  0.97871200
   0.45606100  0.23983200  0.45122000
   0.01650200  0.74980700  0.03187400
   0.51760900  0.25592600  0.03413700
   0.03903200  0.24660700  0.54890900
   0.24818400  0.47079600  0.95526000
   0.75273000  0.45067300  0.46033700
   0.94426100  0.52795600  0.75370700
   0.54634600  0.03247100  0.73798400
   0.03473500  0.02141600  0.25548900
   0.74726300  0.97942300  0.03841700
   0.25577100  0.95827700  0.54801900
   0.24274800  0.02996800  0.93669000
   0.74740300  0.02872900  0.44894500
   0.43231200  0.97629400  0.23513200
   0.94296600  0.96970700  0.75093400
   0.75038500  0.52879000  0.05719900
   0.26100400  0.53165100  0.55397600
   0.55318600  0.47768900  0.76924400
   0.05003000  0.47051500  0.25836400
   0.50403200  0.66711200  0.35055600
