  20  20   1   0
  0.4124922E+02  0.7874381E-09  0.1235200E-08  0.8481880E-09  0.5000000E-15
   1.0000000000000000E-004
  CAR 
 CsPbBr3 cubic bulk                      
      8.48713711    -22.41769298  301      0.36174220      1.00000000
    -22.418  0.0000E+00  0.0000E+00
    -22.315  0.0000E+00  0.0000E+00
    -22.212  0.0000E+00  0.0000E+00
    -22.109  0.0000E+00  0.0000E+00
    -22.006  0.0000E+00  0.0000E+00
    -21.903  0.0000E+00  0.0000E+00
    -21.800  0.0000E+00  0.0000E+00
    -21.697  0.0000E+00  0.0000E+00
    -21.594  0.0000E+00  0.0000E+00
    -21.491  0.0000E+00  0.0000E+00
    -21.388  0.0000E+00  0.0000E+00
    -21.285  0.0000E+00  0.0000E+00
    -21.181  0.0000E+00  0.0000E+00
    -21.078  0.0000E+00  0.0000E+00
    -20.975  0.7766E+02  0.8000E+01
    -20.872  0.0000E+00  0.8000E+01
    -20.769  0.0000E+00  0.8000E+01
    -20.666  0.0000E+00  0.8000E+01
    -20.563  0.0000E+00  0.8000E+01
    -20.460  0.0000E+00  0.8000E+01
    -20.357  0.0000E+00  0.8000E+01
    -20.254  0.0000E+00  0.8000E+01
    -20.151  0.0000E+00  0.8000E+01
    -20.048  0.0000E+00  0.8000E+01
    -19.945  0.0000E+00  0.8000E+01
    -19.842  0.0000E+00  0.8000E+01
    -19.739  0.0000E+00  0.8000E+01
    -19.636  0.0000E+00  0.8000E+01
    -19.533  0.0000E+00  0.8000E+01
    -19.430  0.0000E+00  0.8000E+01
    -19.327  0.0000E+00  0.8000E+01
    -19.224  0.0000E+00  0.8000E+01
    -19.121  0.0000E+00  0.8000E+01
    -19.018  0.0000E+00  0.8000E+01
    -18.915  0.0000E+00  0.8000E+01
    -18.812  0.0000E+00  0.8000E+01
    -18.709  0.0000E+00  0.8000E+01
    -18.606  0.0000E+00  0.8000E+01
    -18.503  0.0000E+00  0.8000E+01
    -18.400  0.0000E+00  0.8000E+01
    -18.297  0.0000E+00  0.8000E+01
    -18.194  0.0000E+00  0.8000E+01
    -18.091  0.0000E+00  0.8000E+01
    -17.988  0.0000E+00  0.8000E+01
    -17.885  0.0000E+00  0.8000E+01
    -17.782  0.0000E+00  0.8000E+01
    -17.679  0.0000E+00  0.8000E+01
    -17.576  0.0000E+00  0.8000E+01
    -17.473  0.0000E+00  0.8000E+01
    -17.370  0.0000E+00  0.8000E+01
    -17.267  0.0000E+00  0.8000E+01
    -17.164  0.0000E+00  0.8000E+01
    -17.061  0.0000E+00  0.8000E+01
    -16.958  0.0000E+00  0.8000E+01
    -16.855  0.0000E+00  0.8000E+01
    -16.752  0.0000E+00  0.8000E+01
    -16.649  0.8461E-01  0.8009E+01
    -16.546  0.1479E+03  0.2368E+02
    -16.443  0.2330E+03  0.4800E+02
    -16.340  0.0000E+00  0.4800E+02
    -16.237  0.0000E+00  0.4800E+02
    -16.134  0.0000E+00  0.4800E+02
    -16.031  0.0000E+00  0.4800E+02
    -15.928  0.0000E+00  0.4800E+02
    -15.825  0.0000E+00  0.4800E+02
    -15.722  0.0000E+00  0.4800E+02
    -15.619  0.0000E+00  0.4800E+02
    -15.516  0.0000E+00  0.4800E+02
    -15.413  0.0000E+00  0.4800E+02
    -15.310  0.0000E+00  0.4800E+02
    -15.207  0.0000E+00  0.4800E+02
    -15.104  0.0000E+00  0.4800E+02
    -15.001  0.0000E+00  0.4800E+02
    -14.898  0.0000E+00  0.4800E+02
    -14.795  0.0000E+00  0.4800E+02
    -14.691  0.0000E+00  0.4800E+02
    -14.588  0.0000E+00  0.4800E+02
    -14.485  0.0000E+00  0.4800E+02
    -14.382  0.7912E+00  0.4808E+02
    -14.279  0.1734E+02  0.4990E+02
    -14.176  0.2634E+02  0.5294E+02
    -14.073  0.3237E+02  0.5733E+02
    -13.970  0.5833E+02  0.6368E+02
    -13.867  0.4948E+02  0.7010E+02
    -13.764  0.9707E+01  0.7200E+02
    -13.661  0.0000E+00  0.7200E+02
    -13.558  0.0000E+00  0.7200E+02
    -13.455  0.0000E+00  0.7200E+02
    -13.352  0.0000E+00  0.7200E+02
    -13.249  0.0000E+00  0.7200E+02
    -13.146  0.0000E+00  0.7200E+02
    -13.043  0.0000E+00  0.7200E+02
    -12.940  0.0000E+00  0.7200E+02
    -12.837  0.0000E+00  0.7200E+02
    -12.734  0.0000E+00  0.7200E+02
    -12.631  0.0000E+00  0.7200E+02
    -12.528  0.0000E+00  0.7200E+02
    -12.425  0.0000E+00  0.7200E+02
    -12.322  0.0000E+00  0.7200E+02
    -12.219  0.0000E+00  0.7200E+02
    -12.116  0.0000E+00  0.7200E+02
    -12.013  0.0000E+00  0.7200E+02
    -11.910  0.0000E+00  0.7200E+02
    -11.807  0.0000E+00  0.7200E+02
    -11.704  0.0000E+00  0.7200E+02
    -11.601  0.0000E+00  0.7200E+02
    -11.498  0.0000E+00  0.7200E+02
    -11.395  0.0000E+00  0.7200E+02
    -11.292  0.0000E+00  0.7200E+02
    -11.189  0.0000E+00  0.7200E+02
    -11.086  0.0000E+00  0.7200E+02
    -10.983  0.0000E+00  0.7200E+02
    -10.880  0.0000E+00  0.7200E+02
    -10.777  0.0000E+00  0.7200E+02
    -10.674  0.0000E+00  0.7200E+02
    -10.571  0.0000E+00  0.7200E+02
    -10.468  0.0000E+00  0.7200E+02
    -10.365  0.0000E+00  0.7200E+02
    -10.262  0.0000E+00  0.7200E+02
    -10.159  0.0000E+00  0.7200E+02
    -10.056  0.0000E+00  0.7200E+02
     -9.953  0.0000E+00  0.7200E+02
     -9.850  0.0000E+00  0.7200E+02
     -9.747  0.0000E+00  0.7200E+02
     -9.644  0.0000E+00  0.7200E+02
     -9.541  0.0000E+00  0.7200E+02
     -9.438  0.0000E+00  0.7200E+02
     -9.335  0.0000E+00  0.7200E+02
     -9.232  0.0000E+00  0.7200E+02
     -9.129  0.0000E+00  0.7200E+02
     -9.026  0.0000E+00  0.7200E+02
     -8.923  0.0000E+00  0.7200E+02
     -8.820  0.0000E+00  0.7200E+02
     -8.717  0.0000E+00  0.7200E+02
     -8.614  0.0000E+00  0.7200E+02
     -8.511  0.0000E+00  0.7200E+02
     -8.408  0.0000E+00  0.7200E+02
     -8.304  0.0000E+00  0.7200E+02
     -8.201  0.1078E+01  0.7211E+02
     -8.098  0.2658E-11  0.7211E+02
     -7.995  0.6320E+01  0.7276E+02
     -7.892  0.4355E-02  0.7278E+02
     -7.789  0.9707E+01  0.7422E+02
     -7.686  0.7329E+01  0.7498E+02
     -7.583  0.8629E+01  0.7600E+02
     -7.480  0.8676E+01  0.7689E+02
     -7.377  0.1378E+03  0.9198E+02
     -7.274  0.2969E+02  0.1026E+03
     -7.171  0.3460E+01  0.1030E+03
     -7.068  0.2484E+01  0.1035E+03
     -6.965  0.2108E+01  0.1039E+03
     -6.862  0.0000E+00  0.1039E+03
     -6.759  0.6935E-06  0.1039E+03
     -6.656  0.1079E+01  0.1040E+03
     -6.553  0.0000E+00  0.1040E+03
     -6.450  0.0000E+00  0.1040E+03
     -6.347  0.0000E+00  0.1040E+03
     -6.244  0.0000E+00  0.1040E+03
     -6.141  0.0000E+00  0.1040E+03
     -6.038  0.0000E+00  0.1040E+03
     -5.935  0.0000E+00  0.1040E+03
     -5.832  0.0000E+00  0.1040E+03
     -5.729  0.0000E+00  0.1040E+03
     -5.626  0.0000E+00  0.1040E+03
     -5.523  0.0000E+00  0.1040E+03
     -5.420  0.0000E+00  0.1040E+03
     -5.317  0.0000E+00  0.1040E+03
     -5.214  0.0000E+00  0.1040E+03
     -5.111  0.0000E+00  0.1040E+03
     -5.008  0.0000E+00  0.1040E+03
     -4.905  0.0000E+00  0.1040E+03
     -4.802  0.0000E+00  0.1040E+03
     -4.699  0.0000E+00  0.1040E+03
     -4.596  0.0000E+00  0.1040E+03
     -4.493  0.0000E+00  0.1040E+03
     -4.390  0.0000E+00  0.1040E+03
     -4.287  0.0000E+00  0.1040E+03
     -4.184  0.0000E+00  0.1040E+03
     -4.081  0.0000E+00  0.1040E+03
     -3.978  0.0000E+00  0.1040E+03
     -3.875  0.0000E+00  0.1040E+03
     -3.772  0.0000E+00  0.1040E+03
     -3.669  0.0000E+00  0.1040E+03
     -3.566  0.0000E+00  0.1040E+03
     -3.463  0.1124E-04  0.1040E+03
     -3.360  0.4314E+01  0.1044E+03
     -3.257  0.2343E+01  0.1047E+03
     -3.154  0.1794E+02  0.1072E+03
     -3.051  0.1352E+02  0.1091E+03
     -2.948  0.9189E+01  0.1102E+03
     -2.845  0.1199E+02  0.1117E+03
     -2.742  0.1713E+02  0.1135E+03
     -2.639  0.2157E+01  0.1140E+03
     -2.536  0.4241E+01  0.1144E+03
     -2.433  0.6912E+01  0.1158E+03
     -2.330  0.1900E+02  0.1184E+03
     -2.227  0.2136E+02  0.1209E+03
     -2.124  0.1114E+02  0.1226E+03
     -2.021  0.2866E+02  0.1264E+03
     -1.917  0.4974E+01  0.1271E+03
     -1.814  0.2759E+02  0.1300E+03
     -1.711  0.2952E+02  0.1336E+03
     -1.608  0.1910E+02  0.1360E+03
     -1.505  0.4846E+02  0.1413E+03
     -1.402  0.4869E+02  0.1471E+03
     -1.299  0.4890E+02  0.1544E+03
     -1.196  0.4792E+02  0.1610E+03
     -1.093  0.2698E+02  0.1666E+03
     -0.990  0.1226E+02  0.1680E+03
     -0.887  0.1715E+02  0.1703E+03
     -0.784  0.1273E+02  0.1716E+03
     -0.681  0.1506E+02  0.1733E+03
     -0.578  0.1291E+02  0.1747E+03
     -0.475  0.0000E+00  0.1747E+03
     -0.372  0.4566E-01  0.1747E+03
     -0.269  0.6461E+01  0.1756E+03
     -0.166  0.1079E+01  0.1757E+03
     -0.063  0.2157E+01  0.1759E+03
      0.040  0.0000E+00  0.1759E+03
      0.143  0.0000E+00  0.1759E+03
      0.246  0.1059E+01  0.1760E+03
      0.349  0.0000E+00  0.1760E+03
      0.452  0.0000E+00  0.1760E+03
      0.555  0.0000E+00  0.1760E+03
      0.658  0.0000E+00  0.1760E+03
      0.761  0.0000E+00  0.1760E+03
      0.864  0.0000E+00  0.1760E+03
      0.967  0.0000E+00  0.1760E+03
      1.070  0.0000E+00  0.1760E+03
      1.173  0.0000E+00  0.1760E+03
      1.276  0.0000E+00  0.1760E+03
      1.379  0.0000E+00  0.1760E+03
      1.482  0.0000E+00  0.1760E+03
      1.585  0.0000E+00  0.1760E+03
      1.688  0.0000E+00  0.1760E+03
      1.791  0.0000E+00  0.1760E+03
      1.894  0.0000E+00  0.1760E+03
      1.997  0.0000E+00  0.1760E+03
      2.100  0.0000E+00  0.1760E+03
      2.203  0.0000E+00  0.1760E+03
      2.306  0.1099E-07  0.1760E+03
      2.409  0.1079E+01  0.1761E+03
      2.512  0.1227E-10  0.1761E+03
      2.615  0.4342E+01  0.1766E+03
      2.718  0.4314E+01  0.1771E+03
      2.821  0.8353E+00  0.1772E+03
      2.924  0.5393E+01  0.1779E+03
      3.027  0.9614E+01  0.1789E+03
      3.130  0.2472E+01  0.1791E+03
      3.233  0.1087E+01  0.1801E+03
      3.336  0.4338E+01  0.1807E+03
      3.439  0.0000E+00  0.1809E+03
      3.542  0.6471E+01  0.1816E+03
      3.645  0.1215E+00  0.1816E+03
      3.748  0.5042E-07  0.1824E+03
      3.851  0.1448E+02  0.1839E+03
      3.954  0.1767E+02  0.1858E+03
      4.057  0.7276E+01  0.1872E+03
      4.160  0.6471E+01  0.1880E+03
      4.263  0.1316E+02  0.1894E+03
      4.366  0.0000E+00  0.1898E+03
      4.470  0.2157E+01  0.1900E+03
      4.573  0.1260E+00  0.1900E+03
      4.676  0.0000E+00  0.1901E+03
      4.779  0.7641E-03  0.1901E+03
      4.882  0.6478E+01  0.1908E+03
      4.985  0.1554E+02  0.1926E+03
      5.088  0.2157E+01  0.1932E+03
      5.191  0.1399E+02  0.1947E+03
      5.294  0.5039E+01  0.1952E+03
      5.397  0.4314E+01  0.1964E+03
      5.500  0.9764E+01  0.1975E+03
      5.603  0.6429E+01  0.1982E+03
      5.706  0.1112E+02  0.2000E+03
      5.809  0.7744E+01  0.2017E+03
      5.912  0.1095E+02  0.2031E+03
      6.015  0.1433E+02  0.2049E+03
      6.118  0.8337E+01  0.2061E+03
      6.221  0.1641E+02  0.2078E+03
      6.324  0.3134E+01  0.2084E+03
      6.427  0.1478E+02  0.2109E+03
      6.530  0.2244E+02  0.2138E+03
      6.633  0.3251E+02  0.2171E+03
      6.736  0.2697E+02  0.2203E+03
      6.839  0.2043E+02  0.2225E+03
      6.942  0.2157E+01  0.2236E+03
      7.045  0.2530E-06  0.2236E+03
      7.148  0.4314E+01  0.2240E+03
      7.251  0.0000E+00  0.2240E+03
      7.354  0.0000E+00  0.2240E+03
      7.457  0.0000E+00  0.2240E+03
      7.560  0.0000E+00  0.2240E+03
      7.663  0.0000E+00  0.2240E+03
      7.766  0.0000E+00  0.2240E+03
      7.869  0.0000E+00  0.2240E+03
      7.972  0.0000E+00  0.2240E+03
      8.075  0.0000E+00  0.2240E+03
      8.178  0.0000E+00  0.2240E+03
      8.281  0.0000E+00  0.2240E+03
      8.384  0.0000E+00  0.2240E+03
      8.487  0.0000E+00  0.2240E+03
      8.48713711    -22.41769298  301      0.36174220      1.00000000
    -22.418  0.0000E+00  0.0000E+00  0.0000E+00
    -22.315  0.0000E+00  0.0000E+00  0.0000E+00
    -22.212  0.0000E+00  0.0000E+00  0.0000E+00
    -22.109  0.0000E+00  0.0000E+00  0.0000E+00
    -22.006  0.0000E+00  0.0000E+00  0.0000E+00
    -21.903  0.0000E+00  0.0000E+00  0.0000E+00
    -21.800  0.0000E+00  0.0000E+00  0.0000E+00
    -21.697  0.0000E+00  0.0000E+00  0.0000E+00
    -21.594  0.0000E+00  0.0000E+00  0.0000E+00
    -21.491  0.0000E+00  0.0000E+00  0.0000E+00
    -21.388  0.0000E+00  0.0000E+00  0.0000E+00
    -21.285  0.0000E+00  0.0000E+00  0.0000E+00
    -21.181  0.0000E+00  0.0000E+00  0.0000E+00
    -21.078  0.0000E+00  0.0000E+00  0.0000E+00
    -20.975  0.1723E+02  0.1142E-04  0.1494E-04
    -20.872  0.0000E+00  0.0000E+00  0.0000E+00
    -20.769  0.0000E+00  0.0000E+00  0.0000E+00
    -20.666  0.0000E+00  0.0000E+00  0.0000E+00
    -20.563  0.0000E+00  0.0000E+00  0.0000E+00
    -20.460  0.0000E+00  0.0000E+00  0.0000E+00
    -20.357  0.0000E+00  0.0000E+00  0.0000E+00
    -20.254  0.0000E+00  0.0000E+00  0.0000E+00
    -20.151  0.0000E+00  0.0000E+00  0.0000E+00
    -20.048  0.0000E+00  0.0000E+00  0.0000E+00
    -19.945  0.0000E+00  0.0000E+00  0.0000E+00
    -19.842  0.0000E+00  0.0000E+00  0.0000E+00
    -19.739  0.0000E+00  0.0000E+00  0.0000E+00
    -19.636  0.0000E+00  0.0000E+00  0.0000E+00
    -19.533  0.0000E+00  0.0000E+00  0.0000E+00
    -19.430  0.0000E+00  0.0000E+00  0.0000E+00
    -19.327  0.0000E+00  0.0000E+00  0.0000E+00
    -19.224  0.0000E+00  0.0000E+00  0.0000E+00
    -19.121  0.0000E+00  0.0000E+00  0.0000E+00
    -19.018  0.0000E+00  0.0000E+00  0.0000E+00
    -18.915  0.0000E+00  0.0000E+00  0.0000E+00
    -18.812  0.0000E+00  0.0000E+00  0.0000E+00
    -18.709  0.0000E+00  0.0000E+00  0.0000E+00
    -18.606  0.0000E+00  0.0000E+00  0.0000E+00
    -18.503  0.0000E+00  0.0000E+00  0.0000E+00
    -18.400  0.0000E+00  0.0000E+00  0.0000E+00
    -18.297  0.0000E+00  0.0000E+00  0.0000E+00
    -18.194  0.0000E+00  0.0000E+00  0.0000E+00
    -18.091  0.0000E+00  0.0000E+00  0.0000E+00
    -17.988  0.0000E+00  0.0000E+00  0.0000E+00
    -17.885  0.0000E+00  0.0000E+00  0.0000E+00
    -17.782  0.0000E+00  0.0000E+00  0.0000E+00
    -17.679  0.0000E+00  0.0000E+00  0.0000E+00
    -17.576  0.0000E+00  0.0000E+00  0.0000E+00
    -17.473  0.0000E+00  0.0000E+00  0.0000E+00
    -17.370  0.0000E+00  0.0000E+00  0.0000E+00
    -17.267  0.0000E+00  0.0000E+00  0.0000E+00
    -17.164  0.0000E+00  0.0000E+00  0.0000E+00
    -17.061  0.0000E+00  0.0000E+00  0.0000E+00
    -16.958  0.0000E+00  0.0000E+00  0.0000E+00
    -16.855  0.0000E+00  0.0000E+00  0.0000E+00
    -16.752  0.0000E+00  0.0000E+00  0.0000E+00
    -16.649  0.3721E-06  0.1423E-06  0.1008E-07
    -16.546  0.8073E-04  0.7323E-04  0.1288E-04
    -16.443  0.3008E-04  0.1721E-04  0.1986E-05
    -16.340  0.0000E+00  0.0000E+00  0.0000E+00
    -16.237  0.0000E+00  0.0000E+00  0.0000E+00
    -16.134  0.0000E+00  0.0000E+00  0.0000E+00
    -16.031  0.0000E+00  0.0000E+00  0.0000E+00
    -15.928  0.0000E+00  0.0000E+00  0.0000E+00
    -15.825  0.0000E+00  0.0000E+00  0.0000E+00
    -15.722  0.0000E+00  0.0000E+00  0.0000E+00
    -15.619  0.0000E+00  0.0000E+00  0.0000E+00
    -15.516  0.0000E+00  0.0000E+00  0.0000E+00
    -15.413  0.0000E+00  0.0000E+00  0.0000E+00
    -15.310  0.0000E+00  0.0000E+00  0.0000E+00
    -15.207  0.0000E+00  0.0000E+00  0.0000E+00
    -15.104  0.0000E+00  0.0000E+00  0.0000E+00
    -15.001  0.0000E+00  0.0000E+00  0.0000E+00
    -14.898  0.0000E+00  0.0000E+00  0.0000E+00
    -14.795  0.0000E+00  0.0000E+00  0.0000E+00
    -14.691  0.0000E+00  0.0000E+00  0.0000E+00
    -14.588  0.0000E+00  0.0000E+00  0.0000E+00
    -14.485  0.0000E+00  0.0000E+00  0.0000E+00
    -14.382  0.2472E-03  0.8396E-06  0.2219E-05
    -14.279  0.2747E-02  0.1875E-02  0.4252E-04
    -14.176  0.1042E-02  0.3596E-02  0.1364E-03
    -14.073  0.2213E-02  0.4884E-02  0.3109E-03
    -13.970  0.1069E-02  0.4273E-02  0.3760E-03
    -13.867  0.1096E-02  0.3139E-02  0.3754E-03
    -13.764  0.3366E-03  0.6391E-03  0.6289E-04
    -13.661  0.0000E+00  0.0000E+00  0.0000E+00
    -13.558  0.0000E+00  0.0000E+00  0.0000E+00
    -13.455  0.0000E+00  0.0000E+00  0.0000E+00
    -13.352  0.0000E+00  0.0000E+00  0.0000E+00
    -13.249  0.0000E+00  0.0000E+00  0.0000E+00
    -13.146  0.0000E+00  0.0000E+00  0.0000E+00
    -13.043  0.0000E+00  0.0000E+00  0.0000E+00
    -12.940  0.0000E+00  0.0000E+00  0.0000E+00
    -12.837  0.0000E+00  0.0000E+00  0.0000E+00
    -12.734  0.0000E+00  0.0000E+00  0.0000E+00
    -12.631  0.0000E+00  0.0000E+00  0.0000E+00
    -12.528  0.0000E+00  0.0000E+00  0.0000E+00
    -12.425  0.0000E+00  0.0000E+00  0.0000E+00
    -12.322  0.0000E+00  0.0000E+00  0.0000E+00
    -12.219  0.0000E+00  0.0000E+00  0.0000E+00
    -12.116  0.0000E+00  0.0000E+00  0.0000E+00
    -12.013  0.0000E+00  0.0000E+00  0.0000E+00
    -11.910  0.0000E+00  0.0000E+00  0.0000E+00
    -11.807  0.0000E+00  0.0000E+00  0.0000E+00
    -11.704  0.0000E+00  0.0000E+00  0.0000E+00
    -11.601  0.0000E+00  0.0000E+00  0.0000E+00
    -11.498  0.0000E+00  0.0000E+00  0.0000E+00
    -11.395  0.0000E+00  0.0000E+00  0.0000E+00
    -11.292  0.0000E+00  0.0000E+00  0.0000E+00
    -11.189  0.0000E+00  0.0000E+00  0.0000E+00
    -11.086  0.0000E+00  0.0000E+00  0.0000E+00
    -10.983  0.0000E+00  0.0000E+00  0.0000E+00
    -10.880  0.0000E+00  0.0000E+00  0.0000E+00
    -10.777  0.0000E+00  0.0000E+00  0.0000E+00
    -10.674  0.0000E+00  0.0000E+00  0.0000E+00
    -10.571  0.0000E+00  0.0000E+00  0.0000E+00
    -10.468  0.0000E+00  0.0000E+00  0.0000E+00
    -10.365  0.0000E+00  0.0000E+00  0.0000E+00
    -10.262  0.0000E+00  0.0000E+00  0.0000E+00
    -10.159  0.0000E+00  0.0000E+00  0.0000E+00
    -10.056  0.0000E+00  0.0000E+00  0.0000E+00
     -9.953  0.0000E+00  0.0000E+00  0.0000E+00
     -9.850  0.0000E+00  0.0000E+00  0.0000E+00
     -9.747  0.0000E+00  0.0000E+00  0.0000E+00
     -9.644  0.0000E+00  0.0000E+00  0.0000E+00
     -9.541  0.0000E+00  0.0000E+00  0.0000E+00
     -9.438  0.0000E+00  0.0000E+00  0.0000E+00
     -9.335  0.0000E+00  0.0000E+00  0.0000E+00
     -9.232  0.0000E+00  0.0000E+00  0.0000E+00
     -9.129  0.0000E+00  0.0000E+00  0.0000E+00
     -9.026  0.0000E+00  0.0000E+00  0.0000E+00
     -8.923  0.0000E+00  0.0000E+00  0.0000E+00
     -8.820  0.0000E+00  0.0000E+00  0.0000E+00
     -8.717  0.0000E+00  0.0000E+00  0.0000E+00
     -8.614  0.0000E+00  0.0000E+00  0.0000E+00
     -8.511  0.0000E+00  0.0000E+00  0.0000E+00
     -8.408  0.0000E+00  0.0000E+00  0.0000E+00
     -8.304  0.0000E+00  0.0000E+00  0.0000E+00
     -8.201  0.3989E-16  0.3333E-03  0.2757E-06
     -8.098  0.9248E-18  0.8062E-15  0.1636E-17
     -7.995  0.7506E-06  0.3144E-02  0.1096E-04
     -7.892  0.2551E-17  0.2028E-05  0.3414E-07
     -7.789  0.7973E-05  0.1312E-01  0.1720E-04
     -7.686  0.8148E-06  0.2064E-01  0.3699E-04
     -7.583  0.7054E-05  0.5145E-01  0.1256E-04
     -7.480  0.9297E-06  0.2532E+00  0.1855E-04
     -7.377  0.3419E-04  0.2610E+02  0.4414E-04
     -7.274  0.6206E-04  0.3854E+01  0.3528E-04
     -7.171  0.1394E-04  0.7859E-01  0.3581E-05
     -7.068  0.1695E-04  0.1003E-01  0.6127E-05
     -6.965  0.1526E-04  0.2520E-02  0.6325E-05
     -6.862  0.0000E+00  0.0000E+00  0.0000E+00
     -6.759  0.7807E-11  0.2616E-10  0.3264E-11
     -6.656  0.1214E-04  0.4068E-04  0.5076E-05
     -6.553  0.0000E+00  0.0000E+00  0.0000E+00
     -6.450  0.0000E+00  0.0000E+00  0.0000E+00
     -6.347  0.0000E+00  0.0000E+00  0.0000E+00
     -6.244  0.0000E+00  0.0000E+00  0.0000E+00
     -6.141  0.0000E+00  0.0000E+00  0.0000E+00
     -6.038  0.0000E+00  0.0000E+00  0.0000E+00
     -5.935  0.0000E+00  0.0000E+00  0.0000E+00
     -5.832  0.0000E+00  0.0000E+00  0.0000E+00
     -5.729  0.0000E+00  0.0000E+00  0.0000E+00
     -5.626  0.0000E+00  0.0000E+00  0.0000E+00
     -5.523  0.0000E+00  0.0000E+00  0.0000E+00
     -5.420  0.0000E+00  0.0000E+00  0.0000E+00
     -5.317  0.0000E+00  0.0000E+00  0.0000E+00
     -5.214  0.0000E+00  0.0000E+00  0.0000E+00
     -5.111  0.0000E+00  0.0000E+00  0.0000E+00
     -5.008  0.0000E+00  0.0000E+00  0.0000E+00
     -4.905  0.0000E+00  0.0000E+00  0.0000E+00
     -4.802  0.0000E+00  0.0000E+00  0.0000E+00
     -4.699  0.0000E+00  0.0000E+00  0.0000E+00
     -4.596  0.0000E+00  0.0000E+00  0.0000E+00
     -4.493  0.0000E+00  0.0000E+00  0.0000E+00
     -4.390  0.0000E+00  0.0000E+00  0.0000E+00
     -4.287  0.0000E+00  0.0000E+00  0.0000E+00
     -4.184  0.0000E+00  0.0000E+00  0.0000E+00
     -4.081  0.0000E+00  0.0000E+00  0.0000E+00
     -3.978  0.0000E+00  0.0000E+00  0.0000E+00
     -3.875  0.0000E+00  0.0000E+00  0.0000E+00
     -3.772  0.0000E+00  0.0000E+00  0.0000E+00
     -3.669  0.0000E+00  0.0000E+00  0.0000E+00
     -3.566  0.0000E+00  0.0000E+00  0.0000E+00
     -3.463  0.2158E-10  0.1617E-07  0.2710E-11
     -3.360  0.4232E-05  0.3164E-02  0.1973E-03
     -3.257  0.2014E-04  0.2887E-02  0.2738E-03
     -3.154  0.5386E-04  0.1515E-01  0.1800E-02
     -3.051  0.7468E-04  0.7080E-02  0.8832E-03
     -2.948  0.1507E-03  0.1040E-01  0.6576E-03
     -2.845  0.7576E-04  0.6943E-02  0.4083E-03
     -2.742  0.7617E-04  0.6649E-02  0.4438E-03
     -2.639  0.1018E-17  0.7896E-03  0.2194E-03
     -2.536  0.1913E-03  0.9732E-02  0.6640E-03
     -2.433  0.1588E-02  0.9947E-02  0.1004E-02
     -2.330  0.2537E-02  0.7779E-02  0.1836E-02
     -2.227  0.6233E-02  0.1803E-01  0.2527E-02
     -2.124  0.9098E-02  0.8340E-02  0.1267E-02
     -2.021  0.1592E-01  0.4108E-01  0.5717E-02
     -1.917  0.1714E-02  0.2113E-01  0.5097E-03
     -1.814  0.3915E-02  0.1043E+00  0.6323E-02
     -1.711  0.4325E-02  0.6055E-01  0.8912E-02
     -1.608  0.1550E-02  0.6015E-01  0.1001E-01
     -1.505  0.6459E-02  0.4967E-01  0.1971E-01
     -1.402  0.2488E-02  0.6245E-01  0.1777E-01
     -1.299  0.4330E-02  0.1118E+00  0.8769E-02
     -1.196  0.1634E-02  0.6054E-01  0.1088E-01
     -1.093  0.1347E-02  0.3266E-01  0.5470E-02
     -0.990  0.4311E-03  0.6456E-02  0.4199E-02
     -0.887  0.3899E-03  0.8015E-02  0.3232E-02
     -0.784  0.1183E-03  0.7566E-02  0.1271E-02
     -0.681  0.3831E-04  0.3500E-02  0.1901E-02
     -0.578  0.4910E-04  0.2359E-02  0.8509E-03
     -0.475  0.0000E+00  0.0000E+00  0.0000E+00
     -0.372  0.1029E-16  0.7912E-06  0.3021E-05
     -0.269  0.1109E-14  0.1357E-03  0.1574E-02
     -0.166  0.9789E-05  0.2151E-05  0.1087E-03
     -0.063  0.8184E-05  0.8520E-04  0.8092E-04
      0.040  0.0000E+00  0.0000E+00  0.0000E+00
      0.143  0.0000E+00  0.0000E+00  0.0000E+00
      0.246  0.1194E-16  0.5797E-04  0.4970E-05
      0.349  0.0000E+00  0.0000E+00  0.0000E+00
      0.452  0.0000E+00  0.0000E+00  0.0000E+00
      0.555  0.0000E+00  0.0000E+00  0.0000E+00
      0.658  0.0000E+00  0.0000E+00  0.0000E+00
      0.761  0.0000E+00  0.0000E+00  0.0000E+00
      0.864  0.0000E+00  0.0000E+00  0.0000E+00
      0.967  0.0000E+00  0.0000E+00  0.0000E+00
      1.070  0.0000E+00  0.0000E+00  0.0000E+00
      1.173  0.0000E+00  0.0000E+00  0.0000E+00
      1.276  0.0000E+00  0.0000E+00  0.0000E+00
      1.379  0.0000E+00  0.0000E+00  0.0000E+00
      1.482  0.0000E+00  0.0000E+00  0.0000E+00
      1.585  0.0000E+00  0.0000E+00  0.0000E+00
      1.688  0.0000E+00  0.0000E+00  0.0000E+00
      1.791  0.0000E+00  0.0000E+00  0.0000E+00
      1.894  0.0000E+00  0.0000E+00  0.0000E+00
      1.997  0.0000E+00  0.0000E+00  0.0000E+00
      2.100  0.0000E+00  0.0000E+00  0.0000E+00
      2.203  0.0000E+00  0.0000E+00  0.0000E+00
      2.306  0.1162E-12  0.8819E-13  0.5342E-11
      2.409  0.1140E-04  0.8657E-05  0.5244E-03
      2.512  0.2130E-15  0.8702E-15  0.3807E-14
      2.615  0.6160E-04  0.5104E-03  0.1295E-02
      2.718  0.3621E-04  0.1692E-02  0.5260E-03
      2.821  0.5154E-05  0.4614E-04  0.4515E-03
      2.924  0.7566E-04  0.2968E-03  0.1133E-02
      3.027  0.6325E-04  0.5154E-02  0.2055E-02
      3.130  0.6776E-04  0.2182E-03  0.6439E-03
      3.233  0.2341E-04  0.6562E-04  0.2838E-03
      3.336  0.8492E-03  0.2919E-03  0.1932E-02
      3.439  0.0000E+00  0.0000E+00  0.0000E+00
      3.542  0.4163E-03  0.1181E-02  0.6198E-02
      3.645  0.4276E-05  0.2053E-04  0.8363E-04
      3.748  0.5886E-14  0.5995E-11  0.4804E-10
      3.851  0.6216E-03  0.1788E-02  0.6215E-02
      3.954  0.1206E-02  0.2600E-02  0.6396E-02
      4.057  0.7343E-05  0.3721E-02  0.2612E-02
      4.160  0.3175E-03  0.7307E-03  0.1649E-02
      4.263  0.1245E-02  0.3090E-02  0.7849E-02
      4.366  0.0000E+00  0.0000E+00  0.0000E+00
      4.470  0.1800E-02  0.7635E-03  0.1787E-02
      4.573  0.1370E-02  0.1669E-05  0.1701E-03
      4.676  0.0000E+00  0.0000E+00  0.0000E+00
      4.779  0.1914E-18  0.6973E-08  0.1324E-05
      4.882  0.1626E-13  0.7847E-03  0.9882E-02
      4.985  0.1320E-01  0.5964E-02  0.1796E-01
      5.088  0.1812E-01  0.4503E-02  0.2443E-02
      5.191  0.2045E-01  0.4467E-02  0.1270E-01
      5.294  0.1208E-01  0.5748E-02  0.5750E-02
      5.397  0.2709E-12  0.1266E-03  0.1644E-01
      5.500  0.9697E-02  0.1904E-02  0.5050E-01
      5.603  0.2416E-02  0.1901E-02  0.7049E-01
      5.706  0.7219E-01  0.2149E-01  0.4938E-01
      5.809  0.2746E-01  0.4681E-02  0.6925E-01
      5.912  0.1671E-01  0.6835E-02  0.1731E+00
      6.015  0.8086E-01  0.3763E-01  0.2096E+00
      6.118  0.2381E-02  0.1269E-01  0.1797E+00
      6.221  0.4888E-01  0.1756E-01  0.3321E+00
      6.324  0.1161E-01  0.6954E-02  0.6217E-01
      6.427  0.2792E-01  0.8437E-02  0.3995E+00
      6.530  0.2759E-01  0.1931E-01  0.5241E+00
      6.633  0.2472E-01  0.8725E-01  0.1165E+01
      6.736  0.1697E-01  0.2800E-01  0.1001E+01
      6.839  0.8845E-02  0.4970E-01  0.6292E+00
      6.942  0.2694E-02  0.7772E-02  0.6374E-01
      7.045  0.5124E-09  0.5248E-09  0.1136E-07
      7.148  0.8739E-02  0.8950E-02  0.1937E+00
      7.251  0.0000E+00  0.0000E+00  0.0000E+00
      7.354  0.0000E+00  0.0000E+00  0.0000E+00
      7.457  0.0000E+00  0.0000E+00  0.0000E+00
      7.560  0.0000E+00  0.0000E+00  0.0000E+00
      7.663  0.0000E+00  0.0000E+00  0.0000E+00
      7.766  0.0000E+00  0.0000E+00  0.0000E+00
      7.869  0.0000E+00  0.0000E+00  0.0000E+00
      7.972  0.0000E+00  0.0000E+00  0.0000E+00
      8.075  0.0000E+00  0.0000E+00  0.0000E+00
      8.178  0.0000E+00  0.0000E+00  0.0000E+00
      8.281  0.0000E+00  0.0000E+00  0.0000E+00
      8.384  0.0000E+00  0.0000E+00  0.0000E+00
      8.487  0.0000E+00  0.0000E+00  0.0000E+00
      8.48713711    -22.41769298  301      0.36174220      1.00000000
    -22.418  0.0000E+00  0.0000E+00  0.0000E+00
    -22.315  0.0000E+00  0.0000E+00  0.0000E+00
    -22.212  0.0000E+00  0.0000E+00  0.0000E+00
    -22.109  0.0000E+00  0.0000E+00  0.0000E+00
    -22.006  0.0000E+00  0.0000E+00  0.0000E+00
    -21.903  0.0000E+00  0.0000E+00  0.0000E+00
    -21.800  0.0000E+00  0.0000E+00  0.0000E+00
    -21.697  0.0000E+00  0.0000E+00  0.0000E+00
    -21.594  0.0000E+00  0.0000E+00  0.0000E+00
    -21.491  0.0000E+00  0.0000E+00  0.0000E+00
    -21.388  0.0000E+00  0.0000E+00  0.0000E+00
    -21.285  0.0000E+00  0.0000E+00  0.0000E+00
    -21.181  0.0000E+00  0.0000E+00  0.0000E+00
    -21.078  0.0000E+00  0.0000E+00  0.0000E+00
    -20.975  0.1723E+02  0.1142E-04  0.1494E-04
    -20.872  0.0000E+00  0.0000E+00  0.0000E+00
    -20.769  0.0000E+00  0.0000E+00  0.0000E+00
    -20.666  0.0000E+00  0.0000E+00  0.0000E+00
    -20.563  0.0000E+00  0.0000E+00  0.0000E+00
    -20.460  0.0000E+00  0.0000E+00  0.0000E+00
    -20.357  0.0000E+00  0.0000E+00  0.0000E+00
    -20.254  0.0000E+00  0.0000E+00  0.0000E+00
    -20.151  0.0000E+00  0.0000E+00  0.0000E+00
    -20.048  0.0000E+00  0.0000E+00  0.0000E+00
    -19.945  0.0000E+00  0.0000E+00  0.0000E+00
    -19.842  0.0000E+00  0.0000E+00  0.0000E+00
    -19.739  0.0000E+00  0.0000E+00  0.0000E+00
    -19.636  0.0000E+00  0.0000E+00  0.0000E+00
    -19.533  0.0000E+00  0.0000E+00  0.0000E+00
    -19.430  0.0000E+00  0.0000E+00  0.0000E+00
    -19.327  0.0000E+00  0.0000E+00  0.0000E+00
    -19.224  0.0000E+00  0.0000E+00  0.0000E+00
    -19.121  0.0000E+00  0.0000E+00  0.0000E+00
    -19.018  0.0000E+00  0.0000E+00  0.0000E+00
    -18.915  0.0000E+00  0.0000E+00  0.0000E+00
    -18.812  0.0000E+00  0.0000E+00  0.0000E+00
    -18.709  0.0000E+00  0.0000E+00  0.0000E+00
    -18.606  0.0000E+00  0.0000E+00  0.0000E+00
    -18.503  0.0000E+00  0.0000E+00  0.0000E+00
    -18.400  0.0000E+00  0.0000E+00  0.0000E+00
    -18.297  0.0000E+00  0.0000E+00  0.0000E+00
    -18.194  0.0000E+00  0.0000E+00  0.0000E+00
    -18.091  0.0000E+00  0.0000E+00  0.0000E+00
    -17.988  0.0000E+00  0.0000E+00  0.0000E+00
    -17.885  0.0000E+00  0.0000E+00  0.0000E+00
    -17.782  0.0000E+00  0.0000E+00  0.0000E+00
    -17.679  0.0000E+00  0.0000E+00  0.0000E+00
    -17.576  0.0000E+00  0.0000E+00  0.0000E+00
    -17.473  0.0000E+00  0.0000E+00  0.0000E+00
    -17.370  0.0000E+00  0.0000E+00  0.0000E+00
    -17.267  0.0000E+00  0.0000E+00  0.0000E+00
    -17.164  0.0000E+00  0.0000E+00  0.0000E+00
    -17.061  0.0000E+00  0.0000E+00  0.0000E+00
    -16.958  0.0000E+00  0.0000E+00  0.0000E+00
    -16.855  0.0000E+00  0.0000E+00  0.0000E+00
    -16.752  0.0000E+00  0.0000E+00  0.0000E+00
    -16.649  0.3717E-06  0.1420E-06  0.1001E-07
    -16.546  0.7873E-04  0.7419E-04  0.1310E-04
    -16.443  0.3030E-04  0.1725E-04  0.1989E-05
    -16.340  0.0000E+00  0.0000E+00  0.0000E+00
    -16.237  0.0000E+00  0.0000E+00  0.0000E+00
    -16.134  0.0000E+00  0.0000E+00  0.0000E+00
    -16.031  0.0000E+00  0.0000E+00  0.0000E+00
    -15.928  0.0000E+00  0.0000E+00  0.0000E+00
    -15.825  0.0000E+00  0.0000E+00  0.0000E+00
    -15.722  0.0000E+00  0.0000E+00  0.0000E+00
    -15.619  0.0000E+00  0.0000E+00  0.0000E+00
    -15.516  0.0000E+00  0.0000E+00  0.0000E+00
    -15.413  0.0000E+00  0.0000E+00  0.0000E+00
    -15.310  0.0000E+00  0.0000E+00  0.0000E+00
    -15.207  0.0000E+00  0.0000E+00  0.0000E+00
    -15.104  0.0000E+00  0.0000E+00  0.0000E+00
    -15.001  0.0000E+00  0.0000E+00  0.0000E+00
    -14.898  0.0000E+00  0.0000E+00  0.0000E+00
    -14.795  0.0000E+00  0.0000E+00  0.0000E+00
    -14.691  0.0000E+00  0.0000E+00  0.0000E+00
    -14.588  0.0000E+00  0.0000E+00  0.0000E+00
    -14.485  0.0000E+00  0.0000E+00  0.0000E+00
    -14.382  0.2472E-03  0.8396E-06  0.2219E-05
    -14.279  0.2995E-02  0.1581E-02  0.5108E-04
    -14.176  0.1588E-02  0.4720E-02  0.9007E-04
    -14.073  0.9813E-04  0.2614E-02  0.1923E-03
    -13.970  0.1977E-02  0.4731E-02  0.6640E-03
    -13.867  0.1316E-02  0.2867E-02  0.3562E-03
    -13.764  0.3609E-03  0.7662E-03  0.4437E-04
    -13.661  0.0000E+00  0.0000E+00  0.0000E+00
    -13.558  0.0000E+00  0.0000E+00  0.0000E+00
    -13.455  0.0000E+00  0.0000E+00  0.0000E+00
    -13.352  0.0000E+00  0.0000E+00  0.0000E+00
    -13.249  0.0000E+00  0.0000E+00  0.0000E+00