<?xml version="1.0" encoding="ISO-8859-1"?>
<modeling>
 <generator>
  <i name="program" type="string">vasp </i>
  <i name="version" type="string">5.4.4.18Apr17-6-g9f103f2a35  </i>
  <i name="subversion" type="string">(build Jun 29 2021 11:06:51) complex            parallel </i>
  <i name="platform" type="string">tx2_gcc-7.3_libsci-18.07_cray-fftw-3.3.8 </i>
  <i name="date" type="string">2021 09 21 </i>
  <i name="time" type="string">08:32:50 </i>
 </generator>
 <incar>
  <i type="string" name="SYSTEM"> CsPbBr3 cubic bulk</i>
  <i type="string" name="PREC">accurate</i>
  <i type="string" name="ALGO"> Normal   ! Electronic minimisation algo</i>
  <i type="logical" name="ADDGRID"> T  </i>
  <i type="int" name="NELM">   200</i>
  <i type="int" name="IBRION">     2</i>
  <i name="EDIFF">      0.00000100</i>
  <i name="EDIFFG">     -0.01000000</i>
  <i type="int" name="NSW">     0</i>
  <i type="int" name="ISIF">     3</i>
  <i type="int" name="ISYM">     2</i>
  <i name="ENCUT">    300.00000000</i>
  <i name="POTIM">      0.50000000</i>
  <i type="string" name="LREAL"> AUTO</i>
  <i type="int" name="ISMEAR">     0</i>
  <i name="SIGMA">      0.01000000</i>
  <i name="PSTRESS">      0.00000000</i>
  <i type="logical" name="LWAVE"> F  </i>
  <i type="logical" name="LCHARG"> F  </i>
  <i type="logical" name="LVHAR"> T  </i>
  <i type="int" name="LORBIT">    10</i>
  <i type="logical" name="LASPH"> T  </i>
  <v type="int" name="KPOINT_BSE">    -1     0     0     0</v>
  <i type="int" name="NELM">   200</i>
  <i type="string" name="METAGGA"> SCAN       ! PBE exchange-correlation</i>
  <i type="logical" name="LASPH"> T  </i>
 </incar>
 <structure name="primitive_cell" >
  <crystal>
   <varray name="basis" >
    <v>       7.87438128       0.00000000       0.00000000 </v>
    <v>       0.00000000      12.35199817       0.00000000 </v>
    <v>       0.00000000       0.00000000       8.48187958 </v>
   </varray>
   <i name="volume">    824.98444669 </i>
   <varray name="rec_basis" >
    <v>       0.12699410       0.00000000       0.00000000 </v>
    <v>       0.00000000       0.08095856       0.00000000 </v>
    <v>       0.00000000       0.00000000       0.11789840 </v>
   </varray>
  </crystal>
  <varray name="positions" >
   <v>       0.00335156       0.25000000      -0.48445378 </v>
   <v>      -0.17945939       0.00876122       0.31186182 </v>
   <v>      -0.17945939       0.49123878       0.31186182 </v>
   <v>       0.17945939      -0.49123878      -0.31186182 </v>
   <v>       0.17945939      -0.00876122      -0.31186182 </v>
   <v>      -0.00149286       0.25000000      -0.02476903 </v>
   <v>       0.49850714       0.25000000      -0.47523097 </v>
   <v>       0.32054061       0.49123878       0.18813818 </v>
   <v>       0.32054061       0.00876122       0.18813818 </v>
   <v>      -0.32054061      -0.00876122      -0.18813818 </v>
   <v>      -0.32054061      -0.49123878      -0.18813818 </v>
   <v>      -0.50000000       0.00000000      -0.50000000 </v>
   <v>      -0.50000000      -0.50000000      -0.50000000 </v>
   <v>       0.00000000       0.00000000       0.00000000 </v>
   <v>       0.00000000      -0.50000000       0.00000000 </v>
   <v>      -0.49664844       0.25000000      -0.01554622 </v>
   <v>      -0.00335156      -0.25000000       0.48445378 </v>
   <v>      -0.49850714      -0.25000000       0.47523097 </v>
   <v>       0.00149286      -0.25000000       0.02476903 </v>
   <v>       0.49664844      -0.25000000       0.01554622 </v>
  </varray>
 </structure>
 <varray name="primitive_index" >
  <v type="int" >        1 </v>
  <v type="int" >       15 </v>
  <v type="int" >       20 </v>
  <v type="int" >       14 </v>
  <v type="int" >       18 </v>
  <v type="int" >       10 </v>
  <v type="int" >       12 </v>
  <v type="int" >       13 </v>
  <v type="int" >       17 </v>
  <v type="int" >       16 </v>
  <v type="int" >       19 </v>
  <v type="int" >        6 </v>
  <v type="int" >        7 </v>
  <v type="int" >        5 </v>
  <v type="int" >        8 </v>
  <v type="int" >        3 </v>
  <v type="int" >        4 </v>
  <v type="int" >        9 </v>
  <v type="int" >       11 </v>
  <v type="int" >        2 </v>
 </varray>
 <kpoints>
  <generation param="Gamma">
   <v type="int" name="divisions">       3        2        3 </v>
   <v name="usershift">      0.00000000       0.00000000       0.00000000 </v>
   <v name="genvec1">      0.33333333       0.00000000       0.00000000 </v>
   <v name="genvec2">      0.00000000       0.50000000       0.00000000 </v>
   <v name="genvec3">      0.00000000       0.00000000       0.33333333 </v>
   <v name="shift">      0.00000000       0.00000000       0.00000000 </v>
  </generation>
  <varray name="kpointlist" >
   <v>       0.00000000       0.00000000       0.00000000 </v>
   <v>       0.33333333       0.00000000       0.00000000 </v>
   <v>       0.00000000       0.50000000       0.00000000 </v>
   <v>       0.33333333       0.50000000       0.00000000 </v>
   <v>       0.00000000       0.00000000       0.33333333 </v>
   <v>       0.33333333       0.00000000       0.33333333 </v>
   <v>       0.00000000       0.50000000       0.33333333 </v>
   <v>       0.33333333       0.50000000       0.33333333 </v>
  </varray>
  <varray name="weights" >
   <v>       0.05555556 </v>
   <v>       0.11111111 </v>
   <v>       0.05555556 </v>
   <v>       0.11111111 </v>
   <v>       0.11111111 </v>
   <v>       0.22222222 </v>
   <v>       0.11111111 </v>
   <v>       0.22222222 </v>
  </varray>
 </kpoints>
 <parameters>
  <separator name="general" >
   <i type="string" name="SYSTEM">CsPbBr3 cubic bulk</i>
   <i type="logical" name="LCOMPAT"> F  </i>
  </separator>
  <separator name="electronic" >
   <i type="string" name="PREC">accura</i>
   <i name="ENMAX">    300.00000000</i>
   <i name="ENAUG">    503.85200000</i>
   <i name="EDIFF">      0.00000100</i>
   <i type="int" name="IALGO">    38</i>
   <i type="int" name="IWAVPR">    10</i>
   <i type="int" name="NBANDS">   112</i>
   <i name="NELECT">    176.00000000</i>
   <i type="int" name="TURBO">     0</i>
   <i type="int" name="IRESTART">     0</i>
   <i type="int" name="NREBOOT">     0</i>
   <i type="int" name="NMIN">     0</i>
   <i name="EREF">      0.00000000</i>
   <separator name="electronic smearing" >
    <i type="int" name="ISMEAR">     0</i>
    <i name="SIGMA">      0.01000000</i>
    <i name="KSPACING">      0.50000000</i>
    <i type="logical" name="KGAMMA"> T  </i>
   </separator>
   <separator name="electronic projectors" >
    <i type="logical" name="LREAL"> T  </i>
    <v name="ROPT">     -0.00025000     -0.00025000     -0.00025000</v>
    <i type="int" name="LMAXPAW">  -100</i>
    <i type="int" name="LMAXMIX">     2</i>
    <i type="logical" name="NLSPLINE"> F  </i>
   </separator>
   <separator name="electronic startup" >
    <i type="int" name="ISTART">     0</i>
    <i type="int" name="ICHARG">     2</i>
    <i type="int" name="INIWAV">     1</i>
   </separator>
   <separator name="electronic spin" >
    <i type="int" name="ISPIN">     1</i>
    <i type="logical" name="LNONCOLLINEAR"> F  </i>
    <v name="MAGMOM">      1.00000000      1.00000000      1.00000000      1.00000000      1.00000000      1.00000000      1.00000000      1.00000000      1.00000000      1.00000000      1.00000000      1.00000000      1.00000000      1.00000000      1.00000000      1.00000000      1.00000000      1.00000000      1.00000000      1.00000000
</v>
    <i name="NUPDOWN">     -1.00000000</i>
    <i type="logical" name="LSORBIT"> F  </i>
    <v name="SAXIS">      0.00000000      0.00000000      1.00000000</v>
    <i type="logical" name="LSPIRAL"> F  </i>
    <v name="QSPIRAL">      0.00000000      0.00000000      0.00000000</v>
    <i type="logical" name="LZEROZ"> F  </i>
   </separator>
   <separator name="electronic exchange-correlation" >
    <i type="logical" name="LASPH"> T  </i>
    <i type="logical" name="LMETAGGA"> F  </i>
   </separator>
   <separator name="electronic convergence" >
    <i type="int" name="NELM">   200</i>
    <i type="int" name="NELMDL">    -5</i>
    <i type="int" name="NELMIN">     2</i>
    <i name="ENINI">    300.00000000</i>
    <separator name="electronic convergence detail" >
     <i type="logical" name="LDIAG"> T  </i>
     <i type="logical" name="LSUBROT"> F  </i>
     <i name="WEIMIN">      0.00000000</i>
     <i name="EBREAK">      0.00000000</i>
     <i name="DEPER">      0.30000000</i>
     <i type="int" name="NRMM">     4</i>
     <i name="TIME">      0.40000000</i>
    </separator>
   </separator>
   <separator name="electronic mixer" >
    <i name="AMIX">      0.40000000</i>
    <i name="BMIX">      1.00000000</i>
    <i name="AMIN">      0.10000000</i>
    <i name="AMIX_MAG">      1.60000000</i>
    <i name="BMIX_MAG">      1.00000000</i>
    <separator name="electronic mixer details" >
     <i type="int" name="IMIX">     4</i>
     <i type="logical" name="MIXFIRST"> F  </i>
     <i type="int" name="MAXMIX">   -45</i>
     <i name="WC">    100.00000000</i>
     <i type="int" name="INIMIX">     1</i>
     <i type="int" name="MIXPRE">     1</i>
     <i type="int" name="MREMOVE">     5</i>
    </separator>
   </separator>
   <separator name="electronic dipolcorrection" >
    <i type="logical" name="LDIPOL"> F  </i>
    <i type="logical" name="LMONO"> F  </i>
    <i type="int" name="IDIPOL">     0</i>
    <i name="EPSILON">      1.00000000</i>
    <v name="DIPOL">   -100.00000000   -100.00000000   -100.00000000</v>
    <i name="EFIELD">      0.00000000</i>
   </separator>
  </separator>
  <separator name="grids" >
   <i type="int" name="NGX">    48</i>
   <i type="int" name="NGY">    70</i>
   <i type="int" name="NGZ">    48</i>
   <i type="int" name="NGXF">    96</i>
   <i type="int" name="NGYF">   140</i>
   <i type="int" name="NGZF">    96</i>
   <i type="logical" name="ADDGRID"> T  </i>
  </separator>
  <separator name="ionic" >
   <i type="int" name="NSW">     0</i>
   <i type="int" name="IBRION">    -1</i>
   <i type="int" name="MDALGO">     0</i>
   <i type="int" name="ISIF">     3</i>
   <i name="PSTRESS">      0.00000000</i>
   <i name="EDIFFG">     -0.01000000</i>
   <i type="int" name="NFREE">     1</i>
   <i name="POTIM">      0.50000000</i>
   <i name="SMASS">     -3.00000000</i>
   <i name="SCALEE">      1.00000000</i>
  </separator>
  <separator name="ionic md" >
   <i name="TEBEG">      0.00010000</i>
   <i name="TEEND">      0.00010000</i>
   <i type="int" name="NBLOCK">     1</i>
   <i type="int" name="KBLOCK">     1</i>
   <i type="int" name="NPACO">   256</i>
   <i name="APACO">     16.00000000</i>
  </separator>
  <separator name="symmetry" >
   <i type="int" name="ISYM">     2</i>
   <i name="SYMPREC">      0.00001000</i>
  </separator>
  <separator name="dos" >
   <i type="int" name="LORBIT">    10</i>
   <v name="RWIGS">     -1.00000000     -1.00000000     -1.00000000</v>
   <i type="int" name="NEDOS">   301</i>
   <i name="EMIN">     10.00000000</i>
   <i name="EMAX">    -10.00000000</i>
   <i name="EFERMI">      0.00000000</i>
  </separator>
  <separator name="writing" >
   <i type="int" name="NWRITE">     2</i>
   <i type="logical" name="LWAVE"> F  </i>
   <i type="logical" name="LDOWNSAMPLE"> F  </i>
   <i type="logical" name="LCHARG"> F  </i>
   <i type="logical" name="LPARD"> F  </i>
   <i type="logical" name="LVTOT"> F  </i>
   <i type="logical" name="LVHAR"> T  </i>
   <i type="logical" name="LELF"> F  </i>
   <i type="logical" name="LOPTICS"> F  </i>
   <v name="STM">      0.00000000      0.00000000      0.00000000      0.00000000      0.00000000      0.00000000      0.00000000</v>
  </separator>
  <separator name="performance" >
   <i type="int" name="NPAR">     8</i>
   <i type="int" name="NSIM">     4</i>
   <i type="int" name="NBLK">    -1</i>
   <i type="logical" name="LPLANE"> T  </i>
   <i type="logical" name="LSCALAPACK"> T  </i>
   <i type="logical" name="LSCAAWARE"> F  </i>
   <i type="logical" name="LSCALU"> F  </i>
   <i type="logical" name="LASYNC"> F  </i>
   <i type="logical" name="LORBITALREAL"> F  </i>
  </separator>
  <separator name="miscellaneous" >
   <i type="int" name="IDIOT">     3</i>
   <i type="int" name="ISPECIAL">     0</i>
   <i type="logical" name="LMUSIC"> F  </i>
   <v name="POMASS">    132.90000000    207.20000000     79.90400000</v>
   <v name="DARWINR">      0.00000000      0.00000000      0.00000000</v>
   <v name="DARWINV">      1.00000000      1.00000000      1.00000000</v>
   <i type="logical" name="LCORR"> T  </i>
  </separator>
  <i type="logical" name="GGA_COMPAT"> T  </i>
  <i type="logical" name="LBERRY"> F  </i>
  <i type="int" name="ICORELEVEL">     0</i>
  <i type="logical" name="LDAU"> F  </i>
  <i type="int" name="I_CONSTRAINED_M">     0</i>
  <separator name="electronic exchange-correlation" >
   <i type="string" name="GGA">--</i>
   <i type="int" name="VOSKOWN">     0</i>
   <i type="logical" name="LHFCALC"> F  </i>
   <i type="string" name="PRECFOCK"></i>
   <i type="logical" name="LSYMGRAD"> F  </i>
   <i type="logical" name="LHFONE"> F  </i>
   <i type="logical" name="LRHFCALC"> F  </i>
   <i type="logical" name="LTHOMAS"> F  </i>
   <i type="logical" name="LMODELHF"> F  </i>
   <i name="ENCUT4O">     -1.00000000</i>
   <i type="int" name="EXXOEP">     0</i>
   <i type="int" name="FOURORBIT">     0</i>
   <i name="AEXX">      0.00000000</i>
   <i name="HFALPHA">      0.00000000</i>
   <i name="MCALPHA">      0.00000000</i>
   <i name="ALDAX">      1.00000000</i>
   <i name="AGGAX">      1.00000000</i>
   <i name="ALDAC">      1.00000000</i>
   <i name="AGGAC">      1.00000000</i>
   <i type="int" name="NKREDX">     1</i>
   <i type="int" name="NKREDY">     1</i>
   <i type="int" name="NKREDZ">     1</i>
   <i type="logical" name="SHIFTRED"> F  </i>
   <i type="logical" name="ODDONLY"> F  </i>
   <i type="logical" name="EVENONLY"> F  </i>
   <i type="int" name="LMAXFOCK">     0</i>
   <i type="int" name="NMAXFOCKAE">     0</i>
   <i type="logical" name="LFOCKAEDFT"> F  </i>
   <i name="HFSCREEN">      0.00000000</i>
   <i name="HFSCREENC">      0.00000000</i>
   <i type="int" name="NBANDSGWLOW">     0</i>
  </separator>
  <separator name="vdW DFT" >
   <i type="logical" name="LUSE_VDW"> F  </i>
   <i name="Zab_VDW">     -0.84910000</i>
   <i name="PARAM1">      0.12340000</i>
   <i name="PARAM2">      1.00000000</i>
   <i name="PARAM3">      0.00000000</i>
  </separator>
  <separator name="model GW" >
   <i type="int" name="MODEL_GW">     0</i>
   <i name="MODEL_EPS0">     24.74953340</i>
   <i name="MODEL_ALPHA">      1.00000000</i>
  </separator>
  <separator name="linear response parameters" >
   <i type="logical" name="LEPSILON"> F  </i>
   <i type="logical" name="LRPA"> F  </i>
   <i type="logical" name="LNABLA"> F  </i>
   <i type="logical" name="LVEL"> F  </i>
   <i type="int" name="KINTER">     0</i>
   <i name="CSHIFT">      0.10000000</i>
   <i name="OMEGAMAX">     -1.00000000</i>
   <i name="DEG_THRESHOLD">      0.00200000</i>
   <i name="RTIME">     -0.10000000</i>
   <i name="WPLASMAI">      0.00000000</i>
   <v name="DFIELD">      0.00000000      0.00000000      0.00000000</v>
   <v name="WPLASMA">      0.00000000      0.00000000      0.00000000      0.00000000      0.00000000      0.00000000      0.00000000      0.00000000      0.00000000</v>
  </separator>
  <separator name="orbital magnetization" >
   <i type="logical" name="NUCIND"> F  </i>
   <v name="MAGPOS">      0.00000000      0.00000000      0.00000000</v>
   <i type="logical" name="LNICSALL"> T  </i>
   <i type="logical" name="ORBITALMAG"> F  </i>
   <i type="logical" name="LMAGBLOCH"> F  </i>
   <i type="logical" name="LCHIMAG"> F  </i>
   <i type="logical" name="LGAUGE"> T  </i>
   <i type="int" name="MAGATOM">     0</i>
   <v name="MAGDIPOL">      0.00000000      0.00000000      0.00000000</v>
   <v name="AVECCONST">      0.00000000      0.00000000      0.00000000</v>
  </separator>
  <separator name="response functions" >
   <i type="logical" name="LADDER"> F  </i>
   <i type="logical" name="LRPAFORCE"> F  </i>
   <i type="logical" name="LFXC"> F  </i>
   <i type="logical" name="LHARTREE"> T  </i>
   <i type="int" name="IBSE">     0</i>
   <v type="int" name="KPOINT">    -1     0     0     0</v>
   <i type="logical" name="LTCTE"> F  </i>
   <i type="logical" name="LTETE"> F  </i>
   <i type="logical" name="LTRIPLET"> F  </i>
   <i type="logical" name="LFXCEPS"> F  </i>
   <i type="logical" name="LFXHEG"> F  </i>
   <i type="int" name="NATURALO">     2</i>
   <i type="logical" name="L2ORDER"> F  </i>
   <i type="logical" name="LMP2LT"> F  </i>
   <i type="logical" name="LUSEW"> F  </i>
   <i name="ENCUTGW">     -2.00000000</i>
   <i name="ENCUTGWSOFT">     -2.00000000</i>
   <i name="ENCUTLF">     -1.00000000</i>
   <i type="int" name="LMAXMP2">    -1</i>
   <i name="SCISSOR">      0.00000000</i>
   <i type="int" name="NOMEGA">     0</i>
   <i type="int" name="NOMEGAR">     0</i>
   <i type="int" name="NBANDSGW">    -1</i>
   <i type="int" name="NBANDSO">    -1</i>
   <i type="int" name="NBANDSV">    -1</i>
   <i type="int" name="NELM">   200</i>
   <i type="int" name="NELMHF">     1</i>
   <i type="int" name="DIM">     3</i>
   <i type="int" name="ANTIRES">     0</i>
   <i name="OMEGAMAX">    -30.00000000</i>
   <i name="OMEGAMIN">    -30.00000000</i>
   <i name="OMEGATL">   -200.00000000</i>
   <i type="int" name="OMEGAGRID">   140</i>
   <i name="CSHIFT">     -0.10000000</i>
   <i type="logical" name="SELFENERGY"> F  </i>
   <i type="logical" name="LSPECTRAL"> F  </i>
   <i type="logical" name="LSPECTRALGW"> F  </i>
   <i type="logical" name="LSINGLES"> F  </i>
   <i type="logical" name="LFERMIGW"> F  </i>
   <i type="logical" name="ODDONLYGW"> F  </i>
   <i type="logical" name="EVENONLYGW"> F  </i>
   <i type="int" name="NKREDLFX">     1</i>
   <i type="int" name="NKREDLFY">     1</i>
   <i type="int" name="NKREDLFZ">     1</i>
   <i type="int" name="MAXMEM">  2800</i>
   <i type="int" name="TELESCOPE">     0</i>
   <i type="int" name="TAUPAR">     1</i>
   <i type="int" name="OMEGAPAR">    -1</i>
   <i name="LAMBDA">      1.00000000</i>
  </separator>
  <separator name="External order field" >
   <i name="OFIELD_KAPPA">      0.00000000</i>
   <v name="OFIELD_K">      0.00000000      0.00000000      0.00000000</v>
   <i name="OFIELD_Q6_NEAR">      0.00000000</i>
   <i name="OFIELD_Q6_FAR">      0.00000000</i>
   <i name="OFIELD_A">      0.00000000</i>
  </separator>
 </parameters>
 <atominfo>
  <atoms>      20 </atoms>
  <types>       3 </types>
  <array name="atoms" >
   <dimension dim="1">ion</dimension>
   <field type="string">element</field>
   <field type="int">atomtype</field>
   <set>
    <rc><c>Cs</c><c>   1</c></rc>
    <rc><c>Cs</c><c>   1</c></rc>
    <rc><c>Cs</c><c>   1</c></rc>
    <rc><c>Cs</c><c>   1</c></rc>
    <rc><c>Pb</c><c>   2</c></rc>
    <rc><c>Pb</c><c>   2</c></rc>
    <rc><c>Pb</c><c>   2</c></rc>
    <rc><c>Pb</c><c>   2</c></rc>
    <rc><c>Br</c><c>   3</c></rc>
    <rc><c>Br</c><c>   3</c></rc>
    <rc><c>Br</c><c>   3</c></rc>
    <rc><c>Br</c><c>   3</c></rc>
    <rc><c>Br</c><c>   3</c></rc>
    <rc><c>Br</c><c>   3</c></rc>
    <rc><c>Br</c><c>   3</c></rc>
    <rc><c>Br</c><c>   3</c></rc>
    <rc><c>Br</c><c>   3</c></rc>
    <rc><c>Br</c><c>   3</c></rc>
    <rc><c>Br</c><c>   3</c></rc>
    <rc><c>Br</c><c>   3</c></rc>
   </set>
  </array>
  <array name="atomtypes" >
   <dimension dim="1">type</dimension>
   <field type="int">atomspertype</field>
   <field type="string">element</field>
   <field>mass</field>
   <field>valence</field>
   <field type="string">pseudopotential</field>
   <set>
    <rc><c>   4</c><c>Cs</c><c>    132.90000000</c><c>      9.00000000</c><c>  PAW_PBE Cs_sv 08Apr2002               </c></rc>
    <rc><c>   4</c><c>Pb</c><c>    207.20000000</c><c>     14.00000000</c><c>  PAW_PBE Pb_d 06Sep2000                </c></rc>
    <rc><c>  12</c><c>Br</c><c>     79.90400000</c><c>      7.00000000</c><c>  PAW_PBE Br 06Sep2000                  </c></rc>
   </set>
  </array>
 </atominfo>
 <structure name="initialpos" >
  <crystal>
   <varray name="basis" >
    <v>       7.87438128       0.00000000       0.00000000 </v>
    <v>       0.00000000      12.35199817       0.00000000 </v>
    <v>       0.00000000       0.00000000       8.48187958 </v>
   </varray>
   <i name="volume">    824.98444669 </i>
   <varray name="rec_basis" >
    <v>       0.12699410       0.00000000       0.00000000 </v>
    <v>       0.00000000       0.08095856       0.00000000 </v>
    <v>       0.00000000       0.00000000       0.11789840 </v>
   </varray>
  </crystal>
  <varray name="positions" >
   <v>       0.00335156       0.25000000       0.51554622 </v>
   <v>       0.49664844       0.75000000       0.01554622 </v>
   <v>       0.50335156       0.25000000       0.98445378 </v>
   <v>       0.99664844       0.75000000       0.48445378 </v>
   <v>       0.00000000       0.00000000       0.00000000 </v>
   <v>       0.50000000       0.00000000       0.50000000 </v>
   <v>       0.50000000       0.50000000       0.50000000 </v>
   <v>       0.00000000       0.50000000       0.00000000 </v>
   <v>       0.50149286       0.75000000       0.47523097 </v>
   <v>       0.99850714       0.25000000       0.97523097 </v>
   <v>       0.00149286       0.75000000       0.02476903 </v>
   <v>       0.49850714       0.25000000       0.52476903 </v>
   <v>       0.32054061       0.49123878       0.18813818 </v>
   <v>       0.17945939       0.50876122       0.68813818 </v>
   <v>       0.82054061       0.00876122       0.31186182 </v>
   <v>       0.67945939       0.99123878       0.81186182 </v>
   <v>       0.32054061       0.00876122       0.18813818 </v>
   <v>       0.17945939       0.99123878       0.68813818 </v>
   <v>       0.67945939       0.50876122       0.81186182 </v>
   <v>       0.82054061       0.49123878       0.31186182 </v>
  </varray>
 </structure>
 <calculation>
  <scstep>
   <time name="dav">    4.01    4.02</time>
   <time name="total">    5.22    5.24</time>
   <energy>
    <i name="alphaZ">    437.35240732 </i>
    <i name="ewald">  -9151.57321568 </i>
    <i name="hartreedc">  -3694.18314032 </i>
    <i name="XCdc">    461.27654204 </i>
    <i name="pawpsdc">  10816.98087266 </i>
    <i name="pawaedc"> -11353.96092700 </i>
    <i name="eentropy">     -0.00000189 </i>
    <i name="bandstr">   -150.56567099 </i>
    <i name="atom">  13290.28009929 </i>
    <i name="e_fr_energy">    655.60696541 </i>
    <i name="e_wo_entrp">    655.60696730 </i>
    <i name="e_0_energy">    655.60696636 </i>
   </energy>
  </scstep>
  <scstep>
   <time name="dav">    4.50    4.53</time>
   <time name="total">    4.50    4.53</time>
   <energy>
    <i name="e_fr_energy">   -576.14770320 </i>
    <i name="e_wo_entrp">   -576.14770320 </i>
    <i name="e_0_energy">   -576.14770320 </i>
   </energy>
  </scstep>
  <scstep>
   <time name="dav">    4.82    4.83</time>
   <time name="total">    4.82    4.83</time>
   <energy>
    <i name="e_fr_energy">   -748.98486420 </i>
    <i name="e_wo_entrp">   -748.98486420 </i>
    <i name="e_0_energy">   -748.98486420 </i>
   </energy>
  </scstep>
  <scstep>
   <time name="dav">    4.44    4.46</time>
   <time name="total">    4.44    4.46</time>
   <energy>
    <i name="e_fr_energy">   -754.45112854 </i>
    <i name="e_wo_entrp">   -754.45112854 </i>
    <i name="e_0_energy">   -754.45112854 </i>
   </energy>
  </scstep>
  <scstep>
   <time name="dav">    4.69    4.70</time>
   <time name="total">    5.55    5.56</time>
   <energy>
    <i name="e_fr_energy">   -754.68462110 </i>
    <i name="e_wo_entrp">   -754.68462110 </i>
    <i name="e_0_energy">   -754.68462110 </i>
   </energy>
  </scstep>
  <scstep>
   <time name="dav">    4.68    4.68</time>
   <time name="total">    6.74    6.76</time>
   <energy>
    <i name="e_fr_energy">   -714.79879667 </i>
    <i name="e_wo_entrp">   -714.79879667 </i>
    <i name="e_0_energy">   -714.79879667 </i>
   </energy>
  </scstep>
  <scstep>
   <time name="dav">    4.40    4.40</time>
   <time name="total">    6.46    6.49</time>
   <energy>
    <i name="e_fr_energy">   -714.54734312 </i>
    <i name="e_wo_entrp">   -714.54734312 </i>
    <i name="e_0_energy">   -714.54734312 </i>
   </energy>
  </scstep>
  <scstep>
   <time name="dav">    4.40    4.40</time>
   <time name="total">    6.45    6.50</time>
   <energy>
    <i name="e_fr_energy">   -714.64666458 </i>
    <i name="e_wo_entrp">   -714.64666458 </i>
    <i name="e_0_energy">   -714.64666458 </i>
   </energy>
  </scstep>
  <scstep>
   <time name="dav">    4.08    4.08</time>
   <time name="total">    6.17    6.17</time>
   <energy>
    <i name="e_fr_energy">   -714.69043939 </i>
    <i name="e_wo_entrp">   -714.69043939 </i>
    <i name="e_0_energy">   -714.69043939 </i>
   </energy>
  </scstep>
  <scstep>
   <time name="dav">    5.02    5.02</time>
   <time name="total">    7.07    7.11</time>
   <energy>
    <i name="e_fr_energy">   -714.69150197 </i>
    <i name="e_wo_entrp">   -714.69150197 </i>
    <i name="e_0_energy">   -714.69150197 </i>
   </energy>
  </scstep>
  <scstep>
   <time name="dav">    4.09    4.09</time>
   <time name="total">    6.17    6.18</time>
   <energy>
    <i name="e_fr_energy">   -714.69346589 </i>
    <i name="e_wo_entrp">   -714.69346589 </i>
    <i name="e_0_energy">   -714.69346589 </i>
   </energy>
  </scstep>
  <scstep>
   <time name="dav">    4.15    4.15</time>
   <time name="total">    6.22    6.23</time>
   <energy>
    <i name="e_fr_energy">   -714.69359961 </i>
    <i name="e_wo_entrp">   -714.69359961 </i>
    <i name="e_0_energy">   -714.69359961 </i>
   </energy>
  </scstep>
  <scstep>
   <time name="dav">    4.54    4.54</time>
   <time name="total">    6.60    6.62</time>
   <energy>
    <i name="e_fr_energy">   -714.69359523 </i>
    <i name="e_wo_entrp">   -714.69359523 </i>
    <i name="e_0_energy">   -714.69359523 </i>
   </energy>
  </scstep>
  <scstep>
   <time name="dav">    3.87    3.87</time>
   <time name="total">    5.92    5.96</time>
   <energy>
    <i name="e_fr_energy">   -714.69361138 </i>
    <i name="e_wo_entrp">   -714.69361138 </i>
    <i name="e_0_energy">   -714.69361138 </i>
   </energy>
  </scstep>
  <scstep>
   <time name="dav">    3.31    3.31</time>
   <time name="total">    5.36    5.40</time>
   <energy>
    <i name="e_fr_energy">   -714.69360977 </i>
    <i name="e_wo_entrp">   -714.69360977 </i>
    <i name="e_0_energy">   -714.69360977 </i>
   </energy>
  </scstep>
  <scstep>
   <time name="dav">    3.25    3.25</time>
   <time name="total">    5.34    5.34</time>
   <energy>
    <i name="e_fr_energy">   -714.69360852 </i>
    <i name="e_wo_entrp">   -714.69360852 </i>
    <i name="e_0_energy">   -714.69360852 </i>
   </energy>
  </scstep>
  <scstep>
   <time name="dav">    3.10    3.10</time>
   <time name="total">    4.32    4.36</time>
   <energy>
    <i name="alphaZ">    437.35240732 </i>
    <i name="ewald">  -9151.57321568 </i>
    <i name="hartreedc">  -3708.27212004 </i>
    <i name="XCdc">    480.66491119 </i>
    <i name="pawpsdc">  11477.76383403 </i>
    <i name="pawaedc"> -12013.18443171 </i>
    <i name="eentropy">     -0.00000000 </i>
    <i name="bandstr">  -1527.72509200 </i>
    <i name="atom">  13290.28009929 </i>
    <i name="e_fr_energy">   -714.69360760 </i>
    <i name="e_wo_entrp">   -714.69360760 </i>
    <i name="e_0_energy">   -714.69360760 </i>
   </energy>
  </scstep>
  <structure>
   <crystal>
    <varray name="basis" >
     <v>       7.87438128       0.00000000       0.00000000 </v>
     <v>       0.00000000      12.35199817       0.00000000 </v>
     <v>       0.00000000       0.00000000       8.48187958 </v>
    </varray>
    <i name="volume">    824.98444669 </i>
    <varray name="rec_basis" >
     <v>       0.12699410       0.00000000       0.00000000 </v>
     <v>       0.00000000       0.08095856       0.00000000 </v>
     <v>       0.00000000       0.00000000       0.11789840 </v>
    </varray>
   </crystal>
   <varray name="positions" >
    <v>       0.00335156       0.25000000       0.51554622 </v>
    <v>       0.49664844       0.75000000       0.01554622 </v>
    <v>       0.50335156       0.25000000       0.98445378 </v>
    <v>       0.99664844       0.75000000       0.48445378 </v>
    <v>       0.00000000       0.00000000       0.00000000 </v>
    <v>       0.50000000       0.00000000       0.50000000 </v>
    <v>       0.50000000       0.50000000       0.50000000 </v>
    <v>       0.00000000       0.50000000       0.00000000 </v>
    <v>       0.50149286       0.75000000       0.47523097 </v>
    <v>       0.99850714       0.25000000       0.97523097 </v>
    <v>       0.00149286       0.75000000       0.02476903 </v>
    <v>       0.49850714       0.25000000       0.52476903 </v>
    <v>       0.32054061       0.49123878       0.18813818 </v>
    <v>       0.17945939       0.50876122       0.68813818 </v>
    <v>       0.82054061       0.00876122       0.31186182 </v>
    <v>       0.67945939       0.99123878       0.81186182 </v>
    <v>       0.32054061       0.00876122       0.18813818 </v>
    <v>       0.17945939       0.99123878       0.68813818 </v>
    <v>       0.67945939       0.50876122       0.81186182 </v>
    <v>       0.82054061       0.49123878       0.31186182 </v>
   </varray>
  </structure>
  <varray name="forces" >
   <v>      -0.00210436      -0.00000000       0.00085970 </v>
   <v>       0.00210436      -0.00000000       0.00085970 </v>
   <v>      -0.00210436      -0.00000000      -0.00085970 </v>
   <v>       0.00210436      -0.00000000      -0.00085970 </v>
   <v>       0.00000000      -0.00000000      -0.00000000 </v>
   <v>       0.00000000      -0.00000000      -0.00000000 </v>
   <v>       0.00000000      -0.00000000      -0.00000000 </v>
   <v>       0.00000000      -0.00000000      -0.00000000 </v>
   <v>       0.00340971      -0.00000000       0.00208157 </v>
   <v>      -0.00340971      -0.00000000       0.00208157 </v>
   <v>       0.00340971      -0.00000000      -0.00208157 </v>
   <v>      -0.00340971      -0.00000000      -0.00208157 </v>
   <v>      -0.00733576      -0.00822638       0.00539860 </v>
   <v>       0.00733576       0.00822638       0.00539860 </v>
   <v>      -0.00733576       0.00822638      -0.00539860 </v>
   <v>       0.00733576      -0.00822638      -0.00539860 </v>
   <v>      -0.00733576       0.00822638       0.00539860 </v>
   <v>       0.00733576      -0.00822638       0.00539860 </v>
   <v>       0.00733576       0.00822638      -0.00539860 </v>
   <v>      -0.00733576      -0.00822638      -0.00539860 </v>
  </varray>
  <varray name="stress" >
   <v>      -1.39395698       0.00000000       0.00000000 </v>
   <v>       0.00000000     -13.37269195       0.00000000 </v>
   <v>      -0.00000000       0.00000000      -7.17380321 </v>
  </varray>
  <energy>
   <i name="e_fr_energy">   -714.69360760 </i>
   <i name="e_wo_entrp">   -714.69360760 </i>
   <i name="e_0_energy">     -0.00000000 </i>
  </energy>
  <time name="totalsc">  112.83  113.31</time>
  <eigenvalues>
   <array>
    <dimension dim="1">band</dimension>
    <dimension dim="2">kpoint</dimension>
    <dimension dim="3">spin</dimension>
    <field>eigene</field>
    <field>occ</field>
    <set>
     <set comment="spin 1">
      <set comment="kpoint 1">
       <r>  -21.0129    1.0000 </r>
       <r>  -21.0116    1.0000 </r>
       <r>  -21.0102    1.0000 </r>
       <r>  -21.0089    1.0000 </r>
       <r>  -16.6344    1.0000 </r>
       <r>  -16.6340    1.0000 </r>
       <r>  -16.6172    1.0000 </r>
       <r>  -16.5884    1.0000 </r>
       <r>  -16.5854    1.0000 </r>
       <r>  -16.5530    1.0000 </r>
       <r>  -16.5472    1.0000 </r>
       <r>  -16.5470    1.0000 </r>
       <r>  -16.5088    1.0000 </r>
       <r>  -16.5086    1.0000 </r>
       <r>  -16.5081    1.0000 </r>
       <r>  -16.5076    1.0000 </r>
       <r>  -16.4913    1.0000 </r>
       <r>  -16.4911    1.0000 </r>
       <r>  -16.4905    1.0000 </r>
       <r>  -16.4900    1.0000 </r>
       <r>  -16.4746    1.0000 </r>
       <r>  -16.4744    1.0000 </r>
       <r>  -16.4735    1.0000 </r>
       <r>  -16.4734    1.0000 </r>
       <r>  -14.3868    1.0000 </r>
       <r>  -14.2716    1.0000 </r>
       <r>  -14.1168    1.0000 </r>
       <r>  -14.1117    1.0000 </r>
       <r>  -14.0551    1.0000 </r>
       <r>  -14.0502    1.0000 </r>
       <r>  -14.0162    1.0000 </r>
       <r>  -14.0130    1.0000 </r>
       <r>  -13.9822    1.0000 </r>
       <r>  -13.8387    1.0000 </r>
       <r>  -13.8346    1.0000 </r>
       <r>  -13.8290    1.0000 </r>
       <r>   -8.2272    1.0000 </r>
       <r>   -7.8437    1.0000 </r>
       <r>   -7.4536    1.0000 </r>
       <r>   -7.4464    1.0000 </r>
       <r>   -7.4414    1.0000 </r>
       <r>   -7.4358    1.0000 </r>
       <r>   -7.4026    1.0000 </r>
       <r>   -7.4008    1.0000 </r>
       <r>   -7.3879    1.0000 </r>
       <r>   -7.3779    1.0000 </r>
       <r>   -7.3742    1.0000 </r>
       <r>   -7.3648    1.0000 </r>
       <r>   -7.3633    1.0000 </r>
       <r>   -7.3607    1.0000 </r>
       <r>   -7.1675    1.0000 </r>
       <r>   -6.7250    1.0000 </r>
       <r>   -3.4326    1.0000 </r>
       <r>   -3.3834    1.0000 </r>
       <r>   -3.2572    1.0000 </r>
       <r>   -3.2385    1.0000 </r>
       <r>   -3.1742    1.0000 </r>
       <r>   -2.9476    1.0000 </r>
       <r>   -2.2672    1.0000 </r>
       <r>   -2.0789    1.0000 </r>
       <r>   -2.0395    1.0000 </r>
       <r>   -1.9325    1.0000 </r>
       <r>   -1.8469    1.0000 </r>
       <r>   -1.7157    1.0000 </r>
       <r>   -1.6879    1.0000 </r>
       <r>   -1.6336    1.0000 </r>
       <r>   -1.6024    1.0000 </r>
       <r>   -1.5827    1.0000 </r>
       <r>   -1.5652    1.0000 </r>
       <r>   -1.5178    1.0000 </r>
       <r>   -1.5149    1.0000 </r>
       <r>   -1.4448    1.0000 </r>
       <r>   -1.4423    1.0000 </r>
       <r>   -1.4353    1.0000 </r>
       <r>   -1.3424    1.0000 </r>
       <r>   -1.3333    1.0000 </r>
       <r>   -1.3306    1.0000 </r>
       <r>   -1.2606    1.0000 </r>
       <r>   -1.2321    1.0000 </r>
       <r>   -1.1850    1.0000 </r>
       <r>   -1.1342    1.0000 </r>
       <r>   -1.0519    1.0000 </r>
       <r>   -1.0161    1.0000 </r>
       <r>   -1.0130    1.0000 </r>
       <r>   -0.9846    1.0000 </r>
       <r>   -0.7673    1.0000 </r>
       <r>   -0.2059    1.0000 </r>
       <r>    0.2310    1.0000 </r>
       <r>    2.3458    0.0000 </r>
       <r>    2.6290    0.0000 </r>
       <r>    2.8908    0.0000 </r>
       <r>    3.0177    0.0000 </r>
       <r>    3.1632    0.0000 </r>
       <r>    3.2504    0.0000 </r>
       <r>    4.5809    0.0000 </r>
       <r>    5.1413    0.0000 </r>
       <r>    5.4543    0.0000 </r>
       <r>    5.5111    0.0000 </r>
       <r>    5.6090    0.0000 </r>
       <r>    5.6118    0.0000 </r>
       <r>    5.9194    0.0000 </r>
       <r>    6.0408    0.0000 </r>
       <r>    6.0590    0.0000 </r>
       <r>    6.0858    0.0000 </r>
       <r>    6.0881    0.0000 </r>
       <r>    6.3400    0.0000 </r>
       <r>    6.4397    0.0000 </r>
       <r>    6.5235    0.0000 </r>
       <r>    6.6888    0.0000 </r>
       <r>    6.7573    0.0000 </r>
       <r>    6.7929    0.0000 </r>
       <r>    6.8134    0.0000 </r>
      </set>
      <set comment="kpoint 2">
       <r>  -21.0122    1.0000 </r>
       <r>  -21.0108    1.0000 </r>
       <r>  -21.0106    1.0000 </r>
       <r>  -21.0094    1.0000 </r>
       <r>  -16.6136    1.0000 </r>
       <r>  -16.6135    1.0000 </r>
       <r>  -16.6096    1.0000 </r>
       <r>  -16.5951    1.0000 </r>
       <r>  -16.5768    1.0000 </r>
       <r>  -16.5702    1.0000 </r>
       <r>  -16.5701    1.0000 </r>
       <r>  -16.5607    1.0000 </r>
       <r>  -16.5086    1.0000 </r>
       <r>  -16.5083    1.0000 </r>
       <r>  -16.5082    1.0000 </r>
       <r>  -16.5079    1.0000 </r>
       <r>  -16.4911    1.0000 </r>
       <r>  -16.4907    1.0000 </r>
       <r>  -16.4907    1.0000 </r>
       <r>  -16.4903    1.0000 </r>
       <r>  -16.4743    1.0000 </r>
       <r>  -16.4742    1.0000 </r>
       <r>  -16.4738    1.0000 </r>
       <r>  -16.4736    1.0000 </r>
       <r>  -14.3303    1.0000 </r>
       <r>  -14.2217    1.0000 </r>
       <r>  -14.1865    1.0000 </r>
       <r>  -14.1112    1.0000 </r>
       <r>  -14.0467    1.0000 </r>
       <r>  -14.0418    1.0000 </r>
       <r>  -14.0173    1.0000 </r>
       <r>  -14.0170    1.0000 </r>
       <r>  -13.9115    1.0000 </r>
       <r>  -13.9055    1.0000 </r>
       <r>  -13.8911    1.0000 </r>
       <r>  -13.8498    1.0000 </r>
       <r>   -8.0082    1.0000 </r>
       <r>   -7.6232    1.0000 </r>
       <r>   -7.5189    1.0000 </r>
       <r>   -7.4320    1.0000 </r>
       <r>   -7.4278    1.0000 </r>
       <r>   -7.4149    1.0000 </r>
       <r>   -7.4124    1.0000 </r>
       <r>   -7.3985    1.0000 </r>
       <r>   -7.3951    1.0000 </r>
       <r>   -7.3841    1.0000 </r>
       <r>   -7.3827    1.0000 </r>
       <r>   -7.3572    1.0000 </r>
       <r>   -7.3564    1.0000 </r>
       <r>   -7.3550    1.0000 </r>
       <r>   -7.3253    1.0000 </r>
       <r>   -7.0668    1.0000 </r>
       <r>   -3.1641    1.0000 </r>
       <r>   -3.1229    1.0000 </r>
       <r>   -3.0792    1.0000 </r>
       <r>   -3.0070    1.0000 </r>
       <r>   -2.7300    1.0000 </r>
       <r>   -2.6993    1.0000 </r>
       <r>   -2.3089    1.0000 </r>
       <r>   -2.1776    1.0000 </r>
       <r>   -2.0972    1.0000 </r>
       <r>   -2.0681    1.0000 </r>
       <r>   -1.9906    1.0000 </r>
       <r>   -1.9238    1.0000 </r>
       <r>   -1.8670    1.0000 </r>
       <r>   -1.8162    1.0000 </r>
       <r>   -1.7192    1.0000 </r>
       <r>   -1.7133    1.0000 </r>
       <r>   -1.6128    1.0000 </r>
       <r>   -1.5207    1.0000 </r>
       <r>   -1.4879    1.0000 </r>
       <r>   -1.4338    1.0000 </r>
       <r>   -1.4003    1.0000 </r>
       <r>   -1.3868    1.0000 </r>
       <r>   -1.3777    1.0000 </r>
       <r>   -1.3696    1.0000 </r>
       <r>   -1.3639    1.0000 </r>
       <r>   -1.3484    1.0000 </r>
       <r>   -1.3134    1.0000 </r>
       <r>   -1.2500    1.0000 </r>
       <r>   -1.2382    1.0000 </r>
       <r>   -1.2317    1.0000 </r>
       <r>   -1.1692    1.0000 </r>
       <r>   -1.0623    1.0000 </r>
       <r>   -0.9348    1.0000 </r>
       <r>   -0.8027    1.0000 </r>
       <r>   -0.7025    1.0000 </r>
       <r>   -0.3579    1.0000 </r>
       <r>    2.5643    0.0000 </r>
       <r>    2.9703    0.0000 </r>
       <r>    3.5026    0.0000 </r>
       <r>    3.6642    0.0000 </r>
       <r>    3.8474    0.0000 </r>
       <r>    3.9339    0.0000 </r>
       <r>    4.9007    0.0000 </r>
       <r>    4.9710    0.0000 </r>
       <r>    5.1362    0.0000 </r>
       <r>    5.3055    0.0000 </r>
       <r>    5.4411    0.0000 </r>
       <r>    5.4578    0.0000 </r>
       <r>    5.5330    0.0000 </r>
       <r>    5.8251    0.0000 </r>
       <r>    5.9272    0.0000 </r>
       <r>    5.9723    0.0000 </r>
       <r>    6.2834    0.0000 </r>
       <r>    6.3774    0.0000 </r>
       <r>    6.4205    0.0000 </r>
       <r>    6.6145    0.0000 </r>
       <r>    6.6634    0.0000 </r>
       <r>    6.6996    0.0000 </r>
       <r>    6.7057    0.0000 </r>
       <r>    6.7875    0.0000 </r>
      </set>
      <set comment="kpoint 3">
       <r>  -21.0122    1.0000 </r>
       <r>  -21.0122    1.0000 </r>
       <r>  -21.0095    1.0000 </r>
       <r>  -21.0095    1.0000 </r>
       <r>  -16.6342    1.0000 </r>
       <r>  -16.6342    1.0000 </r>
       <r>  -16.6013    1.0000 </r>
       <r>  -16.6013    1.0000 </r>
       <r>  -16.5708    1.0000 </r>
       <r>  -16.5708    1.0000 </r>
       <r>  -16.5471    1.0000 </r>
       <r>  -16.5471    1.0000 </r>
       <r>  -16.5086    1.0000 </r>
       <r>  -16.5086    1.0000 </r>
       <r>  -16.5078    1.0000 </r>
       <r>  -16.5078    1.0000 </r>
       <r>  -16.4912    1.0000 </r>
       <r>  -16.4912    1.0000 </r>
       <r>  -16.4902    1.0000 </r>
       <r>  -16.4902    1.0000 </r>
       <r>  -16.4744    1.0000 </r>
       <r>  -16.4744    1.0000 </r>
       <r>  -16.4734    1.0000 </r>
       <r>  -16.4734    1.0000 </r>
       <r>  -14.3426    1.0000 </r>
       <r>  -14.3426    1.0000 </r>
       <r>  -14.1140    1.0000 </r>
       <r>  -14.1140    1.0000 </r>
       <r>  -14.0526    1.0000 </r>
       <r>  -14.0526    1.0000 </r>
       <r>  -13.9974    1.0000 </r>
       <r>  -13.9974    1.0000 </r>
       <r>  -13.9122    1.0000 </r>
       <r>  -13.9122    1.0000 </r>
       <r>  -13.8338    1.0000 </r>
       <r>  -13.8338    1.0000 </r>
       <r>   -8.0489    1.0000 </r>
       <r>   -8.0489    1.0000 </r>
       <r>   -7.4453    1.0000 </r>
       <r>   -7.4453    1.0000 </r>
       <r>   -7.4380    1.0000 </r>
       <r>   -7.4380    1.0000 </r>
       <r>   -7.3910    1.0000 </r>
       <r>   -7.3910    1.0000 </r>
       <r>   -7.3787    1.0000 </r>
       <r>   -7.3786    1.0000 </r>
       <r>   -7.3739    1.0000 </r>
       <r>   -7.3739    1.0000 </r>
       <r>   -7.3702    1.0000 </r>
       <r>   -7.3702    1.0000 </r>
       <r>   -6.9794    1.0000 </r>
       <r>   -6.9794    1.0000 </r>
       <r>   -3.4073    1.0000 </r>
       <r>   -3.4073    1.0000 </r>
       <r>   -3.2356    1.0000 </r>
       <r>   -3.2356    1.0000 </r>
       <r>   -2.5348    1.0000 </r>
       <r>   -2.5348    1.0000 </r>
       <r>   -2.2814    1.0000 </r>
       <r>   -2.2814    1.0000 </r>
       <r>   -2.1809    1.0000 </r>
       <r>   -2.1809    1.0000 </r>
       <r>   -1.8804    1.0000 </r>
       <r>   -1.8804    1.0000 </r>
       <r>   -1.8219    1.0000 </r>
       <r>   -1.8219    1.0000 </r>
       <r>   -1.5778    1.0000 </r>
       <r>   -1.5778    1.0000 </r>
       <r>   -1.4813    1.0000 </r>
       <r>   -1.4813    1.0000 </r>
       <r>   -1.3994    1.0000 </r>
       <r>   -1.3994    1.0000 </r>
       <r>   -1.3994    1.0000 </r>
       <r>   -1.3994    1.0000 </r>
       <r>   -1.3580    1.0000 </r>
       <r>   -1.3580    1.0000 </r>
       <r>   -1.3410    1.0000 </r>
       <r>   -1.3410    1.0000 </r>
       <r>   -1.2661    1.0000 </r>
       <r>   -1.2661    1.0000 </r>
       <r>   -1.1863    1.0000 </r>
       <r>   -1.1863    1.0000 </r>
       <r>   -1.0477    1.0000 </r>
       <r>   -1.0477    1.0000 </r>
       <r>   -0.9268    1.0000 </r>
       <r>   -0.9268    1.0000 </r>
       <r>   -0.1042    1.0000 </r>
       <r>   -0.1042    1.0000 </r>
       <r>    2.8233    0.0000 </r>
       <r>    2.8233    0.0000 </r>
       <r>    3.0696    0.0000 </r>
       <r>    3.0696    0.0000 </r>
       <r>    3.7952    0.0000 </r>
       <r>    3.7952    0.0000 </r>
       <r>    4.4267    0.0000 </r>
       <r>    4.4267    0.0000 </r>
       <r>    5.1620    0.0000 </r>
       <r>    5.1620    0.0000 </r>
       <r>    5.5958    0.0000 </r>
       <r>    5.5958    0.0000 </r>
       <r>    5.7580    0.0000 </r>
       <r>    5.7580    0.0000 </r>
       <r>    6.1639    0.0000 </r>
       <r>    6.1639    0.0000 </r>
       <r>    6.4583    0.0000 </r>
       <r>    6.4583    0.0000 </r>
       <r>    6.5125    0.0000 </r>
       <r>    6.5125    0.0000 </r>
       <r>    6.5548    0.0000 </r>
       <r>    6.5548    0.0000 </r>
       <r>    6.8204    0.0000 </r>
       <r>    6.8342    0.0000 </r>
      </set>
      <set comment="kpoint 4">
       <r>  -21.0114    1.0000 </r>
       <r>  -21.0114    1.0000 </r>
       <r>  -21.0101    1.0000 </r>
       <r>  -21.0101    1.0000 </r>
       <r>  -16.6136    1.0000 </r>
       <r>  -16.6136    1.0000 </r>
       <r>  -16.5933    1.0000 </r>
       <r>  -16.5933    1.0000 </r>
       <r>  -16.5780    1.0000 </r>
       <r>  -16.5780    1.0000 </r>
       <r>  -16.5702    1.0000 </r>
       <r>  -16.5702    1.0000 </r>
       <r>  -16.5085    1.0000 </r>
       <r>  -16.5085    1.0000 </r>
       <r>  -16.5080    1.0000 </r>
       <r>  -16.5080    1.0000 </r>
       <r>  -16.4909    1.0000 </r>
       <r>  -16.4909    1.0000 </r>
       <r>  -16.4904    1.0000 </r>
       <r>  -16.4904    1.0000 </r>
       <r>  -16.4743    1.0000 </r>
       <r>  -16.4743    1.0000 </r>
       <r>  -16.4737    1.0000 </r>
       <r>  -16.4737    1.0000 </r>
       <r>  -14.2894    1.0000 </r>
       <r>  -14.2894    1.0000 </r>
       <r>  -14.1599    1.0000 </r>
       <r>  -14.1599    1.0000 </r>
       <r>  -14.0444    1.0000 </r>
       <r>  -14.0444    1.0000 </r>
       <r>  -13.9501    1.0000 </r>
       <r>  -13.9501    1.0000 </r>
       <r>  -13.9197    1.0000 </r>
       <r>  -13.9197    1.0000 </r>
       <r>  -13.9012    1.0000 </r>
       <r>  -13.9012    1.0000 </r>
       <r>   -7.8292    1.0000 </r>
       <r>   -7.8292    1.0000 </r>
       <r>   -7.4368    1.0000 </r>
       <r>   -7.4368    1.0000 </r>
       <r>   -7.4152    1.0000 </r>
       <r>   -7.4152    1.0000 </r>
       <r>   -7.3827    1.0000 </r>
       <r>   -7.3827    1.0000 </r>
       <r>   -7.3799    1.0000 </r>
       <r>   -7.3799    1.0000 </r>
       <r>   -7.3716    1.0000 </r>
       <r>   -7.3716    1.0000 </r>
       <r>   -7.3662    1.0000 </r>
       <r>   -7.3662    1.0000 </r>
       <r>   -7.2828    1.0000 </r>
       <r>   -7.2828    1.0000 </r>
       <r>   -3.0857    1.0000 </r>
       <r>   -3.0857    1.0000 </r>
       <r>   -2.7830    1.0000 </r>
       <r>   -2.7830    1.0000 </r>
       <r>   -2.4343    1.0000 </r>
       <r>   -2.4343    1.0000 </r>
       <r>   -2.4077    1.0000 </r>
       <r>   -2.4077    1.0000 </r>
       <r>   -2.2521    1.0000 </r>
       <r>   -2.2521    1.0000 </r>
       <r>   -2.0616    1.0000 </r>
       <r>   -2.0616    1.0000 </r>
       <r>   -1.8174    1.0000 </r>
       <r>   -1.8174    1.0000 </r>
       <r>   -1.7741    1.0000 </r>
       <r>   -1.7741    1.0000 </r>
       <r>   -1.6317    1.0000 </r>
       <r>   -1.6317    1.0000 </r>
       <r>   -1.5260    1.0000 </r>
       <r>   -1.5260    1.0000 </r>
       <r>   -1.4441    1.0000 </r>
       <r>   -1.4441    1.0000 </r>
       <r>   -1.3974    1.0000 </r>
       <r>   -1.3974    1.0000 </r>
       <r>   -1.2515    1.0000 </r>
       <r>   -1.2515    1.0000 </r>
       <r>   -1.2462    1.0000 </r>
       <r>   -1.2462    1.0000 </r>
       <r>   -1.2085    1.0000 </r>
       <r>   -1.2085    1.0000 </r>
       <r>   -1.1883    1.0000 </r>
       <r>   -1.1883    1.0000 </r>
       <r>   -0.9013    1.0000 </r>
       <r>   -0.9013    1.0000 </r>
       <r>   -0.7332    1.0000 </r>
       <r>   -0.7332    1.0000 </r>
       <r>    3.6593    0.0000 </r>
       <r>    3.6593    0.0000 </r>
       <r>    3.7958    0.0000 </r>
       <r>    3.7958    0.0000 </r>
       <r>    3.9528    0.0000 </r>
       <r>    3.9528    0.0000 </r>
       <r>    4.2659    0.0000 </r>
       <r>    4.2659    0.0000 </r>
       <r>    4.9930    0.0000 </r>
       <r>    4.9930    0.0000 </r>
       <r>    5.3012    0.0000 </r>
       <r>    5.3012    0.0000 </r>
       <r>    5.6881    0.0000 </r>
       <r>    5.6881    0.0000 </r>
       <r>    5.9478    0.0000 </r>
       <r>    5.9478    0.0000 </r>
       <r>    6.3294    0.0000 </r>
       <r>    6.3294    0.0000 </r>
       <r>    6.3627    0.0000 </r>
       <r>    6.3627    0.0000 </r>
       <r>    6.6100    0.0000 </r>
       <r>    6.6100    0.0000 </r>
       <r>    6.7600    0.0000 </r>
       <r>    6.7600    0.0000 </r>
      </set>
      <set comment="kpoint 5">
       <r>  -21.0123    1.0000 </r>
       <r>  -21.0114    1.0000 </r>
       <r>  -21.0103    1.0000 </r>
       <r>  -21.0095    1.0000 </r>
       <r>  -16.6135    1.0000 </r>
       <r>  -16.6133    1.0000 </r>
       <r>  -16.6097    1.0000 </r>
       <r>  -16.5953    1.0000 </r>
       <r>  -16.5771    1.0000 </r>
       <r>  -16.5699    1.0000 </r>
       <r>  -16.5699    1.0000 </r>
       <r>  -16.5609    1.0000 </r>
       <r>  -16.5088    1.0000 </r>
       <r>  -16.5083    1.0000 </r>
       <r>  -16.5082    1.0000 </r>
       <r>  -16.5079    1.0000 </r>
       <r>  -16.4912    1.0000 </r>
       <r>  -16.4908    1.0000 </r>
       <r>  -16.4908    1.0000 </r>
       <r>  -16.4902    1.0000 </r>
       <r>  -16.4743    1.0000 </r>
       <r>  -16.4742    1.0000 </r>
       <r>  -16.4738    1.0000 </r>
       <r>  -16.4738    1.0000 </r>
       <r>  -14.3396    1.0000 </r>
       <r>  -14.2351    1.0000 </r>
       <r>  -14.2184    1.0000 </r>
       <r>  -14.1552    1.0000 </r>
       <r>  -14.0168    1.0000 </r>
       <r>  -14.0160    1.0000 </r>
       <r>  -13.9971    1.0000 </r>
       <r>  -13.9959    1.0000 </r>
       <r>  -13.9133    1.0000 </r>
       <r>  -13.8902    1.0000 </r>
       <r>  -13.8846    1.0000 </r>
       <r>  -13.8530    1.0000 </r>
       <r>   -8.0082    1.0000 </r>
       <r>   -7.6262    1.0000 </r>
       <r>   -7.5111    1.0000 </r>
       <r>   -7.4438    1.0000 </r>
       <r>   -7.4407    1.0000 </r>
       <r>   -7.4270    1.0000 </r>
       <r>   -7.4269    1.0000 </r>
       <r>   -7.4074    1.0000 </r>
       <r>   -7.3954    1.0000 </r>
       <r>   -7.3913    1.0000 </r>
       <r>   -7.3816    1.0000 </r>
       <r>   -7.3644    1.0000 </r>
       <r>   -7.3629    1.0000 </r>
       <r>   -7.3592    1.0000 </r>
       <r>   -7.3391    1.0000 </r>
       <r>   -7.0727    1.0000 </r>
       <r>   -3.1622    1.0000 </r>
       <r>   -3.0463    1.0000 </r>
       <r>   -3.0097    1.0000 </r>
       <r>   -2.9313    1.0000 </r>
       <r>   -2.8688    1.0000 </r>
       <r>   -2.8485    1.0000 </r>
       <r>   -2.3385    1.0000 </r>
       <r>   -2.2062    1.0000 </r>
       <r>   -2.1416    1.0000 </r>
       <r>   -2.0703    1.0000 </r>
       <r>   -2.0252    1.0000 </r>
       <r>   -2.0212    1.0000 </r>
       <r>   -1.8059    1.0000 </r>
       <r>   -1.7752    1.0000 </r>
       <r>   -1.7265    1.0000 </r>
       <r>   -1.6887    1.0000 </r>
       <r>   -1.5784    1.0000 </r>
       <r>   -1.5532    1.0000 </r>
       <r>   -1.5141    1.0000 </r>
       <r>   -1.4741    1.0000 </r>
       <r>   -1.4010    1.0000 </r>
       <r>   -1.3855    1.0000 </r>
       <r>   -1.3751    1.0000 </r>
       <r>   -1.3616    1.0000 </r>
       <r>   -1.3455    1.0000 </r>
       <r>   -1.3253    1.0000 </r>
       <r>   -1.2507    1.0000 </r>
       <r>   -1.1817    1.0000 </r>
       <r>   -1.1604    1.0000 </r>
       <r>   -1.1569    1.0000 </r>
       <r>   -1.1243    1.0000 </r>
       <r>   -1.0752    1.0000 </r>
       <r>   -0.8638    1.0000 </r>
       <r>   -0.6527    1.0000 </r>
       <r>   -0.6399    1.0000 </r>
       <r>   -0.2876    1.0000 </r>
       <r>    2.5602    0.0000 </r>
       <r>    2.9684    0.0000 </r>
       <r>    3.3525    0.0000 </r>
       <r>    3.6648    0.0000 </r>
       <r>    3.7870    0.0000 </r>
       <r>    4.1036    0.0000 </r>
       <r>    4.8142    0.0000 </r>
       <r>    5.0398    0.0000 </r>
       <r>    5.1166    0.0000 </r>
       <r>    5.1755    0.0000 </r>
       <r>    5.3113    0.0000 </r>
       <r>    5.5702    0.0000 </r>
       <r>    5.6882    0.0000 </r>
       <r>    5.8073    0.0000 </r>
       <r>    5.8596    0.0000 </r>
       <r>    6.0286    0.0000 </r>
       <r>    6.2189    0.0000 </r>
       <r>    6.2414    0.0000 </r>
       <r>    6.3923    0.0000 </r>
       <r>    6.6549    0.0000 </r>
       <r>    6.6664    0.0000 </r>
       <r>    6.7069    0.0000 </r>
       <r>    6.7083    0.0000 </r>
       <r>    6.8752    0.0000 </r>
      </set>
      <set comment="kpoint 6">
       <r>  -21.0118    1.0000 </r>
       <r>  -21.0112    1.0000 </r>
       <r>  -21.0104    1.0000 </r>
       <r>  -21.0097    1.0000 </r>
       <r>  -16.6228    1.0000 </r>
       <r>  -16.6126    1.0000 </r>
       <r>  -16.6105    1.0000 </r>
       <r>  -16.5943    1.0000 </r>
       <r>  -16.5860    1.0000 </r>
       <r>  -16.5697    1.0000 </r>
       <r>  -16.5631    1.0000 </r>
       <r>  -16.5514    1.0000 </r>
       <r>  -16.5085    1.0000 </r>
       <r>  -16.5083    1.0000 </r>
       <r>  -16.5082    1.0000 </r>
       <r>  -16.5080    1.0000 </r>
       <r>  -16.4910    1.0000 </r>
       <r>  -16.4907    1.0000 </r>
       <r>  -16.4907    1.0000 </r>
       <r>  -16.4903    1.0000 </r>
       <r>  -16.4741    1.0000 </r>
       <r>  -16.4740    1.0000 </r>
       <r>  -16.4739    1.0000 </r>
       <r>  -16.4738    1.0000 </r>
       <r>  -14.2806    1.0000 </r>
       <r>  -14.1854    1.0000 </r>
       <r>  -14.1714    1.0000 </r>
       <r>  -14.1143    1.0000 </r>
       <r>  -14.1034    1.0000 </r>
       <r>  -14.0358    1.0000 </r>
       <r>  -14.0191    1.0000 </r>
       <r>  -14.0184    1.0000 </r>
       <r>  -13.9941    1.0000 </r>
       <r>  -13.9518    1.0000 </r>
       <r>  -13.8487    1.0000 </r>
       <r>  -13.8222    1.0000 </r>
       <r>   -7.8706    1.0000 </r>
       <r>   -7.6186    1.0000 </r>
       <r>   -7.5019    1.0000 </r>
       <r>   -7.4245    1.0000 </r>
       <r>   -7.4220    1.0000 </r>
       <r>   -7.4109    1.0000 </r>
       <r>   -7.4052    1.0000 </r>
       <r>   -7.3933    1.0000 </r>
       <r>   -7.3905    1.0000 </r>
       <r>   -7.3838    1.0000 </r>
       <r>   -7.3828    1.0000 </r>
       <r>   -7.3650    1.0000 </r>
       <r>   -7.3551    1.0000 </r>
       <r>   -7.3458    1.0000 </r>
       <r>   -7.3316    1.0000 </r>
       <r>   -7.1756    1.0000 </r>
       <r>   -3.2551    1.0000 </r>
       <r>   -3.1826    1.0000 </r>
       <r>   -3.1332    1.0000 </r>
       <r>   -3.0828    1.0000 </r>
       <r>   -2.8549    1.0000 </r>
       <r>   -2.7530    1.0000 </r>
       <r>   -2.3415    1.0000 </r>
       <r>   -2.2207    1.0000 </r>
       <r>   -2.1341    1.0000 </r>
       <r>   -2.1115    1.0000 </r>
       <r>   -2.0489    1.0000 </r>
       <r>   -1.8228    1.0000 </r>
       <r>   -1.7582    1.0000 </r>
       <r>   -1.6496    1.0000 </r>
       <r>   -1.6279    1.0000 </r>
       <r>   -1.5779    1.0000 </r>
       <r>   -1.5684    1.0000 </r>
       <r>   -1.5212    1.0000 </r>
       <r>   -1.5085    1.0000 </r>
       <r>   -1.4998    1.0000 </r>
       <r>   -1.4651    1.0000 </r>
       <r>   -1.4389    1.0000 </r>
       <r>   -1.3907    1.0000 </r>
       <r>   -1.3795    1.0000 </r>
       <r>   -1.3554    1.0000 </r>
       <r>   -1.3475    1.0000 </r>
       <r>   -1.2842    1.0000 </r>
       <r>   -1.2768    1.0000 </r>
       <r>   -1.1985    1.0000 </r>
       <r>   -1.1804    1.0000 </r>
       <r>   -1.1337    1.0000 </r>
       <r>   -1.0597    1.0000 </r>
       <r>   -0.9780    1.0000 </r>
       <r>   -0.7961    1.0000 </r>
       <r>   -0.6104    1.0000 </r>
       <r>   -0.3449    1.0000 </r>
       <r>    2.6749    0.0000 </r>
       <r>    2.8771    0.0000 </r>
       <r>    2.9983    0.0000 </r>
       <r>    3.2973    0.0000 </r>
       <r>    3.8197    0.0000 </r>
       <r>    4.0889    0.0000 </r>
       <r>    4.8038    0.0000 </r>
       <r>    5.1413    0.0000 </r>
       <r>    5.3199    0.0000 </r>
       <r>    5.4296    0.0000 </r>
       <r>    5.6249    0.0000 </r>
       <r>    5.6477    0.0000 </r>
       <r>    5.8925    0.0000 </r>
       <r>    6.1072    0.0000 </r>
       <r>    6.1899    0.0000 </r>
       <r>    6.3400    0.0000 </r>
       <r>    6.4429    0.0000 </r>
       <r>    6.4580    0.0000 </r>
       <r>    6.6060    0.0000 </r>
       <r>    6.6063    0.0000 </r>
       <r>    6.6322    0.0000 </r>
       <r>    6.7932    0.0000 </r>
       <r>    6.8216    0.0000 </r>
       <r>    7.0824    0.0000 </r>
      </set>
      <set comment="kpoint 7">
       <r>  -21.0117    1.0000 </r>
       <r>  -21.0117    1.0000 </r>
       <r>  -21.0100    1.0000 </r>
       <r>  -21.0099    1.0000 </r>
       <r>  -16.6134    1.0000 </r>
       <r>  -16.6134    1.0000 </r>
       <r>  -16.5934    1.0000 </r>
       <r>  -16.5934    1.0000 </r>
       <r>  -16.5782    1.0000 </r>
       <r>  -16.5782    1.0000 </r>
       <r>  -16.5699    1.0000 </r>
       <r>  -16.5699    1.0000 </r>
       <r>  -16.5085    1.0000 </r>
       <r>  -16.5085    1.0000 </r>
       <r>  -16.5080    1.0000 </r>
       <r>  -16.5080    1.0000 </r>
       <r>  -16.4909    1.0000 </r>
       <r>  -16.4909    1.0000 </r>
       <r>  -16.4904    1.0000 </r>
       <r>  -16.4904    1.0000 </r>
       <r>  -16.4743    1.0000 </r>
       <r>  -16.4743    1.0000 </r>
       <r>  -16.4737    1.0000 </r>
       <r>  -16.4737    1.0000 </r>
       <r>  -14.2997    1.0000 </r>
       <r>  -14.2997    1.0000 </r>
       <r>  -14.1941    1.0000 </r>
       <r>  -14.1941    1.0000 </r>
       <r>  -13.9977    1.0000 </r>
       <r>  -13.9977    1.0000 </r>
       <r>  -13.9566    1.0000 </r>
       <r>  -13.9566    1.0000 </r>
       <r>  -13.9217    1.0000 </r>
       <r>  -13.9217    1.0000 </r>
       <r>  -13.8874    1.0000 </r>
       <r>  -13.8874    1.0000 </r>
       <r>   -7.8305    1.0000 </r>
       <r>   -7.8305    1.0000 </r>
       <r>   -7.4451    1.0000 </r>
       <r>   -7.4451    1.0000 </r>
       <r>   -7.4280    1.0000 </r>
       <r>   -7.4280    1.0000 </r>
       <r>   -7.3881    1.0000 </r>
       <r>   -7.3880    1.0000 </r>
       <r>   -7.3839    1.0000 </r>
       <r>   -7.3839    1.0000 </r>
       <r>   -7.3741    1.0000 </r>
       <r>   -7.3741    1.0000 </r>
       <r>   -7.3692    1.0000 </r>
       <r>   -7.3692    1.0000 </r>
       <r>   -7.2943    1.0000 </r>
       <r>   -7.2943    1.0000 </r>
       <r>   -2.9737    1.0000 </r>
       <r>   -2.9737    1.0000 </r>
       <r>   -2.9133    1.0000 </r>
       <r>   -2.9133    1.0000 </r>
       <r>   -2.4620    1.0000 </r>
       <r>   -2.4620    1.0000 </r>
       <r>   -2.4139    1.0000 </r>
       <r>   -2.4139    1.0000 </r>
       <r>   -2.2735    1.0000 </r>
       <r>   -2.2735    1.0000 </r>
       <r>   -2.1148    1.0000 </r>
       <r>   -2.1148    1.0000 </r>
       <r>   -1.8210    1.0000 </r>
       <r>   -1.8210    1.0000 </r>
       <r>   -1.7222    1.0000 </r>
       <r>   -1.7222    1.0000 </r>
       <r>   -1.6087    1.0000 </r>
       <r>   -1.6087    1.0000 </r>
       <r>   -1.5176    1.0000 </r>
       <r>   -1.5176    1.0000 </r>
       <r>   -1.4786    1.0000 </r>
       <r>   -1.4786    1.0000 </r>
       <r>   -1.3505    1.0000 </r>
       <r>   -1.3505    1.0000 </r>
       <r>   -1.2615    1.0000 </r>
       <r>   -1.2615    1.0000 </r>
       <r>   -1.2393    1.0000 </r>
       <r>   -1.2393    1.0000 </r>
       <r>   -1.1941    1.0000 </r>
       <r>   -1.1941    1.0000 </r>
       <r>   -1.1471    1.0000 </r>
       <r>   -1.1471    1.0000 </r>
       <r>   -0.8185    1.0000 </r>
       <r>   -0.8185    1.0000 </r>
       <r>   -0.5958    1.0000 </r>
       <r>   -0.5958    1.0000 </r>
       <r>    3.5005    0.0000 </r>
       <r>    3.5005    0.0000 </r>
       <r>    3.9064    0.0000 </r>
       <r>    3.9064    0.0000 </r>
       <r>    3.9712    0.0000 </r>
       <r>    3.9712    0.0000 </r>
       <r>    4.2601    0.0000 </r>
       <r>    4.2601    0.0000 </r>
       <r>    4.9357    0.0000 </r>
       <r>    4.9357    0.0000 </r>
       <r>    5.2545    0.0000 </r>
       <r>    5.2545    0.0000 </r>
       <r>    5.7484    0.0000 </r>
       <r>    5.7484    0.0000 </r>
       <r>    5.8889    0.0000 </r>
       <r>    5.8889    0.0000 </r>
       <r>    6.3644    0.0000 </r>
       <r>    6.3644    0.0000 </r>
       <r>    6.4702    0.0000 </r>
       <r>    6.4702    0.0000 </r>
       <r>    6.5637    0.0000 </r>
       <r>    6.5637    0.0000 </r>
       <r>    6.6884    0.0000 </r>
       <r>    6.6884    0.0000 </r>
      </set>
      <set comment="kpoint 8">
       <r>  -21.0112    1.0000 </r>
       <r>  -21.0112    1.0000 </r>
       <r>  -21.0104    1.0000 </r>
       <r>  -21.0104    1.0000 </r>
       <r>  -16.6164    1.0000 </r>
       <r>  -16.6164    1.0000 </r>
       <r>  -16.6006    1.0000 </r>
       <r>  -16.6006    1.0000 </r>
       <r>  -16.5760    1.0000 </r>
       <r>  -16.5760    1.0000 </r>
       <r>  -16.5624    1.0000 </r>
       <r>  -16.5624    1.0000 </r>
       <r>  -16.5084    1.0000 </r>
       <r>  -16.5084    1.0000 </r>
       <r>  -16.5082    1.0000 </r>
       <r>  -16.5082    1.0000 </r>
       <r>  -16.4908    1.0000 </r>
       <r>  -16.4908    1.0000 </r>
       <r>  -16.4907    1.0000 </r>
       <r>  -16.4907    1.0000 </r>
       <r>  -16.4741    1.0000 </r>
       <r>  -16.4741    1.0000 </r>
       <r>  -16.4739    1.0000 </r>
       <r>  -16.4739    1.0000 </r>
       <r>  -14.2438    1.0000 </r>
       <r>  -14.2438    1.0000 </r>
       <r>  -14.1369    1.0000 </r>
       <r>  -14.1369    1.0000 </r>
       <r>  -14.1042    1.0000 </r>
       <r>  -14.1042    1.0000 </r>
       <r>  -14.0009    1.0000 </r>
       <r>  -14.0009    1.0000 </r>
       <r>  -13.9046    1.0000 </r>
       <r>  -13.9046    1.0000 </r>
       <r>  -13.8817    1.0000 </r>
       <r>  -13.8817    1.0000 </r>
       <r>   -7.6937    1.0000 </r>
       <r>   -7.6937    1.0000 </r>
       <r>   -7.4626    1.0000 </r>
       <r>   -7.4626    1.0000 </r>
       <r>   -7.4143    1.0000 </r>
       <r>   -7.4143    1.0000 </r>
       <r>   -7.4024    1.0000 </r>
       <r>   -7.4024    1.0000 </r>
       <r>   -7.3724    1.0000 </r>
       <r>   -7.3724    1.0000 </r>
       <r>   -7.3694    1.0000 </r>
       <r>   -7.3694    1.0000 </r>
       <r>   -7.3642    1.0000 </r>
       <r>   -7.3642    1.0000 </r>
       <r>   -7.3448    1.0000 </r>
       <r>   -7.3448    1.0000 </r>
       <r>   -3.2125    1.0000 </r>
       <r>   -3.2125    1.0000 </r>
       <r>   -2.8205    1.0000 </r>
       <r>   -2.8205    1.0000 </r>
       <r>   -2.5334    1.0000 </r>
       <r>   -2.5334    1.0000 </r>
       <r>   -2.4091    1.0000 </r>
       <r>   -2.4091    1.0000 </r>
       <r>   -2.2481    1.0000 </r>
       <r>   -2.2481    1.0000 </r>
       <r>   -2.0509    1.0000 </r>
       <r>   -2.0509    1.0000 </r>
       <r>   -1.8483    1.0000 </r>
       <r>   -1.8483    1.0000 </r>
       <r>   -1.7766    1.0000 </r>
       <r>   -1.7766    1.0000 </r>
       <r>   -1.5779    1.0000 </r>
       <r>   -1.5779    1.0000 </r>
       <r>   -1.4817    1.0000 </r>
       <r>   -1.4817    1.0000 </r>
       <r>   -1.4404    1.0000 </r>
       <r>   -1.4404    1.0000 </r>
       <r>   -1.3100    1.0000 </r>
       <r>   -1.3100    1.0000 </r>
       <r>   -1.2906    1.0000 </r>
       <r>   -1.2906    1.0000 </r>
       <r>   -1.2097    1.0000 </r>
       <r>   -1.2097    1.0000 </r>
       <r>   -1.1796    1.0000 </r>
       <r>   -1.1796    1.0000 </r>
       <r>   -1.1498    1.0000 </r>
       <r>   -1.1498    1.0000 </r>
       <r>   -0.9196    1.0000 </r>
       <r>   -0.9196    1.0000 </r>
       <r>   -0.6997    1.0000 </r>
       <r>   -0.6997    1.0000 </r>
       <r>    3.1430    0.0000 </r>
       <r>    3.1430    0.0000 </r>
       <r>    3.9269    0.0000 </r>
       <r>    3.9269    0.0000 </r>
       <r>    4.0503    0.0000 </r>
       <r>    4.0503    0.0000 </r>
       <r>    4.1985    0.0000 </r>
       <r>    4.1985    0.0000 </r>
       <r>    4.9604    0.0000 </r>
       <r>    4.9604    0.0000 </r>
       <r>    5.7178    0.0000 </r>
       <r>    5.7178    0.0000 </r>
       <r>    6.0055    0.0000 </r>
       <r>    6.0055    0.0000 </r>
       <r>    6.1956    0.0000 </r>
       <r>    6.1956    0.0000 </r>
       <r>    6.4774    0.0000 </r>
       <r>    6.4774    0.0000 </r>
       <r>    6.5539    0.0000 </r>
       <r>    6.5539    0.0000 </r>
       <r>    6.6766    0.0000 </r>
       <r>    6.6766    0.0000 </r>
       <r>    6.8461    0.0000 </r>
       <r>    6.8461    0.0000 </r>
      </set>
     </set>
    </set>
   </array>
  </eigenvalues>
  <separator name="orbital magnetization" >
   <v name="MAGDIPOLOUT">      0.00000000      0.00000000      0.00000000</v>
  </separator>
  <dos>
   <i name="efermi">      0.36174220 </i>
   <total>
    <array>
     <dimension dim="1">gridpoints</dimension>
     <dimension dim="2">spin</dimension>
     <field>energy</field>
     <field>total</field>
     <field>integrated</field>
     <set>
      <set comment="spin 1">
       <r>   -22.4177     0.0000     0.0000 </r>
       <r>   -22.3147     0.0000     0.0000 </r>
       <r>   -22.2117     0.0000     0.0000 </r>
       <r>   -22.1086     0.0000     0.0000 </r>
       <r>   -22.0056     0.0000     0.0000 </r>
       <r>   -21.9026     0.0000     0.0000 </r>
       <r>   -21.7996     0.0000     0.0000 </r>
       <r>   -21.6966     0.0000     0.0000 </r>
       <r>   -21.5936     0.0000     0.0000 </r>
       <r>   -21.4905     0.0000     0.0000 </r>
       <r>   -21.3875     0.0000     0.0000 </r>
       <r>   -21.2845     0.0000     0.0000 </r>
       <r>   -21.1815     0.0000     0.0000 </r>
       <r>   -21.0785     0.0000     0.0000 </r>
       <r>   -20.9755    77.6577     8.0000 </r>
       <r>   -20.8725     0.0000     8.0000 </r>
       <r>   -20.7694     0.0000     8.0000 </r>
       <r>   -20.6664     0.0000     8.0000 </r>
       <r>   -20.5634     0.0000     8.0000 </r>
       <r>   -20.4604     0.0000     8.0000 </r>
       <r>   -20.3574     0.0000     8.0000 </r>
       <r>   -20.2544     0.0000     8.0000 </r>
       <r>   -20.1513     0.0000     8.0000 </r>
       <r>   -20.0483     0.0000     8.0000 </r>
       <r>   -19.9453     0.0000     8.0000 </r>
       <r>   -19.8423     0.0000     8.0000 </r>
       <r>   -19.7393     0.0000     8.0000 </r>
       <r>   -19.6363     0.0000     8.0000 </r>
       <r>   -19.5332     0.0000     8.0000 </r>
       <r>   -19.4302     0.0000     8.0000 </r>
       <r>   -19.3272     0.0000     8.0000 </r>
       <r>   -19.2242     0.0000     8.0000 </r>
       <r>   -19.1212     0.0000     8.0000 </r>
       <r>   -19.0182     0.0000     8.0000 </r>
       <r>   -18.9151     0.0000     8.0000 </r>
       <r>   -18.8121     0.0000     8.0000 </r>
       <r>   -18.7091     0.0000     8.0000 </r>
       <r>   -18.6061     0.0000     8.0000 </r>
       <r>   -18.5031     0.0000     8.0000 </r>
       <r>   -18.4001     0.0000     8.0000 </r>
       <r>   -18.2970     0.0000     8.0000 </r>
       <r>   -18.1940     0.0000     8.0000 </r>
       <r>   -18.0910     0.0000     8.0000 </r>
       <r>   -17.9880     0.0000     8.0000 </r>
       <r>   -17.8850     0.0000     8.0000 </r>
       <r>   -17.7820     0.0000     8.0000 </r>
       <r>   -17.6790     0.0000     8.0000 </r>
       <r>   -17.5759     0.0000     8.0000 </r>
       <r>   -17.4729     0.0000     8.0000 </r>
       <r>   -17.3699     0.0000     8.0000 </r>
       <r>   -17.2669     0.0000     8.0000 </r>
       <r>   -17.1639     0.0000     8.0000 </r>
       <r>   -17.0609     0.0000     8.0000 </r>
       <r>   -16.9578     0.0000     8.0000 </r>
       <r>   -16.8548     0.0000     8.0000 </r>
       <r>   -16.7518     0.0000     8.0000 </r>
       <r>   -16.6488     0.0846     8.0087 </r>
       <r>   -16.5458   147.8828    23.6788 </r>
       <r>   -16.4428   232.9729    48.0000 </r>
       <r>   -16.3397     0.0000    48.0000 </r>
       <r>   -16.2367     0.0000    48.0000 </r>
       <r>   -16.1337     0.0000    48.0000 </r>
       <r>   -16.0307     0.0000    48.0000 </r>
       <r>   -15.9277     0.0000    48.0000 </r>
       <r>   -15.8247     0.0000    48.0000 </r>
       <r>   -15.7216     0.0000    48.0000 </r>
       <r>   -15.6186     0.0000    48.0000 </r>
       <r>   -15.5156     0.0000    48.0000 </r>
       <r>   -15.4126     0.0000    48.0000 </r>
       <r>   -15.3096     0.0000    48.0000 </r>
       <r>   -15.2066     0.0000    48.0000 </r>
       <r>   -15.1035     0.0000    48.0000 </r>
       <r>   -15.0005     0.0000    48.0000 </r>
       <r>   -14.8975     0.0000    48.0000 </r>
       <r>   -14.7945     0.0000    48.0000 </r>
       <r>   -14.6915     0.0000    48.0000 </r>
       <r>   -14.5885     0.0000    48.0000 </r>
       <r>   -14.4855     0.0000    48.0000 </r>
       <r>   -14.3824     0.7912    48.0815 </r>
       <r>   -14.2794    17.3409    49.8975 </r>
       <r>   -14.1764    26.3380    52.9355 </r>
       <r>   -14.0734    32.3670    57.3343 </r>
       <r>   -13.9704    58.3268    63.6753 </r>
       <r>   -13.8674    49.4802    70.0973 </r>
       <r>   -13.7643     9.7072    72.0000 </r>
       <r>   -13.6613     0.0000    72.0000 </r>
       <r>   -13.5583     0.0000    72.0000 </r>
       <r>   -13.4553     0.0000    72.0000 </r>
       <r>   -13.3523     0.0000    72.0000 </r>
       <r>   -13.2493     0.0000    72.0000 </r>
       <r>   -13.1462     0.0000    72.0000 </r>
       <r>   -13.0432     0.0000    72.0000 </r>
       <r>   -12.9402     0.0000    72.0000 </r>
       <r>   -12.8372     0.0000    72.0000 </r>
       <r>   -12.7342     0.0000    72.0000 </r>
       <r>   -12.6312     0.0000    72.0000 </r>
       <r>   -12.5281     0.0000    72.0000 </r>
       <r>   -12.4251     0.0000    72.0000 </r>
       <r>   -12.3221     0.0000    72.0000 </r>
       <r>   -12.2191     0.0000    72.0000 </r>
       <r>   -12.1161     0.0000    72.0000 </r>
       <r>   -12.0131     0.0000    72.0000 </r>
       <r>   -11.9101     0.0000    72.0000 </r>
       <r>   -11.8070     0.0000    72.0000 </r>
       <r>   -11.7040     0.0000    72.0000 </r>
       <r>   -11.6010     0.0000    72.0000 </r>
       <r>   -11.4980     0.0000    72.0000 </r>
       <r>   -11.3950     0.0000    72.0000 </r>
       <r>   -11.2920     0.0000    72.0000 </r>
       <r>   -11.1889     0.0000    72.0000 </r>
       <r>   -11.0859     0.0000    72.0000 </r>
       <r>   -10.9829     0.0000    72.0000 </r>
       <r>   -10.8799     0.0000    72.0000 </r>
       <r>   -10.7769     0.0000    72.0000 </r>
       <r>   -10.6739     0.0000    72.0000 </r>
       <r>   -10.5708     0.0000    72.0000 </r>
       <r>   -10.4678     0.0000    72.0000 </r>
       <r>   -10.3648     0.0000    72.0000 </r>
       <r>   -10.2618     0.0000    72.0000 </r>
       <r>   -10.1588     0.0000    72.0000 </r>
       <r>   -10.0558     0.0000    72.0000 </r>
       <r>    -9.9527     0.0000    72.0000 </r>
       <r>    -9.8497     0.0000    72.0000 </r>
       <r>    -9.7467     0.0000    72.0000 </r>
       <r>    -9.6437     0.0000    72.0000 </r>
       <r>    -9.5407     0.0000    72.0000 </r>
       <r>    -9.4377     0.0000    72.0000 </r>
       <r>    -9.3346     0.0000    72.0000 </r>
       <r>    -9.2316     0.0000    72.0000 </r>
       <r>    -9.1286     0.0000    72.0000 </r>
       <r>    -9.0256     0.0000    72.0000 </r>
       <r>    -8.9226     0.0000    72.0000 </r>
       <r>    -8.8196     0.0000    72.0000 </r>
       <r>    -8.7166     0.0000    72.0000 </r>
       <r>    -8.6135     0.0000    72.0000 </r>
       <r>    -8.5105     0.0000    72.0000 </r>
       <r>    -8.4075     0.0000    72.0000 </r>
       <r>    -8.3045     0.0000    72.0000 </r>
       <r>    -8.2015     1.0784    72.1111 </r>
       <r>    -8.0985     0.0000    72.1111 </r>
       <r>    -7.9954     6.3196    72.7621 </r>
       <r>    -7.8924     0.0044    72.7782 </r>
       <r>    -7.7894     9.7072    74.2222 </r>
       <r>    -7.6864     7.3294    74.9773 </r>
       <r>    -7.5834     8.6286    76.0000 </r>
       <r>    -7.4804     8.6760    76.8938 </r>
       <r>    -7.3773   137.8378    91.9773 </r>
       <r>    -7.2743    29.6869   102.6138 </r>
       <r>    -7.1713     3.4600   103.0231 </r>
       <r>    -7.0683     2.4837   103.4781 </r>
       <r>    -6.9653     2.1076   103.8838 </r>
       <r>    -6.8623     0.0000   103.8889 </r>
       <r>    -6.7592     0.0000   103.8889 </r>
       <r>    -6.6562     1.0786   104.0000 </r>
       <r>    -6.5532     0.0000   104.0000 </r>
       <r>    -6.4502     0.0000   104.0000 </r>
       <r>    -6.3472     0.0000   104.0000 </r>
       <r>    -6.2442     0.0000   104.0000 </r>
       <r>    -6.1411     0.0000   104.0000 </r>
       <r>    -6.0381     0.0000   104.0000 </r>
       <r>    -5.9351     0.0000   104.0000 </r>
       <r>    -5.8321     0.0000   104.0000 </r>
       <r>    -5.7291     0.0000   104.0000 </r>
       <r>    -5.6261     0.0000   104.0000 </r>
       <r>    -5.5231     0.0000   104.0000 </r>
       <r>    -5.4200     0.0000   104.0000 </r>
       <r>    -5.3170     0.0000   104.0000 </r>
       <r>    -5.2140     0.0000   104.0000 </r>
       <r>    -5.1110     0.0000   104.0000 </r>
       <r>    -5.0080     0.0000   104.0000 </r>
       <r>    -4.9050     0.0000   104.0000 </r>
       <r>    -4.8019     0.0000   104.0000 </r>
       <r>    -4.6989     0.0000   104.0000 </r>
       <r>    -4.5959     0.0000   104.0000 </r>
       <r>    -4.4929     0.0000   104.0000 </r>
       <r>    -4.3899     0.0000   104.0000 </r>
       <r>    -4.2869     0.0000   104.0000 </r>
       <r>    -4.1838     0.0000   104.0000 </r>
       <r>    -4.0808     0.0000   104.0000 </r>
       <r>    -3.9778     0.0000   104.0000 </r>
       <r>    -3.8748     0.0000   104.0000 </r>
       <r>    -3.7718     0.0000   104.0000 </r>
       <r>    -3.6688     0.0000   104.0000 </r>
       <r>    -3.5657     0.0000   104.0000 </r>
       <r>    -3.4627     0.0000   104.0000 </r>
       <r>    -3.3597     4.3139   104.4444 </r>
       <r>    -3.2567     2.3430   104.6858 </r>
       <r>    -3.1537    17.9396   107.1814 </r>
       <r>    -3.0507    13.5210   109.0596 </r>
       <r>    -2.9477     9.1887   110.1688 </r>
       <r>    -2.8446    11.9942   111.6800 </r>
       <r>    -2.7416    17.1304   113.5428 </r>
       <r>    -2.6386     2.1572   114.0000 </r>
       <r>    -2.5356     4.2413   114.4369 </r>
       <r>    -2.4326     6.9119   115.8231 </r>
       <r>    -2.3296    18.9958   118.4018 </r>
       <r>    -2.2265    21.3644   120.8675 </r>
       <r>    -2.1235    11.1396   122.5920 </r>
       <r>    -2.0205    28.6554   126.3964 </r>
       <r>    -1.9175     4.9736   127.0679 </r>
       <r>    -1.8145    27.5948   129.9538 </r>
       <r>    -1.7115    29.5200   133.5966 </r>
       <r>    -1.6084    19.0956   135.9672 </r>
       <r>    -1.5054    48.4590   141.3254 </r>
       <r>    -1.4024    48.6877   147.1272 </r>
       <r>    -1.2994    48.9048   154.3714 </r>
       <r>    -1.1964    47.9208   161.0477 </r>
       <r>    -1.0934    26.9753   166.5567 </r>
       <r>    -0.9903    12.2627   168.0410 </r>
       <r>    -0.8873    17.1533   170.3226 </r>
       <r>    -0.7843    12.7324   171.6451 </r>
       <r>    -0.6813    15.0569   173.3289 </r>
       <r>    -0.5783    12.9146   174.6637 </r>
       <r>    -0.4753     0.0000   174.6667 </r>
       <r>    -0.3722     0.0457   174.6714 </r>
       <r>    -0.2692     6.4611   175.5545 </r>
       <r>    -0.1662     1.0786   175.6667 </r>
       <r>    -0.0632     2.1572   175.8889 </r>
       <r>     0.0398     0.0000   175.8889 </r>
       <r>     0.1428     0.0000   175.8889 </r>
       <r>     0.2458     1.0592   175.9980 </r>
       <r>     0.3489     0.0000   176.0000 </r>
       <r>     0.4519     0.0000   176.0000 </r>
       <r>     0.5549     0.0000   176.0000 </r>
       <r>     0.6579     0.0000   176.0000 </r>
       <r>     0.7609     0.0000   176.0000 </r>
       <r>     0.8639     0.0000   176.0000 </r>
       <r>     0.9670     0.0000   176.0000 </r>
       <r>     1.0700     0.0000   176.0000 </r>
       <r>     1.1730     0.0000   176.0000 </r>
       <r>     1.2760     0.0000   176.0000 </r>
       <r>     1.3790     0.0000   176.0000 </r>
       <r>     1.4820     0.0000   176.0000 </r>
       <r>     1.5851     0.0000   176.0000 </r>
       <r>     1.6881     0.0000   176.0000 </r>
       <r>     1.7911     0.0000   176.0000 </r>
       <r>     1.8941     0.0000   176.0000 </r>
       <r>     1.9971     0.0000   176.0000 </r>
       <r>     2.1001     0.0000   176.0000 </r>
       <r>     2.2032     0.0000   176.0000 </r>
       <r>     2.3062     0.0000   176.0000 </r>
       <r>     2.4092     1.0786   176.1111 </r>
       <r>     2.5122     0.0000   176.1111 </r>
       <r>     2.6152     4.3421   176.5584 </r>
       <r>     2.7182     4.3143   177.1111 </r>
       <r>     2.8213     0.8353   177.1972 </r>
       <r>     2.9243     5.3929   177.8889 </r>
       <r>     3.0273     9.6137   178.8793 </r>
       <r>     3.1303     2.4719   179.1435 </r>
       <r>     3.2333     1.0871   180.1120 </r>
       <r>     3.3363     4.3381   180.6691 </r>
       <r>     3.4393     0.0000   180.8889 </r>
       <r>     3.5424     6.4715   181.5556 </r>
       <r>     3.6454     0.1215   181.5681 </r>
       <r>     3.7484     0.0000   182.4444 </r>
       <r>     3.8514    14.4800   183.9361 </r>
       <r>     3.9544    17.6745   185.8208 </r>
       <r>     4.0574     7.2765   187.1940 </r>
       <r>     4.1605     6.4715   188.0000 </r>
       <r>     4.2635    13.1645   189.3562 </r>
       <r>     4.3665     0.0000   189.7778 </r>
       <r>     4.4695     2.1572   190.0000 </r>
       <r>     4.5725     0.1260   190.0130 </r>
       <r>     4.6755     0.0000   190.1111 </r>
       <r>     4.7786     0.0008   190.1112 </r>
       <r>     4.8816     6.4782   190.7785 </r>
       <r>     4.9846    15.5446   192.6013 </r>
       <r>     5.0876     2.1572   193.2222 </r>
       <r>     5.1906    13.9862   194.6630 </r>
       <r>     5.2936     5.0393   195.1858 </r>
       <r>     5.3967     4.3139   196.4444 </r>
       <r>     5.4997     9.7639   197.4503 </r>
       <r>     5.6027     6.4286   198.2178 </r>
       <r>     5.7057    11.1179   200.0342 </r>
       <r>     5.8087     7.7443   201.6867 </r>
       <r>     5.9117    10.9511   203.1281 </r>
       <r>     6.0148    14.3347   204.9212 </r>
       <r>     6.1178     8.3372   206.0811 </r>
       <r>     6.2208    16.4057   207.8012 </r>
       <r>     6.3238     3.1336   208.4339 </r>
       <r>     6.4268    14.7840   210.8563 </r>
       <r>     6.5298    22.4382   213.7559 </r>
       <r>     6.6328    32.5096   217.1271 </r>
       <r>     6.7359    26.9670   220.3336 </r>
       <r>     6.8389    20.4311   222.5493 </r>
       <r>     6.9419     2.1572   223.5556 </r>
       <r>     7.0449     0.0000   223.5556 </r>
       <r>     7.1479     4.3143   224.0000 </r>
       <r>     7.2509     0.0000   224.0000 </r>
       <r>     7.3540     0.0000   224.0000 </r>
       <r>     7.4570     0.0000   224.0000 </r>
       <r>     7.5600     0.0000   224.0000 </r>
       <r>     7.6630     0.0000   224.0000 </r>
       <r>     7.7660     0.0000   224.0000 </r>
       <r>     7.8690     0.0000   224.0000 </r>
       <r>     7.9721     0.0000   224.0000 </r>
       <r>     8.0751     0.0000   224.0000 </r>
       <r>     8.1781     0.0000   224.0000 </r>
       <r>     8.2811     0.0000   224.0000 </r>
       <r>     8.3841     0.0000   224.0000 </r>
       <r>     8.4871     0.0000   224.0000 </r>
      </set>
     </set>
    </array>
   </total>
   <partial>
    <array>
     <dimension dim="1">gridpoints</dimension>
     <dimension dim="2">spin</dimension>
     <dimension dim="3">ion</dimension>
     <field>energy</field>
     <field>  s  </field>
     <field>  p  </field>
     <field>  d  </field>
     <set>
      <set comment="ion 1">
       <set comment="spin 1">
        <r>   -22.4177     0.0000     0.0000     0.0000 </r>
        <r>   -22.3147     0.0000     0.0000     0.0000 </r>
        <r>   -22.2117     0.0000     0.0000     0.0000 </r>
        <r>   -22.1086     0.0000     0.0000     0.0000 </r>
        <r>   -22.0056     0.0000     0.0000     0.0000 </r>
[...]
        <r>  0.0001  0.0003  0.0003 </r>
        <r>  0.0010  0.0165  0.0003 </r>
        <r>  0.0007  0.0162  0.0006 </r>
        <r>  0.0024  0.1586  0.0015 </r>
        <r>  0.0023  0.1529  0.0014 </r>
        <r>  0.0017  0.0070  0.0010 </r>
        <r>  0.0003  0.0068  0.0013 </r>
        <r>  0.0009  0.0058  0.0007 </r>
        <r>  0.0005  0.0112  0.0014 </r>
        <r>  0.0112  0.0288  0.0064 </r>
        <r>  0.0012  0.0140  0.0010 </r>
        <r>  0.0001  0.0014  0.0001 </r>
        <r>  0.0013  0.0031  0.0004 </r>
        <r>  0.0011  0.0034  0.0010 </r>
        <r>  0.0001  0.0016  0.0001 </r>
        <r>  0.0114  0.0285  0.0059 </r>
        <r>  0.0012  0.0138  0.0010 </r>
       </set>
       <set comment="band 93">
        <r>  0.0000  0.0001  0.0002 </r>
        <r>  0.0002  0.0001  0.0004 </r>
        <r>  0.0000  0.0001  0.0006 </r>
        <r>  0.0000  0.0009  0.0005 </r>
        <r>  0.0036  0.0711  0.0011 </r>
        <r>  0.0024  0.0432  0.0013 </r>
        <r>  0.0025  0.1031  0.0005 </r>
        <r>  0.0012  0.1149  0.0011 </r>
        <r>  0.0069  0.0061  0.0030 </r>
        <r>  0.0011  0.0552  0.0007 </r>
        <r>  0.0087  0.0080  0.0037 </r>
        <r>  0.0008  0.0453  0.0004 </r>
        <r>  0.0018  0.0092  0.0014 </r>
        <r>  0.0001  0.0023  0.0020 </r>
        <r>  0.0000  0.0012  0.0012 </r>
        <r>  0.0007  0.0042  0.0012 </r>
        <r>  0.0008  0.0045  0.0006 </r>
        <r>  0.0001  0.0009  0.0010 </r>
        <r>  0.0017  0.0090  0.0019 </r>
        <r>  0.0001  0.0025  0.0021 </r>
       </set>
       <set comment="band 94">
        <r>  0.0000  0.0009  0.0005 </r>
        <r>  0.0000  0.0001  0.0006 </r>
        <r>  0.0002  0.0001  0.0004 </r>
        <r>  0.0000  0.0001  0.0002 </r>
        <r>  0.0012  0.1149  0.0011 </r>
        <r>  0.0025  0.1031  0.0005 </r>
        <r>  0.0024  0.0432  0.0013 </r>
        <r>  0.0036  0.0711  0.0011 </r>
        <r>  0.0008  0.0453  0.0004 </r>
        <r>  0.0087  0.0080  0.0037 </r>
        <r>  0.0011  0.0552  0.0007 </r>
        <r>  0.0069  0.0061  0.0030 </r>
        <r>  0.0007  0.0042  0.0012 </r>
        <r>  0.0000  0.0012  0.0012 </r>
        <r>  0.0001  0.0023  0.0020 </r>
        <r>  0.0018  0.0092  0.0014 </r>
        <r>  0.0017  0.0090  0.0019 </r>
        <r>  0.0001  0.0025  0.0021 </r>
        <r>  0.0008  0.0045  0.0006 </r>
        <r>  0.0001  0.0009  0.0010 </r>
       </set>
       <set comment="band 95">
        <r>  0.0000  0.0001  0.0009 </r>
        <r>  0.0002  0.0014  0.0002 </r>
        <r>  0.0000  0.0002  0.0005 </r>
        <r>  0.0001  0.0002  0.0003 </r>
        <r>  0.0032  0.0551  0.0013 </r>
        <r>  0.0038  0.0571  0.0014 </r>
        <r>  0.0019  0.1172  0.0007 </r>
        <r>  0.0018  0.1061  0.0007 </r>
        <r>  0.0107  0.0022  0.0044 </r>
        <r>  0.0003  0.0562  0.0003 </r>
        <r>  0.0097  0.0022  0.0041 </r>
        <r>  0.0004  0.0614  0.0002 </r>
        <r>  0.0001  0.0027  0.0022 </r>
        <r>  0.0001  0.0080  0.0004 </r>
        <r>  0.0001  0.0050  0.0003 </r>
        <r>  0.0000  0.0008  0.0011 </r>
        <r>  0.0001  0.0017  0.0011 </r>
        <r>  0.0000  0.0037  0.0003 </r>
        <r>  0.0001  0.0018  0.0022 </r>
        <r>  0.0002  0.0093  0.0003 </r>
       </set>
       <set comment="band 96">
        <r>  0.0001  0.0002  0.0003 </r>
        <r>  0.0000  0.0002  0.0005 </r>
        <r>  0.0002  0.0014  0.0002 </r>
        <r>  0.0000  0.0001  0.0009 </r>
        <r>  0.0018  0.1061  0.0007 </r>
        <r>  0.0019  0.1172  0.0007 </r>
        <r>  0.0038  0.0571  0.0014 </r>
        <r>  0.0032  0.0551  0.0013 </r>
        <r>  0.0004  0.0614  0.0002 </r>
        <r>  0.0097  0.0022  0.0041 </r>
        <r>  0.0003  0.0562  0.0003 </r>
        <r>  0.0107  0.0022  0.0044 </r>
        <r>  0.0000  0.0008  0.0011 </r>
        <r>  0.0001  0.0050  0.0003 </r>
        <r>  0.0001  0.0080  0.0004 </r>
        <r>  0.0001  0.0027  0.0022 </r>
        <r>  0.0001  0.0018  0.0022 </r>
        <r>  0.0002  0.0093  0.0003 </r>
        <r>  0.0001  0.0017  0.0011 </r>
        <r>  0.0000  0.0037  0.0003 </r>
       </set>
       <set comment="band 97">
        <r>  0.0000  0.0001  0.0017 </r>
        <r>  0.0000  0.0005  0.0009 </r>
        <r>  0.0000  0.0001  0.0018 </r>
        <r>  0.0000  0.0003  0.0005 </r>
        <r>  0.0031  0.1074  0.0013 </r>
        <r>  0.0028  0.1361  0.0011 </r>
        <r>  0.0006  0.0350  0.0005 </r>
        <r>  0.0008  0.0272  0.0005 </r>
        <r>  0.0000  0.0027  0.0005 </r>
        <r>  0.0000  0.0005  0.0020 </r>
        <r>  0.0001  0.0028  0.0004 </r>
        <r>  0.0000  0.0006  0.0021 </r>
        <r>  0.0013  0.0170  0.0009 </r>
        <r>  0.0001  0.0001  0.0011 </r>
        <r>  0.0001  0.0009  0.0040 </r>
        <r>  0.0057  0.0701  0.0030 </r>
        <r>  0.0055  0.0687  0.0030 </r>
        <r>  0.0002  0.0008  0.0041 </r>
        <r>  0.0015  0.0183  0.0009 </r>
        <r>  0.0000  0.0002  0.0010 </r>
       </set>
       <set comment="band 98">
        <r>  0.0000  0.0003  0.0005 </r>
        <r>  0.0000  0.0001  0.0018 </r>
        <r>  0.0000  0.0005  0.0009 </r>
        <r>  0.0000  0.0001  0.0017 </r>
        <r>  0.0008  0.0272  0.0005 </r>
        <r>  0.0006  0.0350  0.0005 </r>
        <r>  0.0028  0.1361  0.0011 </r>
        <r>  0.0031  0.1074  0.0013 </r>
        <r>  0.0000  0.0006  0.0021 </r>
        <r>  0.0001  0.0028  0.0004 </r>
        <r>  0.0000  0.0005  0.0020 </r>
        <r>  0.0000  0.0027  0.0005 </r>
        <r>  0.0057  0.0701  0.0030 </r>
        <r>  0.0001  0.0009  0.0040 </r>
        <r>  0.0001  0.0001  0.0011 </r>
        <r>  0.0013  0.0170  0.0009 </r>
        <r>  0.0015  0.0183  0.0009 </r>
        <r>  0.0000  0.0002  0.0010 </r>
        <r>  0.0055  0.0687  0.0030 </r>
        <r>  0.0002  0.0008  0.0041 </r>
       </set>
       <set comment="band 99">
        <r>  0.0001  0.0001  0.0009 </r>
        <r>  0.0000  0.0001  0.0009 </r>
        <r>  0.0000  0.0001  0.0007 </r>
        <r>  0.0001  0.0001  0.0008 </r>
        <r>  0.0001  0.0021  0.0005 </r>
        <r>  0.0000  0.0017  0.0005 </r>
        <r>  0.0000  0.1447  0.0005 </r>
        <r>  0.0000  0.1722  0.0002 </r>
        <r>  0.0000  0.0017  0.0014 </r>
        <r>  0.0000  0.0007  0.0020 </r>
        <r>  0.0000  0.0011  0.0014 </r>
        <r>  0.0000  0.0011  0.0020 </r>
        <r>  0.0001  0.0022  0.0055 </r>
        <r>  0.0000  0.1035  0.0028 </r>
        <r>  0.0000  0.0009  0.0003 </r>
        <r>  0.0000  0.0002  0.0001 </r>
        <r>  0.0000  0.0002  0.0001 </r>
        <r>  0.0000  0.0014  0.0004 </r>
        <r>  0.0001  0.0022  0.0055 </r>
        <r>  0.0000  0.1030  0.0028 </r>
       </set>
       <set comment="band 100">
        <r>  0.0001  0.0001  0.0008 </r>
        <r>  0.0000  0.0001  0.0007 </r>
        <r>  0.0000  0.0001  0.0009 </r>
        <r>  0.0001  0.0001  0.0009 </r>
        <r>  0.0000  0.1722  0.0002 </r>
        <r>  0.0000  0.1447  0.0005 </r>
        <r>  0.0000  0.0017  0.0005 </r>
        <r>  0.0001  0.0021  0.0005 </r>
        <r>  0.0000  0.0011  0.0020 </r>
        <r>  0.0000  0.0011  0.0014 </r>
        <r>  0.0000  0.0007  0.0020 </r>
        <r>  0.0000  0.0017  0.0014 </r>
        <r>  0.0000  0.0002  0.0001 </r>
        <r>  0.0000  0.0009  0.0003 </r>
        <r>  0.0000  0.1035  0.0028 </r>
        <r>  0.0001  0.0022  0.0055 </r>
        <r>  0.0001  0.0022  0.0055 </r>
        <r>  0.0000  0.1030  0.0028 </r>
        <r>  0.0000  0.0002  0.0001 </r>
        <r>  0.0000  0.0014  0.0004 </r>
       </set>
       <set comment="band 101">
        <r>  0.0160  0.0070  0.0074 </r>
        <r>  0.0000  0.0010  0.0081 </r>
        <r>  0.0125  0.0059  0.0071 </r>
        <r>  0.0000  0.0005  0.0068 </r>
        <r>  0.0003  0.0052  0.0002 </r>
        <r>  0.0002  0.0065  0.0001 </r>
        <r>  0.0002  0.0065  0.0002 </r>
        <r>  0.0003  0.0051  0.0002 </r>
        <r>  0.0000  0.0055  0.0001 </r>
        <r>  0.0052  0.0133  0.0032 </r>
        <r>  0.0000  0.0052  0.0001 </r>
        <r>  0.0055  0.0149  0.0028 </r>
        <r>  0.0013  0.0048  0.0015 </r>
        <r>  0.0021  0.0015  0.0008 </r>
        <r>  0.0031  0.0025  0.0016 </r>
        <r>  0.0007  0.0046  0.0007 </r>
        <r>  0.0012  0.0048  0.0015 </r>
        <r>  0.0021  0.0014  0.0008 </r>
        <r>  0.0007  0.0046  0.0007 </r>
        <r>  0.0031  0.0025  0.0016 </r>
       </set>
       <set comment="band 102">
        <r>  0.0000  0.0005  0.0068 </r>
        <r>  0.0125  0.0059  0.0071 </r>
        <r>  0.0000  0.0010  0.0081 </r>
        <r>  0.0160  0.0070  0.0074 </r>
        <r>  0.0003  0.0051  0.0002 </r>
        <r>  0.0002  0.0065  0.0002 </r>
        <r>  0.0002  0.0065  0.0001 </r>
        <r>  0.0003  0.0052  0.0002 </r>
        <r>  0.0055  0.0149  0.0028 </r>
        <r>  0.0000  0.0052  0.0001 </r>
        <r>  0.0052  0.0133  0.0032 </r>
        <r>  0.0000  0.0055  0.0001 </r>
        <r>  0.0007  0.0046  0.0007 </r>
        <r>  0.0031  0.0025  0.0016 </r>
        <r>  0.0021  0.0015  0.0008 </r>
        <r>  0.0013  0.0048  0.0015 </r>
        <r>  0.0007  0.0046  0.0007 </r>
        <r>  0.0031  0.0025  0.0016 </r>
        <r>  0.0012  0.0048  0.0015 </r>
        <r>  0.0021  0.0014  0.0008 </r>
       </set>
       <set comment="band 103">
        <r>  0.0000  0.0001  0.0083 </r>
        <r>  0.0019  0.0036  0.0643 </r>
        <r>  0.0000  0.0013  0.0022 </r>
        <r>  0.0032  0.0025  0.0375 </r>
        <r>  0.0000  0.0006  0.0003 </r>
        <r>  0.0000  0.0012  0.0001 </r>
        <r>  0.0000  0.0012  0.0001 </r>
        <r>  0.0000  0.0006  0.0003 </r>
        <r>  0.0003  0.0091  0.0048 </r>
        <r>  0.0000  0.0006  0.0003 </r>
        <r>  0.0002  0.0137  0.0049 </r>
        <r>  0.0000  0.0008  0.0002 </r>
        <r>  0.0002  0.0022  0.0012 </r>
        <r>  0.0010  0.0024  0.0014 </r>
        <r>  0.0010  0.0017  0.0010 </r>
        <r>  0.0005  0.0032  0.0016 </r>
        <r>  0.0002  0.0022  0.0012 </r>
        <r>  0.0010  0.0024  0.0014 </r>
        <r>  0.0005  0.0033  0.0016 </r>
        <r>  0.0010  0.0017  0.0010 </r>
       </set>
       <set comment="band 104">
        <r>  0.0032  0.0025  0.0375 </r>
        <r>  0.0000  0.0013  0.0022 </r>
        <r>  0.0019  0.0036  0.0643 </r>
        <r>  0.0000  0.0001  0.0083 </r>
        <r>  0.0000  0.0006  0.0003 </r>
        <r>  0.0000  0.0012  0.0001 </r>
        <r>  0.0000  0.0012  0.0001 </r>
        <r>  0.0000  0.0006  0.0003 </r>
        <r>  0.0000  0.0008  0.0002 </r>
        <r>  0.0002  0.0137  0.0049 </r>
        <r>  0.0000  0.0006  0.0003 </r>
        <r>  0.0003  0.0091  0.0048 </r>
        <r>  0.0005  0.0032  0.0016 </r>
        <r>  0.0010  0.0017  0.0010 </r>
        <r>  0.0010  0.0024  0.0014 </r>
        <r>  0.0002  0.0022  0.0012 </r>
        <r>  0.0005  0.0033  0.0016 </r>
        <r>  0.0010  0.0017  0.0010 </r>
        <r>  0.0002  0.0022  0.0012 </r>
        <r>  0.0010  0.0024  0.0014 </r>
       </set>
       <set comment="band 105">
        <r>  0.0038  0.0014  0.0124 </r>
        <r>  0.0000  0.0001  0.0690 </r>
        <r>  0.0069  0.0018  0.0072 </r>
        <r>  0.0000  0.0003  0.0201 </r>
        <r>  0.0001  0.0088  0.0013 </r>
        <r>  0.0000  0.0060  0.0005 </r>
        <r>  0.0000  0.0060  0.0005 </r>
        <r>  0.0001  0.0087  0.0013 </r>
        <r>  0.0000  0.0013  0.0010 </r>
        <r>  0.0006  0.0031  0.0009 </r>
        <r>  0.0000  0.0007  0.0010 </r>
        <r>  0.0001  0.0098  0.0012 </r>
        <r>  0.0007  0.0028  0.0025 </r>
        <r>  0.0017  0.0023  0.0032 </r>
        <r>  0.0010  0.0014  0.0034 </r>
        <r>  0.0006  0.0015  0.0023 </r>
        <r>  0.0007  0.0028  0.0025 </r>
        <r>  0.0017  0.0023  0.0032 </r>
        <r>  0.0006  0.0014  0.0023 </r>
        <r>  0.0010  0.0014  0.0033 </r>
       </set>
       <set comment="band 106">
        <r>  0.0000  0.0003  0.0201 </r>
        <r>  0.0069  0.0018  0.0072 </r>
        <r>  0.0000  0.0001  0.0690 </r>
        <r>  0.0038  0.0014  0.0124 </r>
        <r>  0.0001  0.0087  0.0013 </r>
        <r>  0.0000  0.0060  0.0005 </r>
        <r>  0.0000  0.0060  0.0005 </r>
        <r>  0.0001  0.0088  0.0013 </r>
        <r>  0.0001  0.0098  0.0012 </r>
        <r>  0.0000  0.0007  0.0010 </r>
        <r>  0.0006  0.0031  0.0009 </r>
        <r>  0.0000  0.0013  0.0010 </r>
        <r>  0.0006  0.0015  0.0023 </r>
        <r>  0.0010  0.0014  0.0034 </r>
        <r>  0.0017  0.0023  0.0032 </r>
        <r>  0.0007  0.0028  0.0025 </r>
        <r>  0.0006  0.0014  0.0023 </r>
        <r>  0.0010  0.0014  0.0033 </r>
        <r>  0.0007  0.0028  0.0025 </r>
        <r>  0.0017  0.0023  0.0032 </r>
       </set>
       <set comment="band 107">
        <r>  0.0000  0.0006  0.0529 </r>
        <r>  0.0032  0.0044  0.0072 </r>
        <r>  0.0000  0.0001  0.0120 </r>
        <r>  0.0018  0.0054  0.0372 </r>
        <r>  0.0000  0.0064  0.0005 </r>
        <r>  0.0000  0.0030  0.0015 </r>
        <r>  0.0000  0.0029  0.0015 </r>
        <r>  0.0000  0.0062  0.0005 </r>
        <r>  0.0013  0.0061  0.0020 </r>
        <r>  0.0000  0.0039  0.0004 </r>
        <r>  0.0025  0.0110  0.0018 </r>
        <r>  0.0000  0.0023  0.0014 </r>
        <r>  0.0014  0.0039  0.0016 </r>
        <r>  0.0006  0.0025  0.0029 </r>
        <r>  0.0003  0.0045  0.0020 </r>
        <r>  0.0010  0.0044  0.0022 </r>
        <r>  0.0015  0.0041  0.0017 </r>
        <r>  0.0006  0.0027  0.0030 </r>
        <r>  0.0009  0.0042  0.0021 </r>
        <r>  0.0003  0.0044  0.0020 </r>
       </set>
       <set comment="band 108">
        <r>  0.0018  0.0054  0.0372 </r>
        <r>  0.0000  0.0001  0.0120 </r>
        <r>  0.0032  0.0044  0.0072 </r>
        <r>  0.0000  0.0006  0.0529 </r>
        <r>  0.0000  0.0062  0.0005 </r>
        <r>  0.0000  0.0029  0.0015 </r>
        <r>  0.0000  0.0030  0.0015 </r>
        <r>  0.0000  0.0064  0.0005 </r>
        <r>  0.0000  0.0023  0.0014 </r>
        <r>  0.0025  0.0110  0.0018 </r>
        <r>  0.0000  0.0039  0.0004 </r>
        <r>  0.0013  0.0061  0.0020 </r>
        <r>  0.0010  0.0044  0.0022 </r>
        <r>  0.0003  0.0045  0.0020 </r>
        <r>  0.0006  0.0025  0.0029 </r>
        <r>  0.0014  0.0039  0.0016 </r>
        <r>  0.0009  0.0042  0.0021 </r>
        <r>  0.0003  0.0044  0.0020 </r>
        <r>  0.0015  0.0041  0.0017 </r>
        <r>  0.0006  0.0027  0.0030 </r>
       </set>
       <set comment="band 109">
        <r>  0.0000  0.0010  0.0226 </r>
        <r>  0.0023  0.0061  0.0108 </r>
        <r>  0.0000  0.0001  0.0338 </r>
        <r>  0.0014  0.0009  0.0645 </r>
        <r>  0.0000  0.0043  0.0007 </r>
        <r>  0.0000  0.0050  0.0006 </r>
        <r>  0.0000  0.0047  0.0006 </r>
        <r>  0.0000  0.0041  0.0007 </r>
        <r>  0.0019  0.0150  0.0018 </r>
        <r>  0.0000  0.0004  0.0010 </r>
        <r>  0.0007  0.0146  0.0024 </r>
        <r>  0.0000  0.0007  0.0005 </r>
        <r>  0.0003  0.0034  0.0010 </r>
        <r>  0.0003  0.0037  0.0025 </r>
        <r>  0.0001  0.0031  0.0031 </r>
        <r>  0.0002  0.0017  0.0016 </r>
        <r>  0.0003  0.0034  0.0010 </r>
        <r>  0.0003  0.0038  0.0025 </r>
        <r>  0.0002  0.0017  0.0016 </r>
        <r>  0.0001  0.0030  0.0031 </r>
       </set>
       <set comment="band 110">
        <r>  0.0014  0.0009  0.0645 </r>
        <r>  0.0000  0.0001  0.0338 </r>
        <r>  0.0023  0.0061  0.0108 </r>
        <r>  0.0000  0.0010  0.0226 </r>
        <r>  0.0000  0.0041  0.0007 </r>
        <r>  0.0000  0.0047  0.0006 </r>
        <r>  0.0000  0.0050  0.0006 </r>
        <r>  0.0000  0.0043  0.0007 </r>
        <r>  0.0000  0.0007  0.0005 </r>
        <r>  0.0007  0.0146  0.0024 </r>
        <r>  0.0000  0.0004  0.0010 </r>
        <r>  0.0019  0.0150  0.0018 </r>
        <r>  0.0002  0.0017  0.0016 </r>
        <r>  0.0001  0.0031  0.0031 </r>
        <r>  0.0003  0.0037  0.0025 </r>
        <r>  0.0003  0.0034  0.0010 </r>
        <r>  0.0002  0.0017  0.0016 </r>
        <r>  0.0001  0.0030  0.0031 </r>
        <r>  0.0003  0.0034  0.0010 </r>
        <r>  0.0003  0.0038  0.0025 </r>
       </set>
       <set comment="band 111">
        <r>  0.0000  0.0002  0.0509 </r>
        <r>  0.0003  0.0085  0.0144 </r>
        <r>  0.0000  0.0000  0.0256 </r>
        <r>  0.0004  0.0150  0.0063 </r>
        <r>  0.0001  0.0055  0.0008 </r>
        <r>  0.0000  0.0096  0.0011 </r>
        <r>  0.0000  0.0090  0.0010 </r>
        <r>  0.0001  0.0052  0.0008 </r>
        <r>  0.0033  0.0025  0.0064 </r>
        <r>  0.0000  0.0025  0.0010 </r>
        <r>  0.0032  0.0031  0.0056 </r>
        <r>  0.0000  0.0021  0.0013 </r>
        <r>  0.0012  0.0015  0.0029 </r>
        <r>  0.0000  0.0002  0.0020 </r>
        <r>  0.0001  0.0005  0.0009 </r>
        <r>  0.0008  0.0019  0.0031 </r>
        <r>  0.0011  0.0015  0.0029 </r>
        <r>  0.0000  0.0002  0.0021 </r>
        <r>  0.0009  0.0018  0.0030 </r>
        <r>  0.0001  0.0005  0.0009 </r>
       </set>
       <set comment="band 112">
        <r>  0.0004  0.0150  0.0063 </r>
        <r>  0.0000  0.0000  0.0256 </r>
        <r>  0.0003  0.0085  0.0144 </r>
        <r>  0.0000  0.0002  0.0509 </r>
        <r>  0.0001  0.0052  0.0008 </r>
        <r>  0.0000  0.0090  0.0010 </r>
        <r>  0.0000  0.0096  0.0011 </r>
        <r>  0.0001  0.0055  0.0008 </r>
        <r>  0.0000  0.0021  0.0013 </r>
        <r>  0.0032  0.0031  0.0056 </r>
        <r>  0.0000  0.0025  0.0010 </r>
        <r>  0.0033  0.0025  0.0064 </r>
        <r>  0.0008  0.0019  0.0031 </r>
        <r>  0.0001  0.0005  0.0009 </r>
        <r>  0.0000  0.0002  0.0020 </r>
        <r>  0.0012  0.0015  0.0029 </r>
        <r>  0.0009  0.0018  0.0030 </r>
        <r>  0.0001  0.0005  0.0009 </r>
        <r>  0.0011  0.0015  0.0029 </r>
        <r>  0.0000  0.0002  0.0021 </r>
       </set>
      </set>
     </set>
    </set>
   </array>
  </projected>
 </calculation>
 <structure name="finalpos" >
  <crystal>
   <varray name="basis" >
    <v>       7.87438128       0.00000000       0.00000000 </v>
    <v>       0.00000000      12.35199817       0.00000000 </v>
    <v>       0.00000000       0.00000000       8.48187958 </v>
   </varray>
   <i name="volume">    824.98444669 </i>
   <varray name="rec_basis" >
    <v>       0.12699410       0.00000000       0.00000000 </v>
    <v>       0.00000000       0.08095856       0.00000000 </v>
    <v>       0.00000000       0.00000000       0.11789840 </v>
   </varray>
  </crystal>
  <varray name="positions" >
   <v>       0.00335156       0.25000000       0.51554622 </v>
   <v>       0.49664844       0.75000000       0.01554622 </v>
   <v>       0.50335156       0.25000000       0.98445378 </v>
   <v>       0.99664844       0.75000000       0.48445378 </v>
   <v>       0.00000000       0.00000000       0.00000000 </v>
   <v>       0.50000000       0.00000000       0.50000000 </v>
   <v>       0.50000000       0.50000000       0.50000000 </v>
   <v>       0.00000000       0.50000000       0.00000000 </v>
   <v>       0.50149286       0.75000000       0.47523097 </v>
   <v>       0.99850714       0.25000000       0.97523097 </v>
   <v>       0.00149286       0.75000000       0.02476903 </v>
   <v>       0.49850714       0.25000000       0.52476903 </v>
   <v>       0.32054061       0.49123878       0.18813818 </v>
   <v>       0.17945939       0.50876122       0.68813818 </v>
   <v>       0.82054061       0.00876122       0.31186182 </v>
   <v>       0.67945939       0.99123878       0.81186182 </v>
   <v>       0.32054061       0.00876122       0.18813818 </v>
   <v>       0.17945939       0.99123878       0.68813818 </v>
   <v>       0.67945939       0.50876122       0.81186182 </v>
   <v>       0.82054061       0.49123878       0.31186182 </v>
  </varray>
 </structure>
</modeling>
