 running on   64 total cores
 distrk:  each k-point on   64 cores,    1 groups
 distr:  one band on    8 cores,    8 groups
 using from now: INCAR     
 vasp.5.4.4.18Apr17-6-g9f103f2a35 (build Jun 29 2021 11:06:51) complex           
 POSCAR found type information on POSCAR  Cs Pb Br
 POSCAR found :  3 types and      20 ions
 scaLAPACK will be used
 LDA part: xc-table for Pade appr. of Perdew
 POSCAR found type information on POSCAR  Cs Pb Br
 POSCAR found :  3 types and      20 ions
 POSCAR, INCAR and KPOINTS ok, starting setup
 FFT: planning ...
 WAVECAR not read
 entering main loop
       N       E                     dE             d eps       ncg     rms          rms(c)
DAV:   1     0.655606965414E+03    0.65561E+03   -0.56018E+04  1864   0.919E+02
DAV:   2    -0.576147703197E+03   -0.12318E+04   -0.11834E+04  2224   0.284E+02
DAV:   3    -0.748984864203E+03   -0.17284E+03   -0.17181E+03  2440   0.127E+02
DAV:   4    -0.754451128539E+03   -0.54663E+01   -0.54484E+01  2168   0.297E+01
DAV:   5    -0.754684621100E+03   -0.23349E+00   -0.23335E+00  2368   0.496E+00    0.695E+00
DAV:   6    -0.714798796670E+03    0.39886E+02   -0.11850E+01  2376   0.288E+01    0.495E+00
DAV:   7    -0.714547343122E+03    0.25145E+00   -0.40124E+00  2168   0.490E+00    0.260E+00
DAV:   8    -0.714646664583E+03   -0.99321E-01   -0.18996E-01  2168   0.173E+00    0.150E+00
DAV:   9    -0.714690439388E+03   -0.43775E-01   -0.92878E-02  1928   0.123E+00    0.324E-01
DAV:  10    -0.714691501975E+03   -0.10626E-02   -0.57838E-03  2632   0.336E-01    0.196E-01
DAV:  11    -0.714693465886E+03   -0.19639E-02   -0.18888E-03  1936   0.179E-01    0.706E-02
DAV:  12    -0.714693599607E+03   -0.13372E-03   -0.50053E-04  1984   0.996E-02    0.264E-02
DAV:  13    -0.714693595228E+03    0.43781E-05   -0.56096E-05  2264   0.280E-02    0.897E-03
DAV:  14    -0.714693611376E+03   -0.16147E-04   -0.44509E-06  1744   0.759E-03    0.219E-03
DAV:  15    -0.714693609773E+03    0.16027E-05   -0.41682E-07  1288   0.293E-03    0.689E-04
DAV:  16    -0.714693608524E+03    0.12495E-05   -0.19339E-07  1248   0.199E-03    0.560E-04
DAV:  17    -0.714693607605E+03    0.91889E-06   -0.51453E-08  1128   0.120E-03
   1 F= -.71469361E+03 E0= -.71469361E+03  d E =-.187024E-77
Application 1866233 resources: utime ~7592s, stime ~65s, Rss ~77976, inblocks ~1328, outblocks ~50896
