CsPbBr3 cubic bulk                      
           1
     7.874381    0.000000    0.000000
     0.000000   12.351998    0.000000
     0.000000    0.000000    8.481880
   Cs   Pb   Br
   4   4  12
Direct configuration=     1
   0.00335156  0.25000000  0.51554622
   0.49664844  0.75000000  0.01554622
   0.50335156  0.25000000  0.98445378
   0.99664844  0.75000000  0.48445378
   0.00000000  0.00000000  0.00000000
   0.50000000  0.00000000  0.50000000
   0.50000000  0.50000000  0.50000000
   0.00000000  0.50000000  0.00000000
   0.50149286  0.75000000  0.47523097
   0.99850714  0.25000000  0.97523097
   0.00149286  0.75000000  0.02476903
   0.49850714  0.25000000  0.52476903
   0.32054061  0.49123878  0.18813818
   0.17945939  0.50876122  0.68813818
   0.82054061  0.00876122  0.31186182
   0.67945939  0.99123878  0.81186182
   0.32054061  0.00876122  0.18813818
   0.17945939  0.99123878  0.68813818
   0.67945939  0.50876122  0.81186182
   0.82054061  0.49123878  0.31186182
