  39  39   1   0
  0.4089970E+02  0.1166870E-08  0.1172985E-08  0.1166870E-08  0.5000000E-15
   1.0000000000000000E-004
  CAR 
 CsPbBr3 cubic bulk                      
      8.05739504    -22.26124791  301      0.40193770      1.00000000
    -22.261  0.0000E+00  0.0000E+00
    -22.160  0.0000E+00  0.0000E+00
    -22.059  0.0000E+00  0.0000E+00
    -21.958  0.0000E+00  0.0000E+00
    -21.857  0.0000E+00  0.0000E+00
    -21.756  0.0000E+00  0.0000E+00
    -21.655  0.0000E+00  0.0000E+00
    -21.554  0.0000E+00  0.0000E+00
    -21.453  0.0000E+00  0.0000E+00
    -21.352  0.0000E+00  0.0000E+00
    -21.251  0.0000E+00  0.0000E+00
    -21.150  0.0000E+00  0.0000E+00
    -21.049  0.0000E+00  0.0000E+00
    -20.947  0.0000E+00  0.0000E+00
    -20.846  0.1979E+02  0.2000E+01
    -20.745  0.3779E+02  0.5819E+01
    -20.644  0.7916E+02  0.1600E+02
    -20.543  0.0000E+00  0.1600E+02
    -20.442  0.0000E+00  0.1600E+02
    -20.341  0.0000E+00  0.1600E+02
    -20.240  0.0000E+00  0.1600E+02
    -20.139  0.0000E+00  0.1600E+02
    -20.038  0.0000E+00  0.1600E+02
    -19.937  0.0000E+00  0.1600E+02
    -19.836  0.0000E+00  0.1600E+02
    -19.735  0.0000E+00  0.1600E+02
    -19.634  0.0000E+00  0.1600E+02
    -19.533  0.0000E+00  0.1600E+02
    -19.432  0.0000E+00  0.1600E+02
    -19.330  0.0000E+00  0.1600E+02
    -19.229  0.0000E+00  0.1600E+02
    -19.128  0.0000E+00  0.1600E+02
    -19.027  0.0000E+00  0.1600E+02
    -18.926  0.0000E+00  0.1600E+02
    -18.825  0.0000E+00  0.1600E+02
    -18.724  0.0000E+00  0.1600E+02
    -18.623  0.0000E+00  0.1600E+02
    -18.522  0.0000E+00  0.1600E+02
    -18.421  0.0000E+00  0.1600E+02
    -18.320  0.0000E+00  0.1600E+02
    -18.219  0.0000E+00  0.1600E+02
    -18.118  0.0000E+00  0.1600E+02
    -18.017  0.0000E+00  0.1600E+02
    -17.916  0.0000E+00  0.1600E+02
    -17.815  0.0000E+00  0.1600E+02
    -17.713  0.0000E+00  0.1600E+02
    -17.612  0.0000E+00  0.1600E+02
    -17.511  0.0000E+00  0.1600E+02
    -17.410  0.0000E+00  0.1600E+02
    -17.309  0.0000E+00  0.1600E+02
    -17.208  0.0000E+00  0.1600E+02
    -17.107  0.0000E+00  0.1600E+02
    -17.006  0.0000E+00  0.1600E+02
    -16.905  0.0000E+00  0.1600E+02
    -16.804  0.1011E-11  0.1600E+02
    -16.703  0.4096E+02  0.2014E+02
    -16.602  0.9886E+02  0.3199E+02
    -16.501  0.1355E+03  0.4569E+02
    -16.400  0.1466E+03  0.6081E+02
    -16.299  0.1616E+03  0.8108E+02
    -16.198  0.0000E+00  0.9600E+02
    -16.096  0.0000E+00  0.9600E+02
    -15.995  0.0000E+00  0.9600E+02
    -15.894  0.0000E+00  0.9600E+02
    -15.793  0.0000E+00  0.9600E+02
    -15.692  0.0000E+00  0.9600E+02
    -15.591  0.0000E+00  0.9600E+02
    -15.490  0.0000E+00  0.9600E+02
    -15.389  0.0000E+00  0.9600E+02
    -15.288  0.0000E+00  0.9600E+02
    -15.187  0.0000E+00  0.9600E+02
    -15.086  0.0000E+00  0.9600E+02
    -14.985  0.0000E+00  0.9600E+02
    -14.884  0.0000E+00  0.9600E+02
    -14.783  0.0000E+00  0.9600E+02
    -14.682  0.0000E+00  0.9600E+02
    -14.581  0.0000E+00  0.9600E+02
    -14.479  0.1932E+02  0.9795E+02
    -14.378  0.1979E+02  0.1000E+03
    -14.277  0.2319E+02  0.1023E+03
    -14.176  0.2519E+02  0.1055E+03
    -14.075  0.4634E+02  0.1119E+03
    -13.974  0.8687E+02  0.1233E+03
    -13.873  0.8003E+02  0.1323E+03
    -13.772  0.5904E+02  0.1397E+03
    -13.671  0.4947E+01  0.1420E+03
    -13.570  0.0000E+00  0.1420E+03
    -13.469  0.0000E+00  0.1420E+03
    -13.368  0.0000E+00  0.1420E+03
    -13.267  0.0000E+00  0.1420E+03
    -13.166  0.0000E+00  0.1420E+03
    -13.065  0.0000E+00  0.1420E+03
    -12.964  0.0000E+00  0.1420E+03
    -12.862  0.0000E+00  0.1420E+03
    -12.761  0.0000E+00  0.1420E+03
    -12.660  0.0000E+00  0.1420E+03
    -12.559  0.0000E+00  0.1420E+03
    -12.458  0.0000E+00  0.1420E+03
    -12.357  0.0000E+00  0.1420E+03
    -12.256  0.0000E+00  0.1420E+03
    -12.155  0.0000E+00  0.1420E+03
    -12.054  0.0000E+00  0.1420E+03
    -11.953  0.0000E+00  0.1420E+03
    -11.852  0.0000E+00  0.1420E+03
    -11.751  0.0000E+00  0.1420E+03
    -11.650  0.0000E+00  0.1420E+03
    -11.549  0.0000E+00  0.1420E+03
    -11.448  0.0000E+00  0.1420E+03
    -11.347  0.0000E+00  0.1420E+03
    -11.245  0.0000E+00  0.1420E+03
    -11.144  0.0000E+00  0.1420E+03
    -11.043  0.0000E+00  0.1420E+03
    -10.942  0.0000E+00  0.1420E+03
    -10.841  0.0000E+00  0.1420E+03
    -10.740  0.0000E+00  0.1420E+03
    -10.639  0.0000E+00  0.1420E+03
    -10.538  0.0000E+00  0.1420E+03
    -10.437  0.0000E+00  0.1420E+03
    -10.336  0.0000E+00  0.1420E+03
    -10.235  0.0000E+00  0.1420E+03
    -10.134  0.0000E+00  0.1420E+03
    -10.033  0.0000E+00  0.1420E+03
     -9.932  0.0000E+00  0.1420E+03
     -9.831  0.0000E+00  0.1420E+03
     -9.730  0.0000E+00  0.1420E+03
     -9.628  0.0000E+00  0.1420E+03
     -9.527  0.0000E+00  0.1420E+03
     -9.426  0.0000E+00  0.1420E+03
     -9.325  0.0000E+00  0.1420E+03
     -9.224  0.0000E+00  0.1420E+03
     -9.123  0.0000E+00  0.1420E+03
     -9.022  0.0000E+00  0.1420E+03
     -8.921  0.0000E+00  0.1420E+03
     -8.820  0.0000E+00  0.1420E+03
     -8.719  0.0000E+00  0.1420E+03
     -8.618  0.0000E+00  0.1420E+03
     -8.517  0.0000E+00  0.1420E+03
     -8.416  0.0000E+00  0.1420E+03
     -8.315  0.0000E+00  0.1420E+03
     -8.214  0.1865E+01  0.1422E+03
     -8.113  0.8696E-08  0.1423E+03
     -8.011  0.5407E+01  0.1428E+03
     -7.910  0.9099E+01  0.1442E+03
     -7.809  0.3486E+01  0.1449E+03
     -7.708  0.1923E+02  0.1474E+03
     -7.607  0.9024E+01  0.1487E+03
     -7.506  0.1510E+02  0.1503E+03
     -7.405  0.1732E+02  0.1530E+03
     -7.304  0.2735E+02  0.1558E+03
     -7.203  0.9810E+02  0.1662E+03
     -7.102  0.2383E+03  0.1928E+03
     -7.001  0.5878E+02  0.2047E+03
     -6.900  0.2673E+01  0.2050E+03
     -6.799  0.4947E+01  0.2057E+03
     -6.698  0.0000E+00  0.2058E+03
     -6.597  0.1727E+01  0.2059E+03
     -6.496  0.0000E+00  0.2060E+03
     -6.394  0.0000E+00  0.2060E+03
     -6.293  0.0000E+00  0.2060E+03
     -6.192  0.0000E+00  0.2060E+03
     -6.091  0.0000E+00  0.2060E+03
     -5.990  0.0000E+00  0.2060E+03
     -5.889  0.0000E+00  0.2060E+03
     -5.788  0.0000E+00  0.2060E+03
     -5.687  0.0000E+00  0.2060E+03
     -5.586  0.0000E+00  0.2060E+03
     -5.485  0.0000E+00  0.2060E+03
     -5.384  0.0000E+00  0.2060E+03
     -5.283  0.0000E+00  0.2060E+03
     -5.182  0.0000E+00  0.2060E+03
     -5.081  0.0000E+00  0.2060E+03
     -4.980  0.0000E+00  0.2060E+03
     -4.879  0.0000E+00  0.2060E+03
     -4.777  0.0000E+00  0.2060E+03
     -4.676  0.0000E+00  0.2060E+03
     -4.575  0.0000E+00  0.2060E+03
     -4.474  0.0000E+00  0.2060E+03
     -4.373  0.0000E+00  0.2060E+03
     -4.272  0.0000E+00  0.2060E+03
     -4.171  0.0000E+00  0.2060E+03
     -4.070  0.0000E+00  0.2060E+03
     -3.969  0.0000E+00  0.2060E+03
     -3.868  0.0000E+00  0.2060E+03
     -3.767  0.0000E+00  0.2060E+03
     -3.666  0.0000E+00  0.2060E+03
     -3.565  0.0000E+00  0.2060E+03
     -3.464  0.1251E-08  0.2060E+03
     -3.363  0.9893E+01  0.2070E+03
     -3.262  0.2743E+02  0.2098E+03
     -3.161  0.2582E+02  0.2134E+03
     -3.059  0.1555E+02  0.2158E+03
     -2.958  0.1872E+02  0.2179E+03
     -2.857  0.1971E+02  0.2200E+03
     -2.756  0.6236E-05  0.2200E+03
     -2.655  0.2728E+02  0.2228E+03
     -2.554  0.3035E+02  0.2268E+03
     -2.453  0.2555E+02  0.2303E+03
     -2.352  0.3572E+02  0.2346E+03
     -2.251  0.2384E+02  0.2384E+03
     -2.150  0.2013E+02  0.2413E+03
     -2.049  0.3026E+02  0.2451E+03
     -1.948  0.3013E+02  0.2490E+03
     -1.847  0.2947E+02  0.2527E+03
     -1.746  0.4215E+02  0.2583E+03
     -1.645  0.5194E+02  0.2642E+03
     -1.544  0.6478E+02  0.2720E+03
     -1.442  0.9770E+02  0.2831E+03
     -1.341  0.8587E+02  0.2944E+03
     -1.240  0.8283E+02  0.3059E+03
     -1.139  0.8471E+02  0.3163E+03
     -1.038  0.7344E+02  0.3257E+03
     -0.937  0.2587E+02  0.3291E+03
     -0.836  0.3272E+02  0.3333E+03
     -0.735  0.2223E+02  0.3360E+03
     -0.634  0.5530E+01  0.3371E+03
     -0.533  0.1072E+02  0.3383E+03
     -0.432  0.1302E+02  0.3403E+03
     -0.331  0.7421E+01  0.3415E+03
     -0.230  0.6954E+01  0.3422E+03
     -0.129  0.4902E+01  0.3427E+03
     -0.028  0.2474E+01  0.3430E+03
      0.073  0.7421E+01  0.3437E+03
      0.175  0.0000E+00  0.3438E+03
      0.276  0.0000E+00  0.3438E+03
      0.377  0.2473E+01  0.3440E+03
      0.478  0.0000E+00  0.3440E+03
      0.579  0.0000E+00  0.3440E+03
      0.680  0.0000E+00  0.3440E+03
      0.781  0.0000E+00  0.3440E+03
      0.882  0.0000E+00  0.3440E+03
      0.983  0.0000E+00  0.3440E+03
      1.084  0.0000E+00  0.3440E+03
      1.185  0.0000E+00  0.3440E+03
      1.286  0.0000E+00  0.3440E+03
      1.387  0.0000E+00  0.3440E+03
      1.488  0.0000E+00  0.3440E+03
      1.589  0.0000E+00  0.3440E+03
      1.690  0.0000E+00  0.3440E+03
      1.792  0.0000E+00  0.3440E+03
      1.893  0.0000E+00  0.3440E+03
      1.994  0.0000E+00  0.3440E+03
      2.095  0.0000E+00  0.3440E+03
      2.196  0.0000E+00  0.3440E+03
      2.297  0.0000E+00  0.3440E+03
      2.398  0.0000E+00  0.3440E+03
      2.499  0.2507E+01  0.3443E+03
      2.600  0.8477E+01  0.3454E+03
      2.701  0.2476E+01  0.3460E+03
      2.802  0.2769E+01  0.3463E+03
      2.903  0.4951E+01  0.3470E+03
      3.004  0.1598E+02  0.3489E+03
      3.105  0.8573E+01  0.3501E+03
      3.206  0.1974E+02  0.3530E+03
      3.307  0.1193E+02  0.3545E+03
      3.409  0.1399E+02  0.3567E+03
      3.510  0.9895E+01  0.3577E+03
      3.611  0.0000E+00  0.3580E+03
      3.712  0.0000E+00  0.3580E+03
      3.813  0.0000E+00  0.3580E+03
      3.914  0.2880E-07  0.3580E+03
      4.015  0.1382E+02  0.3594E+03
      4.116  0.7431E-02  0.3595E+03
      4.217  0.1192E+02  0.3610E+03
      4.318  0.1884E+02  0.3634E+03
      4.419  0.1937E+02  0.3660E+03
      4.520  0.3013E+02  0.3695E+03
      4.621  0.2727E+02  0.3730E+03
      4.722  0.2234E+02  0.3760E+03
      4.823  0.1798E+02  0.3793E+03
      4.924  0.2042E+02  0.3818E+03
      5.026  0.2470E+01  0.3822E+03
      5.127  0.0000E+00  0.3822E+03
      5.228  0.0000E+00  0.3822E+03
      5.329  0.2962E-01  0.3823E+03
      5.430  0.1360E+01  0.3826E+03
      5.531  0.4947E+01  0.3832E+03
      5.632  0.1216E+02  0.3845E+03
      5.733  0.1246E+02  0.3863E+03
      5.834  0.1713E+02  0.3882E+03
      5.935  0.2455E+02  0.3912E+03
      6.036  0.2388E+02  0.3942E+03
      6.137  0.2489E+02  0.3975E+03
      6.238  0.1939E+02  0.4007E+03
      6.339  0.3299E+02  0.4046E+03
      6.440  0.2559E+02  0.4081E+03
      6.541  0.2692E+02  0.4120E+03
      6.643  0.2344E+02  0.4156E+03
      6.744  0.2474E+01  0.4160E+03
      6.845  0.0000E+00  0.4160E+03
      6.946  0.0000E+00  0.4160E+03
      7.047  0.0000E+00  0.4160E+03
      7.148  0.0000E+00  0.4160E+03
      7.249  0.0000E+00  0.4160E+03
      7.350  0.0000E+00  0.4160E+03
      7.451  0.0000E+00  0.4160E+03
      7.552  0.0000E+00  0.4160E+03
      7.653  0.0000E+00  0.4160E+03
      7.754  0.0000E+00  0.4160E+03
      7.855  0.0000E+00  0.4160E+03
      7.956  0.0000E+00  0.4160E+03
      8.057  0.0000E+00  0.4160E+03
      8.05739504    -22.26124791  301      0.40193770      1.00000000
    -22.261  0.0000E+00  0.0000E+00  0.0000E+00
    -22.160  0.0000E+00  0.0000E+00  0.0000E+00
    -22.059  0.0000E+00  0.0000E+00  0.0000E+00
    -21.958  0.0000E+00  0.0000E+00  0.0000E+00
    -21.857  0.0000E+00  0.0000E+00  0.0000E+00
    -21.756  0.0000E+00  0.0000E+00  0.0000E+00
    -21.655  0.0000E+00  0.0000E+00  0.0000E+00
    -21.554  0.0000E+00  0.0000E+00  0.0000E+00
    -21.453  0.0000E+00  0.0000E+00  0.0000E+00
    -21.352  0.0000E+00  0.0000E+00  0.0000E+00
    -21.251  0.0000E+00  0.0000E+00  0.0000E+00
    -21.150  0.0000E+00  0.0000E+00  0.0000E+00
    -21.049  0.0000E+00  0.0000E+00  0.0000E+00
    -20.947  0.0000E+00  0.0000E+00  0.0000E+00
    -20.846  0.6796E-05  0.1399E-08  0.9128E-10
    -20.745  0.1756E+02  0.8273E-04  0.1370E-04
    -20.644  0.2347E-02  0.3277E-06  0.4340E-07
    -20.543  0.0000E+00  0.0000E+00  0.0000E+00
    -20.442  0.0000E+00  0.0000E+00  0.0000E+00
    -20.341  0.0000E+00  0.0000E+00  0.0000E+00
    -20.240  0.0000E+00  0.0000E+00  0.0000E+00
    -20.139  0.0000E+00  0.0000E+00  0.0000E+00
    -20.038  0.0000E+00  0.0000E+00  0.0000E+00
    -19.937  0.0000E+00  0.0000E+00  0.0000E+00
    -19.836  0.0000E+00  0.0000E+00  0.0000E+00
    -19.735  0.0000E+00  0.0000E+00  0.0000E+00
    -19.634  0.0000E+00  0.0000E+00  0.0000E+00
    -19.533  0.0000E+00  0.0000E+00  0.0000E+00
    -19.432  0.0000E+00  0.0000E+00  0.0000E+00
    -19.330  0.0000E+00  0.0000E+00  0.0000E+00
    -19.229  0.0000E+00  0.0000E+00  0.0000E+00
    -19.128  0.0000E+00  0.0000E+00  0.0000E+00
    -19.027  0.0000E+00  0.0000E+00  0.0000E+00
    -18.926  0.0000E+00  0.0000E+00  0.0000E+00
    -18.825  0.0000E+00  0.0000E+00  0.0000E+00
    -18.724  0.0000E+00  0.0000E+00  0.0000E+00
    -18.623  0.0000E+00  0.0000E+00  0.0000E+00
    -18.522  0.0000E+00  0.0000E+00  0.0000E+00
    -18.421  0.0000E+00  0.0000E+00  0.0000E+00
    -18.320  0.0000E+00  0.0000E+00  0.0000E+00
    -18.219  0.0000E+00  0.0000E+00  0.0000E+00
    -18.118  0.0000E+00  0.0000E+00  0.0000E+00
    -18.017  0.0000E+00  0.0000E+00  0.0000E+00
    -17.916  0.0000E+00  0.0000E+00  0.0000E+00
    -17.815  0.0000E+00  0.0000E+00  0.0000E+00
    -17.713  0.0000E+00  0.0000E+00  0.0000E+00
    -17.612  0.0000E+00  0.0000E+00  0.0000E+00
    -17.511  0.0000E+00  0.0000E+00  0.0000E+00
    -17.410  0.0000E+00  0.0000E+00  0.0000E+00
    -17.309  0.0000E+00  0.0000E+00  0.0000E+00
    -17.208  0.0000E+00  0.0000E+00  0.0000E+00
    -17.107  0.0000E+00  0.0000E+00  0.0000E+00
    -17.006  0.0000E+00  0.0000E+00  0.0000E+00
    -16.905  0.0000E+00  0.0000E+00  0.0000E+00
    -16.804  0.9185E-18  0.4190E-18  0.5769E-19
    -16.703  0.3391E-04  0.1634E-04  0.2367E-05
    -16.602  0.4090E-04  0.2742E-04  0.5141E-05
    -16.501  0.1727E-04  0.8385E-05  0.9777E-06
    -16.400  0.5757E-04  0.8026E-04  0.1787E-04
    -16.299  0.4947E-04  0.3016E-04  0.3297E-05
    -16.198  0.0000E+00  0.0000E+00  0.0000E+00
    -16.096  0.0000E+00  0.0000E+00  0.0000E+00
    -15.995  0.0000E+00  0.0000E+00  0.0000E+00
    -15.894  0.0000E+00  0.0000E+00  0.0000E+00
    -15.793  0.0000E+00  0.0000E+00  0.0000E+00
    -15.692  0.0000E+00  0.0000E+00  0.0000E+00
    -15.591  0.0000E+00  0.0000E+00  0.0000E+00
    -15.490  0.0000E+00  0.0000E+00  0.0000E+00
    -15.389  0.0000E+00  0.0000E+00  0.0000E+00
    -15.288  0.0000E+00  0.0000E+00  0.0000E+00
    -15.187  0.0000E+00  0.0000E+00  0.0000E+00
    -15.086  0.0000E+00  0.0000E+00  0.0000E+00
    -14.985  0.0000E+00  0.0000E+00  0.0000E+00
    -14.884  0.0000E+00  0.0000E+00  0.0000E+00
    -14.783  0.0000E+00  0.0000E+00  0.0000E+00
    -14.682  0.0000E+00  0.0000E+00  0.0000E+00
    -14.581  0.0000E+00  0.0000E+00  0.0000E+00
    -14.479  0.1618E-02  0.1637E-02  0.1058E-03
    -14.378  0.1445E-02  0.1411E-02  0.8286E-04
    -14.277  0.2417E-02  0.1979E-02  0.3208E-04
    -14.176  0.1280E-02  0.2309E-02  0.8647E-04
    -14.075  0.1103E-02  0.4797E-02  0.3047E-03
    -13.974  0.2430E-02  0.5610E-02  0.3552E-03
    -13.873  0.1058E-02  0.4275E-02  0.5813E-03
    -13.772  0.5804E-03  0.1825E-02  0.3215E-03
    -13.671  0.3864E-04  0.2569E-03  0.2311E-04
    -13.570  0.0000E+00  0.0000E+00  0.0000E+00
    -13.469  0.0000E+00  0.0000E+00  0.0000E+00
    -13.368  0.0000E+00  0.0000E+00  0.0000E+00
    -13.267  0.0000E+00  0.0000E+00  0.0000E+00
    -13.166  0.0000E+00  0.0000E+00  0.0000E+00
    -13.065  0.0000E+00  0.0000E+00  0.0000E+00
    -12.964  0.0000E+00  0.0000E+00  0.0000E+00
    -12.862  0.0000E+00  0.0000E+00  0.0000E+00
    -12.761  0.0000E+00  0.0000E+00  0.0000E+00
    -12.660  0.0000E+00  0.0000E+00  0.0000E+00
    -12.559  0.0000E+00  0.0000E+00  0.0000E+00
    -12.458  0.0000E+00  0.0000E+00  0.0000E+00
    -12.357  0.0000E+00  0.0000E+00  0.0000E+00
    -12.256  0.0000E+00  0.0000E+00  0.0000E+00
    -12.155  0.0000E+00  0.0000E+00  0.0000E+00
    -12.054  0.0000E+00  0.0000E+00  0.0000E+00
    -11.953  0.0000E+00  0.0000E+00  0.0000E+00
    -11.852  0.0000E+00  0.0000E+00  0.0000E+00
    -11.751  0.0000E+00  0.0000E+00  0.0000E+00
    -11.650  0.0000E+00  0.0000E+00  0.0000E+00
    -11.549  0.0000E+00  0.0000E+00  0.0000E+00
    -11.448  0.0000E+00  0.0000E+00  0.0000E+00
    -11.347  0.0000E+00  0.0000E+00  0.0000E+00
    -11.245  0.0000E+00  0.0000E+00  0.0000E+00
    -11.144  0.0000E+00  0.0000E+00  0.0000E+00
    -11.043  0.0000E+00  0.0000E+00  0.0000E+00
    -10.942  0.0000E+00  0.0000E+00  0.0000E+00
    -10.841  0.0000E+00  0.0000E+00  0.0000E+00
    -10.740  0.0000E+00  0.0000E+00  0.0000E+00
    -10.639  0.0000E+00  0.0000E+00  0.0000E+00
    -10.538  0.0000E+00  0.0000E+00  0.0000E+00
    -10.437  0.0000E+00  0.0000E+00  0.0000E+00
    -10.336  0.0000E+00  0.0000E+00  0.0000E+00
    -10.235  0.0000E+00  0.0000E+00  0.0000E+00
    -10.134  0.0000E+00  0.0000E+00  0.0000E+00
    -10.033  0.0000E+00  0.0000E+00  0.0000E+00
     -9.932  0.0000E+00  0.0000E+00  0.0000E+00
     -9.831  0.0000E+00  0.0000E+00  0.0000E+00
     -9.730  0.0000E+00  0.0000E+00  0.0000E+00
     -9.628  0.0000E+00  0.0000E+00  0.0000E+00
     -9.527  0.0000E+00  0.0000E+00  0.0000E+00
     -9.426  0.0000E+00  0.0000E+00  0.0000E+00
     -9.325  0.0000E+00  0.0000E+00  0.0000E+00
     -9.224  0.0000E+00  0.0000E+00  0.0000E+00
     -9.123  0.0000E+00  0.0000E+00  0.0000E+00
     -9.022  0.0000E+00  0.0000E+00  0.0000E+00
     -8.921  0.0000E+00  0.0000E+00  0.0000E+00
     -8.820  0.0000E+00  0.0000E+00  0.0000E+00
     -8.719  0.0000E+00  0.0000E+00  0.0000E+00
     -8.618  0.0000E+00  0.0000E+00  0.0000E+00
     -8.517  0.0000E+00  0.0000E+00  0.0000E+00
     -8.416  0.0000E+00  0.0000E+00  0.0000E+00
     -8.315  0.0000E+00  0.0000E+00  0.0000E+00
     -8.214  0.5424E-07  0.6931E-03  0.9570E-05
     -8.113  0.1236E-14  0.1755E-11  0.1681E-13
     -8.011  0.8246E-06  0.2244E-02  0.1748E-04
     -7.910  0.1544E-05  0.1032E-01  0.2527E-04
     -7.809  0.9065E-06  0.7965E-03  0.7655E-05
     -7.708  0.1502E-04  0.6161E-01  0.7360E-04
     -7.607  0.9496E-05  0.1146E-01  0.3461E-04
     -7.506  0.9215E-05  0.1462E+00  0.4929E-04
     -7.405  0.5402E-04  0.2077E+00  0.5625E-04
     -7.304  0.1480E-04  0.2885E+00  0.2415E-04
     -7.203  0.1325E-03  0.3003E+02  0.1213E-03
     -7.102  0.5541E-04  0.5641E+01  0.9248E-04
     -7.001  0.3164E-04  0.3346E+00  0.3490E-04
     -6.900  0.2278E-04  0.9824E-02  0.2633E-05
     -6.799  0.1145E-04  0.1928E-01  0.1789E-04
     -6.698  0.0000E+00  0.0000E+00  0.0000E+00
     -6.597  0.5046E-05  0.2898E-02  0.1645E-05
     -6.496  0.0000E+00  0.0000E+00  0.0000E+00
     -6.394  0.0000E+00  0.0000E+00  0.0000E+00
     -6.293  0.0000E+00  0.0000E+00  0.0000E+00
     -6.192  0.0000E+00  0.0000E+00  0.0000E+00
     -6.091  0.0000E+00  0.0000E+00  0.0000E+00
     -5.990  0.0000E+00  0.0000E+00  0.0000E+00
     -5.889  0.0000E+00  0.0000E+00  0.0000E+00
     -5.788  0.0000E+00  0.0000E+00  0.0000E+00
     -5.687  0.0000E+00  0.0000E+00  0.0000E+00
     -5.586  0.0000E+00  0.0000E+00  0.0000E+00
     -5.485  0.0000E+00  0.0000E+00  0.0000E+00
     -5.384  0.0000E+00  0.0000E+00  0.0000E+00
     -5.283  0.0000E+00  0.0000E+00  0.0000E+00
     -5.182  0.0000E+00  0.0000E+00  0.0000E+00
     -5.081  0.0000E+00  0.0000E+00  0.0000E+00
     -4.980  0.0000E+00  0.0000E+00  0.0000E+00
     -4.879  0.0000E+00  0.0000E+00  0.0000E+00
     -4.777  0.0000E+00  0.0000E+00  0.0000E+00
     -4.676  0.0000E+00  0.0000E+00  0.0000E+00
     -4.575  0.0000E+00  0.0000E+00  0.0000E+00
     -4.474  0.0000E+00  0.0000E+00  0.0000E+00
     -4.373  0.0000E+00  0.0000E+00  0.0000E+00
     -4.272  0.0000E+00  0.0000E+00  0.0000E+00
     -4.171  0.0000E+00  0.0000E+00  0.0000E+00
     -4.070  0.0000E+00  0.0000E+00  0.0000E+00
     -3.969  0.0000E+00  0.0000E+00  0.0000E+00
     -3.868  0.0000E+00  0.0000E+00  0.0000E+00
     -3.767  0.0000E+00  0.0000E+00  0.0000E+00
     -3.666  0.0000E+00  0.0000E+00  0.0000E+00
     -3.565  0.0000E+00  0.0000E+00  0.0000E+00
     -3.464  0.1375E-15  0.8286E-12  0.5060E-13
     -3.363  0.2066E-05  0.5081E-02  0.4031E-03
     -3.262  0.5325E-03  0.2202E-01  0.1310E-02
     -3.161  0.3512E-03  0.1483E-01  0.1560E-02
     -3.059  0.6653E-04  0.6935E-02  0.9588E-03
     -2.958  0.5993E-03  0.1310E-01  0.9115E-03
     -2.857  0.4601E-03  0.8419E-02  0.5444E-03
     -2.756  0.1740E-09  0.9213E-08  0.2335E-09
     -2.655  0.5395E-03  0.2151E-01  0.1208E-02
     -2.554  0.1194E-02  0.2157E-01  0.1375E-02
     -2.453  0.1741E-02  0.1851E-01  0.1871E-02
     -2.352  0.4277E-02  0.2614E-01  0.2904E-02
     -2.251  0.1503E-02  0.1193E-01  0.2518E-02
     -2.150  0.4733E-02  0.1699E-01  0.2687E-02
     -2.049  0.1286E-01  0.2716E-01  0.2852E-02
     -1.948  0.1185E-01  0.4564E-01  0.3751E-02
     -1.847  0.3421E-02  0.5739E-01  0.3592E-02
     -1.746  0.4098E-02  0.1092E+00  0.7157E-02
     -1.645  0.2157E-02  0.9340E-01  0.1139E-01
     -1.544  0.2132E-02  0.7932E-01  0.1285E-01
     -1.442  0.4090E-02  0.7723E-01  0.2088E-01
     -1.341  0.4184E-02  0.6634E-01  0.1401E-01
     -1.240  0.6191E-02  0.5806E-01  0.1213E-01
     -1.139  0.1488E-02  0.7974E-01  0.1389E-01
     -1.038  0.6225E-03  0.6109E-01  0.9485E-02
     -0.937  0.5107E-03  0.1575E-01  0.5338E-02
     -0.836  0.1132E-02  0.2040E-01  0.3668E-02
     -0.735  0.3524E-03  0.1078E-01  0.1498E-02
     -0.634  0.1293E-03  0.1048E-02  0.1203E-02
     -0.533  0.6720E-04  0.3111E-02  0.4310E-03
     -0.432  0.1890E-03  0.2449E-02  0.6986E-03
     -0.331  0.1848E-04  0.7838E-03  0.7521E-03
     -0.230  0.8454E-05  0.1122E-02  0.3897E-03
     -0.129  0.2355E-04  0.9941E-03  0.3394E-03
     -0.028  0.8396E-06  0.2116E-03  0.5889E-04
      0.073  0.2848E-05  0.6510E-03  0.5980E-03
      0.175  0.0000E+00  0.0000E+00  0.0000E+00
      0.276  0.0000E+00  0.0000E+00  0.0000E+00
      0.377  0.3881E-06  0.1645E-03  0.2146E-03
      0.478  0.0000E+00  0.0000E+00  0.0000E+00
      0.579  0.0000E+00  0.0000E+00  0.0000E+00
      0.680  0.0000E+00  0.0000E+00  0.0000E+00
      0.781  0.0000E+00  0.0000E+00  0.0000E+00
      0.882  0.0000E+00  0.0000E+00  0.0000E+00
      0.983  0.0000E+00  0.0000E+00  0.0000E+00
      1.084  0.0000E+00  0.0000E+00  0.0000E+00
      1.185  0.0000E+00  0.0000E+00  0.0000E+00
      1.286  0.0000E+00  0.0000E+00  0.0000E+00
      1.387  0.0000E+00  0.0000E+00  0.0000E+00
      1.488  0.0000E+00  0.0000E+00  0.0000E+00
      1.589  0.0000E+00  0.0000E+00  0.0000E+00
      1.690  0.0000E+00  0.0000E+00  0.0000E+00
      1.792  0.0000E+00  0.0000E+00  0.0000E+00
      1.893  0.0000E+00  0.0000E+00  0.0000E+00
      1.994  0.0000E+00  0.0000E+00  0.0000E+00
      2.095  0.0000E+00  0.0000E+00  0.0000E+00
      2.196  0.0000E+00  0.0000E+00  0.0000E+00
      2.297  0.0000E+00  0.0000E+00  0.0000E+00
      2.398  0.0000E+00  0.0000E+00  0.0000E+00
      2.499  0.4518E-04  0.7931E-03  0.1167E-02
      2.600  0.3358E-03  0.8385E-03  0.1597E-02
      2.701  0.1666E-03  0.8091E-03  0.6966E-03
      2.802  0.1041E-05  0.3499E-03  0.1075E-02
      2.903  0.7677E-04  0.4732E-03  0.1738E-02
      3.004  0.1563E-03  0.2248E-02  0.5768E-02
      3.105  0.2915E-03  0.9883E-03  0.2339E-02
      3.206  0.1294E-02  0.3971E-02  0.5054E-02
      3.307  0.2992E-03  0.1513E-02  0.1973E-02
      3.409  0.7260E-03  0.3248E-02  0.4672E-02
      3.510  0.3811E-03  0.1534E-02  0.3426E-02
      3.611  0.0000E+00  0.0000E+00  0.0000E+00
      3.712  0.0000E+00  0.0000E+00  0.0000E+00
      3.813  0.0000E+00  0.0000E+00  0.0000E+00
      3.914  0.1122E-12  0.1280E-11  0.9327E-11
      4.015  0.1246E-02  0.1790E-02  0.6323E-02
      4.116  0.1245E-07  0.2958E-05  0.7427E-05
      4.217  0.3710E-03  0.1918E-02  0.1446E-01
      4.318  0.5895E-03  0.2588E-02  0.1217E-01
      4.419  0.1127E-02  0.5401E-02  0.1002E-01
      4.520  0.9906E-03  0.7334E-02  0.1473E-01
      4.621  0.2539E-02  0.8278E-02  0.1148E-01
      4.722  0.3725E-02  0.3812E-02  0.1258E-01
      4.823  0.2848E-02  0.3510E-02  0.5482E-02
      4.924  0.1345E-01  0.3267E-02  0.6502E-02
      5.026  0.1382E-02  0.7145E-03  0.1385E-02
      5.127  0.0000E+00  0.0000E+00  0.0000E+00
      5.228  0.0000E+00  0.0000E+00  0.0000E+00
      5.329  0.8353E-04  0.5255E-04  0.3847E-04
      5.430  0.4560E-03  0.2714E-02  0.5700E-03
      5.531  0.1868E-01  0.2251E-02  0.5699E-02
      5.632  0.2464E-01  0.5661E-02  0.1855E-01
      5.733  0.7625E-02  0.5503E-02  0.3038E-01
      5.834  0.1637E-01  0.5473E-02  0.4584E-01
      5.935  0.1154E-01  0.9062E-02  0.7897E-01
      6.036  0.3771E-01  0.1356E-01  0.8849E-01
      6.137  0.4160E-01  0.2414E-01  0.1449E+00
      6.238  0.4787E-01  0.1523E-01  0.2333E+00
      6.339  0.2038E-01  0.1747E-01  0.4856E+00
      6.440  0.1291E-01  0.2570E-01  0.3099E+00
      6.541  0.1928E-01  0.2809E-01  0.3723E+00
      6.643  0.5042E-02  0.1500E-01  0.1804E+00
      6.744  0.4106E-03  0.1470E-02  0.3814E-01
      6.845  0.0000E+00  0.0000E+00  0.0000E+00
      6.946  0.0000E+00  0.0000E+00  0.0000E+00
      7.047  0.0000E+00  0.0000E+00  0.0000E+00
      7.148  0.0000E+00  0.0000E+00  0.0000E+00
      7.249  0.0000E+00  0.0000E+00  0.0000E+00
      7.350  0.0000E+00  0.0000E+00  0.0000E+00
      7.451  0.0000E+00  0.0000E+00  0.0000E+00
      7.552  0.0000E+00  0.0000E+00  0.0000E+00
      7.653  0.0000E+00  0.0000E+00  0.0000E+00
      7.754  0.0000E+00  0.0000E+00  0.0000E+00
      7.855  0.0000E+00  0.0000E+00  0.0000E+00
      7.956  0.0000E+00  0.0000E+00  0.0000E+00
      8.057  0.0000E+00  0.0000E+00  0.0000E+00
      8.05739504    -22.26124791  301      0.40193770      1.00000000
    -22.261  0.0000E+00  0.0000E+00  0.0000E+00
    -22.160  0.0000E+00  0.0000E+00  0.0000E+00
    -22.059  0.0000E+00  0.0000E+00  0.0000E+00
    -21.958  0.0000E+00  0.0000E+00  0.0000E+00
    -21.857  0.0000E+00  0.0000E+00  0.0000E+00
    -21.756  0.0000E+00  0.0000E+00  0.0000E+00
    -21.655  0.0000E+00  0.0000E+00  0.0000E+00
    -21.554  0.0000E+00  0.0000E+00  0.0000E+00
    -21.453  0.0000E+00  0.0000E+00  0.0000E+00
    -21.352  0.0000E+00  0.0000E+00  0.0000E+00
    -21.251  0.0000E+00  0.0000E+00  0.0000E+00
    -21.150  0.0000E+00  0.0000E+00  0.0000E+00
    -21.049  0.0000E+00  0.0000E+00  0.0000E+00
    -20.947  0.0000E+00  0.0000E+00  0.0000E+00
    -20.846  0.2426E-03  0.5381E-07  0.5410E-08
    -20.745  0.4764E+00  0.2156E-05  0.1992E-06
    -20.644  0.4481E-01  0.2858E-06  0.1441E-07
    -20.543  0.0000E+00  0.0000E+00  0.0000E+00
    -20.442  0.0000E+00  0.0000E+00  0.0000E+00
    -20.341  0.0000E+00  0.0000E+00  0.0000E+00
    -20.240  0.0000E+00  0.0000E+00  0.0000E+00
    -20.139  0.0000E+00  0.0000E+00  0.0000E+00
    -20.038  0.0000E+00  0.0000E+00  0.0000E+00
    -19.937  0.0000E+00  0.0000E+00  0.0000E+00
    -19.836  0.0000E+00  0.0000E+00  0.0000E+00
    -19.735  0.0000E+00  0.0000E+00  0.0000E+00
    -19.634  0.0000E+00  0.0000E+00  0.0000E+00
    -19.533  0.0000E+00  0.0000E+00  0.0000E+00
    -19.432  0.0000E+00  0.0000E+00  0.0000E+00
    -19.330  0.0000E+00  0.0000E+00  0.0000E+00
    -19.229  0.0000E+00  0.0000E+00  0.0000E+00
    -19.128  0.0000E+00  0.0000E+00  0.0000E+00
    -19.027  0.0000E+00  0.0000E+00  0.0000E+00
    -18.926  0.0000E+00  0.0000E+00  0.0000E+00
    -18.825  0.0000E+00  0.0000E+00  0.0000E+00
    -18.724  0.0000E+00  0.0000E+00  0.0000E+00
    -18.623  0.0000E+00  0.0000E+00  0.0000E+00
    -18.522  0.0000E+00  0.0000E+00  0.0000E+00
    -18.421  0.0000E+00  0.0000E+00  0.0000E+00
    -18.320  0.0000E+00  0.0000E+00  0.0000E+00
    -18.219  0.0000E+00  0.0000E+00  0.0000E+00
    -18.118  0.0000E+00  0.0000E+00  0.0000E+00
    -18.017  0.0000E+00  0.0000E+00  0.0000E+00
    -17.916  0.0000E+00  0.0000E+00  0.0000E+00
    -17.815  0.0000E+00  0.0000E+00  0.0000E+00
    -17.713  0.0000E+00  0.0000E+00  0.0000E+00
    -17.612  0.0000E+00  0.0000E+00  0.0000E+00
    -17.511  0.0000E+00  0.0000E+00  0.0000E+00
    -17.410  0.0000E+00  0.0000E+00  0.0000E+00
    -17.309  0.0000E+00  0.0000E+00  0.0000E+00
    -17.208  0.0000E+00  0.0000E+00  0.0000E+00
    -17.107  0.0000E+00  0.0000E+00  0.0000E+00
    -17.006  0.0000E+00  0.0000E+00  0.0000E+00
    -16.905  0.0000E+00  0.0000E+00  0.0000E+00
    -16.804  0.3932E-18  0.2048E-18  0.4168E-19
    -16.703  0.3546E-04  0.1435E-04  0.2658E-05
    -16.602  0.2362E-04  0.1968E-04  0.3182E-05
    -16.501  0.1378E-04  0.6889E-05  0.9628E-06
    -16.400  0.8569E-04  0.8993E-04  0.1840E-04
    -16.299  0.3862E-04  0.2148E-04  0.2452E-05
    -16.198  0.0000E+00  0.0000E+00  0.0000E+00
    -16.096  0.0000E+00  0.0000E+00  0.0000E+00
    -15.995  0.0000E+00  0.0000E+00  0.0000E+00
    -15.894  0.0000E+00  0.0000E+00  0.0000E+00
    -15.793  0.0000E+00  0.0000E+00  0.0000E+00
    -15.692  0.0000E+00  0.0000E+00  0.0000E+00
    -15.591  0.0000E+00  0.0000E+00  0.0000E+00
    -15.490  0.0000E+00  0.0000E+00  0.0000E+00
    -15.389  0.0000E+00  0.0000E+00  0.0000E+00
    -15.288  0.0000E+00  0.0000E+00  0.0000E+00
    -15.187  0.0000E+00  0.0000E+00  0.0000E+00
    -15.086  0.0000E+00  0.0000E+00  0.0000E+00
    -14.985  0.0000E+00  0.0000E+00  0.0000E+00
    -14.884  0.0000E+00  0.0000E+00  0.0000E+00
    -14.783  0.0000E+00  0.0000E+00  0.0000E+00
    -14.682  0.0000E+00  0.0000E+00  0.0000E+00
    -14.581  0.0000E+00  0.0000E+00  0.0000E+00
    -14.479  0.1963E-02  0.7603E-03  0.3186E-04
    -14.378  0.3115E-03  0.1246E-02  0.8746E-04
    -14.277  0.2707E-02  0.2485E-02  0.5564E-04
    -14.176  0.1480E-02  0.2244E-02  0.9031E-04
    -14.075  0.5666E-03  0.3815E-02  0.2433E-03
    -13.974  0.1422E-02  0.2929E-02  0.2487E-03
    -13.873  0.1130E-02  0.3924E-02  0.4545E-03
    -13.772  0.8943E-03  0.2450E-02  0.3288E-03
    -13.671  0.1997E-03  0.3369E-03  0.3242E-04
    -13.570  0.0000E+00  0.0000E+00  0.0000E+00
    -13.469  0.0000E+00  0.0000E+00  0.0000E+00
    -13.368  0.0000E+00  0.0000E+00  0.0000E+00
    -13.267  0.0000E+00  0.0000E+00  0.0000E+00