       N       E                     dE             d eps       ncg     rms          rms(c)
DAV:   1     0.133675234504E+04    0.13368E+04   -0.11055E+05  3480   0.973E+02
DAV:   2    -0.111069806009E+04   -0.24475E+04   -0.23593E+04  4088   0.300E+02
DAV:   3    -0.147481680498E+04   -0.36412E+03   -0.36214E+03  4440   0.138E+02
DAV:   4    -0.148696681094E+04   -0.12150E+02   -0.12117E+02  3928   0.331E+01
DAV:   5    -0.148753563721E+04   -0.56883E+00   -0.56859E+00  4408   0.557E+00    0.101E+01
DAV:   6    -0.140977425057E+04    0.77761E+02   -0.23747E+01  4304   0.316E+01    0.717E+00
DAV:   7    -0.140925653451E+04    0.51772E+00   -0.87024E+00  4112   0.569E+00    0.373E+00
DAV:   8    -0.140943253692E+04   -0.17600E+00   -0.45722E-01  3936   0.207E+00    0.217E+00
DAV:   9    -0.140950009908E+04   -0.67562E-01   -0.18264E-01  3752   0.136E+00    0.458E-01
DAV:  10    -0.140950399792E+04   -0.38988E-02   -0.24488E-02  4344   0.444E-01    0.330E-01
DAV:  11    -0.140950612826E+04   -0.21303E-02   -0.29615E-03  3680   0.157E-01    0.157E-01
DAV:  12    -0.140950925126E+04   -0.31230E-02   -0.56203E-03  3632   0.195E-01    0.106E-01
DAV:  13    -0.140950893027E+04    0.32099E-03   -0.15314E-03  4456   0.111E-01    0.507E-02
DAV:  14    -0.140950889072E+04    0.39550E-04   -0.44078E-04  3888   0.401E-02    0.261E-02
DAV:  15    -0.140950888062E+04    0.10103E-04   -0.33090E-05  4032   0.161E-02    0.146E-02
DAV:  16    -0.140950893142E+04   -0.50804E-04   -0.34806E-05  3744   0.167E-02    0.627E-03
DAV:  17    -0.140950894152E+04   -0.10098E-04   -0.10125E-05  4088   0.854E-03    0.396E-03
DAV:  18    -0.140950893398E+04    0.75436E-05   -0.21331E-06  2824   0.324E-03    0.173E-03
DAV:  19    -0.140950892910E+04    0.48762E-05   -0.26133E-07  2168   0.176E-03    0.966E-04
DAV:  20    -0.140950892669E+04    0.24150E-05   -0.10700E-07  2024   0.118E-03    0.702E-04
DAV:  21    -0.140950892746E+04   -0.77853E-06   -0.40254E-08  1968   0.799E-04
   1 F= -.14095089E+04 E0= -.14095089E+04  d E =-.712946E-14
