<?xml version="1.0" encoding="ISO-8859-1"?>
<modeling>
 <generator>
  <i name="program" type="string">vasp </i>
  <i name="version" type="string">5.4.4.18Apr17-6-g9f103f2a35  </i>
  <i name="subversion" type="string">(build Jun 22 2020 09:27:21) complex            parallel </i>
  <i name="platform" type="string">tx2_gcc-7.3_libsci-18.07_cray-fftw-3.3.8 </i>
  <i name="date" type="string">2021 10 12 </i>
  <i name="time" type="string">01:42:05 </i>
 </generator>
 <incar>
  <i type="string" name="SYSTEM"> CsPbBr3 cubic bulk</i>
  <i type="string" name="PREC">accurate</i>
  <i type="string" name="ALGO"> NORMAL   ! Electronic minimisation algo</i>
  <i type="logical" name="ADDGRID"> T  </i>
  <i type="int" name="ISPIN">     1</i>
  <i type="int" name="NELM">   200</i>
  <i type="int" name="IBRION">     2</i>
  <i name="EDIFF">      0.00000100</i>
  <i name="EDIFFG">     -0.01000000</i>
  <i type="int" name="NSW">     0</i>
  <i type="int" name="ISIF">     2</i>
  <i type="int" name="ISYM">     0</i>
  <i name="ENCUT">    300.00000000</i>
  <i name="POTIM">      0.50000000</i>
  <i name="NUPDOWN">      0.00000000</i>
  <i name="NELECT">    344.00000000</i>
  <i type="string" name="LREAL"> AUTO</i>
  <i type="int" name="ISMEAR">     0</i>
  <i name="SIGMA">      0.01000000</i>
  <i type="logical" name="LWAVE"> F  </i>
  <i type="logical" name="LCHARG"> F  </i>
  <i type="logical" name="LVHAR"> T  </i>
  <i type="int" name="LORBIT">    10</i>
  <i type="logical" name="LASPH"> T  </i>
  <v type="int" name="KPOINT_BSE">    -1     0     0     0</v>
  <i type="int" name="NELM">   200</i>
  <i type="string" name="METAGGA"> SCAN       ! PBE exchange-correlation</i>
  <i type="logical" name="LASPH"> T  </i>
 </incar>
 <structure name="primitive_cell" >
  <crystal>
   <varray name="basis" >
    <v>       8.45648900       0.00000000       8.04030100 </v>
    <v>       0.00000000      11.72984700       0.00000000 </v>
    <v>      -8.45648900       0.00000000       8.04030100 </v>
   </varray>
   <i name="volume">   1595.08833419 </i>
   <varray name="rec_basis" >
    <v>       0.05912619      -0.00000000       0.06218673 </v>
    <v>       0.00000000       0.08525260      -0.00000000 </v>
    <v>      -0.05912619       0.00000000       0.06218673 </v>
   </varray>
  </crystal>
  <varray name="positions" >
   <v>       0.24863700       0.23577500       0.19309900 </v>
   <v>       0.03433800       0.02145400       0.25516100 </v>
   <v>       0.05056800       0.47075300       0.25842900 </v>
   <v>      -0.48360500       0.25583400       0.03328400 </v>
   <v>       0.43348200      -0.02278100       0.23467900 </v>
   <v>       0.45627100       0.23995900       0.45161600 </v>
   <v>       0.24195700       0.02942700      -0.06330900 </v>
   <v>       0.24813100       0.47113600      -0.04421900 </v>
   <v>      -0.03230200       0.24963800      -0.02077700 </v>
   <v>      -0.00216600       0.00057700      -0.00264800 </v>
   <v>       0.49290500       0.00146200      -0.00763100 </v>
   <v>      -0.00017900       0.49783800       0.00118700 </v>
   <v>       0.03979300       0.24637200      -0.45012100 </v>
   <v>      -0.49883300      -0.49268100       0.00413700 </v>
   <v>       0.49967400       0.00160400       0.48477500 </v>
   <v>       0.25586800      -0.04129300      -0.45223100 </v>
   <v>       0.30091700       0.25173800      -0.26705100 </v>
   <v>       0.26127600      -0.46888200      -0.44548200 </v>
   <v>      -0.21577300       0.24480700       0.22716900 </v>
   <v>       0.00604900       0.00029200      -0.49336600 </v>
   <v>      -0.49240900       0.48669000      -0.49158500 </v>
   <v>       0.00695000       0.49258100      -0.49321700 </v>
   <v>       0.21483500      -0.24579200       0.28762000 </v>
   <v>      -0.49603700      -0.33283100       0.35057400 </v>
   <v>       0.01577100      -0.25042000       0.03138200 </v>
   <v>      -0.25340000      -0.02109700       0.03803100 </v>
   <v>      -0.44636800       0.47769900      -0.23063000 </v>
   <v>      -0.25247100       0.02871400       0.44908400 </v>
   <v>      -0.24951400      -0.47137900       0.05762400 </v>
   <v>       0.46465800      -0.24740900      -0.04948400 </v>
   <v>      -0.05787000      -0.03067000      -0.24945600 </v>
   <v>      -0.45336800       0.03267800      -0.26229300 </v>
   <v>      -0.05569800      -0.47217100      -0.24635100 </v>
   <v>      -0.24710500       0.45049700       0.46043300 </v>
   <v>      -0.01731000      -0.25361400       0.49360500 </v>
   <v>       0.19268700      -0.25180500      -0.22861300 </v>
   <v>      -0.22389300       0.24494500      -0.28100700 </v>
   <v>      -0.22276800      -0.23537100       0.25754400 </v>
   <v>      -0.26371700      -0.24863500      -0.19383500 </v>
  </varray>
 </structure>
 <varray name="primitive_index" >
  <v type="int" >        1 </v>
  <v type="int" >       28 </v>
  <v type="int" >       38 </v>
  <v type="int" >       22 </v>
  <v type="int" >       33 </v>
  <v type="int" >       20 </v>
  <v type="int" >       31 </v>
  <v type="int" >       24 </v>
  <v type="int" >       19 </v>
  <v type="int" >        9 </v>
  <v type="int" >       11 </v>
  <v type="int" >       15 </v>
  <v type="int" >       23 </v>
  <v type="int" >       13 </v>
  <v type="int" >       10 </v>
  <v type="int" >       30 </v>
  <v type="int" >        5 </v>
  <v type="int" >       36 </v>
  <v type="int" >        6 </v>
  <v type="int" >       12 </v>
  <v type="int" >       16 </v>
  <v type="int" >       14 </v>
  <v type="int" >        8 </v>
  <v type="int" >       39 </v>
  <v type="int" >       21 </v>
  <v type="int" >       29 </v>
  <v type="int" >       37 </v>
  <v type="int" >       32 </v>
  <v type="int" >       35 </v>
  <v type="int" >       17 </v>
  <v type="int" >       34 </v>
  <v type="int" >       27 </v>
  <v type="int" >       26 </v>
  <v type="int" >       25 </v>
  <v type="int" >       18 </v>
  <v type="int" >        4 </v>
  <v type="int" >        2 </v>
  <v type="int" >        3 </v>
  <v type="int" >        7 </v>
 </varray>
 <kpoints>
  <generation param="Gamma">
   <v type="int" name="divisions">       2        2        2 </v>
   <v name="usershift">      0.00000000       0.00000000       0.00000000 </v>
   <v name="genvec1">      0.50000000       0.00000000       0.00000000 </v>
   <v name="genvec2">      0.00000000       0.50000000       0.00000000 </v>
   <v name="genvec3">      0.00000000       0.00000000       0.50000000 </v>
   <v name="shift">      0.00000000       0.00000000       0.00000000 </v>
  </generation>
  <varray name="kpointlist" >
   <v>       0.00000000       0.00000000       0.00000000 </v>
   <v>       0.50000000       0.00000000       0.00000000 </v>
   <v>       0.00000000       0.50000000       0.00000000 </v>
   <v>       0.50000000       0.50000000       0.00000000 </v>
   <v>       0.00000000       0.00000000       0.50000000 </v>
   <v>       0.50000000       0.00000000       0.50000000 </v>
   <v>       0.00000000       0.50000000       0.50000000 </v>
   <v>       0.50000000       0.50000000       0.50000000 </v>
  </varray>
  <varray name="weights" >
   <v>       0.12500000 </v>
   <v>       0.12500000 </v>
   <v>       0.12500000 </v>
   <v>       0.12500000 </v>
   <v>       0.12500000 </v>
   <v>       0.12500000 </v>
   <v>       0.12500000 </v>
   <v>       0.12500000 </v>
  </varray>
 </kpoints>
 <parameters>
  <separator name="general" >
   <i type="string" name="SYSTEM">CsPbBr3 cubic bulk</i>
   <i type="logical" name="LCOMPAT"> F  </i>
  </separator>
  <separator name="electronic" >
   <i type="string" name="PREC">accura</i>
   <i name="ENMAX">    300.00000000</i>
   <i name="ENAUG">    503.85200000</i>
   <i name="EDIFF">      0.00000100</i>
   <i type="int" name="IALGO">    38</i>
   <i type="int" name="IWAVPR">    10</i>
   <i type="int" name="NBANDS">   208</i>
   <i name="NELECT">    344.00000000</i>
   <i type="int" name="TURBO">     0</i>
   <i type="int" name="IRESTART">     0</i>
   <i type="int" name="NREBOOT">     0</i>
   <i type="int" name="NMIN">     0</i>
   <i name="EREF">      0.00000000</i>
   <separator name="electronic smearing" >
    <i type="int" name="ISMEAR">     0</i>
    <i name="SIGMA">      0.01000000</i>
    <i name="KSPACING">      0.50000000</i>
    <i type="logical" name="KGAMMA"> T  </i>
   </separator>
   <separator name="electronic projectors" >
    <i type="logical" name="LREAL"> T  </i>
    <v name="ROPT">     -0.00025000     -0.00025000     -0.00025000</v>
    <i type="int" name="LMAXPAW">  -100</i>
    <i type="int" name="LMAXMIX">     2</i>
    <i type="logical" name="NLSPLINE"> F  </i>
   </separator>
   <separator name="electronic startup" >
    <i type="int" name="ISTART">     0</i>
    <i type="int" name="ICHARG">     2</i>
    <i type="int" name="INIWAV">     1</i>
   </separator>
   <separator name="electronic spin" >
    <i type="int" name="ISPIN">     1</i>
    <i type="logical" name="LNONCOLLINEAR"> F  </i>
    <v name="MAGMOM">      0.00000000      0.00000000      0.00000000      0.00000000      0.00000000      0.00000000      0.00000000      0.00000000      0.00000000      0.00000000      0.00000000      0.00000000      0.00000000      0.00000000      0.00000000      0.00000000      0.00000000      0.00000000      0.00000000      0.00000000
      0.00000000      0.00000000      0.00000000      0.00000000      0.00000000      0.00000000      0.00000000      0.00000000      0.00000000      0.00000000      0.00000000      0.00000000      0.00000000      0.00000000      0.00000000      0.00000000      0.00000000      0.00000000      0.00000000</v>
    <i name="NUPDOWN">      0.00000000</i>
    <i type="logical" name="LSORBIT"> F  </i>
    <v name="SAXIS">      0.00000000      0.00000000      1.00000000</v>
    <i type="logical" name="LSPIRAL"> F  </i>
    <v name="QSPIRAL">      0.00000000      0.00000000      0.00000000</v>
    <i type="logical" name="LZEROZ"> F  </i>
   </separator>
   <separator name="electronic exchange-correlation" >
    <i type="logical" name="LASPH"> T  </i>
    <i type="logical" name="LMETAGGA"> F  </i>
   </separator>
   <separator name="electronic convergence" >
    <i type="int" name="NELM">   200</i>
    <i type="int" name="NELMDL">    -5</i>
    <i type="int" name="NELMIN">     2</i>
    <i name="ENINI">    300.00000000</i>
    <separator name="electronic convergence detail" >
     <i type="logical" name="LDIAG"> T  </i>
     <i type="logical" name="LSUBROT"> F  </i>
     <i name="WEIMIN">      0.00000000</i>
     <i name="EBREAK">      0.00000000</i>
     <i name="DEPER">      0.30000000</i>
     <i type="int" name="NRMM">     4</i>
     <i name="TIME">      0.40000000</i>
    </separator>
   </separator>
   <separator name="electronic mixer" >
    <i name="AMIX">      0.40000000</i>
    <i name="BMIX">      1.00000000</i>
    <i name="AMIN">      0.10000000</i>
    <i name="AMIX_MAG">      1.60000000</i>
    <i name="BMIX_MAG">      1.00000000</i>
    <separator name="electronic mixer details" >
     <i type="int" name="IMIX">     4</i>
     <i type="logical" name="MIXFIRST"> F  </i>
     <i type="int" name="MAXMIX">   -45</i>
     <i name="WC">    100.00000000</i>
     <i type="int" name="INIMIX">     1</i>
     <i type="int" name="MIXPRE">     1</i>
     <i type="int" name="MREMOVE">     5</i>
    </separator>
   </separator>
   <separator name="electronic dipolcorrection" >
    <i type="logical" name="LDIPOL"> F  </i>
    <i type="logical" name="LMONO"> F  </i>
    <i type="int" name="IDIPOL">     0</i>
    <i name="EPSILON">      1.00000000</i>
    <v name="DIPOL">   -100.00000000   -100.00000000   -100.00000000</v>
    <i name="EFIELD">      0.00000000</i>
   </separator>
  </separator>
  <separator name="grids" >
   <i type="int" name="NGX">    70</i>
   <i type="int" name="NGY">    70</i>
   <i type="int" name="NGZ">    70</i>
   <i type="int" name="NGXF">   140</i>
   <i type="int" name="NGYF">   140</i>
   <i type="int" name="NGZF">   140</i>
   <i type="logical" name="ADDGRID"> T  </i>
  </separator>
  <separator name="ionic" >
   <i type="int" name="NSW">     0</i>
   <i type="int" name="IBRION">    -1</i>
   <i type="int" name="MDALGO">     0</i>
   <i type="int" name="ISIF">     2</i>
   <i name="PSTRESS">      0.00000000</i>
   <i name="EDIFFG">     -0.01000000</i>
   <i type="int" name="NFREE">     1</i>
   <i name="POTIM">      0.50000000</i>
   <i name="SMASS">     -3.00000000</i>
   <i name="SCALEE">      1.00000000</i>
  </separator>
  <separator name="ionic md" >
   <i name="TEBEG">      0.00010000</i>
   <i name="TEEND">      0.00010000</i>
   <i type="int" name="NBLOCK">     1</i>
   <i type="int" name="KBLOCK">     1</i>
   <i type="int" name="NPACO">   256</i>
   <i name="APACO">     16.00000000</i>
  </separator>
  <separator name="symmetry" >
   <i type="int" name="ISYM">     0</i>
   <i name="SYMPREC">      0.00001000</i>
  </separator>
  <separator name="dos" >
   <i type="int" name="LORBIT">    10</i>
   <v name="RWIGS">     -1.00000000     -1.00000000     -1.00000000</v>
   <i type="int" name="NEDOS">   301</i>
   <i name="EMIN">     10.00000000</i>
   <i name="EMAX">    -10.00000000</i>
   <i name="EFERMI">      0.00000000</i>
  </separator>
  <separator name="writing" >
   <i type="int" name="NWRITE">     2</i>
   <i type="logical" name="LWAVE"> F  </i>
   <i type="logical" name="LDOWNSAMPLE"> F  </i>
   <i type="logical" name="LCHARG"> F  </i>
   <i type="logical" name="LPARD"> F  </i>
   <i type="logical" name="LVTOT"> F  </i>
   <i type="logical" name="LVHAR"> T  </i>
   <i type="logical" name="LELF"> F  </i>
   <i type="logical" name="LOPTICS"> F  </i>
   <v name="STM">      0.00000000      0.00000000      0.00000000      0.00000000      0.00000000      0.00000000      0.00000000</v>
  </separator>
  <separator name="performance" >
   <i type="int" name="NPAR">     8</i>
   <i type="int" name="NSIM">     4</i>
   <i type="int" name="NBLK">    -1</i>
   <i type="logical" name="LPLANE"> T  </i>
   <i type="logical" name="LSCALAPACK"> T  </i>
   <i type="logical" name="LSCAAWARE"> F  </i>
   <i type="logical" name="LSCALU"> F  </i>
   <i type="logical" name="LASYNC"> F  </i>
   <i type="logical" name="LORBITALREAL"> F  </i>
  </separator>
  <separator name="miscellaneous" >
   <i type="int" name="IDIOT">     3</i>
   <i type="int" name="ISPECIAL">     0</i>
   <i type="logical" name="LMUSIC"> F  </i>
   <v name="POMASS">    132.90000000    207.20000000     79.90400000</v>
   <v name="DARWINR">      0.00000000      0.00000000      0.00000000</v>
   <v name="DARWINV">      1.00000000      1.00000000      1.00000000</v>
   <i type="logical" name="LCORR"> T  </i>
  </separator>
  <i type="logical" name="GGA_COMPAT"> T  </i>
  <i type="logical" name="LBERRY"> F  </i>
  <i type="int" name="ICORELEVEL">     0</i>
  <i type="logical" name="LDAU"> F  </i>
  <i type="int" name="I_CONSTRAINED_M">     0</i>
  <separator name="electronic exchange-correlation" >
   <i type="string" name="GGA">--</i>
   <i type="int" name="VOSKOWN">     0</i>
   <i type="logical" name="LHFCALC"> F  </i>
   <i type="string" name="PRECFOCK"></i>
   <i type="logical" name="LSYMGRAD"> F  </i>
   <i type="logical" name="LHFONE"> F  </i>
   <i type="logical" name="LRHFCALC"> F  </i>
   <i type="logical" name="LTHOMAS"> F  </i>
   <i type="logical" name="LMODELHF"> F  </i>
   <i name="ENCUT4O">     -1.00000000</i>
   <i type="int" name="EXXOEP">     0</i>
   <i type="int" name="FOURORBIT">     0</i>
   <i name="AEXX">      0.00000000</i>
   <i name="HFALPHA">      0.00000000</i>
   <i name="MCALPHA">      0.00000000</i>
   <i name="ALDAX">      1.00000000</i>
   <i name="AGGAX">      1.00000000</i>
   <i name="ALDAC">      1.00000000</i>
   <i name="AGGAC">      1.00000000</i>
   <i type="int" name="NKREDX">     1</i>
   <i type="int" name="NKREDY">     1</i>
   <i type="int" name="NKREDZ">     1</i>
   <i type="logical" name="SHIFTRED"> F  </i>
   <i type="logical" name="ODDONLY"> F  </i>
   <i type="logical" name="EVENONLY"> F  </i>
   <i type="int" name="LMAXFOCK">     0</i>
   <i type="int" name="NMAXFOCKAE">     0</i>
   <i type="logical" name="LFOCKAEDFT"> F  </i>
   <i name="HFSCREEN">      0.00000000</i>
   <i name="HFSCREENC">      0.00000000</i>
   <i type="int" name="NBANDSGWLOW">     0</i>
  </separator>
  <separator name="vdW DFT" >
   <i type="logical" name="LUSE_VDW"> F  </i>
   <i name="Zab_VDW">     -0.84910000</i>
   <i name="PARAM1">      0.12340000</i>
   <i name="PARAM2">      1.00000000</i>
   <i name="PARAM3">      0.00000000</i>
  </separator>
  <separator name="model GW" >
   <i type="int" name="MODEL_GW">     0</i>
   <i name="MODEL_EPS0">     24.53982053</i>
   <i name="MODEL_ALPHA">      1.00000000</i>
  </separator>
  <separator name="linear response parameters" >
   <i type="logical" name="LEPSILON"> F  </i>
   <i type="logical" name="LRPA"> F  </i>
   <i type="logical" name="LNABLA"> F  </i>
   <i type="logical" name="LVEL"> F  </i>
   <i type="int" name="KINTER">     0</i>
   <i name="CSHIFT">      0.10000000</i>
   <i name="OMEGAMAX">     -1.00000000</i>
   <i name="DEG_THRESHOLD">      0.00200000</i>
   <i name="RTIME">     -0.10000000</i>
   <i name="WPLASMAI">      0.00000000</i>
   <v name="DFIELD">      0.00000000      0.00000000      0.00000000</v>
   <v name="WPLASMA">      0.00000000      0.00000000      0.00000000      0.00000000      0.00000000      0.00000000      0.00000000      0.00000000      0.00000000</v>
  </separator>
  <separator name="orbital magnetization" >
   <i type="logical" name="NUCIND"> F  </i>
   <v name="MAGPOS">      0.00000000      0.00000000      0.00000000</v>
   <i type="logical" name="LNICSALL"> T  </i>
   <i type="logical" name="ORBITALMAG"> F  </i>
   <i type="logical" name="LMAGBLOCH"> F  </i>
   <i type="logical" name="LCHIMAG"> F  </i>
   <i type="logical" name="LGAUGE"> T  </i>
   <i type="int" name="MAGATOM">     0</i>
   <v name="MAGDIPOL">      0.00000000      0.00000000      0.00000000</v>
   <v name="AVECCONST">      0.00000000      0.00000000      0.00000000</v>
  </separator>
  <separator name="response functions" >
   <i type="logical" name="LADDER"> F  </i>
   <i type="logical" name="LRPAFORCE"> F  </i>
   <i type="logical" name="LFXC"> F  </i>
   <i type="logical" name="LHARTREE"> T  </i>
   <i type="int" name="IBSE">     0</i>
   <v type="int" name="KPOINT">    -1     0     0     0</v>
   <i type="logical" name="LTCTE"> F  </i>
   <i type="logical" name="LTETE"> F  </i>
   <i type="logical" name="LTRIPLET"> F  </i>
   <i type="logical" name="LFXCEPS"> F  </i>
   <i type="logical" name="LFXHEG"> F  </i>
   <i type="int" name="NATURALO">     2</i>
   <i type="logical" name="L2ORDER"> F  </i>
   <i type="logical" name="LMP2LT"> F  </i>
   <i type="logical" name="LUSEW"> F  </i>
   <i name="ENCUTGW">     -2.00000000</i>
   <i name="ENCUTGWSOFT">     -2.00000000</i>
   <i name="ENCUTLF">     -1.00000000</i>
   <i type="int" name="LMAXMP2">    -1</i>
   <i name="SCISSOR">      0.00000000</i>
   <i type="int" name="NOMEGA">     0</i>
   <i type="int" name="NOMEGAR">     0</i>
   <i type="int" name="NBANDSGW">    -1</i>
   <i type="int" name="NBANDSO">    -1</i>
   <i type="int" name="NBANDSV">    -1</i>
   <i type="int" name="NELM">   200</i>
   <i type="int" name="NELMHF">     1</i>
   <i type="int" name="DIM">     3</i>
   <i type="int" name="ANTIRES">     0</i>
   <i name="OMEGAMAX">    -30.00000000</i>
   <i name="OMEGAMIN">    -30.00000000</i>
   <i name="OMEGATL">   -200.00000000</i>
   <i type="int" name="OMEGAGRID">   140</i>
   <i name="CSHIFT">     -0.10000000</i>
   <i type="logical" name="SELFENERGY"> F  </i>
   <i type="logical" name="LSPECTRAL"> F  </i>
   <i type="logical" name="LSPECTRALGW"> F  </i>
   <i type="logical" name="LSINGLES"> F  </i>
   <i type="logical" name="LFERMIGW"> F  </i>
   <i type="logical" name="ODDONLYGW"> F  </i>
   <i type="logical" name="EVENONLYGW"> F  </i>
   <i type="int" name="NKREDLFX">     1</i>
   <i type="int" name="NKREDLFY">     1</i>
   <i type="int" name="NKREDLFZ">     1</i>
   <i type="int" name="MAXMEM">  2800</i>
   <i type="int" name="TELESCOPE">     0</i>
   <i type="int" name="TAUPAR">     1</i>
   <i type="int" name="OMEGAPAR">    -1</i>
   <i name="LAMBDA">      1.00000000</i>
  </separator>
  <separator name="External order field" >
   <i name="OFIELD_KAPPA">      0.00000000</i>
   <v name="OFIELD_K">      0.00000000      0.00000000      0.00000000</v>
   <i name="OFIELD_Q6_NEAR">      0.00000000</i>
   <i name="OFIELD_Q6_FAR">      0.00000000</i>
   <i name="OFIELD_A">      0.00000000</i>
  </separator>
 </parameters>
 <atominfo>
  <atoms>      39 </atoms>
  <types>       3 </types>
  <array name="atoms" >
   <dimension dim="1">ion</dimension>
   <field type="string">element</field>
   <field type="int">atomtype</field>
   <set>
    <rc><c>Cs</c><c>   1</c></rc>
    <rc><c>Cs</c><c>   1</c></rc>
    <rc><c>Cs</c><c>   1</c></rc>
    <rc><c>Cs</c><c>   1</c></rc>
    <rc><c>Cs</c><c>   1</c></rc>
    <rc><c>Cs</c><c>   1</c></rc>
    <rc><c>Cs</c><c>   1</c></rc>
    <rc><c>Cs</c><c>   1</c></rc>
    <rc><c>Pb</c><c>   2</c></rc>
    <rc><c>Pb</c><c>   2</c></rc>
    <rc><c>Pb</c><c>   2</c></rc>
    <rc><c>Pb</c><c>   2</c></rc>
    <rc><c>Pb</c><c>   2</c></rc>
    <rc><c>Pb</c><c>   2</c></rc>
    <rc><c>Pb</c><c>   2</c></rc>
    <rc><c>Pb</c><c>   2</c></rc>
    <rc><c>Br</c><c>   3</c></rc>
    <rc><c>Br</c><c>   3</c></rc>
    <rc><c>Br</c><c>   3</c></rc>
    <rc><c>Br</c><c>   3</c></rc>
    <rc><c>Br</c><c>   3</c></rc>
    <rc><c>Br</c><c>   3</c></rc>
    <rc><c>Br</c><c>   3</c></rc>
    <rc><c>Br</c><c>   3</c></rc>
    <rc><c>Br</c><c>   3</c></rc>
    <rc><c>Br</c><c>   3</c></rc>
    <rc><c>Br</c><c>   3</c></rc>
    <rc><c>Br</c><c>   3</c></rc>
    <rc><c>Br</c><c>   3</c></rc>
    <rc><c>Br</c><c>   3</c></rc>
    <rc><c>Br</c><c>   3</c></rc>
    <rc><c>Br</c><c>   3</c></rc>
    <rc><c>Br</c><c>   3</c></rc>
    <rc><c>Br</c><c>   3</c></rc>
    <rc><c>Br</c><c>   3</c></rc>
    <rc><c>Br</c><c>   3</c></rc>
    <rc><c>Br</c><c>   3</c></rc>
    <rc><c>Br</c><c>   3</c></rc>
    <rc><c>Br</c><c>   3</c></rc>
   </set>
  </array>
  <array name="atomtypes" >
   <dimension dim="1">type</dimension>
   <field type="int">atomspertype</field>
   <field type="string">element</field>
   <field>mass</field>
   <field>valence</field>
   <field type="string">pseudopotential</field>
   <set>
    <rc><c>   8</c><c>Cs</c><c>    132.90000000</c><c>      9.00000000</c><c>  PAW_PBE Cs_sv 08Apr2002               </c></rc>
    <rc><c>   8</c><c>Pb</c><c>    207.20000000</c><c>     14.00000000</c><c>  PAW_PBE Pb_d 06Sep2000                </c></rc>
    <rc><c>  23</c><c>Br</c><c>     79.90400000</c><c>      7.00000000</c><c>  PAW_PBE Br 06Sep2000                  </c></rc>
   </set>
  </array>
 </atominfo>
 <structure name="initialpos" >
  <crystal>
   <varray name="basis" >
    <v>       8.45648900       0.00000000       8.04030100 </v>
    <v>       0.00000000      11.72984700       0.00000000 </v>
    <v>      -8.45648900       0.00000000       8.04030100 </v>
   </varray>
   <i name="volume">   1595.08833419 </i>
   <varray name="rec_basis" >
    <v>       0.05912619      -0.00000000       0.06218673 </v>
    <v>       0.00000000       0.08525260      -0.00000000 </v>
    <v>      -0.05912619       0.00000000       0.06218673 </v>
   </varray>
  </crystal>
  <varray name="positions" >
   <v>       0.24863700       0.23577500       0.19309900 </v>
   <v>       0.77610700       0.24494500       0.71899300 </v>
   <v>       0.77723200       0.76462900       0.25754400 </v>
   <v>       0.19268700       0.74819500       0.77138700 </v>
   <v>       0.30091700       0.25173800       0.73294900 </v>
   <v>       0.78422700       0.24480700       0.22716900 </v>
   <v>       0.73628300       0.75136500       0.80616500 </v>
   <v>       0.21483500       0.75420800       0.28762000 </v>
   <v>       0.99783400       0.00057700       0.99735200 </v>
   <v>       0.49967400       0.00160400       0.48477500 </v>
   <v>       0.49290500       0.00146200       0.99236900 </v>
   <v>       0.00604900       0.00029200       0.50663400 </v>
   <v>       0.50116700       0.50731900       0.00413700 </v>
   <v>       0.00695000       0.49258100       0.50678300 </v>
   <v>       0.99982100       0.49783800       0.00118700 </v>
   <v>       0.50759100       0.48669000       0.50841500 </v>
   <v>       0.46465800       0.75259100       0.95051600 </v>
   <v>       0.98269000       0.74638600       0.49360500 </v>
   <v>       0.96769800       0.24963800       0.97922300 </v>
   <v>       0.45627100       0.23995900       0.45161600 </v>
   <v>       0.01577100       0.74958000       0.03138200 </v>
   <v>       0.51639500       0.25583400       0.03328400 </v>
   <v>       0.03979300       0.24637200       0.54987900 </v>
   <v>       0.24813100       0.47113600       0.95578100 </v>
   <v>       0.75289500       0.45049700       0.46043300 </v>
   <v>       0.94430200       0.52782900       0.75364900 </v>
   <v>       0.54663200       0.03267800       0.73770700 </v>
   <v>       0.03433800       0.02145400       0.25516100 </v>
   <v>       0.74660000       0.97890300       0.03803100 </v>
   <v>       0.25586800       0.95870700       0.54776900 </v>
   <v>       0.24195700       0.02942700       0.93669100 </v>
   <v>       0.74752900       0.02871400       0.44908400 </v>
   <v>       0.43348200       0.97721900       0.23467900 </v>
   <v>       0.94213000       0.96933000       0.75054400 </v>
   <v>       0.75048600       0.52862100       0.05762400 </v>
   <v>       0.26127600       0.53111800       0.55451800 </v>
   <v>       0.55363200       0.47769900       0.76937000 </v>
   <v>       0.05056800       0.47075300       0.25842900 </v>
   <v>       0.50396300       0.66716900       0.35057400 </v>
  </varray>
 </structure>
 <calculation>
  <scstep>
   <time name="dav">   16.70   16.71</time>
   <time name="total">   18.17   18.19</time>
   <energy>
    <i name="alphaZ">    872.70583573 </i>
    <i name="ewald"> -17891.14836689 </i>
    <i name="hartreedc">  -7464.66260019 </i>
    <i name="XCdc">    908.14484547 </i>
    <i name="pawpsdc">  21345.28103884 </i>
    <i name="pawaedc"> -22405.85761495 </i>
    <i name="eentropy">     -0.00060695 </i>
    <i name="bandstr">   -239.82880170 </i>
    <i name="atom">  26212.11861568 </i>
    <i name="e_fr_energy">   1336.75234504 </i>
    <i name="e_wo_entrp">   1336.75295199 </i>
    <i name="e_0_energy">   1336.75264851 </i>
   </energy>
  </scstep>
  <scstep>
   <time name="dav">   18.54   18.70</time>
   <time name="total">   18.54   18.70</time>
   <energy>
    <i name="e_fr_energy">  -1110.69806009 </i>
    <i name="e_wo_entrp">  -1110.69806009 </i>
    <i name="e_0_energy">  -1110.69806009 </i>
   </energy>
  </scstep>
  <scstep>
   <time name="dav">   19.56   19.58</time>
   <time name="total">   19.56   19.58</time>
   <energy>
    <i name="e_fr_energy">  -1474.81680498 </i>
    <i name="e_wo_entrp">  -1474.81680498 </i>
    <i name="e_0_energy">  -1474.81680498 </i>
   </energy>
  </scstep>
  <scstep>
   <time name="dav">   18.04   18.08</time>
   <time name="total">   18.04   18.08</time>
   <energy>
    <i name="e_fr_energy">  -1486.96681094 </i>
    <i name="e_wo_entrp">  -1486.96681094 </i>
    <i name="e_0_energy">  -1486.96681094 </i>
   </energy>
  </scstep>
  <scstep>
   <time name="dav">   19.40   19.46</time>
   <time name="total">   22.14   22.21</time>
   <energy>
    <i name="e_fr_energy">  -1487.53563721 </i>
    <i name="e_wo_entrp">  -1487.53563721 </i>
    <i name="e_0_energy">  -1487.53563721 </i>
   </energy>
  </scstep>
  <scstep>
   <time name="dav">   19.13   19.13</time>
   <time name="total">   23.33   23.39</time>
   <energy>
    <i name="e_fr_energy">  -1409.77425057 </i>
    <i name="e_wo_entrp">  -1409.77425057 </i>
    <i name="e_0_energy">  -1409.77425057 </i>
   </energy>
  </scstep>
  <scstep>
   <time name="dav">   18.58   18.58</time>
   <time name="total">   22.80   22.82</time>
   <energy>
    <i name="e_fr_energy">  -1409.25653451 </i>
    <i name="e_wo_entrp">  -1409.25653451 </i>
    <i name="e_0_energy">  -1409.25653451 </i>
   </energy>
  </scstep>
  <scstep>
   <time name="dav">   18.06   18.06</time>
   <time name="total">   22.28   22.32</time>
   <energy>
    <i name="e_fr_energy">  -1409.43253692 </i>
    <i name="e_wo_entrp">  -1409.43253692 </i>
    <i name="e_0_energy">  -1409.43253692 </i>
   </energy>
  </scstep>
  <scstep>
   <time name="dav">   17.52   17.52</time>
   <time name="total">   21.76   21.77</time>
   <energy>
    <i name="e_fr_energy">  -1409.50009908 </i>
    <i name="e_wo_entrp">  -1409.50009908 </i>
    <i name="e_0_energy">  -1409.50009908 </i>
   </energy>
  </scstep>
  <scstep>
   <time name="dav">   19.24   19.24</time>
   <time name="total">   23.48   23.49</time>
   <energy>
    <i name="e_fr_energy">  -1409.50399792 </i>
    <i name="e_wo_entrp">  -1409.50399792 </i>
    <i name="e_0_energy">  -1409.50399792 </i>
   </energy>
  </scstep>
  <scstep>
   <time name="dav">   17.31   17.31</time>
   <time name="total">   21.52   21.57</time>
   <energy>
    <i name="e_fr_energy">  -1409.50612826 </i>
    <i name="e_wo_entrp">  -1409.50612826 </i>
    <i name="e_0_energy">  -1409.50612826 </i>
   </energy>
  </scstep>
  <scstep>
   <time name="dav">   17.17   17.17</time>
   <time name="total">   21.40   21.43</time>
   <energy>
    <i name="e_fr_energy">  -1409.50925126 </i>
    <i name="e_wo_entrp">  -1409.50925126 </i>
    <i name="e_0_energy">  -1409.50925126 </i>
   </energy>
  </scstep>
  <scstep>
   <time name="dav">   19.59   19.59</time>
   <time name="total">   23.82   23.85</time>
   <energy>
    <i name="e_fr_energy">  -1409.50893027 </i>
    <i name="e_wo_entrp">  -1409.50893027 </i>
    <i name="e_0_energy">  -1409.50893027 </i>
   </energy>
  </scstep>
  <scstep>
   <time name="dav">   17.92   17.92</time>
   <time name="total">   22.13   22.17</time>
   <energy>
    <i name="e_fr_energy">  -1409.50889072 </i>
    <i name="e_wo_entrp">  -1409.50889072 </i>
    <i name="e_0_energy">  -1409.50889072 </i>
   </energy>
  </scstep>
  <scstep>
   <time name="dav">   18.34   18.34</time>
   <time name="total">   22.54   22.60</time>
   <energy>
    <i name="e_fr_energy">  -1409.50888062 </i>
    <i name="e_wo_entrp">  -1409.50888062 </i>
    <i name="e_0_energy">  -1409.50888062 </i>
   </energy>
  </scstep>
  <scstep>
   <time name="dav">   17.53   17.53</time>
   <time name="total">   21.75   21.80</time>
   <energy>
    <i name="e_fr_energy">  -1409.50893142 </i>
    <i name="e_wo_entrp">  -1409.50893142 </i>
    <i name="e_0_energy">  -1409.50893142 </i>
   </energy>
  </scstep>
  <scstep>
   <time name="dav">   18.55   18.55</time>
   <time name="total">   22.79   22.81</time>
   <energy>
    <i name="e_fr_energy">  -1409.50894152 </i>
    <i name="e_wo_entrp">  -1409.50894152 </i>
    <i name="e_0_energy">  -1409.50894152 </i>
   </energy>
  </scstep>
  <scstep>
   <time name="dav">   14.91   14.91</time>
   <time name="total">   19.17   19.17</time>
   <energy>
    <i name="e_fr_energy">  -1409.50893398 </i>
    <i name="e_wo_entrp">  -1409.50893398 </i>
    <i name="e_0_energy">  -1409.50893398 </i>
   </energy>
  </scstep>
  <scstep>
   <time name="dav">   13.04   13.05</time>
   <time name="total">   17.28   17.30</time>
   <energy>
    <i name="e_fr_energy">  -1409.50892910 </i>
    <i name="e_wo_entrp">  -1409.50892910 </i>
    <i name="e_0_energy">  -1409.50892910 </i>
   </energy>
  </scstep>
  <scstep>
   <time name="dav">   12.63   12.63</time>
   <time name="total">   16.88   16.89</time>
   <energy>
    <i name="e_fr_energy">  -1409.50892669 </i>
    <i name="e_wo_entrp">  -1409.50892669 </i>
    <i name="e_0_energy">  -1409.50892669 </i>
   </energy>
  </scstep>
  <scstep>
   <time name="dav">   12.46   12.46</time>
   <time name="total">   13.96   13.99</time>
   <energy>
    <i name="alphaZ">    872.70583573 </i>
    <i name="ewald"> -17891.14836689 </i>
    <i name="hartreedc">  -7497.75072763 </i>
    <i name="XCdc">    943.64327164 </i>
    <i name="pawpsdc">  22740.30619831 </i>
    <i name="pawaedc"> -23798.49464641 </i>
    <i name="eentropy">     -0.00000000 </i>
    <i name="bandstr">  -2990.88910789 </i>
    <i name="atom">  26212.11861568 </i>
    <i name="e_fr_energy">  -1409.50892746 </i>
    <i name="e_wo_entrp">  -1409.50892746 </i>
    <i name="e_0_energy">  -1409.50892746 </i>
   </energy>
  </scstep>
  <structure>
   <crystal>
    <varray name="basis" >
     <v>       8.45648900       0.00000000       8.04030100 </v>
     <v>       0.00000000      11.72984700       0.00000000 </v>
     <v>      -8.45648900       0.00000000       8.04030100 </v>
    </varray>
    <i name="volume">   1595.08833419 </i>
    <varray name="rec_basis" >
     <v>       0.05912619      -0.00000000       0.06218673 </v>
     <v>       0.00000000       0.08525260      -0.00000000 </v>
     <v>      -0.05912619       0.00000000       0.06218673 </v>
    </varray>
   </crystal>
   <varray name="positions" >
    <v>       0.24863700       0.23577500       0.19309900 </v>
    <v>       0.77610700       0.24494500       0.71899300 </v>
    <v>       0.77723200       0.76462900       0.25754400 </v>
    <v>       0.19268700       0.74819500       0.77138700 </v>
    <v>       0.30091700       0.25173800       0.73294900 </v>
    <v>       0.78422700       0.24480700       0.22716900 </v>
    <v>       0.73628300       0.75136500       0.80616500 </v>
    <v>       0.21483500       0.75420800       0.28762000 </v>
    <v>       0.99783400       0.00057700       0.99735200 </v>
    <v>       0.49967400       0.00160400       0.48477500 </v>
    <v>       0.49290500       0.00146200       0.99236900 </v>
    <v>       0.00604900       0.00029200       0.50663400 </v>
    <v>       0.50116700       0.50731900       0.00413700 </v>
    <v>       0.00695000       0.49258100       0.50678300 </v>
    <v>       0.99982100       0.49783800       0.00118700 </v>
    <v>       0.50759100       0.48669000       0.50841500 </v>
    <v>       0.46465800       0.75259100       0.95051600 </v>
    <v>       0.98269000       0.74638600       0.49360500 </v>
    <v>       0.96769800       0.24963800       0.97922300 </v>
    <v>       0.45627100       0.23995900       0.45161600 </v>
    <v>       0.01577100       0.74958000       0.03138200 </v>
    <v>       0.51639500       0.25583400       0.03328400 </v>
    <v>       0.03979300       0.24637200       0.54987900 </v>
    <v>       0.24813100       0.47113600       0.95578100 </v>
    <v>       0.75289500       0.45049700       0.46043300 </v>
    <v>       0.94430200       0.52782900       0.75364900 </v>
    <v>       0.54663200       0.03267800       0.73770700 </v>
    <v>       0.03433800       0.02145400       0.25516100 </v>
    <v>       0.74660000       0.97890300       0.03803100 </v>
    <v>       0.25586800       0.95870700       0.54776900 </v>
    <v>       0.24195700       0.02942700       0.93669100 </v>
    <v>       0.74752900       0.02871400       0.44908400 </v>
    <v>       0.43348200       0.97721900       0.23467900 </v>
    <v>       0.94213000       0.96933000       0.75054400 </v>
    <v>       0.75048600       0.52862100       0.05762400 </v>
    <v>       0.26127600       0.53111800       0.55451800 </v>
    <v>       0.55363200       0.47769900       0.76937000 </v>
    <v>       0.05056800       0.47075300       0.25842900 </v>
    <v>       0.50396300       0.66716900       0.35057400 </v>
   </varray>
  </structure>
  <varray name="forces" >
   <v>      -0.00018336       0.00027033      -0.00007074 </v>
   <v>      -0.00034284      -0.00007741       0.00004686 </v>
   <v>       0.00019583       0.00012195      -0.00052317 </v>
   <v>      -0.00027521       0.00008811       0.00010123 </v>
   <v>       0.00011042       0.00004128      -0.00025271 </v>
   <v>       0.00015702       0.00007453       0.00014241 </v>
   <v>      -0.00003055      -0.00011252       0.00005693 </v>
   <v>       0.00006697       0.00014125       0.00014752 </v>
   <v>       0.00047423       0.00027763      -0.00006639 </v>
   <v>       0.00028630       0.00010679       0.00027928 </v>
   <v>       0.00001869      -0.00020553      -0.00086072 </v>
   <v>       0.00015171      -0.00011065      -0.00017377 </v>
   <v>       0.00006913       0.00035625      -0.00041170 </v>
   <v>       0.00047716      -0.00000156      -0.00013993 </v>
   <v>       0.00007353      -0.00028126       0.00025040 </v>
   <v>      -0.00000865      -0.00004239       0.00066659 </v>
   <v>      -0.00047409       0.00005321       0.00031070 </v>
   <v>      -0.00000133      -0.00032655       0.00023155 </v>
   <v>      -0.00003459      -0.00019079       0.00015079 </v>
   <v>      -0.00008186      -0.00049734      -0.00008992 </v>
   <v>      -0.00004610       0.00004537      -0.00019944 </v>
   <v>       0.00016386      -0.00020897       0.00008278 </v>
   <v>      -0.00017026       0.00026026      -0.00001253 </v>
   <v>      -0.00006143       0.00004085       0.00009857 </v>
   <v>      -0.00012834      -0.00016791       0.00023583 </v>
   <v>      -0.00014269      -0.00000576      -0.00014772 </v>
   <v>      -0.00021551      -0.00007308       0.00006209 </v>
   <v>       0.00012384      -0.00010100      -0.00001277 </v>
   <v>       0.00010067      -0.00001317       0.00016145 </v>
   <v>       0.00003830       0.00008664      -0.00012645 </v>
   <v>      -0.00004298       0.00007393      -0.00016183 </v>
   <v>      -0.00002967      -0.00008820      -0.00001653 </v>
   <v>       0.00007364      -0.00014581      -0.00016175 </v>
   <v>      -0.00028008      -0.00017389       0.00046286 </v>
   <v>      -0.00022395       0.00024577       0.00018642 </v>
   <v>       0.00007934      -0.00009773       0.00002715 </v>
   <v>      -0.00000747       0.00015594       0.00003755 </v>
   <v>      -0.00000025      -0.00018483      -0.00015967 </v>
   <v>       0.00012055       0.00066627      -0.00015120 </v>
  </varray>
  <varray name="stress" >
   <v>      -7.37588390       0.40518080       0.65548452 </v>
   <v>       0.40514146      -4.83693122      -0.12076130 </v>
   <v>       0.65545256      -0.12071277      -4.84122652 </v>
  </varray>
  <energy>
   <i name="e_fr_energy">  -1409.50892746 </i>
   <i name="e_wo_entrp">  -1409.50892746 </i>
   <i name="e_0_energy">     -0.00000000 </i>
  </energy>
  <time name="totalsc">  489.20  490.06</time>
  <eigenvalues>
   <array>
    <dimension dim="1">band</dimension>
    <dimension dim="2">kpoint</dimension>
    <dimension dim="3">spin</dimension>
    <field>eigene</field>
    <field>occ</field>
    <set>
     <set comment="spin 1">
      <set comment="kpoint 1">
       <r>  -20.8831    1.0000 </r>
       <r>  -20.8112    1.0000 </r>
       <r>  -20.7538    1.0000 </r>
       <r>  -20.7316    1.0000 </r>
       <r>  -20.7195    1.0000 </r>
       <r>  -20.7167    1.0000 </r>
       <r>  -20.7076    1.0000 </r>
       <r>  -20.6830    1.0000 </r>
       <r>  -16.7516    1.0000 </r>
       <r>  -16.7194    1.0000 </r>
       <r>  -16.6937    1.0000 </r>
       <r>  -16.6718    1.0000 </r>
       <r>  -16.6687    1.0000 </r>
       <r>  -16.6602    1.0000 </r>
       <r>  -16.6479    1.0000 </r>
       <r>  -16.6229    1.0000 </r>
       <r>  -16.5702    1.0000 </r>
       <r>  -16.5610    1.0000 </r>
       <r>  -16.5557    1.0000 </r>
       <r>  -16.5547    1.0000 </r>
       <r>  -16.5492    1.0000 </r>
       <r>  -16.5192    1.0000 </r>
       <r>  -16.5080    1.0000 </r>
       <r>  -16.4760    1.0000 </r>
       <r>  -16.4592    1.0000 </r>
       <r>  -16.4438    1.0000 </r>
       <r>  -16.4326    1.0000 </r>
       <r>  -16.4195    1.0000 </r>
       <r>  -16.4008    1.0000 </r>
       <r>  -16.3926    1.0000 </r>
       <r>  -16.3896    1.0000 </r>
       <r>  -16.3741    1.0000 </r>
       <r>  -16.3701    1.0000 </r>
       <r>  -16.3096    1.0000 </r>
       <r>  -16.3091    1.0000 </r>
       <r>  -16.3054    1.0000 </r>
       <r>  -16.3040    1.0000 </r>
       <r>  -16.3026    1.0000 </r>
       <r>  -16.3026    1.0000 </r>
       <r>  -16.3014    1.0000 </r>
       <r>  -16.3001    1.0000 </r>
       <r>  -16.2948    1.0000 </r>
       <r>  -16.2946    1.0000 </r>
       <r>  -16.2938    1.0000 </r>
       <r>  -16.2934    1.0000 </r>
       <r>  -16.2930    1.0000 </r>
       <r>  -16.2881    1.0000 </r>
       <r>  -16.2864    1.0000 </r>
       <r>  -14.5068    1.0000 </r>
       <r>  -14.4194    1.0000 </r>
       <r>  -14.3330    1.0000 </r>
       <r>  -14.1795    1.0000 </r>
       <r>  -14.1690    1.0000 </r>
       <r>  -14.1383    1.0000 </r>
       <r>  -14.0878    1.0000 </r>
       <r>  -14.0737    1.0000 </r>
       <r>  -14.0699    1.0000 </r>
       <r>  -14.0568    1.0000 </r>
       <r>  -14.0407    1.0000 </r>
       <r>  -14.0377    1.0000 </r>
       <r>  -14.0185    1.0000 </r>
       <r>  -14.0129    1.0000 </r>
       <r>  -14.0018    1.0000 </r>
       <r>  -13.9897    1.0000 </r>
       <r>  -13.9347    1.0000 </r>
       <r>  -13.9179    1.0000 </r>
       <r>  -13.8803    1.0000 </r>
       <r>  -13.7857    1.0000 </r>
       <r>  -13.7611    1.0000 </r>
       <r>  -13.7556    1.0000 </r>
       <r>  -13.7233    1.0000 </r>
       <r>   -8.2185    1.0000 </r>
       <r>   -7.8062    1.0000 </r>
       <r>   -7.7647    1.0000 </r>
       <r>   -7.7135    1.0000 </r>
       <r>   -7.3541    1.0000 </r>
       <r>   -7.3284    1.0000 </r>
       <r>   -7.2767    1.0000 </r>
       <r>   -7.2599    1.0000 </r>
       <r>   -7.2531    1.0000 </r>
       <r>   -7.2366    1.0000 </r>
       <r>   -7.2128    1.0000 </r>
       <r>   -7.2054    1.0000 </r>
       <r>   -7.1890    1.0000 </r>
       <r>   -7.1737    1.0000 </r>
       <r>   -7.1560    1.0000 </r>
       <r>   -7.1501    1.0000 </r>
       <r>   -7.1443    1.0000 </r>
       <r>   -7.1426    1.0000 </r>
       <r>   -7.1380    1.0000 </r>
       <r>   -7.1320    1.0000 </r>
       <r>   -7.1287    1.0000 </r>
       <r>   -7.1219    1.0000 </r>
       <r>   -7.1193    1.0000 </r>
       <r>   -7.1146    1.0000 </r>
       <r>   -7.1090    1.0000 </r>
       <r>   -7.1042    1.0000 </r>
       <r>   -7.0957    1.0000 </r>
       <r>   -7.0863    1.0000 </r>
       <r>   -7.0804    1.0000 </r>
       <r>   -7.0664    1.0000 </r>
       <r>   -7.0481    1.0000 </r>
       <r>   -6.6003    1.0000 </r>
       <r>   -3.4205    1.0000 </r>
       <r>   -3.3240    1.0000 </r>
       <r>   -3.2901    1.0000 </r>
       <r>   -3.2773    1.0000 </r>
       <r>   -3.2358    1.0000 </r>
       <r>   -3.2146    1.0000 </r>
       <r>   -3.2013    1.0000 </r>
       <r>   -3.1324    1.0000 </r>
       <r>   -3.0981    1.0000 </r>
       <r>   -3.0554    1.0000 </r>
       <r>   -2.9327    1.0000 </r>
       <r>   -2.8857    1.0000 </r>
       <r>   -2.2499    1.0000 </r>
       <r>   -2.1850    1.0000 </r>
       <r>   -2.1619    1.0000 </r>
       <r>   -2.0774    1.0000 </r>
       <r>   -2.0266    1.0000 </r>
       <r>   -1.9940    1.0000 </r>
       <r>   -1.9450    1.0000 </r>
       <r>   -1.8946    1.0000 </r>
       <r>   -1.8508    1.0000 </r>
       <r>   -1.8246    1.0000 </r>
       <r>   -1.7768    1.0000 </r>
       <r>   -1.7376    1.0000 </r>
       <r>   -1.7161    1.0000 </r>
       <r>   -1.6749    1.0000 </r>
       <r>   -1.6390    1.0000 </r>
       <r>   -1.6059    1.0000 </r>
       <r>   -1.5653    1.0000 </r>
       <r>   -1.5580    1.0000 </r>
       <r>   -1.5497    1.0000 </r>
       <r>   -1.5417    1.0000 </r>
       <r>   -1.5141    1.0000 </r>
       <r>   -1.5021    1.0000 </r>
       <r>   -1.4926    1.0000 </r>
       <r>   -1.4761    1.0000 </r>
       <r>   -1.4647    1.0000 </r>
       <r>   -1.4552    1.0000 </r>
       <r>   -1.4325    1.0000 </r>
       <r>   -1.4164    1.0000 </r>
       <r>   -1.3986    1.0000 </r>
       <r>   -1.3934    1.0000 </r>
       <r>   -1.3656    1.0000 </r>
       <r>   -1.3612    1.0000 </r>
       <r>   -1.3376    1.0000 </r>
       <r>   -1.3309    1.0000 </r>
       <r>   -1.3273    1.0000 </r>
       <r>   -1.3179    1.0000 </r>
       <r>   -1.2908    1.0000 </r>
       <r>   -1.2886    1.0000 </r>
       <r>   -1.2629    1.0000 </r>
       <r>   -1.2298    1.0000 </r>
       <r>   -1.2029    1.0000 </r>
       <r>   -1.1996    1.0000 </r>
       <r>   -1.1706    1.0000 </r>
       <r>   -1.1029    1.0000 </r>
       <r>   -1.0925    1.0000 </r>
       <r>   -1.0649    1.0000 </r>
       <r>   -1.0085    1.0000 </r>
       <r>   -0.9963    1.0000 </r>
       <r>   -0.9741    1.0000 </r>
       <r>   -0.8810    1.0000 </r>
       <r>   -0.8143    1.0000 </r>
       <r>   -0.7621    1.0000 </r>
       <r>   -0.7205    1.0000 </r>
       <r>   -0.3906    1.0000 </r>
       <r>   -0.2359    1.0000 </r>
       <r>   -0.1434    1.0000 </r>
       <r>    0.3516    1.0000 </r>
       <r>    2.5771    0.0000 </r>
       <r>    2.7228    0.0000 </r>
       <r>    2.8105    0.0000 </r>
       <r>    2.9433    0.0000 </r>
       <r>    3.0211    0.0000 </r>
       <r>    3.1127    0.0000 </r>
       <r>    3.1261    0.0000 </r>
       <r>    3.2188    0.0000 </r>
       <r>    3.2721    0.0000 </r>
       <r>    3.4699    0.0000 </r>
       <r>    3.4822    0.0000 </r>
       <r>    3.5297    0.0000 </r>
       <r>    4.2357    0.0000 </r>
       <r>    4.6582    0.0000 </r>
       <r>    4.8594    0.0000 </r>
       <r>    5.4979    0.0000 </r>
       <r>    5.6006    0.0000 </r>
       <r>    5.7447    0.0000 </r>
       <r>    5.7952    0.0000 </r>
       <r>    5.8268    0.0000 </r>
       <r>    5.8760    0.0000 </r>
       <r>    5.9256    0.0000 </r>
       <r>    6.0130    0.0000 </r>
       <r>    6.0498    0.0000 </r>
       <r>    6.0786    0.0000 </r>
       <r>    6.1365    0.0000 </r>
       <r>    6.1571    0.0000 </r>
       <r>    6.2215    0.0000 </r>
       <r>    6.2869    0.0000 </r>
       <r>    6.3680    0.0000 </r>
       <r>    6.3935    0.0000 </r>
       <r>    6.4462    0.0000 </r>
       <r>    6.4954    0.0000 </r>
       <r>    6.5519    0.0000 </r>
       <r>    6.5901    0.0000 </r>
       <r>    6.6793    0.0000 </r>
      </set>
      <set comment="kpoint 2">
       <r>  -20.8831    1.0000 </r>
       <r>  -20.8112    1.0000 </r>
       <r>  -20.7537    1.0000 </r>
       <r>  -20.7317    1.0000 </r>
       <r>  -20.7194    1.0000 </r>
       <r>  -20.7165    1.0000 </r>
       <r>  -20.7078    1.0000 </r>
       <r>  -20.6830    1.0000 </r>
       <r>  -16.7507    1.0000 </r>
       <r>  -16.7192    1.0000 </r>
       <r>  -16.6930    1.0000 </r>
       <r>  -16.6711    1.0000 </r>
       <r>  -16.6686    1.0000 </r>
       <r>  -16.6597    1.0000 </r>
       <r>  -16.6453    1.0000 </r>
       <r>  -16.6207    1.0000 </r>
       <r>  -16.5702    1.0000 </r>
       <r>  -16.5609    1.0000 </r>
       <r>  -16.5557    1.0000 </r>
       <r>  -16.5547    1.0000 </r>
       <r>  -16.5492    1.0000 </r>
       <r>  -16.5192    1.0000 </r>
       <r>  -16.5080    1.0000 </r>
       <r>  -16.4759    1.0000 </r>
       <r>  -16.4575    1.0000 </r>
       <r>  -16.4404    1.0000 </r>
       <r>  -16.4312    1.0000 </r>
       <r>  -16.4115    1.0000 </r>
       <r>  -16.4011    1.0000 </r>
       <r>  -16.3982    1.0000 </r>
       <r>  -16.3937    1.0000 </r>
       <r>  -16.3871    1.0000 </r>
       <r>  -16.3725    1.0000 </r>
       <r>  -16.3097    1.0000 </r>
       <r>  -16.3091    1.0000 </r>
       <r>  -16.3055    1.0000 </r>
       <r>  -16.3040    1.0000 </r>
       <r>  -16.3026    1.0000 </r>
       <r>  -16.3026    1.0000 </r>
       <r>  -16.3014    1.0000 </r>
       <r>  -16.3001    1.0000 </r>
       <r>  -16.2947    1.0000 </r>
       <r>  -16.2945    1.0000 </r>
       <r>  -16.2937    1.0000 </r>
       <r>  -16.2936    1.0000 </r>
       <r>  -16.2930    1.0000 </r>
       <r>  -16.2881    1.0000 </r>
       <r>  -16.2865    1.0000 </r>
       <r>  -14.4989    1.0000 </r>
       <r>  -14.4160    1.0000 </r>
       <r>  -14.3543    1.0000 </r>
       <r>  -14.1768    1.0000 </r>
       <r>  -14.1726    1.0000 </r>
       <r>  -14.1618    1.0000 </r>
       <r>  -14.1491    1.0000 </r>
       <r>  -14.0854    1.0000 </r>
       <r>  -14.0641    1.0000 </r>
       <r>  -14.0575    1.0000 </r>
       <r>  -14.0440    1.0000 </r>
       <r>  -14.0252    1.0000 </r>
       <r>  -14.0039    1.0000 </r>
       <r>  -13.9906    1.0000 </r>
       <r>  -13.9773    1.0000 </r>
       <r>  -13.9413    1.0000 </r>
       <r>  -13.8930    1.0000 </r>
       <r>  -13.8507    1.0000 </r>
       <r>  -13.8481    1.0000 </r>
       <r>  -13.8321    1.0000 </r>
       <r>  -13.8273    1.0000 </r>
       <r>  -13.7658    1.0000 </r>
       <r>  -13.7537    1.0000 </r>
       <r>   -8.0051    1.0000 </r>
       <r>   -7.9916    1.0000 </r>
       <r>   -7.6275    1.0000 </r>
       <r>   -7.5824    1.0000 </r>
       <r>   -7.4999    1.0000 </r>
       <r>   -7.4485    1.0000 </r>
       <r>   -7.3297    1.0000 </r>
       <r>   -7.2746    1.0000 </r>
       <r>   -7.2551    1.0000 </r>
       <r>   -7.2472    1.0000 </r>
       <r>   -7.2186    1.0000 </r>
       <r>   -7.2043    1.0000 </r>
       <r>   -7.1868    1.0000 </r>
       <r>   -7.1768    1.0000 </r>
       <r>   -7.1588    1.0000 </r>
       <r>   -7.1526    1.0000 </r>
       <r>   -7.1500    1.0000 </r>
       <r>   -7.1461    1.0000 </r>
       <r>   -7.1371    1.0000 </r>
       <r>   -7.1329    1.0000 </r>
       <r>   -7.1297    1.0000 </r>
       <r>   -7.1220    1.0000 </r>
       <r>   -7.1138    1.0000 </r>
       <r>   -7.1057    1.0000 </r>
       <r>   -7.1050    1.0000 </r>
       <r>   -7.0984    1.0000 </r>
       <r>   -7.0918    1.0000 </r>
       <r>   -7.0740    1.0000 </r>
       <r>   -7.0704    1.0000 </r>
       <r>   -7.0559    1.0000 </r>
       <r>   -7.0217    1.0000 </r>
       <r>   -6.8426    1.0000 </r>
       <r>   -3.3976    1.0000 </r>
       <r>   -3.2776    1.0000 </r>
       <r>   -3.2664    1.0000 </r>
       <r>   -3.2559    1.0000 </r>
       <r>   -3.1415    1.0000 </r>
       <r>   -3.1291    1.0000 </r>
       <r>   -2.9786    1.0000 </r>
       <r>   -2.9607    1.0000 </r>
       <r>   -2.5767    1.0000 </r>
       <r>   -2.5440    1.0000 </r>
       <r>   -2.5279    1.0000 </r>
       <r>   -2.4765    1.0000 </r>
       <r>   -2.4626    1.0000 </r>
       <r>   -2.3843    1.0000 </r>
       <r>   -2.3638    1.0000 </r>
       <r>   -2.3402    1.0000 </r>
       <r>   -2.1686    1.0000 </r>
       <r>   -2.0956    1.0000 </r>
       <r>   -2.0836    1.0000 </r>
       <r>   -2.0383    1.0000 </r>
       <r>   -2.0113    1.0000 </r>
       <r>   -1.9364    1.0000 </r>
       <r>   -1.8569    1.0000 </r>
       <r>   -1.8478    1.0000 </r>
       <r>   -1.7934    1.0000 </r>
       <r>   -1.7874    1.0000 </r>
       <r>   -1.7635    1.0000 </r>
       <r>   -1.7070    1.0000 </r>
       <r>   -1.6374    1.0000 </r>
       <r>   -1.5666    1.0000 </r>
       <r>   -1.5544    1.0000 </r>
       <r>   -1.5258    1.0000 </r>
       <r>   -1.5185    1.0000 </r>
       <r>   -1.5028    1.0000 </r>
       <r>   -1.4856    1.0000 </r>
       <r>   -1.4648    1.0000 </r>
       <r>   -1.4547    1.0000 </r>
       <r>   -1.4412    1.0000 </r>
       <r>   -1.4357    1.0000 </r>
       <r>   -1.4226    1.0000 </r>
       <r>   -1.4006    1.0000 </r>
       <r>   -1.3899    1.0000 </r>
       <r>   -1.3741    1.0000 </r>
       <r>   -1.3366    1.0000 </r>
       <r>   -1.3328    1.0000 </r>
       <r>   -1.3177    1.0000 </r>
       <r>   -1.3095    1.0000 </r>
       <r>   -1.2919    1.0000 </r>
       <r>   -1.2742    1.0000 </r>
       <r>   -1.2731    1.0000 </r>
       <r>   -1.2486    1.0000 </r>
       <r>   -1.2235    1.0000 </r>
       <r>   -1.2011    1.0000 </r>
       <r>   -1.1775    1.0000 </r>
       <r>   -1.1610    1.0000 </r>
       <r>   -1.1339    1.0000 </r>
       <r>   -1.1169    1.0000 </r>
       <r>   -1.0937    1.0000 </r>
       <r>   -1.0858    1.0000 </r>
       <r>   -1.0378    1.0000 </r>
       <r>   -1.0097    1.0000 </r>
       <r>   -0.9267    1.0000 </r>
       <r>   -0.8777    1.0000 </r>
       <r>   -0.7649    1.0000 </r>
       <r>   -0.7468    1.0000 </r>
       <r>   -0.5866    1.0000 </r>
       <r>   -0.4931    1.0000 </r>
       <r>   -0.2584    1.0000 </r>
       <r>    0.0478    1.0000 </r>
       <r>    2.6508    0.0000 </r>
       <r>    2.9394    0.0000 </r>
       <r>    2.9496    0.0000 </r>
       <r>    2.9730    0.0000 </r>
       <r>    3.1466    0.0000 </r>
       <r>    3.3094    0.0000 </r>
       <r>    3.3246    0.0000 </r>
       <r>    3.3966    0.0000 </r>
       <r>    4.1660    0.0000 </r>
       <r>    4.1976    0.0000 </r>
       <r>    4.2645    0.0000 </r>
       <r>    4.4421    0.0000 </r>
       <r>    4.5041    0.0000 </r>
       <r>    4.5185    0.0000 </r>
       <r>    4.5907    0.0000 </r>
       <r>    4.7130    0.0000 </r>
       <r>    4.7487    0.0000 </r>
       <r>    4.8468    0.0000 </r>
       <r>    5.3447    0.0000 </r>
       <r>    5.5692    0.0000 </r>
       <r>    5.6765    0.0000 </r>
       <r>    5.8118    0.0000 </r>
       <r>    5.8818    0.0000 </r>
       <r>    5.9252    0.0000 </r>
       <r>    6.0050    0.0000 </r>
       <r>    6.0335    0.0000 </r>
       <r>    6.1526    0.0000 </r>
       <r>    6.2417    0.0000 </r>
       <r>    6.2656    0.0000 </r>
       <r>    6.3189    0.0000 </r>
       <r>    6.3544    0.0000 </r>
       <r>    6.4008    0.0000 </r>
       <r>    6.4475    0.0000 </r>
       <r>    6.5111    0.0000 </r>
       <r>    6.5873    0.0000 </r>
       <r>    6.6388    0.0000 </r>
      </set>
      <set comment="kpoint 3">
       <r>  -20.8831    1.0000 </r>
       <r>  -20.8112    1.0000 </r>
       <r>  -20.7538    1.0000 </r>
       <r>  -20.7316    1.0000 </r>
       <r>  -20.7192    1.0000 </r>
       <r>  -20.7170    1.0000 </r>
       <r>  -20.7076    1.0000 </r>
       <r>  -20.6830    1.0000 </r>
       <r>  -16.7517    1.0000 </r>
       <r>  -16.7192    1.0000 </r>
       <r>  -16.6931    1.0000 </r>
       <r>  -16.6719    1.0000 </r>
       <r>  -16.6687    1.0000 </r>
       <r>  -16.6602    1.0000 </r>
       <r>  -16.6453    1.0000 </r>
       <r>  -16.6230    1.0000 </r>
       <r>  -16.5702    1.0000 </r>
       <r>  -16.5610    1.0000 </r>
       <r>  -16.5556    1.0000 </r>
       <r>  -16.5547    1.0000 </r>
       <r>  -16.5491    1.0000 </r>
       <r>  -16.5192    1.0000 </r>
       <r>  -16.5080    1.0000 </r>
       <r>  -16.4532    1.0000 </r>
       <r>  -16.4466    1.0000 </r>
       <r>  -16.4439    1.0000 </r>
       <r>  -16.4284    1.0000 </r>
       <r>  -16.4205    1.0000 </r>
       <r>  -16.4141    1.0000 </r>
       <r>  -16.4047    1.0000 </r>
       <r>  -16.3980    1.0000 </r>
       <r>  -16.3841    1.0000 </r>
       <r>  -16.3714    1.0000 </r>
       <r>  -16.3095    1.0000 </r>
       <r>  -16.3091    1.0000 </r>
       <r>  -16.3054    1.0000 </r>
       <r>  -16.3039    1.0000 </r>
       <r>  -16.3026    1.0000 </r>
       <r>  -16.3025    1.0000 </r>
       <r>  -16.3014    1.0000 </r>
       <r>  -16.3001    1.0000 </r>
       <r>  -16.2946    1.0000 </r>
       <r>  -16.2945    1.0000 </r>
       <r>  -16.2937    1.0000 </r>
       <r>  -16.2935    1.0000 </r>
       <r>  -16.2932    1.0000 </r>
       <r>  -16.2881    1.0000 </r>
       <r>  -16.2864    1.0000 </r>
       <r>  -14.4960    1.0000 </r>
       <r>  -14.4309    1.0000 </r>
       <r>  -14.3165    1.0000 </r>
       <r>  -14.2599    1.0000 </r>
       <r>  -14.1585    1.0000 </r>
       <r>  -14.1482    1.0000 </r>
       <r>  -14.1085    1.0000 </r>
       <r>  -14.0864    1.0000 </r>
       <r>  -14.0710    1.0000 </r>
       <r>  -14.0418    1.0000 </r>
       <r>  -14.0202    1.0000 </r>
       <r>  -14.0146    1.0000 </r>
       <r>  -14.0062    1.0000 </r>
       <r>  -14.0025    1.0000 </r>
       <r>  -13.9847    1.0000 </r>
       <r>  -13.9378    1.0000 </r>
       <r>  -13.9041    1.0000 </r>
       <r>  -13.8878    1.0000 </r>
       <r>  -13.8791    1.0000 </r>
       <r>  -13.8257    1.0000 </r>
       <r>  -13.8156    1.0000 </r>
       <r>  -13.7633    1.0000 </r>
       <r>  -13.7296    1.0000 </r>
       <r>   -8.0511    1.0000 </r>
       <r>   -7.9572    1.0000 </r>
       <r>   -7.6783    1.0000 </r>
       <r>   -7.5317    1.0000 </r>
       <r>   -7.4595    1.0000 </r>
       <r>   -7.4546    1.0000 </r>
       <r>   -7.3332    1.0000 </r>
       <r>   -7.2730    1.0000 </r>
       <r>   -7.2552    1.0000 </r>
       <r>   -7.2461    1.0000 </r>
       <r>   -7.2162    1.0000 </r>
       <r>   -7.1990    1.0000 </r>
       <r>   -7.1797    1.0000 </r>
       <r>   -7.1596    1.0000 </r>
       <r>   -7.1529    1.0000 </r>
       <r>   -7.1499    1.0000 </r>
       <r>   -7.1464    1.0000 </r>
       <r>   -7.1427    1.0000 </r>
       <r>   -7.1375    1.0000 </r>
       <r>   -7.1342    1.0000 </r>
       <r>   -7.1279    1.0000 </r>
       <r>   -7.1258    1.0000 </r>
       <r>   -7.1116    1.0000 </r>
       <r>   -7.1061    1.0000 </r>
       <r>   -7.1038    1.0000 </r>
       <r>   -7.1007    1.0000 </r>
       <r>   -7.0976    1.0000 </r>
       <r>   -7.0868    1.0000 </r>
       <r>   -7.0734    1.0000 </r>
       <r>   -7.0704    1.0000 </r>
       <r>   -7.0060    1.0000 </r>
       <r>   -6.8899    1.0000 </r>
       <r>   -3.3008    1.0000 </r>
       <r>   -3.2861    1.0000 </r>
       <r>   -3.2315    1.0000 </r>
       <r>   -3.1839    1.0000 </r>
       <r>   -3.1618    1.0000 </r>
       <r>   -3.1302    1.0000 </r>
       <r>   -3.0971    1.0000 </r>
       <r>   -2.9363    1.0000 </r>
       <r>   -2.8705    1.0000 </r>
       <r>   -2.5626    1.0000 </r>
       <r>   -2.5210    1.0000 </r>
       <r>   -2.4991    1.0000 </r>
       <r>   -2.4653    1.0000 </r>
       <r>   -2.3984    1.0000 </r>
       <r>   -2.3870    1.0000 </r>
       <r>   -2.1960    1.0000 </r>
       <r>   -2.1344    1.0000 </r>
       <r>   -2.0855    1.0000 </r>
       <r>   -2.0359    1.0000 </r>
       <r>   -1.9947    1.0000 </r>
       <r>   -1.9914    1.0000 </r>
       <r>   -1.9207    1.0000 </r>
       <r>   -1.9172    1.0000 </r>
       <r>   -1.8642    1.0000 </r>
       <r>   -1.8055    1.0000 </r>
       <r>   -1.7567    1.0000 </r>
       <r>   -1.7175    1.0000 </r>
       <r>   -1.6901    1.0000 </r>
       <r>   -1.6762    1.0000 </r>
       <r>   -1.6073    1.0000 </r>
       <r>   -1.5777    1.0000 </r>
       <r>   -1.5383    1.0000 </r>
       <r>   -1.5096    1.0000 </r>
       <r>   -1.5024    1.0000 </r>
       <r>   -1.4876    1.0000 </r>
       <r>   -1.4665    1.0000 </r>
       <r>   -1.4517    1.0000 </r>
       <r>   -1.4344    1.0000 </r>
       <r>   -1.4195    1.0000 </r>
       <r>   -1.4016    1.0000 </r>
       <r>   -1.3947    1.0000 </r>
       <r>   -1.3809    1.0000 </r>
       <r>   -1.3610    1.0000 </r>
       <r>   -1.3463    1.0000 </r>
       <r>   -1.3384    1.0000 </r>
       <r>   -1.3262    1.0000 </r>
       <r>   -1.3099    1.0000 </r>
       <r>   -1.2987    1.0000 </r>
       <r>   -1.2818    1.0000 </r>
       <r>   -1.2550    1.0000 </r>
       <r>   -1.2405    1.0000 </r>
       <r>   -1.2139    1.0000 </r>
       <r>   -1.2011    1.0000 </r>
       <r>   -1.1802    1.0000 </r>
       <r>   -1.1602    1.0000 </r>
       <r>   -1.1316    1.0000 </r>
       <r>   -1.1145    1.0000 </r>
       <r>   -1.1097    1.0000 </r>
       <r>   -1.0791    1.0000 </r>
       <r>   -1.0616    1.0000 </r>
       <r>   -1.0292    1.0000 </r>
       <r>   -0.8841    1.0000 </r>
       <r>   -0.8450    1.0000 </r>
       <r>   -0.7741    1.0000 </r>
       <r>   -0.6422    1.0000 </r>
       <r>   -0.5976    1.0000 </r>
       <r>   -0.5268    1.0000 </r>
       <r>   -0.1569    1.0000 </r>
       <r>    0.0004    1.0000 </r>
       <r>    2.4722    0.0000 </r>
       <r>    2.8820    0.0000 </r>
       <r>    2.9228    0.0000 </r>
       <r>    3.0708    0.0000 </r>
       <r>    3.1954    0.0000 </r>
       <r>    3.2289    0.0000 </r>
       <r>    3.3089    0.0000 </r>
       <r>    3.3360    0.0000 </r>
       <r>    3.4629    0.0000 </r>
       <r>    3.9617    0.0000 </r>
       <r>    4.4104    0.0000 </r>
       <r>    4.4774    0.0000 </r>
       <r>    4.5591    0.0000 </r>
       <r>    4.6336    0.0000 </r>
       <r>    4.7385    0.0000 </r>
       <r>    4.8127    0.0000 </r>
       <r>    4.9153    0.0000 </r>
       <r>    5.4645    0.0000 </r>
       <r>    5.5639    0.0000 </r>
       <r>    5.6512    0.0000 </r>
       <r>    5.7087    0.0000 </r>
       <r>    5.7590    0.0000 </r>
       <r>    5.8456    0.0000 </r>
       <r>    5.8970    0.0000 </r>
       <r>    5.9863    0.0000 </r>
       <r>    6.1089    0.0000 </r>
       <r>    6.1372    0.0000 </r>
       <r>    6.1802    0.0000 </r>
       <r>    6.2780    0.0000 </r>
       <r>    6.3661    0.0000 </r>
       <r>    6.4058    0.0000 </r>
       <r>    6.4594    0.0000 </r>
       <r>    6.4882    0.0000 </r>
       <r>    6.5589    0.0000 </r>
       <r>    6.5908    0.0000 </r>
       <r>    6.6346    0.0000 </r>
      </set>
      <set comment="kpoint 4">
       <r>  -20.8831    1.0000 </r>
       <r>  -20.8112    1.0000 </r>
       <r>  -20.7537    1.0000 </r>
       <r>  -20.7317    1.0000 </r>
       <r>  -20.7192    1.0000 </r>
       <r>  -20.7167    1.0000 </r>
       <r>  -20.7078    1.0000 </r>
       <r>  -20.6830    1.0000 </r>
       <r>  -16.7507    1.0000 </r>
       <r>  -16.7190    1.0000 </r>
       <r>  -16.6923    1.0000 </r>
       <r>  -16.6711    1.0000 </r>
       <r>  -16.6686    1.0000 </r>
       <r>  -16.6595    1.0000 </r>
       <r>  -16.6428    1.0000 </r>
       <r>  -16.6208    1.0000 </r>
       <r>  -16.5702    1.0000 </r>
       <r>  -16.5609    1.0000 </r>
       <r>  -16.5557    1.0000 </r>
       <r>  -16.5547    1.0000 </r>
       <r>  -16.5492    1.0000 </r>
       <r>  -16.5193    1.0000 </r>
       <r>  -16.5080    1.0000 </r>
       <r>  -16.4528    1.0000 </r>
       <r>  -16.4459    1.0000 </r>
       <r>  -16.4318    1.0000 </r>
       <r>  -16.4245    1.0000 </r>
       <r>  -16.4218    1.0000 </r>
       <r>  -16.4155    1.0000 </r>
       <r>  -16.4143    1.0000 </r>
       <r>  -16.3993    1.0000 </r>
       <r>  -16.3856    1.0000 </r>
       <r>  -16.3842    1.0000 </r>
       <r>  -16.3095    1.0000 </r>
       <r>  -16.3091    1.0000 </r>
       <r>  -16.3054    1.0000 </r>
       <r>  -16.3039    1.0000 </r>
       <r>  -16.3026    1.0000 </r>
       <r>  -16.3026    1.0000 </r>
       <r>  -16.3015    1.0000 </r>
       <r>  -16.3001    1.0000 </r>
       <r>  -16.2946    1.0000 </r>
       <r>  -16.2944    1.0000 </r>
       <r>  -16.2938    1.0000 </r>
       <r>  -16.2936    1.0000 </r>
       <r>  -16.2932    1.0000 </r>
       <r>  -16.2881    1.0000 </r>
       <r>  -16.2865    1.0000 </r>
       <r>  -14.4921    1.0000 </r>
       <r>  -14.4246    1.0000 </r>
       <r>  -14.3163    1.0000 </r>
       <r>  -14.2916    1.0000 </r>
       <r>  -14.1855    1.0000 </r>
       <r>  -14.1493    1.0000 </r>
       <r>  -14.1439    1.0000 </r>
       <r>  -14.0893    1.0000 </r>
       <r>  -14.0838    1.0000 </r>
       <r>  -14.0497    1.0000 </r>
       <r>  -14.0052    1.0000 </r>
       <r>  -13.9829    1.0000 </r>
       <r>  -13.9666    1.0000 </r>
       <r>  -13.9505    1.0000 </r>
       <r>  -13.9309    1.0000 </r>
       <r>  -13.9139    1.0000 </r>
       <r>  -13.8940    1.0000 </r>
       <r>  -13.8900    1.0000 </r>
       <r>  -13.8842    1.0000 </r>
       <r>  -13.8411    1.0000 </r>
       <r>  -13.8317    1.0000 </r>
       <r>  -13.8044    1.0000 </r>
       <r>  -13.7633    1.0000 </r>
       <r>   -7.8993    1.0000 </r>
       <r>   -7.7712    1.0000 </r>
       <r>   -7.7287    1.0000 </r>
       <r>   -7.7198    1.0000 </r>
       <r>   -7.4871    1.0000 </r>
       <r>   -7.3335    1.0000 </r>
       <r>   -7.2910    1.0000 </r>
       <r>   -7.2770    1.0000 </r>
       <r>   -7.2629    1.0000 </r>
       <r>   -7.2459    1.0000 </r>
       <r>   -7.2348    1.0000 </r>
       <r>   -7.2236    1.0000 </r>
       <r>   -7.2063    1.0000 </r>
       <r>   -7.1937    1.0000 </r>
       <r>   -7.1786    1.0000 </r>
       <r>   -7.1702    1.0000 </r>
       <r>   -7.1577    1.0000 </r>
       <r>   -7.1485    1.0000 </r>
       <r>   -7.1423    1.0000 </r>
       <r>   -7.1362    1.0000 </r>
       <r>   -7.1347    1.0000 </r>
       <r>   -7.1247    1.0000 </r>
       <r>   -7.1221    1.0000 </r>
       <r>   -7.1177    1.0000 </r>
       <r>   -7.1104    1.0000 </r>
       <r>   -7.1050    1.0000 </r>
       <r>   -7.1008    1.0000 </r>
       <r>   -7.0967    1.0000 </r>
       <r>   -7.0815    1.0000 </r>
       <r>   -7.0673    1.0000 </r>
       <r>   -7.0615    1.0000 </r>
       <r>   -7.0415    1.0000 </r>
       <r>   -3.2571    1.0000 </r>
       <r>   -3.1728    1.0000 </r>
       <r>   -3.1517    1.0000 </r>
       <r>   -2.9952    1.0000 </r>
       <r>   -2.9151    1.0000 </r>
       <r>   -2.7087    1.0000 </r>
       <r>   -2.6732    1.0000 </r>
       <r>   -2.6643    1.0000 </r>
       <r>   -2.5918    1.0000 </r>
       <r>   -2.5847    1.0000 </r>
       <r>   -2.5596    1.0000 </r>
       <r>   -2.4489    1.0000 </r>
       <r>   -2.4151    1.0000 </r>
       <r>   -2.3979    1.0000 </r>
       <r>   -2.3706    1.0000 </r>
       <r>   -2.3418    1.0000 </r>
       <r>   -2.3035    1.0000 </r>
       <r>   -2.2978    1.0000 </r>
       <r>   -2.2691    1.0000 </r>
       <r>   -2.1263    1.0000 </r>
       <r>   -2.0329    1.0000 </r>
       <r>   -2.0231    1.0000 </r>
       <r>   -1.9561    1.0000 </r>
       <r>   -1.8904    1.0000 </r>
       <r>   -1.8265    1.0000 </r>
       <r>   -1.7861    1.0000 </r>
       <r>   -1.7622    1.0000 </r>
       <r>   -1.7497    1.0000 </r>
       <r>   -1.6933    1.0000 </r>
       <r>   -1.6792    1.0000 </r>
       <r>   -1.6569    1.0000 </r>
       <r>   -1.6301    1.0000 </r>
       <r>   -1.6002    1.0000 </r>
       <r>   -1.5906    1.0000 </r>
       <r>   -1.5773    1.0000 </r>
       <r>   -1.4978    1.0000 </r>
       <r>   -1.4938    1.0000 </r>
       <r>   -1.4831    1.0000 </r>
       <r>   -1.4632    1.0000 </r>
       <r>   -1.4514    1.0000 </r>
       <r>   -1.4268    1.0000 </r>
       <r>   -1.3876    1.0000 </r>
       <r>   -1.3677    1.0000 </r>
       <r>   -1.3378    1.0000 </r>
       <r>   -1.3252    1.0000 </r>
       <r>   -1.2894    1.0000 </r>
       <r>   -1.2729    1.0000 </r>
       <r>   -1.2535    1.0000 </r>
       <r>   -1.2448    1.0000 </r>
       <r>   -1.2258    1.0000 </r>
       <r>   -1.2019    1.0000 </r>
       <r>   -1.1785    1.0000 </r>
       <r>   -1.1708    1.0000 </r>
       <r>   -1.1668    1.0000 </r>
       <r>   -1.1474    1.0000 </r>
       <r>   -1.1356    1.0000 </r>
       <r>   -1.1259    1.0000 </r>
       <r>   -1.1166    1.0000 </r>
       <r>   -1.1074    1.0000 </r>
       <r>   -1.0614    1.0000 </r>
       <r>   -1.0455    1.0000 </r>
       <r>   -0.9547    1.0000 </r>
       <r>   -0.9246    1.0000 </r>
       <r>   -0.8593    1.0000 </r>
       <r>   -0.8228    1.0000 </r>
       <r>   -0.6883    1.0000 </r>
       <r>   -0.4819    1.0000 </r>
       <r>   -0.4621    1.0000 </r>
       <r>   -0.4321    1.0000 </r>
       <r>    2.5146    0.0000 </r>
       <r>    3.1361    0.0000 </r>
       <r>    3.1498    0.0000 </r>
       <r>    3.1871    0.0000 </r>
       <r>    3.3733    0.0000 </r>
       <r>    3.9533    0.0000 </r>
       <r>    4.2555    0.0000 </r>
       <r>    4.2783    0.0000 </r>
       <r>    4.3353    0.0000 </r>
       <r>    4.3690    0.0000 </r>
       <r>    4.4380    0.0000 </r>
       <r>    4.4846    0.0000 </r>
       <r>    4.5193    0.0000 </r>
       <r>    4.5440    0.0000 </r>
       <r>    4.5982    0.0000 </r>
       <r>    4.6700    0.0000 </r>
       <r>    4.7331    0.0000 </r>
       <r>    4.7454    0.0000 </r>
       <r>    4.7870    0.0000 </r>
       <r>    4.8844    0.0000 </r>
       <r>    4.8980    0.0000 </r>
       <r>    5.7172    0.0000 </r>
       <r>    5.7615    0.0000 </r>
       <r>    5.7832    0.0000 </r>
       <r>    5.9082    0.0000 </r>
       <r>    5.9815    0.0000 </r>
       <r>    6.0617    0.0000 </r>
       <r>    6.1122    0.0000 </r>
       <r>    6.1573    0.0000 </r>
       <r>    6.2852    0.0000 </r>
       <r>    6.3391    0.0000 </r>
       <r>    6.3525    0.0000 </r>
       <r>    6.4972    0.0000 </r>
       <r>    6.5111    0.0000 </r>
       <r>    6.5532    0.0000 </r>
       <r>    6.6017    0.0000 </r>
      </set>
      <set comment="kpoint 5">
       <r>  -20.8831    1.0000 </r>
       <r>  -20.8112    1.0000 </r>
       <r>  -20.7538    1.0000 </r>
       <r>  -20.7316    1.0000 </r>
       <r>  -20.7195    1.0000 </r>
       <r>  -20.7167    1.0000 </r>
       <r>  -20.7076    1.0000 </r>
       <r>  -20.6831    1.0000 </r>
       <r>  -16.7516    1.0000 </r>
       <r>  -16.7190    1.0000 </r>
       <r>  -16.6934    1.0000 </r>
       <r>  -16.6723    1.0000 </r>
       <r>  -16.6687    1.0000 </r>
       <r>  -16.6600    1.0000 </r>
       <r>  -16.6479    1.0000 </r>
       <r>  -16.6207    1.0000 </r>
       <r>  -16.5702    1.0000 </r>
       <r>  -16.5610    1.0000 </r>
       <r>  -16.5557    1.0000 </r>
       <r>  -16.5547    1.0000 </r>
       <r>  -16.5491    1.0000 </r>
       <r>  -16.5192    1.0000 </r>
       <r>  -16.5080    1.0000 </r>
       <r>  -16.4705    1.0000 </r>
       <r>  -16.4569    1.0000 </r>
       <r>  -16.4370    1.0000 </r>
       <r>  -16.4130    1.0000 </r>
       <r>  -16.4123    1.0000 </r>
       <r>  -16.4091    1.0000 </r>
       <r>  -16.4030    1.0000 </r>
       <r>  -16.3971    1.0000 </r>
       <r>  -16.3879    1.0000 </r>
       <r>  -16.3764    1.0000 </r>
       <r>  -16.3096    1.0000 </r>
       <r>  -16.3092    1.0000 </r>
       <r>  -16.3053    1.0000 </r>
       <r>  -16.3039    1.0000 </r>
       <r>  -16.3027    1.0000 </r>
       <r>  -16.3026    1.0000 </r>
       <r>  -16.3014    1.0000 </r>
       <r>  -16.3001    1.0000 </r>
       <r>  -16.2947    1.0000 </r>
       <r>  -16.2946    1.0000 </r>
       <r>  -16.2939    1.0000 </r>
       <r>  -16.2935    1.0000 </r>
       <r>  -16.2930    1.0000 </r>
       <r>  -16.2881    1.0000 </r>
       <r>  -16.2865    1.0000 </r>
       <r>  -14.4952    1.0000 </r>
       <r>  -14.4344    1.0000 </r>
       <r>  -14.3134    1.0000 </r>
       <r>  -14.2394    1.0000 </r>
       <r>  -14.1686    1.0000 </r>
       <r>  -14.1376    1.0000 </r>
       <r>  -14.1204    1.0000 </r>
       <r>  -14.0770    1.0000 </r>
       <r>  -14.0656    1.0000 </r>
       <r>  -14.0578    1.0000 </r>
       <r>  -14.0430    1.0000 </r>
       <r>  -14.0405    1.0000 </r>
       <r>  -14.0078    1.0000 </r>
       <r>  -14.0014    1.0000 </r>
       <r>  -13.9809    1.0000 </r>
       <r>  -13.9454    1.0000 </r>
       <r>  -13.9095    1.0000 </r>
       <r>  -13.8739    1.0000 </r>
       <r>  -13.8513    1.0000 </r>
       <r>  -13.8096    1.0000 </r>
       <r>  -13.7855    1.0000 </r>
       <r>  -13.7756    1.0000 </r>
       <r>  -13.7566    1.0000 </r>
       <r>   -8.0716    1.0000 </r>
       <r>   -7.9828    1.0000 </r>
       <r>   -7.6599    1.0000 </r>
       <r>   -7.5204    1.0000 </r>
       <r>   -7.4880    1.0000 </r>
       <r>   -7.4375    1.0000 </r>
       <r>   -7.3350    1.0000 </r>
       <r>   -7.2742    1.0000 </r>
       <r>   -7.2551    1.0000 </r>
       <r>   -7.2450    1.0000 </r>
       <r>   -7.2155    1.0000 </r>
       <r>   -7.1996    1.0000 </r>
       <r>   -7.1841    1.0000 </r>
       <r>   -7.1616    1.0000 </r>
       <r>   -7.1529    1.0000 </r>
       <r>   -7.1499    1.0000 </r>
       <r>   -7.1466    1.0000 </r>
       <r>   -7.1420    1.0000 </r>
       <r>   -7.1391    1.0000 </r>
       <r>   -7.1346    1.0000 </r>
       <r>   -7.1295    1.0000 </r>
       <r>   -7.1216    1.0000 </r>
       <r>   -7.1177    1.0000 </r>
       <r>   -7.1124    1.0000 </r>
       <r>   -7.1059    1.0000 </r>
       <r>   -7.0989    1.0000 </r>
       <r>   -7.0931    1.0000 </r>
       <r>   -7.0837    1.0000 </r>
       <r>   -7.0715    1.0000 </r>
       <r>   -7.0701    1.0000 </r>
       <r>   -6.9530    1.0000 </r>
       <r>   -6.8521    1.0000 </r>
       <r>   -3.4099    1.0000 </r>
       <r>   -3.2951    1.0000 </r>
       <r>   -3.2771    1.0000 </r>
       <r>   -3.2450    1.0000 </r>
       <r>   -3.2224    1.0000 </r>
       <r>   -3.1582    1.0000 </r>
       <r>   -3.1165    1.0000 </r>
       <r>   -2.9695    1.0000 </r>
       <r>   -2.9201    1.0000 </r>
       <r>   -2.5481    1.0000 </r>
       <r>   -2.5185    1.0000 </r>
       <r>   -2.4847    1.0000 </r>
       <r>   -2.4155    1.0000 </r>
       <r>   -2.3998    1.0000 </r>
       <r>   -2.3231    1.0000 </r>
       <r>   -2.1644    1.0000 </r>
       <r>   -2.1280    1.0000 </r>
       <r>   -2.0732    1.0000 </r>
       <r>   -2.0633    1.0000 </r>
       <r>   -2.0170    1.0000 </r>
       <r>   -1.9527    1.0000 </r>
       <r>   -1.9429    1.0000 </r>
       <r>   -1.8946    1.0000 </r>
       <r>   -1.8330    1.0000 </r>
       <r>   -1.7677    1.0000 </r>
       <r>   -1.7069    1.0000 </r>
       <r>   -1.6898    1.0000 </r>
       <r>   -1.6722    1.0000 </r>
       <r>   -1.6153    1.0000 </r>
       <r>   -1.5864    1.0000 </r>
       <r>   -1.5558    1.0000 </r>
       <r>   -1.5432    1.0000 </r>
       <r>   -1.5292    1.0000 </r>
       <r>   -1.5103    1.0000 </r>
       <r>   -1.4816    1.0000 </r>
       <r>   -1.4675    1.0000 </r>
       <r>   -1.4529    1.0000 </r>
       <r>   -1.4369    1.0000 </r>
       <r>   -1.4281    1.0000 </r>
       <r>   -1.4189    1.0000 </r>
       <r>   -1.3988    1.0000 </r>
       <r>   -1.3901    1.0000 </r>
       <r>   -1.3774    1.0000 </r>
       <r>   -1.3621    1.0000 </r>
       <r>   -1.3471    1.0000 </r>
       <r>   -1.3229    1.0000 </r>
       <r>   -1.3102    1.0000 </r>
       <r>   -1.2965    1.0000 </r>
       <r>   -1.2688    1.0000 </r>
       <r>   -1.2550    1.0000 </r>
       <r>   -1.2485    1.0000 </r>
       <r>   -1.2328    1.0000 </r>
       <r>   -1.2093    1.0000 </r>
       <r>   -1.1864    1.0000 </r>
       <r>   -1.1670    1.0000 </r>
       <r>   -1.1383    1.0000 </r>
       <r>   -1.1055    1.0000 </r>
       <r>   -1.0916    1.0000 </r>
       <r>   -1.0648    1.0000 </r>
       <r>   -1.0330    1.0000 </r>
       <r>   -0.9740    1.0000 </r>
       <r>   -0.9154    1.0000 </r>
       <r>   -0.8885    1.0000 </r>
       <r>   -0.7528    1.0000 </r>
       <r>   -0.6073    1.0000 </r>
       <r>   -0.5644    1.0000 </r>
       <r>   -0.5124    1.0000 </r>
       <r>   -0.0957    1.0000 </r>
       <r>    0.0139    1.0000 </r>
       <r>    2.5607    0.0000 </r>
       <r>    2.8660    0.0000 </r>
       <r>    2.9387    0.0000 </r>
       <r>    2.9509    0.0000 </r>
       <r>    3.1101    0.0000 </r>
       <r>    3.2414    0.0000 </r>
       <r>    3.2796    0.0000 </r>
       <r>    3.3443    0.0000 </r>
       <r>    3.4895    0.0000 </r>
       <r>    4.0107    0.0000 </r>
       <r>    4.2784    0.0000 </r>
       <r>    4.3870    0.0000 </r>
       <r>    4.4845    0.0000 </r>
       <r>    4.5429    0.0000 </r>
       <r>    4.6510    0.0000 </r>
       <r>    4.7401    0.0000 </r>
       <r>    4.8626    0.0000 </r>
       <r>    5.4289    0.0000 </r>
       <r>    5.5786    0.0000 </r>
       <r>    5.6512    0.0000 </r>
       <r>    5.6829    0.0000 </r>
       <r>    5.8645    0.0000 </r>
       <r>    5.9397    0.0000 </r>
       <r>    6.0274    0.0000 </r>
       <r>    6.0550    0.0000 </r>
       <r>    6.0881    0.0000 </r>
       <r>    6.1675    0.0000 </r>
       <r>    6.2179    0.0000 </r>
       <r>    6.2377    0.0000 </r>
       <r>    6.3019    0.0000 </r>
       <r>    6.3603    0.0000 </r>
       <r>    6.3976    0.0000 </r>
       <r>    6.4704    0.0000 </r>
       <r>    6.5561    0.0000 </r>
       <r>    6.5627    0.0000 </r>
       <r>    6.5960    0.0000 </r>
      </set>
      <set comment="kpoint 6">
       <r>  -20.8831    1.0000 </r>
       <r>  -20.8112    1.0000 </r>
       <r>  -20.7537    1.0000 </r>
       <r>  -20.7316    1.0000 </r>
       <r>  -20.7195    1.0000 </r>
       <r>  -20.7165    1.0000 </r>
       <r>  -20.7078    1.0000 </r>
       <r>  -20.6831    1.0000 </r>
       <r>  -16.7507    1.0000 </r>
       <r>  -16.7188    1.0000 </r>
       <r>  -16.6927    1.0000 </r>
       <r>  -16.6716    1.0000 </r>
       <r>  -16.6686    1.0000 </r>
       <r>  -16.6593    1.0000 </r>
       <r>  -16.6453    1.0000 </r>
       <r>  -16.6186    1.0000 </r>
       <r>  -16.5702    1.0000 </r>
       <r>  -16.5609    1.0000 </r>
       <r>  -16.5557    1.0000 </r>
       <r>  -16.5547    1.0000 </r>
       <r>  -16.5492    1.0000 </r>
       <r>  -16.5192    1.0000 </r>
       <r>  -16.5081    1.0000 </r>
       <r>  -16.4695    1.0000 </r>
       <r>  -16.4575    1.0000 </r>
       <r>  -16.4156    1.0000 </r>
       <r>  -16.4152    1.0000 </r>
       <r>  -16.4118    1.0000 </r>
       <r>  -16.4110    1.0000 </r>
       <r>  -16.4091    1.0000 </r>
       <r>  -16.4013    1.0000 </r>
       <r>  -16.3937    1.0000 </r>
       <r>  -16.3891    1.0000 </r>
       <r>  -16.3096    1.0000 </r>
       <r>  -16.3091    1.0000 </r>
       <r>  -16.3053    1.0000 </r>
       <r>  -16.3039    1.0000 </r>
       <r>  -16.3027    1.0000 </r>
       <r>  -16.3026    1.0000 </r>
       <r>  -16.3014    1.0000 </r>
       <r>  -16.3001    1.0000 </r>
       <r>  -16.2946    1.0000 </r>
       <r>  -16.2946    1.0000 </r>
       <r>  -16.2938    1.0000 </r>
       <r>  -16.2936    1.0000 </r>
       <r>  -16.2930    1.0000 </r>
       <r>  -16.2881    1.0000 </r>
       <r>  -16.2865    1.0000 </r>
       <r>  -14.4911    1.0000 </r>
       <r>  -14.4271    1.0000 </r>
       <r>  -14.3278    1.0000 </r>
       <r>  -14.2598    1.0000 </r>
       <r>  -14.1751    1.0000 </r>
       <r>  -14.1635    1.0000 </r>
       <r>  -14.1351    1.0000 </r>
       <r>  -14.1034    1.0000 </r>
       <r>  -14.0647    1.0000 </r>
       <r>  -14.0571    1.0000 </r>
       <r>  -14.0451    1.0000 </r>
       <r>  -14.0177    1.0000 </r>
       <r>  -14.0135    1.0000 </r>
       <r>  -13.9166    1.0000 </r>
       <r>  -13.9094    1.0000 </r>
       <r>  -13.9057    1.0000 </r>
       <r>  -13.8740    1.0000 </r>
       <r>  -13.8691    1.0000 </r>
       <r>  -13.8608    1.0000 </r>
       <r>  -13.8418    1.0000 </r>
       <r>  -13.8163    1.0000 </r>
       <r>  -13.8089    1.0000 </r>
       <r>  -13.8022    1.0000 </r>
       <r>   -7.9126    1.0000 </r>
       <r>   -7.7982    1.0000 </r>
       <r>   -7.7520    1.0000 </r>
       <r>   -7.7449    1.0000 </r>
       <r>   -7.4553    1.0000 </r>
       <r>   -7.3426    1.0000 </r>
       <r>   -7.2917    1.0000 </r>
       <r>   -7.2773    1.0000 </r>
       <r>   -7.2603    1.0000 </r>
       <r>   -7.2478    1.0000 </r>
       <r>   -7.2182    1.0000 </r>
       <r>   -7.2142    1.0000 </r>
       <r>   -7.2106    1.0000 </r>
       <r>   -7.1817    1.0000 </r>
       <r>   -7.1713    1.0000 </r>
       <r>   -7.1627    1.0000 </r>
       <r>   -7.1462    1.0000 </r>
       <r>   -7.1454    1.0000 </r>
       <r>   -7.1417    1.0000 </r>
       <r>   -7.1284    1.0000 </r>
[...]
        <r>  0.0000  0.0024  0.0003 </r>
        <r>  0.0003  0.0033  0.0004 </r>
        <r>  0.0014  0.0000  0.0010 </r>
        <r>  0.0002  0.0009  0.0007 </r>
        <r>  0.0000  0.0011  0.0015 </r>
        <r>  0.0006  0.0027  0.0006 </r>
        <r>  0.0005  0.0008  0.0005 </r>
        <r>  0.0003  0.0031  0.0011 </r>
        <r>  0.0000  0.0024  0.0004 </r>
       </set>
       <set comment="band 199">
        <r>  0.0015  0.0006  0.0042 </r>
        <r>  0.0018  0.0008  0.0041 </r>
        <r>  0.0001  0.0017  0.0054 </r>
        <r>  0.0003  0.0003  0.0100 </r>
        <r>  0.0016  0.0002  0.0074 </r>
        <r>  0.0033  0.0007  0.0083 </r>
        <r>  0.0080  0.0009  0.0142 </r>
        <r>  0.0012  0.0001  0.0058 </r>
        <r>  0.0001  0.0025  0.0001 </r>
        <r>  0.0002  0.0098  0.0003 </r>
        <r>  0.0000  0.0043  0.0002 </r>
        <r>  0.0000  0.0022  0.0005 </r>
        <r>  0.0000  0.0060  0.0002 </r>
        <r>  0.0000  0.0029  0.0001 </r>
        <r>  0.0001  0.0029  0.0003 </r>
        <r>  0.0003  0.0090  0.0004 </r>
        <r>  0.0004  0.0018  0.0019 </r>
        <r>  0.0011  0.0027  0.0020 </r>
        <r>  0.0000  0.0006  0.0013 </r>
        <r>  0.0043  0.0013  0.0016 </r>
        <r>  0.0002  0.0018  0.0006 </r>
        <r>  0.0000  0.0029  0.0008 </r>
        <r>  0.0000  0.0022  0.0002 </r>
        <r>  0.0000  0.0018  0.0002 </r>
        <r>  0.0001  0.0071  0.0002 </r>
        <r>  0.0008  0.0023  0.0010 </r>
        <r>  0.0003  0.0016  0.0014 </r>
        <r>  0.0000  0.0011  0.0004 </r>
        <r>  0.0005  0.0009  0.0004 </r>
        <r>  0.0000  0.0032  0.0014 </r>
        <r>  0.0002  0.0001  0.0005 </r>
        <r>  0.0027  0.0000  0.0030 </r>
        <r>  0.0002  0.0039  0.0001 </r>
        <r>  0.0007  0.0040  0.0009 </r>
        <r>  0.0003  0.0007  0.0016 </r>
        <r>  0.0005  0.0013  0.0012 </r>
        <r>  0.0001  0.0034  0.0010 </r>
        <r>  0.0001  0.0020  0.0003 </r>
        <r>  0.0001  0.0014  0.0004 </r>
       </set>
       <set comment="band 200">
        <r>  0.0142  0.0011  0.0094 </r>
        <r>  0.0022  0.0006  0.0105 </r>
        <r>  0.0025  0.0000  0.0127 </r>
        <r>  0.0000  0.0001  0.0075 </r>
        <r>  0.0008  0.0014  0.0061 </r>
        <r>  0.0001  0.0009  0.0049 </r>
        <r>  0.0003  0.0002  0.0030 </r>
        <r>  0.0000  0.0011  0.0069 </r>
        <r>  0.0000  0.0042  0.0001 </r>
        <r>  0.0002  0.0033  0.0002 </r>
        <r>  0.0000  0.0022  0.0002 </r>
        <r>  0.0000  0.0067  0.0001 </r>
        <r>  0.0000  0.0065  0.0003 </r>
        <r>  0.0000  0.0018  0.0001 </r>
        <r>  0.0000  0.0035  0.0002 </r>
        <r>  0.0000  0.0074  0.0004 </r>
        <r>  0.0001  0.0050  0.0004 </r>
        <r>  0.0002  0.0031  0.0010 </r>
        <r>  0.0001  0.0032  0.0004 </r>
        <r>  0.0016  0.0058  0.0015 </r>
        <r>  0.0001  0.0007  0.0013 </r>
        <r>  0.0023  0.0004  0.0026 </r>
        <r>  0.0008  0.0020  0.0029 </r>
        <r>  0.0006  0.0012  0.0010 </r>
        <r>  0.0001  0.0003  0.0004 </r>
        <r>  0.0000  0.0023  0.0004 </r>
        <r>  0.0002  0.0047  0.0002 </r>
        <r>  0.0004  0.0037  0.0011 </r>
        <r>  0.0003  0.0026  0.0006 </r>
        <r>  0.0011  0.0009  0.0010 </r>
        <r>  0.0015  0.0009  0.0011 </r>
        <r>  0.0001  0.0005  0.0004 </r>
        <r>  0.0007  0.0007  0.0015 </r>
        <r>  0.0000  0.0012  0.0005 </r>
        <r>  0.0003  0.0043  0.0002 </r>
        <r>  0.0001  0.0018  0.0006 </r>
        <r>  0.0016  0.0035  0.0010 </r>
        <r>  0.0029  0.0009  0.0028 </r>
        <r>  0.0004  0.0009  0.0005 </r>
       </set>
       <set comment="band 201">
        <r>  0.0001  0.0020  0.0080 </r>
        <r>  0.0007  0.0008  0.0049 </r>
        <r>  0.0046  0.0005  0.0048 </r>
        <r>  0.0018  0.0005  0.0053 </r>
        <r>  0.0041  0.0006  0.0082 </r>
        <r>  0.0062  0.0003  0.0090 </r>
        <r>  0.0001  0.0012  0.0073 </r>
        <r>  0.0001  0.0007  0.0166 </r>
        <r>  0.0000  0.0002  0.0003 </r>
        <r>  0.0000  0.0004  0.0005 </r>
        <r>  0.0000  0.0063  0.0002 </r>
        <r>  0.0000  0.0041  0.0000 </r>
        <r>  0.0001  0.0065  0.0001 </r>
        <r>  0.0001  0.0026  0.0002 </r>
        <r>  0.0000  0.0059  0.0002 </r>
        <r>  0.0000  0.0145  0.0002 </r>
        <r>  0.0006  0.0056  0.0009 </r>
        <r>  0.0013  0.0036  0.0012 </r>
        <r>  0.0001  0.0021  0.0003 </r>
        <r>  0.0004  0.0022  0.0009 </r>
        <r>  0.0003  0.0026  0.0003 </r>
        <r>  0.0014  0.0024  0.0024 </r>
        <r>  0.0008  0.0013  0.0013 </r>
        <r>  0.0010  0.0020  0.0018 </r>
        <r>  0.0009  0.0013  0.0006 </r>
        <r>  0.0005  0.0023  0.0005 </r>
        <r>  0.0002  0.0011  0.0006 </r>
        <r>  0.0003  0.0013  0.0014 </r>
        <r>  0.0001  0.0007  0.0004 </r>
        <r>  0.0001  0.0012  0.0005 </r>
        <r>  0.0001  0.0001  0.0004 </r>
        <r>  0.0000  0.0021  0.0006 </r>
        <r>  0.0004  0.0004  0.0008 </r>
        <r>  0.0000  0.0002  0.0012 </r>
        <r>  0.0008  0.0011  0.0010 </r>
        <r>  0.0005  0.0032  0.0006 </r>
        <r>  0.0050  0.0065  0.0017 </r>
        <r>  0.0015  0.0034  0.0031 </r>
        <r>  0.0001  0.0023  0.0013 </r>
       </set>
       <set comment="band 202">
        <r>  0.0023  0.0011  0.0065 </r>
        <r>  0.0048  0.0015  0.0068 </r>
        <r>  0.0041  0.0001  0.0092 </r>
        <r>  0.0028  0.0010  0.0081 </r>
        <r>  0.0025  0.0009  0.0058 </r>
        <r>  0.0025  0.0001  0.0044 </r>
        <r>  0.0004  0.0012  0.0094 </r>
        <r>  0.0004  0.0012  0.0050 </r>
        <r>  0.0000  0.0014  0.0003 </r>
        <r>  0.0000  0.0183  0.0006 </r>
        <r>  0.0000  0.0028  0.0005 </r>
        <r>  0.0000  0.0041  0.0001 </r>
        <r>  0.0001  0.0056  0.0002 </r>
        <r>  0.0000  0.0065  0.0001 </r>
        <r>  0.0000  0.0030  0.0001 </r>
        <r>  0.0004  0.0094  0.0006 </r>
        <r>  0.0009  0.0020  0.0020 </r>
        <r>  0.0015  0.0022  0.0013 </r>
        <r>  0.0013  0.0005  0.0016 </r>
        <r>  0.0016  0.0034  0.0023 </r>
        <r>  0.0006  0.0030  0.0008 </r>
        <r>  0.0007  0.0029  0.0010 </r>
        <r>  0.0001  0.0027  0.0013 </r>
        <r>  0.0001  0.0001  0.0003 </r>
        <r>  0.0002  0.0014  0.0004 </r>
        <r>  0.0007  0.0000  0.0009 </r>
        <r>  0.0019  0.0019  0.0038 </r>
        <r>  0.0006  0.0009  0.0012 </r>
        <r>  0.0006  0.0015  0.0013 </r>
        <r>  0.0010  0.0020  0.0012 </r>
        <r>  0.0000  0.0031  0.0004 </r>
        <r>  0.0000  0.0034  0.0006 </r>
        <r>  0.0002  0.0063  0.0011 </r>
        <r>  0.0002  0.0028  0.0001 </r>
        <r>  0.0000  0.0014  0.0003 </r>
        <r>  0.0000  0.0017  0.0004 </r>
        <r>  0.0006  0.0032  0.0012 </r>
        <r>  0.0003  0.0023  0.0006 </r>
        <r>  0.0004  0.0008  0.0018 </r>
       </set>
       <set comment="band 203">
        <r>  0.0000  0.0009  0.0187 </r>
        <r>  0.0074  0.0009  0.0126 </r>
        <r>  0.0029  0.0003  0.0101 </r>
        <r>  0.0001  0.0005  0.0039 </r>
        <r>  0.0059  0.0007  0.0049 </r>
        <r>  0.0009  0.0017  0.0043 </r>
        <r>  0.0002  0.0001  0.0034 </r>
        <r>  0.0006  0.0006  0.0127 </r>
        <r>  0.0000  0.0061  0.0002 </r>
        <r>  0.0000  0.0019  0.0000 </r>
        <r>  0.0000  0.0062  0.0001 </r>
        <r>  0.0000  0.0005  0.0004 </r>
        <r>  0.0000  0.0130  0.0001 </r>
        <r>  0.0000  0.0061  0.0001 </r>
        <r>  0.0000  0.0017  0.0002 </r>
        <r>  0.0000  0.0013  0.0001 </r>
        <r>  0.0000  0.0014  0.0003 </r>
        <r>  0.0003  0.0037  0.0018 </r>
        <r>  0.0024  0.0044  0.0034 </r>
        <r>  0.0004  0.0007  0.0016 </r>
        <r>  0.0004  0.0043  0.0008 </r>
        <r>  0.0009  0.0016  0.0034 </r>
        <r>  0.0015  0.0021  0.0012 </r>
        <r>  0.0013  0.0044  0.0022 </r>
        <r>  0.0000  0.0020  0.0005 </r>
        <r>  0.0002  0.0017  0.0003 </r>
        <r>  0.0000  0.0008  0.0005 </r>
        <r>  0.0009  0.0010  0.0025 </r>
        <r>  0.0008  0.0034  0.0007 </r>
        <r>  0.0000  0.0011  0.0004 </r>
        <r>  0.0008  0.0024  0.0015 </r>
        <r>  0.0003  0.0002  0.0013 </r>
        <r>  0.0000  0.0003  0.0008 </r>
        <r>  0.0006  0.0002  0.0004 </r>
        <r>  0.0014  0.0022  0.0019 </r>
        <r>  0.0002  0.0001  0.0010 </r>
        <r>  0.0003  0.0025  0.0009 </r>
        <r>  0.0001  0.0025  0.0004 </r>
        <r>  0.0001  0.0015  0.0007 </r>
       </set>
       <set comment="band 204">
        <r>  0.0003  0.0005  0.0148 </r>
        <r>  0.0011  0.0004  0.0045 </r>
        <r>  0.0014  0.0012  0.0096 </r>
        <r>  0.0013  0.0009  0.0116 </r>
        <r>  0.0017  0.0009  0.0184 </r>
        <r>  0.0007  0.0004  0.0081 </r>
        <r>  0.0008  0.0005  0.0067 </r>
        <r>  0.0059  0.0015  0.0068 </r>
        <r>  0.0000  0.0007  0.0005 </r>
        <r>  0.0000  0.0042  0.0003 </r>
        <r>  0.0000  0.0009  0.0001 </r>
        <r>  0.0000  0.0046  0.0001 </r>
        <r>  0.0000  0.0062  0.0003 </r>
        <r>  0.0000  0.0030  0.0007 </r>
        <r>  0.0000  0.0132  0.0001 </r>
        <r>  0.0000  0.0049  0.0004 </r>
        <r>  0.0011  0.0019  0.0012 </r>
        <r>  0.0002  0.0040  0.0016 </r>
        <r>  0.0013  0.0025  0.0017 </r>
        <r>  0.0000  0.0030  0.0009 </r>
        <r>  0.0010  0.0029  0.0019 </r>
        <r>  0.0003  0.0017  0.0007 </r>
        <r>  0.0000  0.0036  0.0010 </r>
        <r>  0.0001  0.0041  0.0015 </r>
        <r>  0.0001  0.0007  0.0008 </r>
        <r>  0.0009  0.0013  0.0017 </r>
        <r>  0.0003  0.0015  0.0014 </r>
        <r>  0.0008  0.0008  0.0008 </r>
        <r>  0.0000  0.0006  0.0007 </r>
        <r>  0.0002  0.0019  0.0005 </r>
        <r>  0.0007  0.0011  0.0018 </r>
        <r>  0.0002  0.0002  0.0008 </r>
        <r>  0.0000  0.0016  0.0008 </r>
        <r>  0.0003  0.0001  0.0006 </r>
        <r>  0.0000  0.0015  0.0007 </r>
        <r>  0.0004  0.0042  0.0009 </r>
        <r>  0.0011  0.0025  0.0010 </r>
        <r>  0.0018  0.0007  0.0022 </r>
        <r>  0.0001  0.0013  0.0017 </r>
       </set>
       <set comment="band 205">
        <r>  0.0000  0.0002  0.0136 </r>
        <r>  0.0000  0.0002  0.0093 </r>
        <r>  0.0039  0.0011  0.0209 </r>
        <r>  0.0055  0.0003  0.0026 </r>
        <r>  0.0005  0.0005  0.0031 </r>
        <r>  0.0012  0.0006  0.0084 </r>
        <r>  0.0019  0.0022  0.0173 </r>
        <r>  0.0000  0.0013  0.0113 </r>
        <r>  0.0000  0.0012  0.0004 </r>
        <r>  0.0000  0.0027  0.0001 </r>
        <r>  0.0000  0.0112  0.0002 </r>
        <r>  0.0000  0.0090  0.0001 </r>
        <r>  0.0000  0.0033  0.0001 </r>
        <r>  0.0000  0.0001  0.0002 </r>
        <r>  0.0000  0.0042  0.0003 </r>
        <r>  0.0000  0.0068  0.0003 </r>
        <r>  0.0002  0.0042  0.0016 </r>
        <r>  0.0000  0.0005  0.0007 </r>
        <r>  0.0001  0.0042  0.0008 </r>
        <r>  0.0007  0.0028  0.0003 </r>
        <r>  0.0024  0.0003  0.0039 </r>
        <r>  0.0002  0.0001  0.0005 </r>
        <r>  0.0000  0.0003  0.0004 </r>
        <r>  0.0004  0.0010  0.0010 </r>
        <r>  0.0001  0.0017  0.0005 </r>
        <r>  0.0002  0.0005  0.0010 </r>
        <r>  0.0001  0.0009  0.0003 </r>
        <r>  0.0002  0.0027  0.0005 </r>
        <r>  0.0024  0.0038  0.0036 </r>
        <r>  0.0008  0.0015  0.0022 </r>
        <r>  0.0009  0.0023  0.0021 </r>
        <r>  0.0006  0.0033  0.0014 </r>
        <r>  0.0000  0.0024  0.0004 </r>
        <r>  0.0006  0.0000  0.0002 </r>
        <r>  0.0023  0.0034  0.0027 </r>
        <r>  0.0002  0.0005  0.0010 </r>
        <r>  0.0000  0.0013  0.0008 </r>
        <r>  0.0004  0.0014  0.0006 </r>
        <r>  0.0001  0.0004  0.0012 </r>
       </set>
       <set comment="band 206">
        <r>  0.0005  0.0006  0.0082 </r>
        <r>  0.0003  0.0001  0.0201 </r>
        <r>  0.0026  0.0001  0.0220 </r>
        <r>  0.0014  0.0005  0.0072 </r>
        <r>  0.0002  0.0000  0.0047 </r>
        <r>  0.0005  0.0006  0.0019 </r>
        <r>  0.0003  0.0008  0.0346 </r>
        <r>  0.0016  0.0000  0.0155 </r>
        <r>  0.0000  0.0060  0.0004 </r>
        <r>  0.0000  0.0020  0.0007 </r>
        <r>  0.0000  0.0034  0.0001 </r>
        <r>  0.0000  0.0017  0.0002 </r>
        <r>  0.0000  0.0016  0.0002 </r>
        <r>  0.0001  0.0051  0.0006 </r>
        <r>  0.0000  0.0099  0.0002 </r>
        <r>  0.0000  0.0017  0.0002 </r>
        <r>  0.0000  0.0015  0.0007 </r>
        <r>  0.0000  0.0001  0.0002 </r>
        <r>  0.0002  0.0010  0.0005 </r>
        <r>  0.0001  0.0003  0.0008 </r>
        <r>  0.0025  0.0013  0.0042 </r>
        <r>  0.0000  0.0019  0.0003 </r>
        <r>  0.0000  0.0005  0.0006 </r>
        <r>  0.0005  0.0030  0.0010 </r>
        <r>  0.0005  0.0008  0.0029 </r>
        <r>  0.0001  0.0025  0.0024 </r>
        <r>  0.0003  0.0025  0.0009 </r>
        <r>  0.0008  0.0009  0.0011 </r>
        <r>  0.0015  0.0004  0.0032 </r>
        <r>  0.0000  0.0016  0.0014 </r>
        <r>  0.0000  0.0018  0.0004 </r>
        <r>  0.0003  0.0009  0.0018 </r>
        <r>  0.0001  0.0007  0.0005 </r>
        <r>  0.0003  0.0032  0.0025 </r>
        <r>  0.0004  0.0033  0.0019 </r>
        <r>  0.0000  0.0015  0.0012 </r>
        <r>  0.0007  0.0004  0.0014 </r>
        <r>  0.0000  0.0009  0.0007 </r>
        <r>  0.0012  0.0000  0.0023 </r>
       </set>
       <set comment="band 207">
        <r>  0.0015  0.0001  0.0095 </r>
        <r>  0.0000  0.0002  0.0175 </r>
        <r>  0.0001  0.0014  0.0208 </r>
        <r>  0.0018  0.0001  0.0127 </r>
        <r>  0.0002  0.0002  0.0136 </r>
        <r>  0.0028  0.0001  0.0086 </r>
        <r>  0.0000  0.0013  0.0137 </r>
        <r>  0.0052  0.0007  0.0047 </r>
        <r>  0.0000  0.0077  0.0005 </r>
        <r>  0.0001  0.0022  0.0001 </r>
        <r>  0.0001  0.0032  0.0007 </r>
        <r>  0.0002  0.0031  0.0002 </r>
        <r>  0.0000  0.0072  0.0000 </r>
        <r>  0.0000  0.0034  0.0002 </r>
        <r>  0.0000  0.0048  0.0006 </r>
        <r>  0.0000  0.0032  0.0004 </r>
        <r>  0.0010  0.0009  0.0019 </r>
        <r>  0.0002  0.0029  0.0009 </r>
        <r>  0.0002  0.0021  0.0005 </r>
        <r>  0.0006  0.0004  0.0016 </r>
        <r>  0.0007  0.0024  0.0016 </r>
        <r>  0.0004  0.0024  0.0008 </r>
        <r>  0.0000  0.0003  0.0003 </r>
        <r>  0.0000  0.0004  0.0013 </r>
        <r>  0.0003  0.0006  0.0006 </r>
        <r>  0.0008  0.0014  0.0020 </r>
        <r>  0.0001  0.0010  0.0020 </r>
        <r>  0.0021  0.0004  0.0028 </r>
        <r>  0.0002  0.0032  0.0018 </r>
        <r>  0.0001  0.0019  0.0003 </r>
        <r>  0.0006  0.0008  0.0019 </r>
        <r>  0.0003  0.0012  0.0018 </r>
        <r>  0.0006  0.0034  0.0006 </r>
        <r>  0.0000  0.0052  0.0015 </r>
        <r>  0.0006  0.0006  0.0032 </r>
        <r>  0.0009  0.0012  0.0015 </r>
        <r>  0.0001  0.0016  0.0015 </r>
        <r>  0.0003  0.0015  0.0009 </r>
        <r>  0.0003  0.0009  0.0006 </r>
       </set>
       <set comment="band 208">
        <r>  0.0003  0.0002  0.0156 </r>
        <r>  0.0009  0.0004  0.0122 </r>
        <r>  0.0019  0.0002  0.0236 </r>
        <r>  0.0023  0.0005  0.0144 </r>
        <r>  0.0002  0.0001  0.0134 </r>
        <r>  0.0001  0.0006  0.0083 </r>
        <r>  0.0019  0.0017  0.0167 </r>
        <r>  0.0007  0.0001  0.0068 </r>
        <r>  0.0000  0.0079  0.0003 </r>
        <r>  0.0000  0.0125  0.0001 </r>
        <r>  0.0000  0.0017  0.0006 </r>
        <r>  0.0000  0.0028  0.0006 </r>
        <r>  0.0000  0.0018  0.0002 </r>
        <r>  0.0000  0.0102  0.0001 </r>
        <r>  0.0001  0.0022  0.0007 </r>
        <r>  0.0001  0.0039  0.0002 </r>
        <r>  0.0003  0.0013  0.0022 </r>
        <r>  0.0006  0.0016  0.0014 </r>
        <r>  0.0003  0.0016  0.0014 </r>
        <r>  0.0000  0.0010  0.0004 </r>
        <r>  0.0003  0.0008  0.0007 </r>
        <r>  0.0000  0.0007  0.0007 </r>
        <r>  0.0001  0.0012  0.0004 </r>
        <r>  0.0008  0.0010  0.0018 </r>
        <r>  0.0002  0.0009  0.0010 </r>
        <r>  0.0010  0.0015  0.0020 </r>
        <r>  0.0005  0.0017  0.0019 </r>
        <r>  0.0005  0.0031  0.0014 </r>
        <r>  0.0003  0.0014  0.0029 </r>
        <r>  0.0003  0.0015  0.0009 </r>
        <r>  0.0002  0.0008  0.0009 </r>
        <r>  0.0005  0.0034  0.0017 </r>
        <r>  0.0003  0.0009  0.0015 </r>
        <r>  0.0010  0.0011  0.0031 </r>
        <r>  0.0003  0.0016  0.0022 </r>
        <r>  0.0003  0.0005  0.0011 </r>
        <r>  0.0002  0.0007  0.0017 </r>
        <r>  0.0005  0.0025  0.0008 </r>
        <r>  0.0002  0.0003  0.0002 </r>
       </set>
      </set>
     </set>
    </set>
   </array>
  </projected>
 </calculation>
 <structure name="finalpos" >
  <crystal>
   <varray name="basis" >
    <v>       8.45648900       0.00000000       8.04030100 </v>
    <v>       0.00000000      11.72984700       0.00000000 </v>
    <v>      -8.45648900       0.00000000       8.04030100 </v>
   </varray>
   <i name="volume">   1595.08833419 </i>
   <varray name="rec_basis" >
    <v>       0.05912619      -0.00000000       0.06218673 </v>
    <v>       0.00000000       0.08525260      -0.00000000 </v>
    <v>      -0.05912619       0.00000000       0.06218673 </v>
   </varray>
  </crystal>
  <varray name="positions" >
   <v>       0.24863700       0.23577500       0.19309900 </v>
   <v>       0.77610700       0.24494500       0.71899300 </v>
   <v>       0.77723200       0.76462900       0.25754400 </v>
   <v>       0.19268700       0.74819500       0.77138700 </v>
   <v>       0.30091700       0.25173800       0.73294900 </v>
   <v>       0.78422700       0.24480700       0.22716900 </v>
   <v>       0.73628300       0.75136500       0.80616500 </v>
   <v>       0.21483500       0.75420800       0.28762000 </v>
   <v>       0.99783400       0.00057700       0.99735200 </v>
   <v>       0.49967400       0.00160400       0.48477500 </v>
   <v>       0.49290500       0.00146200       0.99236900 </v>
   <v>       0.00604900       0.00029200       0.50663400 </v>
   <v>       0.50116700       0.50731900       0.00413700 </v>
   <v>       0.00695000       0.49258100       0.50678300 </v>
   <v>       0.99982100       0.49783800       0.00118700 </v>
   <v>       0.50759100       0.48669000       0.50841500 </v>
   <v>       0.46465800       0.75259100       0.95051600 </v>
   <v>       0.98269000       0.74638600       0.49360500 </v>
   <v>       0.96769800       0.24963800       0.97922300 </v>
   <v>       0.45627100       0.23995900       0.45161600 </v>
   <v>       0.01577100       0.74958000       0.03138200 </v>
   <v>       0.51639500       0.25583400       0.03328400 </v>
   <v>       0.03979300       0.24637200       0.54987900 </v>
   <v>       0.24813100       0.47113600       0.95578100 </v>
   <v>       0.75289500       0.45049700       0.46043300 </v>
   <v>       0.94430200       0.52782900       0.75364900 </v>
   <v>       0.54663200       0.03267800       0.73770700 </v>
   <v>       0.03433800       0.02145400       0.25516100 </v>
   <v>       0.74660000       0.97890300       0.03803100 </v>
   <v>       0.25586800       0.95870700       0.54776900 </v>
   <v>       0.24195700       0.02942700       0.93669100 </v>
   <v>       0.74752900       0.02871400       0.44908400 </v>
   <v>       0.43348200       0.97721900       0.23467900 </v>
   <v>       0.94213000       0.96933000       0.75054400 </v>
   <v>       0.75048600       0.52862100       0.05762400 </v>
   <v>       0.26127600       0.53111800       0.55451800 </v>
   <v>       0.55363200       0.47769900       0.76937000 </v>
   <v>       0.05056800       0.47075300       0.25842900 </v>
   <v>       0.50396300       0.66716900       0.35057400 </v>
  </varray>
 </structure>
</modeling>
