CsPbBr3 cubic bulk                      
           1
     8.456489    0.000000    8.040301
     0.000000   11.729847    0.000000
    -8.456489    0.000000    8.040301
   Cs   Pb   Br
   8   8  23
Direct configuration=     1
   0.24863700  0.23577500  0.19309900
   0.77610700  0.24494500  0.71899300
   0.77723200  0.76462900  0.25754400
   0.19268700  0.74819500  0.77138700
   0.30091700  0.25173800  0.73294900
   0.78422700  0.24480700  0.22716900
   0.73628300  0.75136500  0.80616500
   0.21483500  0.75420800  0.28762000
   0.99783400  0.00057700  0.99735200
   0.49967400  0.00160400  0.48477500
   0.49290500  0.00146200  0.99236900
   0.00604900  0.00029200  0.50663400
   0.50116700  0.50731900  0.00413700
   0.00695000  0.49258100  0.50678300
   0.99982100  0.49783800  0.00118700
   0.50759100  0.48669000  0.50841500
   0.46465800  0.75259100  0.95051600
   0.98269000  0.74638600  0.49360500
   0.96769800  0.24963800  0.97922300
   0.45627100  0.23995900  0.45161600
   0.01577100  0.74958000  0.03138200
   0.51639500  0.25583400  0.03328400
   0.03979300  0.24637200  0.54987900
   0.24813100  0.47113600  0.95578100
   0.75289500  0.45049700  0.46043300
   0.94430200  0.52782900  0.75364900
   0.54663200  0.03267800  0.73770700
   0.03433800  0.02145400  0.25516100
   0.74660000  0.97890300  0.03803100
   0.25586800  0.95870700  0.54776900
   0.24195700  0.02942700  0.93669100
   0.74752900  0.02871400  0.44908400
   0.43348200  0.97721900  0.23467900
   0.94213000  0.96933000  0.75054400
   0.75048600  0.52862100  0.05762400
   0.26127600  0.53111800  0.55451800
   0.55363200  0.47769900  0.76937000
   0.05056800  0.47075300  0.25842900
   0.50396300  0.66716900  0.35057400
