  20  20   1   0
  0.4165692E+02  0.8672618E-09  0.1154588E-08  0.8320320E-09  0.5000000E-15
   1.0000000000000000E-004
  CAR 
 CsPbBr3 cubic bulk                      
      8.40299587    -22.43207386  301      0.20600650      1.00000000
    -22.432  0.0000E+00  0.0000E+00
    -22.329  0.0000E+00  0.0000E+00
    -22.227  0.0000E+00  0.0000E+00
    -22.124  0.0000E+00  0.0000E+00
    -22.021  0.0000E+00  0.0000E+00
    -21.918  0.0000E+00  0.0000E+00
    -21.815  0.0000E+00  0.0000E+00
    -21.713  0.0000E+00  0.0000E+00
    -21.610  0.0000E+00  0.0000E+00
    -21.507  0.0000E+00  0.0000E+00
    -21.404  0.0000E+00  0.0000E+00
    -21.301  0.0000E+00  0.0000E+00
    -21.199  0.0000E+00  0.0000E+00
    -21.096  0.0000E+00  0.0000E+00
    -20.993  0.7783E+02  0.8000E+01
    -20.890  0.0000E+00  0.8000E+01
    -20.788  0.0000E+00  0.8000E+01
    -20.685  0.0000E+00  0.8000E+01
    -20.582  0.0000E+00  0.8000E+01
    -20.479  0.0000E+00  0.8000E+01
    -20.376  0.0000E+00  0.8000E+01
    -20.274  0.0000E+00  0.8000E+01
    -20.171  0.0000E+00  0.8000E+01
    -20.068  0.0000E+00  0.8000E+01
    -19.965  0.0000E+00  0.8000E+01
    -19.862  0.0000E+00  0.8000E+01
    -19.760  0.0000E+00  0.8000E+01
    -19.657  0.0000E+00  0.8000E+01
    -19.554  0.0000E+00  0.8000E+01
    -19.451  0.0000E+00  0.8000E+01
    -19.349  0.0000E+00  0.8000E+01
    -19.246  0.0000E+00  0.8000E+01
    -19.143  0.0000E+00  0.8000E+01
    -19.040  0.0000E+00  0.8000E+01
    -18.937  0.0000E+00  0.8000E+01
    -18.835  0.0000E+00  0.8000E+01
    -18.732  0.0000E+00  0.8000E+01
    -18.629  0.0000E+00  0.8000E+01
    -18.526  0.0000E+00  0.8000E+01
    -18.424  0.0000E+00  0.8000E+01
    -18.321  0.0000E+00  0.8000E+01
    -18.218  0.0000E+00  0.8000E+01
    -18.115  0.0000E+00  0.8000E+01
    -18.012  0.0000E+00  0.8000E+01
    -17.910  0.0000E+00  0.8000E+01
    -17.807  0.0000E+00  0.8000E+01
    -17.704  0.0000E+00  0.8000E+01
    -17.601  0.0000E+00  0.8000E+01
    -17.498  0.0000E+00  0.8000E+01
    -17.396  0.0000E+00  0.8000E+01
    -17.293  0.0000E+00  0.8000E+01
    -17.190  0.0000E+00  0.8000E+01
    -17.087  0.0000E+00  0.8000E+01
    -16.985  0.0000E+00  0.8000E+01
    -16.882  0.0000E+00  0.8000E+01
    -16.779  0.3376E-03  0.8000E+01
    -16.676  0.1291E+03  0.2127E+02
    -16.573  0.2335E+03  0.4800E+02
    -16.471  0.0000E+00  0.4800E+02
    -16.368  0.0000E+00  0.4800E+02
    -16.265  0.0000E+00  0.4800E+02
    -16.162  0.0000E+00  0.4800E+02
    -16.059  0.0000E+00  0.4800E+02
    -15.957  0.0000E+00  0.4800E+02
    -15.854  0.0000E+00  0.4800E+02
    -15.751  0.0000E+00  0.4800E+02
    -15.648  0.0000E+00  0.4800E+02
    -15.546  0.0000E+00  0.4800E+02
    -15.443  0.0000E+00  0.4800E+02
    -15.340  0.0000E+00  0.4800E+02
    -15.237  0.0000E+00  0.4800E+02
    -15.134  0.0000E+00  0.4800E+02
    -15.032  0.0000E+00  0.4800E+02
    -14.929  0.0000E+00  0.4800E+02
    -14.826  0.0000E+00  0.4800E+02
    -14.723  0.0000E+00  0.4800E+02
    -14.621  0.0000E+00  0.4800E+02
    -14.518  0.3030E-13  0.4800E+02
    -14.415  0.5306E+01  0.4855E+02
    -14.312  0.2544E+02  0.5139E+02
    -14.209  0.2774E+02  0.5607E+02
    -14.107  0.2318E+02  0.5894E+02
    -14.004  0.6341E+02  0.6663E+02
    -13.901  0.4204E+02  0.7177E+02
    -13.798  0.0000E+00  0.7200E+02
    -13.695  0.0000E+00  0.7200E+02
    -13.593  0.0000E+00  0.7200E+02
    -13.490  0.0000E+00  0.7200E+02
    -13.387  0.0000E+00  0.7200E+02
    -13.284  0.0000E+00  0.7200E+02
    -13.182  0.0000E+00  0.7200E+02
    -13.079  0.0000E+00  0.7200E+02
    -12.976  0.0000E+00  0.7200E+02
    -12.873  0.0000E+00  0.7200E+02
    -12.770  0.0000E+00  0.7200E+02
    -12.668  0.0000E+00  0.7200E+02
    -12.565  0.0000E+00  0.7200E+02
    -12.462  0.0000E+00  0.7200E+02
    -12.359  0.0000E+00  0.7200E+02
    -12.257  0.0000E+00  0.7200E+02
    -12.154  0.0000E+00  0.7200E+02
    -12.051  0.0000E+00  0.7200E+02
    -11.948  0.0000E+00  0.7200E+02
    -11.845  0.0000E+00  0.7200E+02
    -11.743  0.0000E+00  0.7200E+02
    -11.640  0.0000E+00  0.7200E+02
    -11.537  0.0000E+00  0.7200E+02
    -11.434  0.0000E+00  0.7200E+02
    -11.331  0.0000E+00  0.7200E+02
    -11.229  0.0000E+00  0.7200E+02
    -11.126  0.0000E+00  0.7200E+02
    -11.023  0.0000E+00  0.7200E+02
    -10.920  0.0000E+00  0.7200E+02
    -10.818  0.0000E+00  0.7200E+02
    -10.715  0.0000E+00  0.7200E+02
    -10.612  0.0000E+00  0.7200E+02
    -10.509  0.0000E+00  0.7200E+02
    -10.406  0.0000E+00  0.7200E+02
    -10.304  0.0000E+00  0.7200E+02
    -10.201  0.0000E+00  0.7200E+02
    -10.098  0.0000E+00  0.7200E+02
     -9.995  0.0000E+00  0.7200E+02
     -9.892  0.0000E+00  0.7200E+02
     -9.790  0.0000E+00  0.7200E+02
     -9.687  0.0000E+00  0.7200E+02
     -9.584  0.0000E+00  0.7200E+02
     -9.481  0.0000E+00  0.7200E+02
     -9.379  0.0000E+00  0.7200E+02
     -9.276  0.0000E+00  0.7200E+02
     -9.173  0.0000E+00  0.7200E+02
     -9.070  0.0000E+00  0.7200E+02
     -8.967  0.0000E+00  0.7200E+02
     -8.865  0.0000E+00  0.7200E+02
     -8.762  0.0000E+00  0.7200E+02
     -8.659  0.0000E+00  0.7200E+02
     -8.556  0.0000E+00  0.7200E+02
     -8.454  0.0000E+00  0.7200E+02
     -8.351  0.1045E-03  0.7200E+02
     -8.248  0.1081E+01  0.7211E+02
     -8.145  0.1736E+01  0.7229E+02
     -8.042  0.2889E+01  0.7285E+02
     -7.940  0.4774E-09  0.7322E+02
     -7.837  0.9599E+01  0.7421E+02
     -7.734  0.1234E+02  0.7582E+02
     -7.631  0.2271E-02  0.7600E+02
     -7.528  0.1081E+02  0.7733E+02
     -7.426  0.7131E+02  0.8466E+02
     -7.323  0.9188E+02  0.1028E+03
     -7.220  0.7856E+00  0.1029E+03
     -7.117  0.7747E+00  0.1035E+03
     -7.015  0.0000E+00  0.1039E+03
     -6.912  0.0000E+00  0.1039E+03
     -6.809  0.1079E+01  0.1040E+03
     -6.706  0.0000E+00  0.1040E+03
     -6.603  0.0000E+00  0.1040E+03
     -6.501  0.0000E+00  0.1040E+03
     -6.398  0.0000E+00  0.1040E+03
     -6.295  0.0000E+00  0.1040E+03
     -6.192  0.0000E+00  0.1040E+03
     -6.089  0.0000E+00  0.1040E+03
     -5.987  0.0000E+00  0.1040E+03
     -5.884  0.0000E+00  0.1040E+03
     -5.781  0.0000E+00  0.1040E+03
     -5.678  0.0000E+00  0.1040E+03
     -5.576  0.0000E+00  0.1040E+03
     -5.473  0.0000E+00  0.1040E+03
     -5.370  0.0000E+00  0.1040E+03
     -5.267  0.0000E+00  0.1040E+03
     -5.164  0.0000E+00  0.1040E+03
     -5.062  0.0000E+00  0.1040E+03
     -4.959  0.0000E+00  0.1040E+03
     -4.856  0.0000E+00  0.1040E+03
     -4.753  0.0000E+00  0.1040E+03
     -4.651  0.0000E+00  0.1040E+03
     -4.548  0.0000E+00  0.1040E+03
     -4.445  0.0000E+00  0.1040E+03
     -4.342  0.0000E+00  0.1040E+03
     -4.239  0.0000E+00  0.1040E+03
     -4.137  0.0000E+00  0.1040E+03
     -4.034  0.0000E+00  0.1040E+03
     -3.931  0.0000E+00  0.1040E+03
     -3.828  0.0000E+00  0.1040E+03
     -3.725  0.0000E+00  0.1040E+03
     -3.623  0.0000E+00  0.1040E+03
     -3.520  0.6455E-01  0.1040E+03
     -3.417  0.1341E+02  0.1055E+03
     -3.314  0.1630E+01  0.1061E+03
     -3.212  0.8648E+01  0.1071E+03
     -3.109  0.1084E+02  0.1082E+03
     -3.006  0.4324E+01  0.1091E+03
     -2.903  0.2049E+02  0.1112E+03
     -2.800  0.1517E+02  0.1131E+03
     -2.698  0.1423E+02  0.1148E+03
     -2.595  0.1081E+02  0.1160E+03
     -2.492  0.1945E+02  0.1180E+03
     -2.389  0.2162E+01  0.1182E+03
     -2.286  0.1082E+02  0.1193E+03
     -2.184  0.2271E+02  0.1221E+03
     -2.081  0.2949E+02  0.1263E+03
     -1.978  0.1106E+02  0.1277E+03
     -1.875  0.9463E+01  0.1289E+03
     -1.773  0.3889E+02  0.1336E+03
     -1.670  0.2059E+02  0.1367E+03
     -1.567  0.3917E+02  0.1429E+03
     -1.464  0.5942E+02  0.1498E+03
     -1.361  0.5237E+02  0.1566E+03
     -1.259  0.5921E+02  0.1634E+03
     -1.156  0.2860E+02  0.1679E+03
     -1.053  0.6492E+01  0.1687E+03
     -0.950  0.2364E+02  0.1713E+03
     -0.848  0.9767E+01  0.1724E+03
     -0.745  0.1297E+02  0.1742E+03
     -0.642  0.7898E+00  0.1743E+03
     -0.539  0.5492E+00  0.1747E+03
     -0.436  0.1023E-02  0.1748E+03
     -0.334  0.1080E+02  0.1759E+03
     -0.231  0.0000E+00  0.1759E+03
     -0.128  0.0000E+00  0.1759E+03
     -0.025  0.0000E+00  0.1759E+03
      0.078  0.2109E-03  0.1759E+03
      0.180  0.1081E+01  0.1760E+03
      0.283  0.0000E+00  0.1760E+03
      0.386  0.0000E+00  0.1760E+03
      0.489  0.0000E+00  0.1760E+03
      0.591  0.0000E+00  0.1760E+03
      0.694  0.0000E+00  0.1760E+03
      0.797  0.0000E+00  0.1760E+03
      0.900  0.0000E+00  0.1760E+03
      1.003  0.0000E+00  0.1760E+03
      1.105  0.0000E+00  0.1760E+03
      1.208  0.0000E+00  0.1760E+03
      1.311  0.0000E+00  0.1760E+03
      1.414  0.0000E+00  0.1760E+03
      1.516  0.0000E+00  0.1760E+03
      1.619  0.0000E+00  0.1760E+03
      1.722  0.0000E+00  0.1760E+03
      1.825  0.0000E+00  0.1760E+03
      1.928  0.0000E+00  0.1760E+03
      2.030  0.0000E+00  0.1760E+03
      2.133  0.0000E+00  0.1760E+03
      2.236  0.0000E+00  0.1760E+03
      2.339  0.6623E+00  0.1761E+03
      2.442  0.0000E+00  0.1761E+03
      2.544  0.3055E+01  0.1764E+03
      2.647  0.1915E-01  0.1764E+03
      2.750  0.3243E+01  0.1773E+03
      2.853  0.1494E+01  0.1775E+03
      2.955  0.5135E+01  0.1792E+03
      3.058  0.4316E+01  0.1797E+03
      3.161  0.1081E+02  0.1808E+03
      3.264  0.4323E+01  0.1812E+03
      3.367  0.8700E+01  0.1821E+03
      3.469  0.9724E+01  0.1833E+03
      3.572  0.6486E+01  0.1840E+03
      3.675  0.1298E+02  0.1853E+03
      3.778  0.1393E-01  0.1856E+03
      3.881  0.0000E+00  0.1860E+03
      3.983  0.0000E+00  0.1860E+03
      4.086  0.0000E+00  0.1860E+03
      4.189  0.9479E+00  0.1861E+03
      4.292  0.5176E-01  0.1862E+03
      4.394  0.4695E+01  0.1871E+03
      4.497  0.4355E+01  0.1884E+03
      4.600  0.9939E+01  0.1904E+03
      4.703  0.1192E+02  0.1921E+03
      4.806  0.2213E+02  0.1946E+03
      4.908  0.4255E+01  0.1952E+03
      5.011  0.2162E+01  0.1954E+03
      5.114  0.1655E-03  0.1954E+03
      5.217  0.4324E+01  0.1959E+03
      5.319  0.9091E+01  0.1968E+03
      5.422  0.5478E+01  0.1975E+03
      5.525  0.4245E+01  0.1981E+03
      5.628  0.8648E+01  0.1990E+03
      5.731  0.1831E+01  0.1992E+03
      5.833  0.1344E+02  0.2012E+03
      5.936  0.1472E-07  0.2014E+03
      6.039  0.2131E+02  0.2036E+03
      6.142  0.1295E+02  0.2056E+03
      6.245  0.2674E+02  0.2087E+03
      6.347  0.1175E+02  0.2105E+03
      6.450  0.1538E+02  0.2129E+03
      6.553  0.2319E+02  0.2158E+03
      6.656  0.2711E+02  0.2189E+03
      6.758  0.2744E+02  0.2224E+03
      6.861  0.2162E+01  0.2231E+03
      6.964  0.4324E+01  0.2236E+03
      7.067  0.4324E+01  0.2240E+03
      7.170  0.0000E+00  0.2240E+03
      7.272  0.0000E+00  0.2240E+03
      7.375  0.0000E+00  0.2240E+03
      7.478  0.0000E+00  0.2240E+03
      7.581  0.0000E+00  0.2240E+03
      7.684  0.0000E+00  0.2240E+03
      7.786  0.0000E+00  0.2240E+03
      7.889  0.0000E+00  0.2240E+03
      7.992  0.0000E+00  0.2240E+03
      8.095  0.0000E+00  0.2240E+03
      8.197  0.0000E+00  0.2240E+03
      8.300  0.0000E+00  0.2240E+03
      8.403  0.0000E+00  0.2240E+03
      8.40299587    -22.43207386  301      0.20600650      1.00000000
    -22.432  0.0000E+00  0.0000E+00  0.0000E+00
    -22.329  0.0000E+00  0.0000E+00  0.0000E+00
    -22.227  0.0000E+00  0.0000E+00  0.0000E+00
    -22.124  0.0000E+00  0.0000E+00  0.0000E+00
    -22.021  0.0000E+00  0.0000E+00  0.0000E+00
    -21.918  0.0000E+00  0.0000E+00  0.0000E+00
    -21.815  0.0000E+00  0.0000E+00  0.0000E+00
    -21.713  0.0000E+00  0.0000E+00  0.0000E+00
    -21.610  0.0000E+00  0.0000E+00  0.0000E+00
    -21.507  0.0000E+00  0.0000E+00  0.0000E+00
    -21.404  0.0000E+00  0.0000E+00  0.0000E+00
    -21.301  0.0000E+00  0.0000E+00  0.0000E+00
    -21.199  0.0000E+00  0.0000E+00  0.0000E+00
    -21.096  0.0000E+00  0.0000E+00  0.0000E+00
    -20.993  0.1727E+02  0.1416E-04  0.1227E-05
    -20.890  0.0000E+00  0.0000E+00  0.0000E+00
    -20.788  0.0000E+00  0.0000E+00  0.0000E+00
    -20.685  0.0000E+00  0.0000E+00  0.0000E+00
    -20.582  0.0000E+00  0.0000E+00  0.0000E+00
    -20.479  0.0000E+00  0.0000E+00  0.0000E+00
    -20.376  0.0000E+00  0.0000E+00  0.0000E+00
    -20.274  0.0000E+00  0.0000E+00  0.0000E+00
    -20.171  0.0000E+00  0.0000E+00  0.0000E+00
    -20.068  0.0000E+00  0.0000E+00  0.0000E+00
    -19.965  0.0000E+00  0.0000E+00  0.0000E+00
    -19.862  0.0000E+00  0.0000E+00  0.0000E+00
    -19.760  0.0000E+00  0.0000E+00  0.0000E+00
    -19.657  0.0000E+00  0.0000E+00  0.0000E+00
    -19.554  0.0000E+00  0.0000E+00  0.0000E+00
    -19.451  0.0000E+00  0.0000E+00  0.0000E+00
    -19.349  0.0000E+00  0.0000E+00  0.0000E+00
    -19.246  0.0000E+00  0.0000E+00  0.0000E+00
    -19.143  0.0000E+00  0.0000E+00  0.0000E+00
    -19.040  0.0000E+00  0.0000E+00  0.0000E+00
    -18.937  0.0000E+00  0.0000E+00  0.0000E+00
    -18.835  0.0000E+00  0.0000E+00  0.0000E+00
    -18.732  0.0000E+00  0.0000E+00  0.0000E+00
    -18.629  0.0000E+00  0.0000E+00  0.0000E+00
    -18.526  0.0000E+00  0.0000E+00  0.0000E+00
    -18.424  0.0000E+00  0.0000E+00  0.0000E+00
    -18.321  0.0000E+00  0.0000E+00  0.0000E+00
    -18.218  0.0000E+00  0.0000E+00  0.0000E+00
    -18.115  0.0000E+00  0.0000E+00  0.0000E+00
    -18.012  0.0000E+00  0.0000E+00  0.0000E+00
    -17.910  0.0000E+00  0.0000E+00  0.0000E+00
    -17.807  0.0000E+00  0.0000E+00  0.0000E+00
    -17.704  0.0000E+00  0.0000E+00  0.0000E+00
    -17.601  0.0000E+00  0.0000E+00  0.0000E+00
    -17.498  0.0000E+00  0.0000E+00  0.0000E+00
    -17.396  0.0000E+00  0.0000E+00  0.0000E+00
    -17.293  0.0000E+00  0.0000E+00  0.0000E+00
    -17.190  0.0000E+00  0.0000E+00  0.0000E+00
    -17.087  0.0000E+00  0.0000E+00  0.0000E+00
    -16.985  0.0000E+00  0.0000E+00  0.0000E+00
    -16.882  0.0000E+00  0.0000E+00  0.0000E+00
    -16.779  0.5811E-09  0.5125E-09  0.5349E-10
    -16.676  0.9093E-04  0.7731E-04  0.1422E-04
    -16.573  0.4757E-04  0.2672E-04  0.3328E-05
    -16.471  0.0000E+00  0.0000E+00  0.0000E+00
    -16.368  0.0000E+00  0.0000E+00  0.0000E+00
    -16.265  0.0000E+00  0.0000E+00  0.0000E+00
    -16.162  0.0000E+00  0.0000E+00  0.0000E+00
    -16.059  0.0000E+00  0.0000E+00  0.0000E+00
    -15.957  0.0000E+00  0.0000E+00  0.0000E+00
    -15.854  0.0000E+00  0.0000E+00  0.0000E+00
    -15.751  0.0000E+00  0.0000E+00  0.0000E+00
    -15.648  0.0000E+00  0.0000E+00  0.0000E+00
    -15.546  0.0000E+00  0.0000E+00  0.0000E+00
    -15.443  0.0000E+00  0.0000E+00  0.0000E+00
    -15.340  0.0000E+00  0.0000E+00  0.0000E+00
    -15.237  0.0000E+00  0.0000E+00  0.0000E+00
    -15.134  0.0000E+00  0.0000E+00  0.0000E+00
    -15.032  0.0000E+00  0.0000E+00  0.0000E+00
    -14.929  0.0000E+00  0.0000E+00  0.0000E+00
    -14.826  0.0000E+00  0.0000E+00  0.0000E+00
    -14.723  0.0000E+00  0.0000E+00  0.0000E+00
    -14.621  0.0000E+00  0.0000E+00  0.0000E+00
    -14.518  0.1030E-16  0.2702E-18  0.1252E-19
    -14.415  0.1356E-02  0.3262E-03  0.7009E-05
    -14.312  0.2894E-02  0.3648E-02  0.9193E-04
    -14.209  0.1071E-02  0.3364E-02  0.2446E-03
    -14.107  0.9039E-03  0.2499E-02  0.2015E-03
    -14.004  0.1336E-02  0.5157E-02  0.4770E-03
    -13.901  0.9969E-03  0.2382E-02  0.3488E-03
    -13.798  0.0000E+00  0.0000E+00  0.0000E+00
    -13.695  0.0000E+00  0.0000E+00  0.0000E+00
    -13.593  0.0000E+00  0.0000E+00  0.0000E+00
    -13.490  0.0000E+00  0.0000E+00  0.0000E+00
    -13.387  0.0000E+00  0.0000E+00  0.0000E+00
    -13.284  0.0000E+00  0.0000E+00  0.0000E+00
    -13.182  0.0000E+00  0.0000E+00  0.0000E+00
    -13.079  0.0000E+00  0.0000E+00  0.0000E+00
    -12.976  0.0000E+00  0.0000E+00  0.0000E+00
    -12.873  0.0000E+00  0.0000E+00  0.0000E+00
    -12.770  0.0000E+00  0.0000E+00  0.0000E+00
    -12.668  0.0000E+00  0.0000E+00  0.0000E+00
    -12.565  0.0000E+00  0.0000E+00  0.0000E+00
    -12.462  0.0000E+00  0.0000E+00  0.0000E+00
    -12.359  0.0000E+00  0.0000E+00  0.0000E+00
    -12.257  0.0000E+00  0.0000E+00  0.0000E+00
    -12.154  0.0000E+00  0.0000E+00  0.0000E+00
    -12.051  0.0000E+00  0.0000E+00  0.0000E+00
    -11.948  0.0000E+00  0.0000E+00  0.0000E+00
    -11.845  0.0000E+00  0.0000E+00  0.0000E+00
    -11.743  0.0000E+00  0.0000E+00  0.0000E+00
    -11.640  0.0000E+00  0.0000E+00  0.0000E+00
    -11.537  0.0000E+00  0.0000E+00  0.0000E+00
    -11.434  0.0000E+00  0.0000E+00  0.0000E+00
    -11.331  0.0000E+00  0.0000E+00  0.0000E+00
    -11.229  0.0000E+00  0.0000E+00  0.0000E+00
    -11.126  0.0000E+00  0.0000E+00  0.0000E+00
    -11.023  0.0000E+00  0.0000E+00  0.0000E+00
    -10.920  0.0000E+00  0.0000E+00  0.0000E+00
    -10.818  0.0000E+00  0.0000E+00  0.0000E+00
    -10.715  0.0000E+00  0.0000E+00  0.0000E+00
    -10.612  0.0000E+00  0.0000E+00  0.0000E+00
    -10.509  0.0000E+00  0.0000E+00  0.0000E+00
    -10.406  0.0000E+00  0.0000E+00  0.0000E+00
    -10.304  0.0000E+00  0.0000E+00  0.0000E+00
    -10.201  0.0000E+00  0.0000E+00  0.0000E+00
    -10.098  0.0000E+00  0.0000E+00  0.0000E+00
     -9.995  0.0000E+00  0.0000E+00  0.0000E+00
     -9.892  0.0000E+00  0.0000E+00  0.0000E+00
     -9.790  0.0000E+00  0.0000E+00  0.0000E+00
     -9.687  0.0000E+00  0.0000E+00  0.0000E+00
     -9.584  0.0000E+00  0.0000E+00  0.0000E+00
     -9.481  0.0000E+00  0.0000E+00  0.0000E+00
     -9.379  0.0000E+00  0.0000E+00  0.0000E+00
     -9.276  0.0000E+00  0.0000E+00  0.0000E+00
     -9.173  0.0000E+00  0.0000E+00  0.0000E+00
     -9.070  0.0000E+00  0.0000E+00  0.0000E+00
     -8.967  0.0000E+00  0.0000E+00  0.0000E+00
     -8.865  0.0000E+00  0.0000E+00  0.0000E+00
     -8.762  0.0000E+00  0.0000E+00  0.0000E+00
     -8.659  0.0000E+00  0.0000E+00  0.0000E+00
     -8.556  0.0000E+00  0.0000E+00  0.0000E+00
     -8.454  0.0000E+00  0.0000E+00  0.0000E+00
     -8.351  0.5519E-21  0.6156E-09  0.4135E-09
     -8.248  0.5706E-17  0.6365E-05  0.4275E-05
     -8.145  0.7026E-17  0.6120E-03  0.5721E-05
     -8.042  0.7824E-07  0.3541E-02  0.9732E-05
     -7.940  0.4311E-15  0.1488E-11  0.1135E-14
     -7.837  0.7053E-05  0.2671E-01  0.3259E-04
     -7.734  0.7971E-05  0.3842E-01  0.4332E-04
     -7.631  0.4014E-08  0.7393E-04  0.4977E-08
     -7.528  0.1905E-04  0.2669E+00  0.3745E-04
     -7.426  0.5590E-04  0.1161E+02  0.5710E-04
     -7.323  0.2378E-04  0.1760E+02  0.3183E-04
     -7.220  0.2666E-05  0.9325E-02  0.4709E-05
     -7.117  0.5533E-05  0.2612E-02  0.3092E-05
     -7.015  0.0000E+00  0.0000E+00  0.0000E+00
     -6.912  0.0000E+00  0.0000E+00  0.0000E+00
     -6.809  0.1008E-04  0.1520E-02  0.6501E-06
     -6.706  0.0000E+00  0.0000E+00  0.0000E+00
     -6.603  0.0000E+00  0.0000E+00  0.0000E+00
     -6.501  0.0000E+00  0.0000E+00  0.0000E+00
     -6.398  0.0000E+00  0.0000E+00  0.0000E+00
     -6.295  0.0000E+00  0.0000E+00  0.0000E+00
     -6.192  0.0000E+00  0.0000E+00  0.0000E+00
     -6.089  0.0000E+00  0.0000E+00  0.0000E+00
     -5.987  0.0000E+00  0.0000E+00  0.0000E+00
     -5.884  0.0000E+00  0.0000E+00  0.0000E+00
     -5.781  0.0000E+00  0.0000E+00  0.0000E+00
     -5.678  0.0000E+00  0.0000E+00  0.0000E+00
     -5.576  0.0000E+00  0.0000E+00  0.0000E+00
     -5.473  0.0000E+00  0.0000E+00  0.0000E+00
     -5.370  0.0000E+00  0.0000E+00  0.0000E+00
     -5.267  0.0000E+00  0.0000E+00  0.0000E+00
     -5.164  0.0000E+00  0.0000E+00  0.0000E+00
     -5.062  0.0000E+00  0.0000E+00  0.0000E+00
     -4.959  0.0000E+00  0.0000E+00  0.0000E+00
     -4.856  0.0000E+00  0.0000E+00  0.0000E+00
     -4.753  0.0000E+00  0.0000E+00  0.0000E+00
     -4.651  0.0000E+00  0.0000E+00  0.0000E+00
     -4.548  0.0000E+00  0.0000E+00  0.0000E+00
     -4.445  0.0000E+00  0.0000E+00  0.0000E+00
     -4.342  0.0000E+00  0.0000E+00  0.0000E+00
     -4.239  0.0000E+00  0.0000E+00  0.0000E+00
     -4.137  0.0000E+00  0.0000E+00  0.0000E+00
     -4.034  0.0000E+00  0.0000E+00  0.0000E+00
     -3.931  0.0000E+00  0.0000E+00  0.0000E+00
     -3.828  0.0000E+00  0.0000E+00  0.0000E+00
     -3.725  0.0000E+00  0.0000E+00  0.0000E+00
     -3.623  0.0000E+00  0.0000E+00  0.0000E+00
     -3.520  0.1203E-18  0.1185E-03  0.1150E-05
     -3.417  0.1612E-15  0.8500E-02  0.9957E-03
     -3.314  0.8130E-05  0.1396E-02  0.1003E-03
     -3.212  0.1752E-03  0.1027E-01  0.9814E-03
     -3.109  0.1368E-03  0.6765E-02  0.1269E-02
     -3.006  0.1729E-03  0.8641E-02  0.2187E-03
     -2.903  0.3971E-03  0.2731E-01  0.1544E-02
     -2.800  0.3988E-03  0.1342E-01  0.1431E-02
     -2.698  0.2507E-03  0.1244E-01  0.1072E-02
     -2.595  0.7145E-03  0.1015E-01  0.8440E-03
     -2.492  0.1470E-02  0.9773E-02  0.2325E-02
     -2.389  0.5625E-03  0.2729E-02  0.2672E-03
     -2.286  0.3396E-02  0.1295E-01  0.7467E-03
     -2.184  0.1658E-01  0.2177E-01  0.3900E-02
     -2.081  0.2059E-01  0.4332E-01  0.4582E-02
     -1.978  0.1465E-02  0.5305E-01  0.2038E-02
     -1.875  0.9673E-03  0.3815E-01  0.2118E-02
     -1.773  0.2234E-02  0.1365E+00  0.1331E-01
     -1.670  0.1264E-02  0.4939E-01  0.7073E-02
     -1.567  0.4828E-02  0.5292E-01  0.1295E-01
     -1.464  0.4961E-02  0.7048E-01  0.2214E-01
     -1.361  0.4402E-02  0.6077E-01  0.1357E-01
     -1.259  0.2582E-02  0.1029E+00  0.1381E-01
     -1.156  0.4194E-03  0.2817E-01  0.8712E-02
     -1.053  0.1379E-03  0.6828E-02  0.1984E-02
     -0.950  0.1177E-02  0.2642E-01  0.5128E-02
     -0.848  0.2236E-03  0.3070E-02  0.1039E-02
     -0.745  0.1962E-03  0.2122E-02  0.8505E-03
     -0.642  0.1170E-15  0.4296E-03  0.7268E-05
     -0.539  0.7774E-06  0.1886E-03  0.8207E-04
     -0.436  0.4132E-18  0.6108E-07  0.7436E-07
     -0.334  0.1565E-05  0.8811E-03  0.1097E-02
     -0.231  0.0000E+00  0.0000E+00  0.0000E+00
     -0.128  0.0000E+00  0.0000E+00  0.0000E+00
     -0.025  0.0000E+00  0.0000E+00  0.0000E+00
      0.078  0.5553E-20  0.2492E-08  0.1048E-07
      0.180  0.2846E-16  0.1277E-04  0.5369E-04
      0.283  0.0000E+00  0.0000E+00  0.0000E+00
      0.386  0.0000E+00  0.0000E+00  0.0000E+00
      0.489  0.0000E+00  0.0000E+00  0.0000E+00
      0.591  0.0000E+00  0.0000E+00  0.0000E+00
      0.694  0.0000E+00  0.0000E+00  0.0000E+00
      0.797  0.0000E+00  0.0000E+00  0.0000E+00
      0.900  0.0000E+00  0.0000E+00  0.0000E+00
      1.003  0.0000E+00  0.0000E+00  0.0000E+00
      1.105  0.0000E+00  0.0000E+00  0.0000E+00
      1.208  0.0000E+00  0.0000E+00  0.0000E+00
      1.311  0.0000E+00  0.0000E+00  0.0000E+00
      1.414  0.0000E+00  0.0000E+00  0.0000E+00
      1.516  0.0000E+00  0.0000E+00  0.0000E+00
      1.619  0.0000E+00  0.0000E+00  0.0000E+00
      1.722  0.0000E+00  0.0000E+00  0.0000E+00
      1.825  0.0000E+00  0.0000E+00  0.0000E+00
      1.928  0.0000E+00  0.0000E+00  0.0000E+00
      2.030  0.0000E+00  0.0000E+00  0.0000E+00
      2.133  0.0000E+00  0.0000E+00  0.0000E+00
      2.236  0.0000E+00  0.0000E+00  0.0000E+00
      2.339  0.2490E-15  0.1126E-04  0.3987E-03
      2.442  0.0000E+00  0.0000E+00  0.0000E+00
      2.544  0.3118E-03  0.1545E-03  0.1625E-02
      2.647  0.3005E-06  0.6783E-05  0.4323E-05
      2.750  0.9906E-04  0.4699E-03  0.1720E-02
      2.853  0.7408E-04  0.6464E-03  0.3812E-03
      2.955  0.1064E-03  0.8582E-03  0.2583E-02
      3.058  0.6829E-03  0.1239E-02  0.1204E-02
      3.161  0.5430E-03  0.3298E-02  0.2550E-02
      3.264  0.3804E-07  0.4583E-03  0.3295E-02
      3.367  0.9025E-03  0.1527E-02  0.5278E-02
      3.469  0.5743E-04  0.1137E-02  0.3789E-02
      3.572  0.6066E-03  0.1348E-02  0.3766E-02
      3.675  0.4487E-03  0.2912E-02  0.3188E-02
      3.778  0.1399E-07  0.4356E-05  0.2228E-05
      3.881  0.0000E+00  0.0000E+00  0.0000E+00
      3.983  0.0000E+00  0.0000E+00  0.0000E+00
      4.086  0.0000E+00  0.0000E+00  0.0000E+00
      4.189  0.1728E-04  0.1036E-03  0.1594E-02
      4.292  0.4887E-05  0.1277E-04  0.7212E-04
      4.394  0.3121E-03  0.1530E-02  0.5222E-02
      4.497  0.2209E-05  0.2512E-03  0.4722E-02
      4.600  0.2236E-02  0.4025E-02  0.4395E-02
      4.703  0.1346E-01  0.2350E-02  0.6473E-02
      4.806  0.9482E-02  0.9768E-02  0.1388E-01
      4.908  0.6681E-02  0.2415E-02  0.4319E-02
      5.011  0.2693E-03  0.3608E-03  0.6611E-03
      5.114  0.7730E-18  0.3500E-08  0.2065E-06
      5.217  0.2020E-13  0.9144E-04  0.5396E-02
      5.319  0.1223E-03  0.5588E-03  0.8989E-02
      5.422  0.3176E-01  0.6950E-02  0.4212E-02
      5.525  0.4528E-02  0.2741E-02  0.5423E-02
      5.628  0.3436E-01  0.9467E-02  0.1626E-01
      5.731  0.5045E-05  0.7275E-04  0.3357E-01
      5.833  0.6837E-01  0.1579E-01  0.9588E-01
      5.936  0.1970E-10  0.8941E-11  0.4064E-09
      6.039  0.6000E-01  0.2883E-01  0.2569E+00
      6.142  0.3725E-01  0.1546E-01  0.2790E+00
      6.245  0.4878E-01  0.2770E-01  0.6002E+00
      6.347  0.6651E-02  0.2895E-01  0.3340E+00
      6.450  0.4566E-01  0.2557E-01  0.3477E+00
      6.553  0.2806E-01  0.4008E-01  0.7965E+00
      6.656  0.5925E-01  0.4393E-01  0.6490E+00
      6.758  0.3809E-01  0.3976E-01  0.8140E+00
      6.861  0.1523E-03  0.8181E-02  0.5821E-01
      6.964  0.5624E-02  0.5738E-02  0.1409E+00
      7.067  0.1088E-01  0.8574E-02  0.8792E-01
      7.170  0.0000E+00  0.0000E+00  0.0000E+00
      7.272  0.0000E+00  0.0000E+00  0.0000E+00
      7.375  0.0000E+00  0.0000E+00  0.0000E+00
      7.478  0.0000E+00  0.0000E+00  0.0000E+00
      7.581  0.0000E+00  0.0000E+00  0.0000E+00
      7.684  0.0000E+00  0.0000E+00  0.0000E+00
      7.786  0.0000E+00  0.0000E+00  0.0000E+00
      7.889  0.0000E+00  0.0000E+00  0.0000E+00
      7.992  0.0000E+00  0.0000E+00  0.0000E+00
      8.095  0.0000E+00  0.0000E+00  0.0000E+00
      8.197  0.0000E+00  0.0000E+00  0.0000E+00
      8.300  0.0000E+00  0.0000E+00  0.0000E+00
      8.403  0.0000E+00  0.0000E+00  0.0000E+00
      8.40299587    -22.43207386  301      0.20600650      1.00000000
    -22.432  0.0000E+00  0.0000E+00  0.0000E+00
    -22.329  0.0000E+00  0.0000E+00  0.0000E+00
    -22.227  0.0000E+00  0.0000E+00  0.0000E+00
    -22.124  0.0000E+00  0.0000E+00  0.0000E+00
    -22.021  0.0000E+00  0.0000E+00  0.0000E+00
    -21.918  0.0000E+00  0.0000E+00  0.0000E+00
    -21.815  0.0000E+00  0.0000E+00  0.0000E+00
    -21.713  0.0000E+00  0.0000E+00  0.0000E+00
    -21.610  0.0000E+00  0.0000E+00  0.0000E+00
    -21.507  0.0000E+00  0.0000E+00  0.0000E+00
    -21.404  0.0000E+00  0.0000E+00  0.0000E+00
    -21.301  0.0000E+00  0.0000E+00  0.0000E+00
    -21.199  0.0000E+00  0.0000E+00  0.0000E+00
    -21.096  0.0000E+00  0.0000E+00  0.0000E+00
    -20.993  0.1727E+02  0.1417E-04  0.1210E-05
    -20.890  0.0000E+00  0.0000E+00  0.0000E+00
    -20.788  0.0000E+00  0.0000E+00  0.0000E+00
    -20.685  0.0000E+00  0.0000E+00  0.0000E+00
    -20.582  0.0000E+00  0.0000E+00  0.0000E+00
    -20.479  0.0000E+00  0.0000E+00  0.0000E+00
    -20.376  0.0000E+00  0.0000E+00  0.0000E+00
    -20.274  0.0000E+00  0.0000E+00  0.0000E+00
    -20.171  0.0000E+00  0.0000E+00  0.0000E+00
    -20.068  0.0000E+00  0.0000E+00  0.0000E+00
    -19.965  0.0000E+00  0.0000E+00  0.0000E+00
    -19.862  0.0000E+00  0.0000E+00  0.0000E+00
    -19.760  0.0000E+00  0.0000E+00  0.0000E+00
    -19.657  0.0000E+00  0.0000E+00  0.0000E+00
    -19.554  0.0000E+00  0.0000E+00  0.0000E+00
    -19.451  0.0000E+00  0.0000E+00  0.0000E+00
    -19.349  0.0000E+00  0.0000E+00  0.0000E+00
    -19.246  0.0000E+00  0.0000E+00  0.0000E+00
    -19.143  0.0000E+00  0.0000E+00  0.0000E+00
    -19.040  0.0000E+00  0.0000E+00  0.0000E+00
    -18.937  0.0000E+00  0.0000E+00  0.0000E+00
    -18.835  0.0000E+00  0.0000E+00  0.0000E+00
    -18.732  0.0000E+00  0.0000E+00  0.0000E+00
    -18.629  0.0000E+00  0.0000E+00  0.0000E+00
    -18.526  0.0000E+00  0.0000E+00  0.0000E+00
    -18.424  0.0000E+00  0.0000E+00  0.0000E+00
    -18.321  0.0000E+00  0.0000E+00  0.0000E+00
    -18.218  0.0000E+00  0.0000E+00  0.0000E+00
    -18.115  0.0000E+00  0.0000E+00  0.0000E+00
    -18.012  0.0000E+00  0.0000E+00  0.0000E+00
    -17.910  0.0000E+00  0.0000E+00  0.0000E+00
    -17.807  0.0000E+00  0.0000E+00  0.0000E+00
    -17.704  0.0000E+00  0.0000E+00  0.0000E+00
    -17.601  0.0000E+00  0.0000E+00  0.0000E+00
    -17.498  0.0000E+00  0.0000E+00  0.0000E+00
    -17.396  0.0000E+00  0.0000E+00  0.0000E+00
    -17.293  0.0000E+00  0.0000E+00  0.0000E+00
    -17.190  0.0000E+00  0.0000E+00  0.0000E+00
    -17.087  0.0000E+00  0.0000E+00  0.0000E+00
    -16.985  0.0000E+00  0.0000E+00  0.0000E+00
    -16.882  0.0000E+00  0.0000E+00  0.0000E+00
    -16.779  0.2550E-09  0.5197E-09  0.6399E-10
    -16.676  0.9153E-04  0.7635E-04  0.1422E-04
    -16.573  0.4765E-04  0.2673E-04  0.3343E-05
    -16.471  0.0000E+00  0.0000E+00  0.0000E+00
    -16.368  0.0000E+00  0.0000E+00  0.0000E+00
    -16.265  0.0000E+00  0.0000E+00  0.0000E+00
    -16.162  0.0000E+00  0.0000E+00  0.0000E+00
    -16.059  0.0000E+00  0.0000E+00  0.0000E+00
    -15.957  0.0000E+00  0.0000E+00  0.0000E+00
    -15.854  0.0000E+00  0.0000E+00  0.0000E+00
    -15.751  0.0000E+00  0.0000E+00  0.0000E+00
    -15.648  0.0000E+00  0.0000E+00  0.0000E+00
    -15.546  0.0000E+00  0.0000E+00  0.0000E+00
    -15.443  0.0000E+00  0.0000E+00  0.0000E+00
    -15.340  0.0000E+00  0.0000E+00  0.0000E+00
    -15.237  0.0000E+00  0.0000E+00  0.0000E+00
    -15.134  0.0000E+00  0.0000E+00  0.0000E+00
    -15.032  0.0000E+00  0.0000E+00  0.0000E+00
    -14.929  0.0000E+00  0.0000E+00  0.0000E+00
    -14.826  0.0000E+00  0.0000E+00  0.0000E+00
    -14.723  0.0000E+00  0.0000E+00  0.0000E+00
    -14.621  0.0000E+00  0.0000E+00  0.0000E+00
    -14.518  0.1030E-16  0.2702E-18  0.1252E-19
    -14.415  0.1356E-02  0.3262E-03  0.7009E-05
    -14.312  0.2922E-02  0.3392E-02  0.1024E-03
    -14.209  0.1033E-02  0.3346E-02  0.2470E-03
    -14.107  0.4225E-03  0.2265E-02  0.1546E-03
    -14.004  0.1895E-02  0.5486E-02  0.5895E-03
    -13.901  0.9449E-03  0.2284E-02  0.3182E-03
    -13.798  0.0000E+00  0.0000E+00  0.0000E+00
    -13.695  0.0000E+00  0.0000E+00  0.0000E+00
    -13.593  0.0000E+00  0.0000E+00  0.0000E+00
    -13.490  0.0000E+00  0.0000E+00  0.0000E+00
    -13.387  0.0000E+00  0.0000E+00  0.0000E+00
    -13.284  0.0000E+00  0.0000E+00  0.0000E+00