 vasp.5.4.4.18Apr17-6-g9f103f2a35 (build Jun 29 2021 12:14:42) complex           
 executed on tx2_gcc-7.3_libsci-1 date 2021.09.21  08:32:47
 running on   64 total cores
 distrk:  each k-point on   64 cores,    1 groups
 distr:  one band on NCORES_PER_BAND=   8 cores,    8 groups


--------------------------------------------------------------------------------------------------------


 INCAR:
 POTCAR:    PAW_PBE Cs_sv 08Apr2002               
 POTCAR:    PAW_PBE Pb_d 06Sep2000                
 POTCAR:    PAW_PBE Br 06Sep2000                  
 POTCAR:    PAW_PBE Cs_sv 08Apr2002               
   SHA256 =  c1463496f0f6037ed62c6012a8013a89ee9ad6ffb38599dcd6c079e7ed31779b Cs
   COPYR  = (c) Copyright 08Apr2002 Georg Kresse                                
   COPYR  = This file is part of the software VASP. Any use, copying, and all ot
   COPYR  = If you do not have a valid VASP license, you may not use, copy or di
   VRHFIN =Cs: 5s5p6s                                                           
   LEXCH  = PE                                                                  
   EATOM  =   555.6835 eV,   40.8416 Ry                                         
                                                                                
   TITEL  = PAW_PBE Cs_sv 08Apr2002                                             
   LULTRA =        F    use ultrasoft PP ?                                      
   IUNSCR =        1    unscreen: 0-lin 1-nonlin 2-no                           
   RPACOR =    2.200    partial core radius                                     
   POMASS =  132.900; ZVAL   =    9.000    mass and valenz                      
   RCORE  =    2.500    outmost cutoff radius                                   
   RWIGS  =    2.500; RWIGS  =    1.323    wigner-seitz radius (au A)           
   ENMAX  =  220.318; ENMIN  =  165.238 eV                                      
   RCLOC  =    2.207    cutoff for local pot                                    
   LCOR   =        T    correct aug charges                                     
   LPAW   =        T    paw PP                                                  
   EAUG   =  407.933                                                            
   DEXC   =    0.000                                                            
   RMAX   =    2.554    core radius for proj-oper                               
   RAUG   =    1.300    factor for augmentation sphere                          
   RDEP   =    2.590    radius for radial grids                                 
   RDEPT  =    2.117    core radius for aug-charge                              
                                                                                
   Atomic configuration                                                         
   13 entries                                                                   
     n  l   j            E        occ.                                          
     1  0  0.50    -35790.1377   2.0000                                         
     2  0  0.50     -5613.6201   2.0000                                         
     2  1  1.50     -5035.0101   6.0000                                         
     3  0  0.50     -1167.0767   2.0000                                         
     3  1  1.50      -980.9754   6.0000                                         
     3  2  2.50      -708.0703  10.0000                                         
     4  0  0.50      -220.2386   2.0000                                         
     4  1  1.50      -160.7596   6.0000                                         
     4  2  2.50       -74.2354  10.0000                                         
     5  0  0.50       -26.7287   2.0000                                         
     6  0  0.50        -2.0862   1.0000                                         
     5  1  1.50       -13.5159   6.0000                                         
     5  2  2.50        -0.4136   0.0000                                         
   Description                                                                  
     l       E           TYP  RCUT    TYP  RCUT                                 
     0    -26.7287425     23  1.900                                             
     0     -2.0862306     23  1.900                                             
     1    -13.5158719     23  2.500                                             
     1     -2.7211652     23  2.500                                             
     2     -0.4136171     23  2.500                                             
  local pseudopotential read in
  partial core-charges read in
  partial kinetic energy density read in
  atomic valenz-charges read in
  non local Contribution for L=           0  read in
    real space projection operators read in
  non local Contribution for L=           0  read in
    real space projection operators read in
  non local Contribution for L=           1  read in
    real space projection operators read in
  non local Contribution for L=           1  read in
    real space projection operators read in
  non local Contribution for L=           2  read in
    real space projection operators read in
    PAW grid and wavefunctions read in

   number of l-projection  operators is LMAX  =           5
   number of lm-projection operators is LMMAX =          13

 POTCAR:    PAW_PBE Pb_d 06Sep2000                
   SHA256 =  fb885b08f0fba73a15f6a6b0e39bd200c13ec96ef97cf3ecd8e63bade5137abd Pb
   COPYR  = (c) Copyright 06Sep2000 Georg Kresse                                
   COPYR  = This file is part of the software VASP. Any use, copying, and all ot
   COPYR  = If you do not have a valid VASP license, you may not use, copy or di
   VRHFIN =Pb:                                                                  
   LEXCH  = PE                                                                  
   EATOM  =  1661.6185 eV,  122.1255 Ry                                         
                                                                                
   TITEL  = PAW_PBE Pb_d 06Sep2000                                              
   LULTRA =        F    use ultrasoft PP ?                                      
   IUNSCR =        1    unscreen: 0-lin 1-nonlin 2-no                           
   RPACOR =    2.200    partial core radius                                     
   POMASS =  207.200; ZVAL   =   14.000    mass and valenz                      
   RCORE  =    2.500    outmost cutoff radius                                   
   RWIGS  =    3.260; RWIGS  =    1.725    wigner-seitz radius (au A)           
   ENMAX  =  237.835; ENMIN  =  178.376 eV                                      
   ICORE  =        3    local potential                                         
   LCOR   =        T    correct aug charges                                     
   LPAW   =        T    paw PP                                                  
   EAUG   =  391.914                                                            
   DEXC   =    0.000                                                            
   RMAX   =    2.565    core radius for proj-oper                               
   RAUG   =    1.300    factor for augmentation sphere                          
   RDEP   =    2.643    radius for radial grids                                 
   RDEPT  =    2.092    core radius for aug-charge                              
                                                                                
   Atomic configuration                                                         
   16 entries                                                                   
     n  l   j            E        occ.                                          
     1  0  0.50    -88091.8466   2.0000                                         
     2  0  0.50    -15753.4197   2.0000                                         
     2  1  1.50    -13508.1797   6.0000                                         
     3  0  0.50     -3781.7194   2.0000                                         
     3  1  1.50     -3138.2529   6.0000                                         
     3  2  2.50     -2483.2977  10.0000                                         
     4  0  0.50      -856.2895   2.0000                                         
     4  1  1.50      -645.4942   6.0000                                         
     4  2  2.50      -401.8768  10.0000                                         
     4  3  3.50      -132.9059  14.0000                                         
     5  0  0.50      -144.0950   2.0000                                         
     5  1  1.50       -85.7879   6.0000                                         
     5  2  2.50       -21.1769  10.0000                                         
     6  0  0.50       -12.0372   2.0000                                         
     6  1  1.50        -3.4971   2.0000                                         
     5  3  2.50        -2.7212   0.0000                                         
   Description                                                                  
     l       E           TYP  RCUT    TYP  RCUT                                 
     2    -21.1768523     23  2.500                                             
     2      1.3605826     23  2.500                                             
     0    -12.0371562     23  2.500                                             
     0     13.6058260     23  2.500                                             
     1     -3.4971339     23  2.500                                             
     1     13.6058260     23  2.500                                             
     3     -1.3605826      7  2.500                                             
  local pseudopotential read in
  partial core-charges read in
  partial kinetic energy density read in
  atomic valenz-charges read in
  non local Contribution for L=           2  read in
    real space projection operators read in
  non local Contribution for L=           2  read in
    real space projection operators read in
  non local Contribution for L=           0  read in
    real space projection operators read in
  non local Contribution for L=           0  read in
    real space projection operators read in
  non local Contribution for L=           1  read in
    real space projection operators read in
  non local Contribution for L=           1  read in
    real space projection operators read in
    PAW grid and wavefunctions read in

   number of l-projection  operators is LMAX  =           6
   number of lm-projection operators is LMMAX =          18

 POTCAR:    PAW_PBE Br 06Sep2000                  
   SHA256 =  96a73d2954943bbee26f4990d676cc6c3bf44b8dd2c75cd4b3b825d8403f0103 Br
   COPYR  = (c) Copyright 06Sep2000 Georg Kresse                                
   COPYR  = This file is part of the software VASP. Any use, copying, and all ot
   COPYR  = If you do not have a valid VASP license, you may not use, copy or di
   VRHFIN =Br: s2p5                                                             
   LEXCH  = PE                                                                  
   EATOM  =   368.4488 eV,   27.0802 Ry                                         
                                                                                
   TITEL  = PAW_PBE Br 06Sep2000                                                
   LULTRA =        F    use ultrasoft PP ?                                      
   IUNSCR =        1    unscreen: 0-lin 1-nonlin 2-no                           
   RPACOR =    1.900    partial core radius                                     
   POMASS =   79.904; ZVAL   =    7.000    mass and valenz                      
   RCORE  =    2.100    outmost cutoff radius                                   
   RWIGS  =    2.200; RWIGS  =    1.164    wigner-seitz radius (au A)           
   ENMAX  =  216.285; ENMIN  =  162.214 eV                                      
   ICORE  =        3    local potential                                         
   LCOR   =        T    correct aug charges                                     
   LPAW   =        T    paw PP                                                  
   EAUG   =  503.852                                                            
   DEXC   =    0.000                                                            
   RMAX   =    2.139    core radius for proj-oper                               
   RAUG   =    1.300    factor for augmentation sphere                          
   RDEP   =    2.186    radius for radial grids                                 
   RDEPT  =    1.890    core radius for aug-charge                              
                                                                                
   Atomic configuration                                                         
   10 entries                                                                   
     n  l   j            E        occ.                                          
     1  0  0.50    -13316.2796   2.0000                                         
     2  0  0.50     -1732.8239   2.0000                                         
     2  1  1.50     -1528.2193   6.0000                                         
     3  0  0.50      -238.0460   2.0000                                         
     3  1  1.50      -173.4609   6.0000                                         
     3  2  2.50       -66.7132  10.0000                                         
     4  0  0.50       -20.1334   2.0000                                         
     4  1  0.50        -7.8591   5.0000                                         
     4  2  2.50        -8.1635   0.0000                                         
     4  3  2.50        -8.1635   0.0000                                         
   Description                                                                  
     l       E           TYP  RCUT    TYP  RCUT                                 
     0    -20.1333652     23  2.100                                             
     0    -21.4939478     23  2.100                                             
     1     -7.8591052     23  2.100                                             
     1     -3.1608434     23  2.100                                             
     2     -8.1634956     23  2.100                                             
     3     -1.3605826      7  2.100                                             
  local pseudopotential read in
  partial core-charges read in
  partial kinetic energy density read in
  atomic valenz-charges read in
  non local Contribution for L=           0  read in
    real space projection operators read in
  non local Contribution for L=           0  read in
    real space projection operators read in
  non local Contribution for L=           1  read in
    real space projection operators read in
  non local Contribution for L=           1  read in
    real space projection operators read in
  non local Contribution for L=           2  read in
    real space projection operators read in
    PAW grid and wavefunctions read in

   number of l-projection  operators is LMAX  =           5
   number of lm-projection operators is LMMAX =          13

 Optimization of the real space projectors (new method)

 maximal supplied QI-value         = 15.12
 optimisation between [QCUT,QGAM] = [  8.77, 17.69] = [ 21.53, 87.61] Ry 
 Optimized for a Real-space Cutoff    1.85 Angstroem

   l    n(q)    QCUT    max X(q) W(low)/X(q) W(high)/X(q)  e(spline) 
   0     10     8.768    25.322    0.81E-04    0.51E-04    0.48E-06
   0     10     8.768    99.187    0.78E-04    0.50E-04    0.47E-06
   1      9     8.768    11.761    0.21E-03    0.20E-03    0.37E-06
   1      9     8.768     8.275    0.24E-03    0.22E-03    0.41E-06
   2      9     8.768     3.829    0.23E-04    0.15E-03    0.18E-06
 Optimization of the real space projectors (new method)

 maximal supplied QI-value         = 15.12
 optimisation between [QCUT,QGAM] = [  8.77, 17.69] = [ 21.53, 87.61] Ry 
 Optimized for a Real-space Cutoff    1.59 Angstroem

   l    n(q)    QCUT    max X(q) W(low)/X(q) W(high)/X(q)  e(spline) 
   2      7     8.768     3.846    0.48E-04    0.11E-03    0.11E-06
   2      7     8.768     8.593    0.20E-03    0.22E-04    0.24E-06
   0      8     8.768    20.082    0.68E-04    0.88E-04    0.41E-07
   0      8     8.768     8.597    0.89E-04    0.13E-03    0.59E-07
   1      8     8.768    33.223    0.15E-03    0.53E-04    0.87E-07
   1      8     8.768    15.899    0.14E-03    0.44E-04    0.78E-07
 Optimization of the real space projectors (new method)

 maximal supplied QI-value         = 17.95
 optimisation between [QCUT,QGAM] = [  8.80, 17.59] = [ 21.67, 86.68] Ry 
 Optimized for a Real-space Cutoff    1.59 Angstroem

   l    n(q)    QCUT    max X(q) W(low)/X(q) W(high)/X(q)  e(spline) 
   0      8     8.797   175.082    0.82E-04    0.14E-03    0.89E-07
   0      8     8.797   174.004    0.79E-04    0.14E-03    0.86E-07
   1      8     8.797    54.315    0.16E-03    0.14E-04    0.30E-06
   1      8     8.797    42.441    0.16E-03    0.14E-04    0.30E-06
   2      7     8.797     3.596    0.92E-04    0.15E-03    0.85E-07
  PAW_PBE Cs_sv 08Apr2002               :
 energy of atom  1       EATOM= -555.6835
 kinetic energy error for atom=    0.0069 (will be added to EATOM!!)
  PAW_PBE Pb_d 06Sep2000                :
 energy of atom  2       EATOM=-1661.6185
 kinetic energy error for atom=    0.0498 (will be added to EATOM!!)
  PAW_PBE Br 06Sep2000                  :
 energy of atom  3       EATOM= -368.4488
 kinetic energy error for atom=    0.0072 (will be added to EATOM!!)


 POSCAR: Cs4 Pb4 Br12                            
  positions in direct lattice
  velocities in cartesian coordinates

 METAGGA = SCAN     LMAXTAU =  6    LMIXTAU =  F

 exchange correlation table for  LEXCH =        8
   RHO(1)=    0.500       N(1)  =     2000
   RHO(2)=  100.500       N(2)  =     4000

 VTST: version 3.2, (02/03/18)

 CHAIN: initializing optimizer
 
 OPT: Using VASP Conjugate-Gradient optimizer
 CHAIN: Read ICHAIN            0

 POSCAR: Cs4 Pb4 Br12                            
  positions in direct lattice
  velocities in cartesian coordinates



--------------------------------------------------------------------------------------------------------


 ion  position               nearest neighbor table
   1  0.056  0.250  0.482-
   2  0.444  0.750  0.982-
   3  0.556  0.250  0.018-
   4  0.944  0.750  0.518-
   5  0.000  0.000  0.000-  10 2.97  11 2.97  15 3.06  18 3.06  17 3.07  16 3.07
   6  0.500  0.000  0.500-   9 2.97  12 2.97  16 3.06  17 3.06  15 3.07  18 3.07
   7  0.500  0.500  0.500-   9 2.97  12 2.97  13 3.06  19 3.06  14 3.07  20 3.07
   8  0.000  0.500  0.000-  10 2.97  11 2.97  14 3.06  20 3.06  19 3.07  13 3.07
   9  0.520  0.750  0.420-   6 2.97   7 2.97
  10  0.980  0.250  0.920-   5 2.97   8 2.97
  11  0.020  0.750  0.080-   5 2.97   8 2.97
  12  0.480  0.250  0.580-   6 2.97   7 2.97
  13  0.284  0.462  0.214-   7 3.06   8 3.07
  14  0.216  0.538  0.714-   8 3.06   7 3.07
  15  0.784  0.038  0.286-   5 3.06   6 3.07
  16  0.716  0.962  0.786-   6 3.06   5 3.07
  17  0.284  0.038  0.214-   6 3.06   5 3.07
  18  0.216  0.962  0.714-   5 3.06   6 3.07
  19  0.716  0.538  0.786-   7 3.06   8 3.07
  20  0.784  0.462  0.286-   8 3.06   7 3.07

  LATTYP: Found a simple orthorhombic cell.
 ALAT       =     8.3203199703
 B/A-ratio  =     1.0423418999
 C/A-ratio  =     1.3876721904
  
  Lattice vectors:
  
 A1 = (   0.0000000000,   0.0000000000,   8.3203199703)
 A2 = (  -8.6726181258,   0.0000000000,   0.0000000000)
 A3 = (   0.0000000000, -11.5458766384,   0.0000000000)


Analysis of symmetry for initial positions (statically):
=====================================================================
 Subroutine PRICEL returns:
 Original cell was already a primitive cell.
 

 Routine SETGRP: Setting up the symmetry group for a 
 simple orthorhombic supercell.


 Subroutine GETGRP returns: Found  8 space group operations
 (whereof  2 operations were pure point group operations)
 out of a pool of  8 trial point group operations.


The static configuration has the point symmetry S_2 .
 The point group associated with its full space group is D_2h.


Analysis of symmetry for dynamics (positions and initial velocities):
=====================================================================
 Subroutine PRICEL returns:
 Original cell was already a primitive cell.
 

 Routine SETGRP: Setting up the symmetry group for a 
 simple orthorhombic supercell.


 Subroutine GETGRP returns: Found  8 space group operations
 (whereof  2 operations were pure point group operations)
 out of a pool of  8 trial point group operations.


The dynamic configuration has the point symmetry S_2 .
 The point group associated with its full space group is D_2h.


 Subroutine INISYM returns: Found  8 space group operations
 (whereof  2 operations are pure point group operations),
 and found     1 'primitive' translations



 KPOINTS: 1x1x1                                   

Automatic generation of k-mesh.
Space group operators:
 irot       det(A)        alpha          n_x          n_y          n_z        tau_x        tau_y        tau_z
    1     1.000000     0.000000     1.000000     0.000000     0.000000     0.000000     0.000000     0.000000
    2    -1.000000     0.000000     1.000000     0.000000     0.000000     0.000000     0.000000     0.000000
    3     1.000000   179.999999     0.000000     1.000000     0.000000     0.000000    -0.500000     0.000000
    4    -1.000000   179.999999     0.000000     1.000000     0.000000     0.000000    -0.500000     0.000000
    5     1.000000   180.000000     1.000000     0.000000     0.000000    -0.500000    -0.500000     0.500000
    6    -1.000000   180.000000     1.000000     0.000000     0.000000    -0.500000    -0.500000     0.500000
    7     1.000000   180.000000     0.000000     0.000000     1.000000    -0.500000     0.000000     0.500000
    8    -1.000000   180.000000     0.000000     0.000000     1.000000    -0.500000     0.000000     0.500000
 
 Subroutine IBZKPT returns following result:
 ===========================================
 
 Found      8 irreducible k-points:
 
 Following reciprocal coordinates:
            Coordinates               Weight
  0.000000  0.000000  0.000000      1.000000
  0.333333  0.000000  0.000000      2.000000
  0.000000  0.500000  0.000000      1.000000
  0.333333  0.500000  0.000000      2.000000
  0.000000  0.000000  0.333333      2.000000
  0.333333  0.000000  0.333333      4.000000
  0.000000  0.500000  0.333333      2.000000
  0.333333  0.500000  0.333333      4.000000
 
 Following cartesian coordinates:
            Coordinates               Weight
  0.000000  0.000000  0.000000      1.000000
  0.038435  0.000000  0.000000      2.000000
  0.000000  0.043306  0.000000      1.000000
  0.038435  0.043306  0.000000      2.000000
  0.000000  0.000000  0.040063      2.000000
  0.038435  0.000000  0.040063      4.000000
  0.000000  0.043306  0.040063      2.000000
  0.038435  0.043306  0.040063      4.000000
 


--------------------------------------------------------------------------------------------------------




 Dimension of arrays:
   k-points           NKPTS =      8   k-points in BZ     NKDIM =      8   number of bands    NBANDS=    112
   number of dos      NEDOS =    301   number of ions     NIONS =     20
   non local maximal  LDIM  =      6   non local SUM 2l+1 LMDIM =     18
   total plane-waves  NPLWV = 168000
   max r-space proj   IRMAX =   5380   max aug-charges    IRDMAX=  85837
   dimension x,y,z NGX =    50 NGY =   70 NGZ =   48
   dimension x,y,z NGXF=   100 NGYF=  140 NGZF=   96
   support grid    NGXF=   200 NGYF=  280 NGZF=  192
   ions per type =               4   4  12
   NGX,Y,Z   is equivalent  to a cutoff of   9.58, 10.08,  9.59 a.u.
   NGXF,Y,Z  is equivalent  to a cutoff of  19.17, 20.16, 19.18 a.u.

 SYSTEM =  CsPbBr3 cubic bulk                      
 POSCAR =  Cs4 Pb4 Br12                            

 Startparameter for this run:
   NWRITE =      2    write-flag & timer
   PREC   = accura    normal or accurate (medium, high low for compatibility)
   ISTART =      0    job   : 0-new  1-cont  2-samecut
   ICHARG =      2    charge: 1-file 2-atom 10-const
   ISPIN  =      1    spin polarized calculation?
   LNONCOLLINEAR =      F non collinear calculations
   LSORBIT =      F    spin-orbit coupling
   INIWAV =      1    electr: 0-lowe 1-rand  2-diag
   LASPH  =      T    aspherical Exc in radial PAW
   METAGGA=      F    non-selfconsistent MetaGGA calc.

 Electronic Relaxation 1
   ENCUT  =  300.0 eV  22.05 Ry    4.70 a.u.  12.25 16.31 11.75*2*pi/ulx,y,z
   ENINI  =  300.0     initial cutoff
   ENAUG  =  503.9 eV  augmentation charge cutoff
   NELM   =    200;   NELMIN=  2; NELMDL= -5     # of ELM steps 
   EDIFF  = 0.1E-05   stopping-criterion for ELM
   LREAL  =      T    real-space projection
   NLSPLINE    = F    spline interpolate recip. space projectors
   LCOMPAT=      F    compatible to vasp.4.4
   GGA_COMPAT  = T    GGA compatible to vasp.4.4-vasp.4.6
   LMAXPAW     = -100 max onsite density
   LMAXMIX     =    2 max onsite mixed and CHGCAR
   VOSKOWN=      0    Vosko Wilk Nusair interpolation
   ROPT   =   -0.00025  -0.00025  -0.00025
 Ionic relaxation
   EDIFFG = -.1E-01   stopping-criterion for IOM
   NSW    =      0    number of steps for IOM
   NBLOCK =      1;   KBLOCK =      1    inner block; outer block 
   IBRION =     -1    ionic relax: 0-MD 1-quasi-New 2-CG
   NFREE  =      1    steps in history (QN), initial steepest desc. (CG)
   ISIF   =      3    stress and relaxation
   IWAVPR =     10    prediction:  0-non 1-charg 2-wave 3-comb
   ISYM   =      2    0-nonsym 1-usesym 2-fastsym
   LCORR  =      T    Harris-Foulkes like correction to forces

   POTIM  = 0.5000    time-step for ionic-motion
   TEIN   =    0.0    initial temperature
   TEBEG  =    0.0;   TEEND  =   0.0 temperature during run
   SMASS  =  -3.00    Nose mass-parameter (am)
   estimated Nose-frequenzy (Omega)   =  0.10E-29 period in steps =****** mass=  -0.172E-26a.u.
   SCALEE = 1.0000    scale energy and forces
   NPACO  =    256;   APACO  = 16.0  distance and # of slots for P.C.
   PSTRESS=    0.0 pullay stress

  Mass of Ions in am
   POMASS = 132.90207.20 79.90
  Ionic Valenz
   ZVAL   =   9.00 14.00  7.00
  Atomic Wigner-Seitz radii
   RWIGS  =  -1.00 -1.00 -1.00
  virtual crystal weights 
   VCA    =   1.00  1.00  1.00
   NELECT =     176.0000    total number of electrons
   NUPDOWN=      -1.0000    fix difference up-down

 DOS related values:
   EMIN   =  10.00;   EMAX   =-10.00  energy-range for DOS
   EFERMI =   0.00
   ISMEAR =     0;   SIGMA  =   0.01  broadening in eV -4-tet -1-fermi 0-gaus

 Electronic relaxation 2 (details)
   IALGO  =     38    algorithm
   LDIAG  =      T    sub-space diagonalisation (order eigenvalues)
   LSUBROT=      F    optimize rotation matrix (better conditioning)
   TURBO    =      0    0=normal 1=particle mesh
   IRESTART =      0    0=no restart 2=restart with 2 vectors
   NREBOOT  =      0    no. of reboots
   NMIN     =      0    reboot dimension
   EREF     =   0.00    reference energy to select bands
   IMIX   =      4    mixing-type and parameters
     AMIX     =   0.40;   BMIX     =  1.00
     AMIX_MAG =   1.60;   BMIX_MAG =  1.00
     AMIN     =   0.10
     WC   =   100.;   INIMIX=   1;  MIXPRE=   1;  MAXMIX= -45

 Intra band minimization:
   WEIMIN = 0.0000     energy-eigenvalue tresh-hold
   EBREAK =  0.22E-08  absolut break condition
   DEPER  =   0.30     relativ break condition  

   TIME   =   0.40     timestep for ELM

  volume/ion in A,a.u.               =      41.66       281.11
  Fermi-wavevector in a.u.,A,eV,Ry     =   0.975005  1.842492 12.934160  0.950634
  Thomas-Fermi vector in A             =   2.105510

 Write flags
   LWAVE        =      F    write WAVECAR
   LDOWNSAMPLE  =      F    k-point downsampling of WAVECAR
   LCHARG       =      F    write CHGCAR
   LVTOT        =      F    write LOCPOT, total local potential
   LVHAR        =      T    write LOCPOT, Hartree potential only
   LELF         =      F    write electronic localiz. function (ELF)
   LORBIT       =     10    0 simple, 1 ext, 2 COOP (PROOUT), +10 PAW based schemes


 Dipole corrections
   LMONO  =      F    monopole corrections only (constant potential shift)
   LDIPOL =      F    correct potential (dipole corrections)
   IDIPOL =      0    1-x, 2-y, 3-z, 4-all directions 
   EPSILON=  1.0000000 bulk dielectric constant

 Exchange correlation treatment:
   GGA     =    --    GGA type
   LEXCH   =     8    internal setting for exchange type
   VOSKOWN=      0    Vosko Wilk Nusair interpolation
   LHFCALC =     F    Hartree Fock is set to
   LHFONE  =     F    Hartree Fock one center treatment
   AEXX    =    0.0000 exact exchange contribution

 Linear response parameters
   LEPSILON=     F    determine dielectric tensor
   LRPA    =     F    only Hartree local field effects (RPA)
   LNABLA  =     F    use nabla operator in PAW spheres
   LVEL    =     F    velocity operator in full k-point grid
   LINTERFAST=   F  fast interpolation
   KINTER  =     0    interpolate to denser k-point grid
   CSHIFT  =0.1000    complex shift for real part using Kramers Kronig
   OMEGAMAX=  -1.0    maximum frequency
   DEG_THRESHOLD= 0.2000000E-02 threshold for treating states as degnerate
   RTIME   =   -0.100 relaxation time in fs
  (WPLASMAI=    0.000 imaginary part of plasma frequency in eV, 0.658/RTIME)
   DFIELD  = 0.0000000 0.0000000 0.0000000 field for delta impulse in time

 Orbital magnetization related:
   ORBITALMAG=     F  switch on orbital magnetization
   LCHIMAG   =     F  perturbation theory with respect to B field
   DQ        =  0.001000  dq finite difference perturbation B field
   LLRAUG    =     F  two centre corrections for induced B field



--------------------------------------------------------------------------------------------------------


 Static calculation
 charge density and potential will be updated during run
 non-spin polarized calculation
 Variant of blocked Davidson
 Davidson routine will perform the subspace rotation
 perform sub-space diagonalisation
    after iterative eigenvector-optimisation
 modified Broyden-mixing scheme, WC =      100.0
 initial mixing is a Kerker type mixing with AMIX =  0.4000 and BMIX =      1.0000
 Hartree-type preconditioning will be used
 using additional bands           24
 real space projection scheme for non local part
 use partial core corrections
 calculate Harris-corrections to forces   (improved forces if not selfconsistent)
 use gradient corrections 
 use of overlap-Matrix (Vanderbilt PP)
 Gauss-broadening in eV      SIGMA  =   0.01


--------------------------------------------------------------------------------------------------------


  energy-cutoff  :      300.00
  volume of cell :      833.14
      direct lattice vectors                 reciprocal lattice vectors
     8.672618126  0.000000000  0.000000000     0.115305434  0.000000000  0.000000000
     0.000000000 11.545876638  0.000000000     0.000000000  0.086611007  0.000000000
     0.000000000  0.000000000  8.320319970     0.000000000  0.000000000  0.120187686

  length of vectors
     8.672618126 11.545876638  8.320319970     0.115305434  0.086611007  0.120187686



 k-points in units of 2pi/SCALE and weight: 1x1x1                                   
   0.00000000  0.00000000  0.00000000       0.056
   0.03843514  0.00000000  0.00000000       0.111
   0.00000000  0.04330550  0.00000000       0.056
   0.03843514  0.04330550  0.00000000       0.111
   0.00000000  0.00000000  0.04006256       0.111
   0.03843514  0.00000000  0.04006256       0.222
   0.00000000  0.04330550  0.04006256       0.111
   0.03843514  0.04330550  0.04006256       0.222

 k-points in reciprocal lattice and weights: 1x1x1                                   
   0.00000000  0.00000000  0.00000000       0.056
   0.33333333  0.00000000  0.00000000       0.111
   0.00000000  0.50000000  0.00000000       0.056
   0.33333333  0.50000000  0.00000000       0.111
   0.00000000  0.00000000  0.33333333       0.111
   0.33333333  0.00000000  0.33333333       0.222
   0.00000000  0.50000000  0.33333333       0.111
   0.33333333  0.50000000  0.33333333       0.222

 position of ions in fractional coordinates (direct lattice) 
   0.05610513  0.25000000  0.48220236
   0.44389487  0.75000000  0.98220236
   0.55610513  0.25000000  0.01779764
   0.94389487  0.75000000  0.51779764
   0.00000000  0.00000000  0.00000000
   0.50000000  0.00000000  0.50000000
   0.50000000  0.50000000  0.50000000
   0.00000000  0.50000000  0.00000000
   0.51953582  0.75000000  0.41959930
   0.98046418  0.25000000  0.91959930
   0.01953582  0.75000000  0.08040070
   0.48046418  0.25000000  0.58040070
   0.28372360  0.46173805  0.21396278
   0.21627640  0.53826195  0.71396278
   0.78372360  0.03826195  0.28603722
   0.71627640  0.96173805  0.78603722
   0.28372360  0.03826195  0.21396278
   0.21627640  0.96173805  0.71396278
   0.71627640  0.53826195  0.78603722
   0.78372360  0.46173805  0.28603722

 position of ions in cartesian coordinates  (Angst):
   0.48657837  2.88646916  4.01207789
   3.84973069  8.65940748  8.17223788
   4.82288744  2.88646916  0.14808209
   8.18603975  8.65940748  4.30824208
   0.00000000  0.00000000  0.00000000
   4.33630906  0.00000000  4.16015999
   4.33630906  5.77293832  4.16015999
   0.00000000  5.77293832  0.00000000
   4.50573573  8.65940748  3.49120041
   8.50319146  2.88646916  7.65136040
   0.16942666  8.65940748  0.66895957
   4.16688240  2.88646916  4.82911956
   2.46062645  5.33117056  1.78023880
   1.87568261  6.21470608  5.94039879
   6.79693551  0.44176776  2.37992118
   6.21199167 11.10410888  6.54008117
   2.46062645  0.44176776  1.78023880
   1.87568261 11.10410888  5.94039879
   6.21199167  6.21470608  6.54008117
   6.79693551  5.33117056  2.37992118



--------------------------------------------------------------------------------------------------------


 k-point  1 :   0.0000 0.0000 0.0000  plane waves:    9859
 k-point  2 :   0.3333 0.0000 0.0000  plane waves:    9834
 k-point  3 :   0.0000 0.5000 0.0000  plane waves:    9812
 k-point  4 :   0.3333 0.5000 0.0000  plane waves:    9852
 k-point  5 :   0.0000 0.0000 0.3333  plane waves:    9838
 k-point  6 :   0.3333 0.0000 0.3333  plane waves:    9818
 k-point  7 :   0.0000 0.5000 0.3333  plane waves:    9816
 k-point  8 :   0.3333 0.5000 0.3333  plane waves:    9828

 maximum and minimum number of plane-waves per node :      1251     1210

 maximum number of plane-waves:      9859
 maximum index in each direction: 
   IXMAX=   12   IYMAX=   16   IZMAX=   11
   IXMIN=  -12   IYMIN=  -16   IZMIN=  -12


 real space projection operators:
  total allocation   :       8005.31 KBytes
  max/ min on nodes  :       1134.81        932.19


 parallel 3D FFT for wavefunctions:
    minimum data exchange during FFTs selected (reduces bandwidth)
 parallel 3D FFT for charge:
    minimum data exchange during FFTs selected (reduces bandwidth)


 total amount of memory used by VASP MPI-rank0    43667. kBytes
=======================================================================

   base      :      30000. kBytes
   nonlr-proj:       3215. kBytes
   fftplans  :       4446. kBytes
   grid      :       3667. kBytes
   one-center:         46. kBytes
   wavefun   :       2293. kBytes

     INWAV:  cpu time    0.0000: real time    0.0000
 Broyden mixing: mesh for mixing (old mesh)
   NGX = 25   NGY = 33   NGZ = 23
  (NGX  =100   NGY  =140   NGZ  = 96)
  gives a total of  18975 points

 initial charge density was supplied:
 charge density of overlapping atoms calculated
 number of electron     176.0000000 magnetization 
 keeping initial charge density in first step


--------------------------------------------------------------------------------------------------------


 Maximum index for non-local projection operator          914
 Maximum index for augmentation-charges         4466 (set IRDMAX)


--------------------------------------------------------------------------------------------------------


 First call to EWALD:  gamma=   0.188
 Maximum number of real-space cells 3x 2x 3
 Maximum number of reciprocal cells 3x 3x 2

    FEWALD:  cpu time    0.0024: real time    0.0024


--------------------------------------- Iteration      1(   1)  ---------------------------------------


    POTLOK:  cpu time    0.1271: real time    0.1303
    SETDIJ:  cpu time    1.1015: real time    1.1015
     EDDAV:  cpu time    4.3867: real time    4.3905
       DOS:  cpu time    0.0006: real time    0.0006
    --------------------------------------------
      LOOP:  cpu time    5.6160: real time    5.6229

 eigenvalue-minimisations  :  1864
 total energy-change (2. order) : 0.6550813E+03  (-0.5597167E+04)
 number of electron     176.0000000 magnetization 
 augmentation part      176.0000000 magnetization 

 Free energy of the ion-electron system (eV)
  ---------------------------------------------------
  alpha Z        PSCENC =       433.07201174
  Ewald energy   TEWEN  =     -9095.65062125
  -Hartree energ DENC   =     -3733.38019824
  -exchange      EXHF   =         0.00000000
  -V(xc)+E(xc)   XCENC  =       461.22993819
  PAW double counting   =     10816.98087266   -11353.96092700
  entropy T*S    EENTRO =        -0.00040362
  eigenvalues    EBANDS =      -163.48943222
  atomic energy  EATOM  =     13290.28009929
  Solvation  Ediel_sol  =         0.00000000
  ---------------------------------------------------
  free energy    TOTEN  =       655.08133954 eV

  energy without entropy =      655.08174317  energy(sigma->0) =      655.08154135


--------------------------------------------------------------------------------------------------------




--------------------------------------- Iteration      1(   2)  ---------------------------------------


     EDDAV:  cpu time    4.8414: real time    4.8637
       DOS:  cpu time    0.0003: real time    0.0003
    --------------------------------------------
      LOOP:  cpu time    4.8417: real time    4.8640

 eigenvalue-minimisations  :  2160
 total energy-change (2. order) :-0.1227960E+04  (-0.1176878E+04)
 number of electron     176.0000000 magnetization 
 augmentation part      176.0000000 magnetization 

 Free energy of the ion-electron system (eV)
  ---------------------------------------------------
  alpha Z        PSCENC =       433.07201174
  Ewald energy   TEWEN  =     -9095.65062125
  -Hartree energ DENC   =     -3733.38019824
  -exchange      EXHF   =         0.00000000
  -V(xc)+E(xc)   XCENC  =       461.22993819
  PAW double counting   =     10816.98087266   -11353.96092700
  entropy T*S    EENTRO =        -0.00000000
  eigenvalues    EBANDS =     -1391.44950637
  atomic energy  EATOM  =     13290.28009929
  Solvation  Ediel_sol  =         0.00000000
  ---------------------------------------------------
  free energy    TOTEN  =      -572.87833099 eV

  energy without entropy =     -572.87833099  energy(sigma->0) =     -572.87833099


--------------------------------------------------------------------------------------------------------




--------------------------------------- Iteration      1(   3)  ---------------------------------------


     EDDAV:  cpu time    5.2148: real time    5.2418
       DOS:  cpu time    0.0003: real time    0.0003
    --------------------------------------------
      LOOP:  cpu time    5.2151: real time    5.2421

 eigenvalue-minimisations  :  2424
 total energy-change (2. order) :-0.1756465E+03  (-0.1744435E+03)
 number of electron     176.0000000 magnetization 
 augmentation part      176.0000000 magnetization 

 Free energy of the ion-electron system (eV)
  ---------------------------------------------------
  alpha Z        PSCENC =       433.07201174
  Ewald energy   TEWEN  =     -9095.65062125
  -Hartree energ DENC   =     -3733.38019824
  -exchange      EXHF   =         0.00000000
  -V(xc)+E(xc)   XCENC  =       461.22993819
  PAW double counting   =     10816.98087266   -11353.96092700
  entropy T*S    EENTRO =        -0.00000000
  eigenvalues    EBANDS =     -1567.09601442
  atomic energy  EATOM  =     13290.28009929
  Solvation  Ediel_sol  =         0.00000000
  ---------------------------------------------------
  free energy    TOTEN  =      -748.52483904 eV

  energy without entropy =     -748.52483904  energy(sigma->0) =     -748.52483904


--------------------------------------------------------------------------------------------------------




--------------------------------------- Iteration      1(   4)  ---------------------------------------


     EDDAV:  cpu time    4.7968: real time    4.8418
       DOS:  cpu time    0.0003: real time    0.0003
    --------------------------------------------
      LOOP:  cpu time    4.7971: real time    4.8421

 eigenvalue-minimisations  :  2144
 total energy-change (2. order) :-0.5948643E+01  (-0.5927284E+01)
 number of electron     176.0000000 magnetization 
 augmentation part      176.0000000 magnetization 

 Free energy of the ion-electron system (eV)
  ---------------------------------------------------
  alpha Z        PSCENC =       433.07201174
  Ewald energy   TEWEN  =     -9095.65062125
  -Hartree energ DENC   =     -3733.38019824
  -exchange      EXHF   =         0.00000000
  -V(xc)+E(xc)   XCENC  =       461.22993819
  PAW double counting   =     10816.98087266   -11353.96092700
  entropy T*S    EENTRO =        -0.00000000
  eigenvalues    EBANDS =     -1573.04465709
  atomic energy  EATOM  =     13290.28009929
  Solvation  Ediel_sol  =         0.00000000
  ---------------------------------------------------
  free energy    TOTEN  =      -754.47348171 eV

  energy without entropy =     -754.47348171  energy(sigma->0) =     -754.47348171


--------------------------------------------------------------------------------------------------------




--------------------------------------- Iteration      1(   5)  ---------------------------------------


     EDDAV:  cpu time    5.1816: real time    5.2078
       DOS:  cpu time    0.0004: real time    0.0004
    CHARGE:  cpu time    0.9543: real time    0.9543
    MIXING:  cpu time    0.0008: real time    0.0008
    --------------------------------------------
      LOOP:  cpu time    6.1372: real time    6.1634

 eigenvalue-minimisations  :  2400
 total energy-change (2. order) :-0.2857760E+00  (-0.2856067E+00)
 number of electron     175.9999997 magnetization 
 augmentation part       -3.2314350 magnetization 

 Broyden mixing:
  rms(total) = 0.68886E+00    rms(broyden)= 0.68861E+00
  rms(prec ) = 0.99239E+00
  weight for this iteration     100.00

 Free energy of the ion-electron system (eV)
  ---------------------------------------------------
  alpha Z        PSCENC =       433.07201174
  Ewald energy   TEWEN  =     -9095.65062125
  -Hartree energ DENC   =     -3733.38019824
  -exchange      EXHF   =         0.00000000
  -V(xc)+E(xc)   XCENC  =       461.22993819
  PAW double counting   =     10816.98087266   -11353.96092700
  entropy T*S    EENTRO =        -0.00000000
  eigenvalues    EBANDS =     -1573.33043309
  atomic energy  EATOM  =     13290.28009929
  Solvation  Ediel_sol  =         0.00000000
  ---------------------------------------------------
  free energy    TOTEN  =      -754.75925770 eV

  energy without entropy =     -754.75925770  energy(sigma->0) =     -754.75925770


--------------------------------------------------------------------------------------------------------




--------------------------------------- Iteration      1(   6)  ---------------------------------------


    POTLOK:  cpu time    0.1201: real time    0.1760
    SETDIJ:  cpu time    1.1222: real time    1.1222
     EDDAV:  cpu time    5.0926: real time    5.0928
       DOS:  cpu time    0.0003: real time    0.0003
    CHARGE:  cpu time    0.9192: real time    0.9193
    MIXING:  cpu time    0.0010: real time    0.0010
    --------------------------------------------
      LOOP:  cpu time    7.2554: real time    7.3116

 eigenvalue-minimisations  :  2360
 total energy-change (2. order) : 0.3990406E+02  (-0.1190328E+01)
 number of electron     175.9999997 magnetization 
 augmentation part       -2.4981604 magnetization 

 Broyden mixing:
  rms(total) = 0.49011E+00    rms(broyden)= 0.49005E+00
  rms(prec ) = 0.62463E+00
  weight for this iteration     100.00

 eigenvalues of (default mixing * dielectric matrix)
  average eigenvalue GAMMA=   1.1207
  1.1207

 Free energy of the ion-electron system (eV)
  ---------------------------------------------------
  alpha Z        PSCENC =       433.07201174
  Ewald energy   TEWEN  =     -9095.65062125
  -Hartree energ DENC   =     -3723.85517750
  -exchange      EXHF   =         0.00000000
  -V(xc)+E(xc)   XCENC  =       476.77734166
  PAW double counting   =     10936.45409680   -11472.25921071
  entropy T*S    EENTRO =        -0.00000000
  eigenvalues    EBANDS =     -1559.67373443
  atomic energy  EATOM  =     13290.28009929
  Solvation  Ediel_sol  =         0.00000000
  ---------------------------------------------------
  free energy    TOTEN  =      -714.85519439 eV

  energy without entropy =     -714.85519439  energy(sigma->0) =     -714.85519439


--------------------------------------------------------------------------------------------------------




--------------------------------------- Iteration      1(   7)  ---------------------------------------


    POTLOK:  cpu time    0.1592: real time    0.1641
    SETDIJ:  cpu time    1.1208: real time    1.1209
     EDDAV:  cpu time    4.9821: real time    4.9823
       DOS:  cpu time    0.0004: real time    0.0004
    CHARGE:  cpu time    0.9215: real time    0.9215
    MIXING:  cpu time    0.0009: real time    0.0009
    --------------------------------------------
      LOOP:  cpu time    7.1850: real time    7.1901

 eigenvalue-minimisations  :  2280
 total energy-change (2. order) : 0.2330922E+00  (-0.4093868E+00)
 number of electron     175.9999997 magnetization 
 augmentation part       -2.2249880 magnetization 

 Broyden mixing:
  rms(total) = 0.25895E+00    rms(broyden)= 0.25894E+00
  rms(prec ) = 0.28657E+00
  weight for this iteration     100.00

 eigenvalues of (default mixing * dielectric matrix)
  average eigenvalue GAMMA=   1.3027
  1.3027  1.3027

 Free energy of the ion-electron system (eV)
  ---------------------------------------------------
  alpha Z        PSCENC =       433.07201174
  Ewald energy   TEWEN  =     -9095.65062125
  -Hartree energ DENC   =     -3743.48170308
  -exchange      EXHF   =         0.00000000
  -V(xc)+E(xc)   XCENC  =       479.36518731
  PAW double counting   =     11222.87819182   -11757.53058510
  entropy T*S    EENTRO =        -0.00000000
  eigenvalues    EBANDS =     -1543.55468296
  atomic energy  EATOM  =     13290.28009929
  Solvation  Ediel_sol  =         0.00000000
  ---------------------------------------------------
  free energy    TOTEN  =      -714.62210223 eV

  energy without entropy =     -714.62210223  energy(sigma->0) =     -714.62210223


--------------------------------------------------------------------------------------------------------




--------------------------------------- Iteration      1(   8)  ---------------------------------------


    POTLOK:  cpu time    0.1267: real time    0.1701
    SETDIJ:  cpu time    1.1218: real time    1.1218
     EDDAV:  cpu time    4.7767: real time    4.7769
       DOS:  cpu time    0.0004: real time    0.0004
    CHARGE:  cpu time    0.9200: real time    0.9201
    MIXING:  cpu time    0.0009: real time    0.0009
    --------------------------------------------
      LOOP:  cpu time    6.9465: real time    6.9902

 eigenvalue-minimisations  :  2144
 total energy-change (2. order) :-0.1012067E+00  (-0.1866979E-01)
 number of electron     175.9999997 magnetization 
 augmentation part       -2.2716910 magnetization 

 Broyden mixing:
  rms(total) = 0.14949E+00    rms(broyden)= 0.14949E+00
  rms(prec ) = 0.16780E+00
  weight for this iteration     100.00

 eigenvalues of (default mixing * dielectric matrix)
  average eigenvalue GAMMA=   1.7010
  1.1138  1.3024  2.6867

 Free energy of the ion-electron system (eV)
  ---------------------------------------------------
  alpha Z        PSCENC =       433.07201174
  Ewald energy   TEWEN  =     -9095.65062125
  -Hartree energ DENC   =     -3745.19531168
  -exchange      EXHF   =         0.00000000
  -V(xc)+E(xc)   XCENC  =       479.66671487
  PAW double counting   =     11331.24990139   -11866.00605417
  entropy T*S    EENTRO =        -0.00000000
  eigenvalues    EBANDS =     -1542.14004909
  atomic energy  EATOM  =     13290.28009929
  Solvation  Ediel_sol  =         0.00000000
  ---------------------------------------------------
  free energy    TOTEN  =      -714.72330889 eV

  energy without entropy =     -714.72330889  energy(sigma->0) =     -714.72330889


--------------------------------------------------------------------------------------------------------




--------------------------------------- Iteration      1(   9)  ---------------------------------------


    POTLOK:  cpu time    0.1520: real time    0.1693
    SETDIJ:  cpu time    1.1217: real time    1.1218
     EDDAV:  cpu time    4.5812: real time    4.5815
       DOS:  cpu time    0.0007: real time    0.0007
    CHARGE:  cpu time    0.9196: real time    0.9197
    MIXING:  cpu time    0.0009: real time    0.0009
    --------------------------------------------
      LOOP:  cpu time    6.7762: real time    6.7939

 eigenvalue-minimisations  :  2008
 total energy-change (2. order) :-0.4533562E-01  (-0.9453764E-02)
 number of electron     175.9999997 magnetization 
 augmentation part       -2.2943706 magnetization 

 Broyden mixing:
  rms(total) = 0.33106E-01    rms(broyden)= 0.33103E-01
  rms(prec ) = 0.35594E-01
  weight for this iteration     100.00

 eigenvalues of (default mixing * dielectric matrix)
  average eigenvalue GAMMA=   1.4596
  2.5344  1.2395  1.2395  0.8252

 Free energy of the ion-electron system (eV)
  ---------------------------------------------------
  alpha Z        PSCENC =       433.07201174
  Ewald energy   TEWEN  =     -9095.65062125
  -Hartree energ DENC   =     -3747.58495331
  -exchange      EXHF   =         0.00000000
  -V(xc)+E(xc)   XCENC  =       480.68592669
  PAW double counting   =     11491.80318212   -12026.83691082
  entropy T*S    EENTRO =        -0.00000000
  eigenvalues    EBANDS =     -1540.53737897
  atomic energy  EATOM  =     13290.28009929
  Solvation  Ediel_sol  =         0.00000000
  ---------------------------------------------------
  free energy    TOTEN  =      -714.76864452 eV

  energy without entropy =     -714.76864452  energy(sigma->0) =     -714.76864452


--------------------------------------------------------------------------------------------------------




--------------------------------------- Iteration      1(  10)  ---------------------------------------


    POTLOK:  cpu time    0.1453: real time    0.1676
    SETDIJ:  cpu time    1.1219: real time    1.1220
     EDDAV:  cpu time    5.3858: real time    5.3861
       DOS:  cpu time    0.0004: real time    0.0004
    CHARGE:  cpu time    0.9170: real time    0.9171
    MIXING:  cpu time    0.0010: real time    0.0010
    --------------------------------------------
      LOOP:  cpu time    7.5714: real time    7.5940

 eigenvalue-minimisations  :  2568
 total energy-change (2. order) :-0.1055700E-02  (-0.5754903E-03)
 number of electron     175.9999997 magnetization 
 augmentation part       -2.2872856 magnetization 

 Broyden mixing:
  rms(total) = 0.19246E-01    rms(broyden)= 0.19245E-01
  rms(prec ) = 0.21585E-01
  weight for this iteration     100.00

 eigenvalues of (default mixing * dielectric matrix)
  average eigenvalue GAMMA=   1.6293
  2.5165  2.5165  1.1360  1.1360  0.8414

 Free energy of the ion-electron system (eV)
  ---------------------------------------------------
  alpha Z        PSCENC =       433.07201174
  Ewald energy   TEWEN  =     -9095.65062125
  -Hartree energ DENC   =     -3746.72241480
  -exchange      EXHF   =         0.00000000
  -V(xc)+E(xc)   XCENC  =       480.58340315
  PAW double counting   =     11475.90979043   -12010.99990956
  entropy T*S    EENTRO =        -0.00000000
  eigenvalues    EBANDS =     -1541.24205923
  atomic energy  EATOM  =     13290.28009929
  Solvation  Ediel_sol  =         0.00000000
  ---------------------------------------------------
  free energy    TOTEN  =      -714.76970022 eV

  energy without entropy =     -714.76970022  energy(sigma->0) =     -714.76970022


--------------------------------------------------------------------------------------------------------




--------------------------------------- Iteration      1(  11)  ---------------------------------------


    POTLOK:  cpu time    0.1264: real time    0.1790
    SETDIJ:  cpu time    1.1123: real time    1.1123
     EDDAV:  cpu time    4.5466: real time    4.5468
       DOS:  cpu time    0.0007: real time    0.0007
    CHARGE:  cpu time    0.9187: real time    0.9188
    MIXING:  cpu time    0.0013: real time    0.0013
    --------------------------------------------
      LOOP:  cpu time    6.7060: real time    6.7588

 eigenvalue-minimisations  :  1992
 total energy-change (2. order) :-0.1983150E-02  (-0.2110163E-03)
 number of electron     175.9999997 magnetization 
 augmentation part       -2.2869257 magnetization 

 Broyden mixing:
  rms(total) = 0.74003E-02    rms(broyden)= 0.73999E-02
  rms(prec ) = 0.90288E-02
  weight for this iteration     100.00

 eigenvalues of (default mixing * dielectric matrix)
  average eigenvalue GAMMA=   1.5801
  2.6089  2.6089  1.2195  1.2195  0.9120  0.9120

 Free energy of the ion-electron system (eV)
  ---------------------------------------------------
  alpha Z        PSCENC =       433.07201174
  Ewald energy   TEWEN  =     -9095.65062125
  -Hartree energ DENC   =     -3745.23847727
  -exchange      EXHF   =         0.00000000
  -V(xc)+E(xc)   XCENC  =       480.53492752
  PAW double counting   =     11461.15779818   -11996.45066562
  entropy T*S    EENTRO =        -0.00000000
  eigenvalues    EBANDS =     -1542.47675595
  atomic energy  EATOM  =     13290.28009929
  Solvation  Ediel_sol  =         0.00000000
  ---------------------------------------------------
  free energy    TOTEN  =      -714.77168337 eV

  energy without entropy =     -714.77168337  energy(sigma->0) =     -714.77168337


--------------------------------------------------------------------------------------------------------




--------------------------------------- Iteration      1(  12)  ---------------------------------------


    POTLOK:  cpu time    0.1197: real time    0.1803
    SETDIJ:  cpu time    1.1137: real time    1.1137
     EDDAV:  cpu time    4.7845: real time    4.7846
       DOS:  cpu time    0.0004: real time    0.0004
    CHARGE:  cpu time    0.9167: real time    0.9167
    MIXING:  cpu time    0.0010: real time    0.0010
    --------------------------------------------
      LOOP:  cpu time    6.9360: real time    6.9968

 eigenvalue-minimisations  :  2152
 total energy-change (2. order) : 0.4907359E-04  (-0.5087113E-04)
 number of electron     175.9999997 magnetization 
 augmentation part       -2.2889610 magnetization 

 Broyden mixing:
  rms(total) = 0.23994E-02    rms(broyden)= 0.23986E-02
  rms(prec ) = 0.27246E-02
  weight for this iteration     100.00

 eigenvalues of (default mixing * dielectric matrix)
  average eigenvalue GAMMA=   1.6412
  3.0764  2.3013  1.9561  0.9583  0.9583  1.1188  1.1188

 Free energy of the ion-electron system (eV)
  ---------------------------------------------------
  alpha Z        PSCENC =       433.07201174
  Ewald energy   TEWEN  =     -9095.65062125
  -Hartree energ DENC   =     -3745.47536475
  -exchange      EXHF   =         0.00000000
  -V(xc)+E(xc)   XCENC  =       480.59956198
  PAW double counting   =     11466.78094558   -12002.10599934
  entropy T*S    EENTRO =        -0.00000000
  eigenvalues    EBANDS =     -1542.27226755
  atomic energy  EATOM  =     13290.28009929
  Solvation  Ediel_sol  =         0.00000000
  ---------------------------------------------------
  free energy    TOTEN  =      -714.77163429 eV

  energy without entropy =     -714.77163429  energy(sigma->0) =     -714.77163429


--------------------------------------------------------------------------------------------------------




--------------------------------------- Iteration      1(  13)  ---------------------------------------


    POTLOK:  cpu time    0.1629: real time    0.1790
    SETDIJ:  cpu time    1.1140: real time    1.1140
     EDDAV:  cpu time    4.8274: real time    4.8277
       DOS:  cpu time    0.0004: real time    0.0004
    CHARGE:  cpu time    0.9175: real time    0.9176
    MIXING:  cpu time    0.0013: real time    0.0013
    --------------------------------------------
      LOOP:  cpu time    7.0235: real time    7.0401

 eigenvalue-minimisations  :  2184
 total energy-change (2. order) : 0.4186020E-06  (-0.5216725E-05)
 number of electron     175.9999997 magnetization 
 augmentation part       -2.2888661 magnetization 

 Broyden mixing:
  rms(total) = 0.62074E-03    rms(broyden)= 0.61890E-03
  rms(prec ) = 0.67634E-03
  weight for this iteration     100.00

 eigenvalues of (default mixing * dielectric matrix)
  average eigenvalue GAMMA=   1.6201
  3.0058  2.4813  1.9956  1.2652  1.2652  0.9403  1.0037  1.0037

 Free energy of the ion-electron system (eV)
  ---------------------------------------------------
  alpha Z        PSCENC =       433.07201174
  Ewald energy   TEWEN  =     -9095.65062125
  -Hartree energ DENC   =     -3745.63964838
  -exchange      EXHF   =         0.00000000
  -V(xc)+E(xc)   XCENC  =       480.61347667
  PAW double counting   =     11465.41425742   -12000.74297908
  entropy T*S    EENTRO =        -0.00000000
  eigenvalues    EBANDS =     -1542.11823029
  atomic energy  EATOM  =     13290.28009929
  Solvation  Ediel_sol  =         0.00000000
  ---------------------------------------------------
  free energy    TOTEN  =      -714.77163387 eV

  energy without entropy =     -714.77163387  energy(sigma->0) =     -714.77163387


--------------------------------------------------------------------------------------------------------




--------------------------------------- Iteration      1(  14)  ---------------------------------------


    POTLOK:  cpu time    0.1554: real time    0.1725
    SETDIJ:  cpu time    1.1132: real time    1.1132
     EDDAV:  cpu time    4.0756: real time    4.0758
       DOS:  cpu time    0.0004: real time    0.0004
    CHARGE:  cpu time    0.9194: real time    0.9195
    MIXING:  cpu time    0.0011: real time    0.0011
    --------------------------------------------
      LOOP:  cpu time    6.2651: real time    6.2825

 eigenvalue-minimisations  :  1632
 total energy-change (2. order) :-0.1449503E-04  (-0.2312301E-06)
 number of electron     175.9999997 magnetization 
 augmentation part       -2.2887226 magnetization 

 Broyden mixing:
  rms(total) = 0.20046E-03    rms(broyden)= 0.19500E-03
  rms(prec ) = 0.22896E-03
  weight for this iteration     100.00

 eigenvalues of (default mixing * dielectric matrix)
  average eigenvalue GAMMA=   1.6753
  2.8655  2.7032  2.3685  1.9454  1.1350  1.1350  0.9266  0.9991  0.9991

 Free energy of the ion-electron system (eV)
  ---------------------------------------------------
  alpha Z        PSCENC =       433.07201174
  Ewald energy   TEWEN  =     -9095.65062125
  -Hartree energ DENC   =     -3745.64121036
  -exchange      EXHF   =         0.00000000
  -V(xc)+E(xc)   XCENC  =       480.61269061
  PAW double counting   =     11465.07963853   -12000.40678305
  entropy T*S    EENTRO =        -0.00000000
  eigenvalues    EBANDS =     -1542.11747388
  atomic energy  EATOM  =     13290.28009929
  Solvation  Ediel_sol  =         0.00000000
  ---------------------------------------------------
  free energy    TOTEN  =      -714.77164837 eV

  energy without entropy =     -714.77164837  energy(sigma->0) =     -714.77164837


--------------------------------------------------------------------------------------------------------




--------------------------------------- Iteration      1(  15)  ---------------------------------------


    POTLOK:  cpu time    0.1568: real time    0.1735
    SETDIJ:  cpu time    1.1131: real time    1.1131
     EDDAV:  cpu time    3.5357: real time    3.5358
       DOS:  cpu time    0.0003: real time    0.0003
    --------------------------------------------
      LOOP:  cpu time    4.8059: real time    4.8227

 eigenvalue-minimisations  :  1248
 total energy-change (2. order) :-0.8627130E-06  (-0.5090079E-07)
 number of electron     175.9999997 magnetization 
 augmentation part       -2.2887226 magnetization 

 Free energy of the ion-electron system (eV)
  ---------------------------------------------------
  alpha Z        PSCENC =       433.07201174
  Ewald energy   TEWEN  =     -9095.65062125
  -Hartree energ DENC   =     -3745.63585352
  -exchange      EXHF   =         0.00000000
  -V(xc)+E(xc)   XCENC  =       480.61258453
  PAW double counting   =     11465.10389068   -12000.43006224
  entropy T*S    EENTRO =        -0.00000000
  eigenvalues    EBANDS =     -1542.12369846
  atomic energy  EATOM  =     13290.28009929
  Solvation  Ediel_sol  =         0.00000000
  ---------------------------------------------------
  free energy    TOTEN  =      -714.77164923 eV

  energy without entropy =     -714.77164923  energy(sigma->0) =     -714.77164923


--------------------------------------------------------------------------------------------------------




 average (electrostatic) potential at core
  the test charge radii are     1.1312  1.1541  1.0178
  (the norm of the test charge is              1.0000)
       1 -55.5083       2 -55.5083       3 -55.5083       4 -55.5083       5-101.9556
       6-101.9556       7-101.9556       8-101.9556       9 -69.2187      10 -69.2187
      11 -69.2187      12 -69.2187      13 -69.1263      14 -69.1263      15 -69.1263
      16 -69.1263      17 -69.1263      18 -69.1263      19 -69.1263      20 -69.1263



 E-fermi :   0.2060     XC(G=0):  -7.9082     alpha+bet : -6.7942


 k-point     1 :       0.0000    0.0000    0.0000
  band No.  band energies     occupation 
      1     -21.0305      2.00000
      2     -21.0290      2.00000
      3     -21.0277      2.00000
      4     -21.0266      2.00000
      5     -16.7537      2.00000
      6     -16.7371      2.00000
      7     -16.7222      2.00000
      8     -16.7220      2.00000
      9     -16.6877      2.00000
     10     -16.6666      2.00000
     11     -16.6622      2.00000
     12     -16.6621      2.00000
     13     -16.6136      2.00000
     14     -16.6134      2.00000
     15     -16.6127      2.00000
     16     -16.6126      2.00000
     17     -16.6039      2.00000
     18     -16.6036      2.00000
     19     -16.6028      2.00000
     20     -16.6025      2.00000
     21     -16.5982      2.00000
     22     -16.5977      2.00000
     23     -16.5973      2.00000
     24     -16.5965      2.00000
     25     -14.4646      2.00000
     26     -14.2644      2.00000
     27     -14.2588      2.00000
     28     -14.2345      2.00000
     29     -14.1900      2.00000
     30     -14.1173      2.00000
     31     -14.1060      2.00000
     32     -14.1033      2.00000
     33     -14.0951      2.00000
     34     -13.9347      2.00000
     35     -13.9056      2.00000
     36     -13.8958      2.00000
     37      -8.3244      2.00000
     38      -7.7865      2.00000
     39      -7.4927      2.00000
     40      -7.4586      2.00000
     41      -7.4495      2.00000
     42      -7.4398      2.00000
     43      -7.4321      2.00000
     44      -7.4272      2.00000
     45      -7.4108      2.00000
     46      -7.4035      2.00000
     47      -7.4011      2.00000
     48      -7.3987      2.00000
     49      -7.3854      2.00000
     50      -7.3850      2.00000
     51      -7.3845      2.00000
     52      -6.8294      2.00000
     53      -3.5089      2.00000
     54      -3.3824      2.00000
     55      -3.3140      2.00000
     56      -3.3009      2.00000
     57      -3.1817      2.00000
     58      -3.1409      2.00000
     59      -2.2202      2.00000
     60      -2.0417      2.00000
     61      -2.0374      2.00000
     62      -2.0127      2.00000
     63      -1.9869      2.00000
     64      -1.9448      2.00000
     65      -1.8509      2.00000
     66      -1.6792      2.00000
     67      -1.6673      2.00000
     68      -1.6537      2.00000
     69      -1.6220      2.00000
     70      -1.6066      2.00000
     71      -1.5674      2.00000
     72      -1.5313      2.00000
     73      -1.5285      2.00000
     74      -1.5148      2.00000
     75      -1.5117      2.00000
     76      -1.4671      2.00000
     77      -1.4646      2.00000
     78      -1.3878      2.00000
     79      -1.3361      2.00000
     80      -1.3004      2.00000
     81      -1.2769      2.00000
     82      -1.1838      2.00000
     83      -1.1697      2.00000
     84      -1.1555      2.00000
     85      -1.0140      2.00000
     86      -0.8753      2.00000
     87      -0.5393      2.00000
     88       0.1026      2.00000
     89       2.3367      0.00000
     90       2.5146      0.00000
     91       2.6685      0.00000
     92       2.7225      0.00000
     93       2.9386      0.00000
     94       3.4067      0.00000
     95       4.6279      0.00000
     96       5.2557      0.00000
     97       5.3952      0.00000
     98       5.6925      0.00000
     99       5.7316      0.00000
    100       5.7477      0.00000
    101       5.8210      0.00000
    102       5.9757      0.00000
    103       6.1264      0.00000
    104       6.1349      0.00000
    105       6.2685      0.00000
    106       6.2872      0.00000
    107       6.4080      0.00000
    108       6.4982      0.00000
    109       6.5274      0.00000
    110       6.5838      0.00000
    111       6.7146      0.00000
    112       6.7657      0.00000

 k-point     2 :       0.3333    0.0000    0.0000
  band No.  band energies     occupation 
      1     -21.0297      2.00000
      2     -21.0284      2.00000
      3     -21.0283      2.00000
      4     -21.0272      2.00000
      5     -16.7495      2.00000
      6     -16.7411      2.00000
      7     -16.7078      2.00000
      8     -16.7076      2.00000
      9     -16.6823      2.00000
     10     -16.6779      2.00000
     11     -16.6777      2.00000
     12     -16.6717      2.00000
     13     -16.6133      2.00000
     14     -16.6131      2.00000
     15     -16.6130      2.00000
     16     -16.6127      2.00000
     17     -16.6037      2.00000
     18     -16.6036      2.00000
     19     -16.6028      2.00000
     20     -16.6026      2.00000
     21     -16.5980      2.00000
     22     -16.5977      2.00000
     23     -16.5970      2.00000
     24     -16.5967      2.00000
     25     -14.4215      2.00000
     26     -14.3076      2.00000
     27     -14.2625      2.00000
     28     -14.2585      2.00000
     29     -14.2039      2.00000
     30     -14.1398      2.00000
     31     -14.0547      2.00000
     32     -14.0455      2.00000
     33     -14.0250      2.00000
     34     -13.9558      2.00000
     35     -13.9557      2.00000
     36     -13.9460      2.00000
     37      -8.1440      2.00000
     38      -7.7386      2.00000
     39      -7.6095      2.00000
     40      -7.4530      2.00000
     41      -7.4443      2.00000
     42      -7.4300      2.00000
     43      -7.4286      2.00000
     44      -7.4147      2.00000
     45      -7.4130      2.00000
     46      -7.4077      2.00000
     47      -7.3982      2.00000
     48      -7.3951      2.00000
     49      -7.3904      2.00000
     50      -7.3881      2.00000
     51      -7.3737      2.00000
     52      -7.1063      2.00000
     53      -3.4793      2.00000
     54      -3.4098      2.00000
     55      -3.0370      2.00000
     56      -2.8662      2.00000
     57      -2.8486      2.00000
     58      -2.7854      2.00000
     59      -2.3623      2.00000
     60      -2.2497      2.00000
     61      -2.1410      2.00000
     62      -2.1229      2.00000
     63      -2.0819      2.00000
     64      -2.0723      2.00000
     65      -1.9811      2.00000
     66      -1.8785      2.00000
     67      -1.7907      2.00000
     68      -1.7886      2.00000
     69      -1.6518      2.00000
     70      -1.6446      2.00000
     71      -1.6063      2.00000
     72      -1.6032      2.00000
     73      -1.4781      2.00000
     74      -1.4765      2.00000
     75      -1.4575      2.00000
     76      -1.4157      2.00000
     77      -1.4022      2.00000
     78      -1.4016      2.00000
     79      -1.3325      2.00000
     80      -1.3280      2.00000
     81      -1.2946      2.00000
     82      -1.2327      2.00000
     83      -1.2319      2.00000
     84      -1.1956      2.00000
     85      -1.0265      2.00000
     86      -0.9492      2.00000
     87      -0.7861      2.00000
     88      -0.3870      2.00000
     89       2.8729      0.00000
     90       3.1265      0.00000
     91       3.1266      0.00000
     92       3.3430      0.00000
     93       3.5184      0.00000
     94       3.6947      0.00000
     95       4.5670      0.00000
     96       4.6868      0.00000
     97       4.8096      0.00000
     98       4.8952      0.00000
     99       5.4352      0.00000
    100       5.7498      0.00000
    101       5.9913      0.00000
    102       6.0059      0.00000
    103       6.0876      0.00000
    104       6.1240      0.00000
    105       6.3793      0.00000
    106       6.4043      0.00000
    107       6.4238      0.00000
    108       6.4483      0.00000
    109       6.6000      0.00000
    110       6.6681      0.00000
    111       6.7146      0.00000
    112       6.8259      0.00000

 k-point     3 :       0.0000    0.5000    0.0000
  band No.  band energies     occupation 
      1     -21.0296      2.00000
      2     -21.0296      2.00000
      3     -21.0271      2.00000
      4     -21.0271      2.00000
      5     -16.7221      2.00000
      6     -16.7221      2.00000
      7     -16.7210      2.00000
      8     -16.7210      2.00000
      9     -16.7025      2.00000
     10     -16.7025      2.00000
     11     -16.6621      2.00000
     12     -16.6621      2.00000
     13     -16.6135      2.00000
     14     -16.6135      2.00000
     15     -16.6127      2.00000
     16     -16.6127      2.00000
     17     -16.6033      2.00000
     18     -16.6033      2.00000
     19     -16.6030      2.00000
     20     -16.6030      2.00000
     21     -16.5976      2.00000
     22     -16.5976      2.00000
     23     -16.5969      2.00000
     24     -16.5969      2.00000
     25     -14.4117      2.00000
     26     -14.4117      2.00000
     27     -14.2237      2.00000
     28     -14.2237      2.00000
     29     -14.1116      2.00000
     30     -14.1116      2.00000
     31     -14.1010      2.00000
     32     -14.1010      2.00000
     33     -14.0348      2.00000
     34     -14.0348      2.00000
     35     -13.9005      2.00000
     36     -13.9005      2.00000
     37      -8.0767      2.00000
     38      -8.0767      2.00000
     39      -7.4456      2.00000
     40      -7.4456      2.00000
     41      -7.4344      2.00000
     42      -7.4344      2.00000
     43      -7.4188      2.00000
     44      -7.4188      2.00000
     45      -7.4072      2.00000
     46      -7.4072      2.00000
     47      -7.3982      2.00000
     48      -7.3982      2.00000
     49      -7.3924      2.00000
     50      -7.3924      2.00000
     51      -7.2066      2.00000
     52      -7.2066      2.00000
     53      -3.2488      2.00000
     54      -3.2488      2.00000
     55      -3.2456      2.00000
     56      -3.2456      2.00000
     57      -2.6534      2.00000
     58      -2.6534      2.00000
     59      -2.5708      2.00000
     60      -2.5708      2.00000
     61      -2.0949      2.00000
     62      -2.0949      2.00000
     63      -1.9783      2.00000
     64      -1.9783      2.00000
     65      -1.9139      2.00000
     66      -1.9139      2.00000
     67      -1.6422      2.00000
     68      -1.6422      2.00000
     69      -1.6376      2.00000
     70      -1.6376      2.00000
     71      -1.5636      2.00000
     72      -1.5636      2.00000
     73      -1.5253      2.00000
     74      -1.5253      2.00000
     75      -1.4557      2.00000
     76      -1.4557      2.00000
     77      -1.4202      2.00000
     78      -1.4202      2.00000
     79      -1.3482      2.00000
     80      -1.3482      2.00000
     81      -1.2472      2.00000
     82      -1.2472      2.00000
     83      -1.2181      2.00000
     84      -1.2181      2.00000
     85      -1.0327      2.00000
     86      -1.0327      2.00000
     87      -0.3763      2.00000
     88      -0.3763      2.00000
     89       2.5347      0.00000
     90       2.5347      0.00000
     91       2.7192      0.00000
     92       2.7192      0.00000
     93       4.1900      0.00000
     94       4.1900      0.00000
     95       4.7167      0.00000
     96       4.7167      0.00000
     97       5.3576      0.00000
     98       5.3576      0.00000
     99       5.5598      0.00000
    100       5.5598      0.00000
    101       5.5609      0.00000
    102       5.5609      0.00000
    103       6.0206      0.00000
    104       6.0206      0.00000
    105       6.2255      0.00000
    106       6.2255      0.00000
    107       6.4028      0.00000
    108       6.4028      0.00000
    109       6.6813      0.00000
    110       6.6827      0.00000
    111       6.7295      0.00000
    112       6.7328      0.00000

 k-point     4 :       0.3333    0.5000    0.0000
  band No.  band energies     occupation 
      1     -21.0291      2.00000
      2     -21.0291      2.00000
      3     -21.0278      2.00000
      4     -21.0278      2.00000
      5     -16.7163      2.00000
      6     -16.7163      2.00000
      7     -16.7078      2.00000
      8     -16.7078      2.00000
      9     -16.7069      2.00000
     10     -16.7069      2.00000
     11     -16.6778      2.00000
     12     -16.6778      2.00000
     13     -16.6133      2.00000
     14     -16.6133      2.00000
     15     -16.6129      2.00000
     16     -16.6129      2.00000
     17     -16.6033      2.00000
     18     -16.6033      2.00000
     19     -16.6031      2.00000
     20     -16.6031      2.00000
     21     -16.5976      2.00000
     22     -16.5976      2.00000
     23     -16.5972      2.00000
     24     -16.5972      2.00000
     25     -14.3764      2.00000
     26     -14.3764      2.00000
     27     -14.2895      2.00000
     28     -14.2895      2.00000
     29     -14.0753      2.00000
     30     -14.0753      2.00000
     31     -14.0557      2.00000
     32     -14.0557      2.00000
     33     -14.0391      2.00000
     34     -14.0391      2.00000
     35     -13.9506      2.00000
     36     -13.9506      2.00000
     37      -7.8946      2.00000
     38      -7.8946      2.00000
     39      -7.4949      2.00000
     40      -7.4949      2.00000
     41      -7.4341      2.00000
     42      -7.4341      2.00000
     43      -7.4329      2.00000
     44      -7.4329      2.00000
     45      -7.4130      2.00000
     46      -7.4130      2.00000
     47      -7.3986      2.00000
     48      -7.3986      2.00000
     49      -7.3979      2.00000
     50      -7.3979      2.00000
     51      -7.3711      2.00000
     52      -7.3711      2.00000
     53      -2.9624      2.00000
     54      -2.9624      2.00000
     55      -2.9271      2.00000
     56      -2.9271      2.00000
     57      -2.6575      2.00000
     58      -2.6575      2.00000
     59      -2.5252      2.00000
     60      -2.5252      2.00000
     61      -2.2662      2.00000
     62      -2.2662      2.00000
     63      -2.1672      2.00000
     64      -2.1672      2.00000
     65      -1.8656      2.00000
     66      -1.8656      2.00000
     67      -1.7820      2.00000
     68      -1.7820      2.00000
     69      -1.6720      2.00000
     70      -1.6720      2.00000
     71      -1.6658      2.00000
     72      -1.6658      2.00000
     73      -1.5739      2.00000
     74      -1.5739      2.00000
     75      -1.5666      2.00000
     76      -1.5666      2.00000
     77      -1.3230      2.00000
     78      -1.3230      2.00000
     79      -1.3158      2.00000
     80      -1.3158      2.00000
     81      -1.2556      2.00000
     82      -1.2556      2.00000
     83      -1.2277      2.00000
     84      -1.2277      2.00000
     85      -1.0291      2.00000
     86      -1.0291      2.00000
     87      -0.8308      2.00000
     88      -0.8308      2.00000
     89       3.2909      0.00000
     90       3.2909      0.00000
     91       3.4966      0.00000
     92       3.4966      0.00000
     93       4.3076      0.00000
     94       4.3076      0.00000
     95       4.5965      0.00000
     96       4.5965      0.00000
     97       4.7609      0.00000
     98       4.7609      0.00000
     99       4.7826      0.00000
    100       4.7826      0.00000
    101       5.7917      0.00000
    102       5.7917      0.00000
    103       6.2214      0.00000
    104       6.2214      0.00000
    105       6.2458      0.00000
    106       6.2458      0.00000
    107       6.3517      0.00000
    108       6.3517      0.00000
    109       6.5041      0.00000
    110       6.5043      0.00000
    111       6.6872      0.00000
    112       6.7670      0.00000

 k-point     5 :       0.0000    0.0000    0.3333
  band No.  band energies     occupation 
      1     -21.0298      2.00000
      2     -21.0287      2.00000
      3     -21.0279      2.00000
      4     -21.0272      2.00000
      5     -16.7494      2.00000
      6     -16.7410      2.00000
      7     -16.7078      2.00000
      8     -16.7076      2.00000
      9     -16.6823      2.00000
     10     -16.6778      2.00000
     11     -16.6777      2.00000
     12     -16.6717      2.00000
     13     -16.6133      2.00000
     14     -16.6132      2.00000
     15     -16.6129      2.00000
     16     -16.6128      2.00000
     17     -16.6037      2.00000
     18     -16.6036      2.00000
     19     -16.6028      2.00000
     20     -16.6026      2.00000
     21     -16.5980      2.00000
     22     -16.5978      2.00000
     23     -16.5970      2.00000
     24     -16.5968      2.00000
     25     -14.4211      2.00000
     26     -14.3060      2.00000
     27     -14.2611      2.00000
     28     -14.2602      2.00000
     29     -14.2014      2.00000
     30     -14.1317      2.00000
     31     -14.0652      2.00000
     32     -14.0538      2.00000
     33     -14.0175      2.00000
     34     -13.9591      2.00000
     35     -13.9533      2.00000
     36     -13.9487      2.00000
     37      -8.1428      2.00000
     38      -7.7334      2.00000
     39      -7.5989      2.00000
     40      -7.4466      2.00000
     41      -7.4343      2.00000
     42      -7.4333      2.00000
     43      -7.4204      2.00000
     44      -7.4189      2.00000
     45      -7.4185      2.00000
     46      -7.4070      2.00000
     47      -7.4008      2.00000
     48      -7.3942      2.00000
[...]
     60      -2.5454      2.00000
     61      -2.3139      2.00000
     62      -2.3139      2.00000
     63      -2.1519      2.00000
     64      -2.1519      2.00000
     65      -1.8323      2.00000
     66      -1.8323      2.00000
     67      -1.7945      2.00000
     68      -1.7945      2.00000
     69      -1.7041      2.00000
     70      -1.7041      2.00000
     71      -1.6272      2.00000
     72      -1.6272      2.00000
     73      -1.4853      2.00000
     74      -1.4853      2.00000
     75      -1.4387      2.00000
     76      -1.4387      2.00000
     77      -1.3895      2.00000
     78      -1.3895      2.00000
     79      -1.3468      2.00000
     80      -1.3468      2.00000
     81      -1.2640      2.00000
     82      -1.2640      2.00000
     83      -1.2152      2.00000
     84      -1.2152      2.00000
     85      -1.0979      2.00000
     86      -1.0979      2.00000
     87      -0.9024      2.00000
     88      -0.9024      2.00000
     89       3.3664      0.00000
     90       3.3664      0.00000
     91       3.4146      0.00000
     92       3.4146      0.00000
     93       4.3181      0.00000
     94       4.3181      0.00000
     95       4.5860      0.00000
     96       4.5860      0.00000
     97       4.7283      0.00000
     98       4.7283      0.00000
     99       4.7864      0.00000
    100       4.7864      0.00000
    101       5.7712      0.00000
    102       5.7712      0.00000
    103       6.1049      0.00000
    104       6.1049      0.00000
    105       6.1870      0.00000
    106       6.1870      0.00000
    107       6.5540      0.00000
    108       6.5540      0.00000
    109       6.5955      0.00000
    110       6.5955      0.00000
    111       6.6770      0.00000
    112       6.6770      0.00000

 k-point     8 :       0.3333    0.5000    0.3333
  band No.  band energies     occupation 
      1     -21.0287      2.00000
      2     -21.0287      2.00000
      3     -21.0280      2.00000
      4     -21.0280      2.00000
      5     -16.7212      2.00000
      6     -16.7212      2.00000
      7     -16.7145      2.00000
      8     -16.7145      2.00000
      9     -16.6931      2.00000
     10     -16.6931      2.00000
     11     -16.6802      2.00000
     12     -16.6802      2.00000
     13     -16.6132      2.00000
     14     -16.6132      2.00000
     15     -16.6129      2.00000
     16     -16.6129      2.00000
     17     -16.6032      2.00000
     18     -16.6032      2.00000
     19     -16.6031      2.00000
     20     -16.6031      2.00000
     21     -16.5974      2.00000
     22     -16.5974      2.00000
     23     -16.5973      2.00000
     24     -16.5973      2.00000
     25     -14.3449      2.00000
     26     -14.3449      2.00000
     27     -14.2934      2.00000
     28     -14.2934      2.00000
     29     -14.1088      2.00000
     30     -14.1088      2.00000
     31     -14.0715      2.00000
     32     -14.0715      2.00000
     33     -14.0047      2.00000
     34     -14.0047      2.00000
     35     -13.9691      2.00000
     36     -13.9691      2.00000
     37      -7.7820      2.00000
     38      -7.7820      2.00000
     39      -7.5735      2.00000
     40      -7.5735      2.00000
     41      -7.4338      2.00000
     42      -7.4338      2.00000
     43      -7.4198      2.00000
     44      -7.4198      2.00000
     45      -7.4078      2.00000
     46      -7.4078      2.00000
     47      -7.4030      2.00000
     48      -7.4030      2.00000
     49      -7.3961      2.00000
     50      -7.3961      2.00000
     51      -7.3838      2.00000
     52      -7.3838      2.00000
     53      -3.1824      2.00000
     54      -3.1824      2.00000
     55      -2.8766      2.00000
     56      -2.8766      2.00000
     57      -2.7065      2.00000
     58      -2.7065      2.00000
     59      -2.5707      2.00000
     60      -2.5707      2.00000
     61      -2.2630      2.00000
     62      -2.2630      2.00000
     63      -2.1273      2.00000
     64      -2.1273      2.00000
     65      -1.8203      2.00000
     66      -1.8203      2.00000
     67      -1.7581      2.00000
     68      -1.7581      2.00000
     69      -1.6642      2.00000
     70      -1.6642      2.00000
     71      -1.5785      2.00000
     72      -1.5785      2.00000
     73      -1.5153      2.00000
     74      -1.5153      2.00000
     75      -1.4668      2.00000
     76      -1.4668      2.00000
     77      -1.4092      2.00000
     78      -1.4092      2.00000
     79      -1.3386      2.00000
     80      -1.3386      2.00000
     81      -1.2912      2.00000
     82      -1.2912      2.00000
     83      -1.2480      2.00000
     84      -1.2480      2.00000
     85      -1.0127      2.00000
     86      -1.0127      2.00000
     87      -0.7987      2.00000
     88      -0.7987      2.00000
     89       2.8598      0.00000
     90       2.8598      0.00000
     91       3.6065      0.00000
     92       3.6065      0.00000
     93       4.4066      0.00000
     94       4.4066      0.00000
     95       4.5162      0.00000
     96       4.5162      0.00000
     97       4.6246      0.00000
     98       4.6246      0.00000
     99       5.3093      0.00000
    100       5.3093      0.00000
    101       5.9800      0.00000
    102       5.9800      0.00000
    103       6.2073      0.00000
    104       6.2073      0.00000
    105       6.3478      0.00000
    106       6.3478      0.00000
    107       6.5402      0.00000
    108       6.5403      0.00000
    109       6.6218      0.00000
    110       6.6219      0.00000
    111       6.7089      0.00000
    112       6.7099      0.00000


--------------------------------------------------------------------------------------------------------


 soft charge-density along one line, spin component           1
         0         1         2         3         4         5         6         7         8         9
 total charge-density along one line

 pseudopotential strength for first ion, spin component:           1
 18.073  -4.731   0.000   0.000  -0.002  -0.000  -0.000   0.002
 -4.731   1.247  -0.000  -0.000   0.000   0.000   0.000  -0.000
  0.000  -0.000   2.307  -0.000  -0.000  -2.769   0.000   0.000
  0.000  -0.000  -0.000   2.307  -0.001   0.000  -2.768   0.001
 -0.002   0.000  -0.000  -0.001   2.307   0.000   0.001  -2.768
 -0.000   0.000  -2.769   0.000   0.000   3.293  -0.000  -0.000
 -0.000   0.000   0.000  -2.768   0.001  -0.000   3.292  -0.001
  0.002  -0.000   0.000   0.001  -2.768  -0.000  -0.001   3.292
 -0.000   0.000  -0.001   0.000  -0.000   0.001  -0.000   0.000
 -0.000   0.000   0.001  -0.000   0.000  -0.002   0.000  -0.000
 -0.000   0.000  -0.000  -0.002   0.001   0.000   0.003  -0.001
 -0.001   0.000   0.000  -0.001   0.001  -0.000   0.001  -0.001
 -0.000   0.000  -0.000  -0.000  -0.001   0.000   0.000   0.002
 total augmentation occupancy for first ion, spin component:           1
  1.910  -0.143   0.000  -0.000  -0.000   0.000   0.000  -0.001  -0.000   0.000  -0.000  -0.001  -0.000
 -0.143   0.110   0.000  -0.001  -0.004   0.000  -0.001   0.003  -0.000   0.000   0.001   0.002   0.002
  0.000   0.000   2.017   0.000   0.000   0.003   0.000   0.000  -0.001   0.003   0.000   0.000   0.000
 -0.000  -0.001   0.000   2.015  -0.002   0.000   0.002  -0.001   0.000   0.000  -0.005  -0.001  -0.000
 -0.000  -0.004   0.000  -0.002   2.016   0.000  -0.001   0.002   0.000   0.000   0.001   0.002  -0.003
  0.000   0.000   0.003   0.000   0.000   0.007   0.000   0.000  -0.000  -0.002   0.000   0.000  -0.000
  0.000  -0.001   0.000   0.002  -0.001   0.000   0.008   0.001   0.000   0.000   0.003  -0.000   0.000
 -0.001   0.003   0.000  -0.001   0.002   0.000   0.001   0.008   0.000   0.000  -0.001  -0.001   0.002
 -0.000  -0.000  -0.001   0.000   0.000  -0.000   0.000   0.000   0.005   0.001   0.000   0.000   0.000
  0.000   0.000   0.003   0.000   0.000  -0.002   0.000   0.000   0.001   0.005   0.000   0.000  -0.000
 -0.000   0.001   0.000  -0.005   0.001   0.000   0.003  -0.001   0.000   0.000   0.004  -0.002  -0.001
 -0.001   0.002   0.000  -0.001   0.002   0.000  -0.000  -0.001   0.000   0.000  -0.002   0.004   0.001
 -0.000   0.002   0.000  -0.000  -0.003  -0.000   0.000   0.002   0.000  -0.000  -0.001   0.001   0.003


------------------------ aborting loop because EDIFF is reached ----------------------------------------





 total charge     

# of ion       s       p       d       tot
------------------------------------------
    1        1.785   4.719   0.016   6.520
    2        1.785   4.719   0.016   6.520
    3        1.785   4.719   0.016   6.520
    4        1.785   4.719   0.016   6.520
    5        1.552   0.405   9.831  11.788
    6        1.552   0.405   9.831  11.788
    7        1.552   0.405   9.831  11.788
    8        1.552   0.405   9.831  11.788
    9        1.615   3.286   0.007   4.907
   10        1.615   3.286   0.007   4.907
   11        1.615   3.286   0.007   4.907
   12        1.615   3.286   0.007   4.907
   13        1.614   3.264   0.005   4.883
   14        1.612   3.287   0.005   4.904
   15        1.612   3.287   0.005   4.904
   16        1.614   3.264   0.005   4.883
   17        1.614   3.264   0.005   4.883
   18        1.612   3.287   0.005   4.904
   19        1.614   3.264   0.005   4.883
   20        1.612   3.287   0.005   4.904
--------------------------------------------------
tot         32.707  59.846  39.452 132.004

    CHARGE:  cpu time    0.1425: real time    0.1425
    FORLOC:  cpu time    0.0038: real time    0.0038
    FORNL :  cpu time    0.6132: real time    0.6132
    STRESS:  cpu time   13.7991: real time   13.7998
    FORCOR:  cpu time    0.1028: real time    0.1028
    FORHAR:  cpu time    0.0111: real time    0.0111
    MIXING:  cpu time    0.0011: real time    0.0011
    OFIELD:  cpu time    0.0000: real time    0.0000

  FORCE on cell =-STRESS in cart. coord.  units (eV):
  Direction    XX          YY          ZZ          XY          YZ          ZX
  --------------------------------------------------------------------------------------
  Alpha Z   433.07201   433.07201   433.07201
  Ewald   -3102.18143 -2870.83361 -3122.65520     0.00000    -0.00000     0.00000
  Hartree  1205.19994  1356.88998  1183.55209    -0.00000    -0.00000    -0.00000
  E(xc)    -738.28976  -738.02756  -738.23095     0.00000     0.00000    -0.03789
  Local   -1353.10412 -1736.71088 -1310.53898     0.00000     0.00000     0.00000
  n-local   895.87223   899.70843   895.82874    -0.00001    -0.00001     0.17887
  augment   406.68370   406.73503   406.40598    -0.00000    -0.00003    -0.00001
  Kinetic  2245.90509  2248.66715  2247.07665     0.00002     0.00002    -1.63606
  Fock        0.00000     0.00000     0.00000     0.00000     0.00000     0.00000
  -------------------------------------------------------------------------------------
  Total      -6.84232    -0.49945    -5.48965     0.00000     0.00000    -0.00000
  in kB     -13.15822    -0.96047   -10.55694     0.00000     0.00000    -0.00000
  external pressure =       -8.23 kB  Pullay stress =        0.00 kB


 VOLUME and BASIS-vectors are now :
 -----------------------------------------------------------------------------
  energy-cutoff  :      300.00
  volume of cell :      833.14
      direct lattice vectors                 reciprocal lattice vectors
     8.672618126  0.000000000  0.000000000     0.115305434  0.000000000  0.000000000
     0.000000000 11.545876638  0.000000000     0.000000000  0.086611007  0.000000000
     0.000000000  0.000000000  8.320319970     0.000000000  0.000000000  0.120187686

  length of vectors
     8.672618126 11.545876638  8.320319970     0.115305434  0.086611007  0.120187686


 FORCES acting on ions
    electron-ion (+dipol)            ewald-force                    non-local-force                 convergence-correction
 -----------------------------------------------------------------------------------------------
   0.307E+02 0.283E-13 -.111E+02   -.305E+02 -.711E-14 0.110E+02   -.170E+00 0.265E-22 0.152E-01   -.199E-03 0.222E-12 0.308E-03
   -.307E+02 -.171E-11 -.111E+02   0.305E+02 0.711E-14 0.110E+02   0.170E+00 0.000E+00 0.152E-01   0.199E-03 -.217E-12 0.308E-03
   0.307E+02 0.705E-12 0.111E+02   -.305E+02 0.142E-13 -.110E+02   -.170E+00 0.000E+00 -.152E-01   -.199E-03 0.265E-12 -.308E-03
   -.307E+02 0.265E-11 0.111E+02   0.305E+02 0.000E+00 -.110E+02   0.170E+00 -.132E-22 -.152E-01   0.199E-03 -.172E-12 -.308E-03
   0.416E-13 -.406E-13 0.131E-13   -.284E-13 0.302E-13 0.568E-13   0.000E+00 0.000E+00 -.131E-22   0.176E-12 -.596E-13 0.801E-13
   0.777E-12 -.236E-12 0.450E-11   -.107E-13 0.249E-13 -.568E-13   0.000E+00 0.000E+00 -.203E-22   0.688E-13 0.801E-15 -.175E-13
   -.111E-11 -.494E-11 0.200E-11   0.000E+00 0.213E-13 0.000E+00   0.000E+00 0.000E+00 0.286E-22   0.401E-13 -.694E-13 -.260E-13
   -.139E-13 0.112E-11 0.837E-14   0.000E+00 0.426E-13 0.711E-13   0.000E+00 0.000E+00 0.968E-23   0.168E-12 0.137E-14 0.109E-12
   0.386E+01 -.901E-12 0.432E+02   -.381E+01 -.284E-13 -.436E+02   -.440E-01 0.000E+00 0.337E+00   -.111E-03 -.182E-12 -.250E-03
   -.386E+01 0.122E-11 0.432E+02   0.381E+01 -.142E-13 -.436E+02   0.440E-01 0.000E+00 0.337E+00   0.111E-03 0.173E-12 -.250E-03
   0.386E+01 -.378E-12 -.432E+02   -.381E+01 -.284E-13 0.436E+02   -.440E-01 0.000E+00 -.337E+00   -.111E-03 -.214E-12 0.250E-03
   -.386E+01 0.456E-12 -.432E+02   0.381E+01 -.284E-13 0.436E+02   0.440E-01 0.000E+00 -.337E+00   0.111E-03 0.144E-12 0.250E-03
   -.141E+02 0.169E+02 0.199E+02   0.142E+02 -.170E+02 -.200E+02   -.111E+00 0.124E+00 0.134E+00   -.250E-04 0.107E-03 -.462E-04
   0.141E+02 -.169E+02 0.199E+02   -.142E+02 0.170E+02 -.200E+02   0.111E+00 -.124E+00 0.134E+00   0.250E-04 -.107E-03 -.462E-04
   -.141E+02 -.169E+02 -.199E+02   0.142E+02 0.170E+02 0.200E+02   -.111E+00 -.124E+00 -.134E+00   -.250E-04 -.107E-03 0.462E-04
   0.141E+02 0.169E+02 -.199E+02   -.142E+02 -.170E+02 0.200E+02   0.111E+00 0.124E+00 -.134E+00   0.250E-04 0.107E-03 0.462E-04
   -.141E+02 -.169E+02 0.199E+02   0.142E+02 0.170E+02 -.200E+02   -.111E+00 -.124E+00 0.134E+00   -.250E-04 -.107E-03 -.462E-04
   0.141E+02 0.169E+02 0.199E+02   -.142E+02 -.170E+02 -.200E+02   0.111E+00 0.124E+00 0.134E+00   0.250E-04 0.107E-03 -.462E-04
   0.141E+02 -.169E+02 -.199E+02   -.142E+02 0.170E+02 0.200E+02   0.111E+00 -.124E+00 -.134E+00   0.250E-04 -.107E-03 0.462E-04
   -.141E+02 0.169E+02 -.199E+02   0.142E+02 -.170E+02 0.200E+02   -.111E+00 0.124E+00 -.134E+00   -.250E-04 0.107E-03 0.462E-04
 -----------------------------------------------------------------------------------------------
   0.539E-11 -.462E-12 0.456E-11   0.284E-13 -.142E-13 0.639E-13   0.000E+00 0.278E-16 0.278E-16   0.604E-12 -.124E-12 0.246E-12


 POSITION                                       TOTAL-FORCE (eV/Angst)
 -----------------------------------------------------------------------------------
      0.48658      2.88647      4.01208        -0.003292      0.000000      0.005227
      3.84973      8.65941      8.17224         0.003292      0.000000      0.005227
      4.82289      2.88647      0.14808        -0.003292      0.000000     -0.005227
      8.18604      8.65941      4.30824         0.003292      0.000000     -0.005227
      0.00000      0.00000      0.00000        -0.000000      0.000000      0.000000
      4.33631      0.00000      4.16016        -0.000000      0.000000      0.000000
      4.33631      5.77294      4.16016        -0.000000      0.000000     -0.000000
      0.00000      5.77294      0.00000        -0.000000      0.000000     -0.000000
      4.50574      8.65941      3.49120         0.012863      0.000000     -0.025427
      8.50319      2.88647      7.65136        -0.012863      0.000000     -0.025427
      0.16943      8.65941      0.66896         0.012863      0.000000      0.025427
      4.16688      2.88647      4.82912        -0.012863      0.000000      0.025427
      2.46063      5.33117      1.78024        -0.006777     -0.007731      0.002020
      1.87568      6.21471      5.94040         0.006777      0.007731      0.002020
      6.79694      0.44177      2.37992        -0.006777      0.007731     -0.002020
      6.21199     11.10411      6.54008         0.006777     -0.007731     -0.002020
      2.46063      0.44177      1.78024        -0.006777      0.007731      0.002020
      1.87568     11.10411      5.94040         0.006777     -0.007731      0.002020
      6.21199      6.21471      6.54008         0.006777      0.007731     -0.002020
      6.79694      5.33117      2.37992        -0.006777     -0.007731     -0.002020
 -----------------------------------------------------------------------------------
    total drift:                                0.000000     -0.000000      0.000000


--------------------------------------------------------------------------------------------------------



  FREE ENERGIE OF THE ION-ELECTRON SYSTEM (eV)
  ---------------------------------------------------
  free  energy   TOTEN  =      -714.77164923 eV

  energy  without entropy=     -714.77164923  energy(sigma->0) =     -714.77164923



--------------------------------------------------------------------------------------------------------


    POTLOK:  cpu time    1.2140: real time    1.2141


--------------------------------------------------------------------------------------------------------


 stress matrix after NEB project (eV)
     -6.84232      0.00000     -0.00000
      0.00000     -0.49945      0.00000
      0.00000      0.00000     -5.48965
  FORCES: max atom, RMS     0.028496    0.014627
  FORCE total and by dimension    0.065413    0.025427
  Stress total and by dimension    8.786529    6.842323
     LOOP+:  cpu time  111.1354: real time  111.6364
    4ORBIT:  cpu time    0.0000: real time    0.0000



 total charge     

# of ion       s       p       d       tot
------------------------------------------
    1        1.785   4.719   0.016   6.520
    2        1.785   4.719   0.016   6.520
    3        1.785   4.719   0.016   6.520
    4        1.785   4.719   0.016   6.520
    5        1.552   0.405   9.831  11.788
    6        1.552   0.405   9.831  11.788
    7        1.552   0.405   9.831  11.788
    8        1.552   0.405   9.831  11.788
    9        1.615   3.286   0.007   4.907
   10        1.615   3.286   0.007   4.907
   11        1.615   3.286   0.007   4.907
   12        1.615   3.286   0.007   4.907
   13        1.614   3.264   0.005   4.883
   14        1.612   3.287   0.005   4.904
   15        1.612   3.287   0.005   4.904
   16        1.614   3.264   0.005   4.883
   17        1.614   3.264   0.005   4.883
   18        1.612   3.287   0.005   4.904
   19        1.614   3.264   0.005   4.883
   20        1.612   3.287   0.005   4.904
--------------------------------------------------
tot         32.707  59.846  39.452 132.004


 total amount of memory used by VASP MPI-rank0    43667. kBytes
=======================================================================

   base      :      30000. kBytes
   nonlr-proj:       3215. kBytes
   fftplans  :       4446. kBytes
   grid      :       3667. kBytes
   one-center:         46. kBytes
   wavefun   :       2293. kBytes

  
  
 General timing and accounting informations for this job:
 ========================================================
  
                  Total CPU time used (sec):      117.651
                            User time (sec):      116.779
                          System time (sec):        0.872
                         Elapsed time (sec):      118.367
  
                   Maximum memory used (kb):       83212.
                   Average memory used (kb):           0.
  
                          Minor page faults:        20356
                          Major page faults:            1
                 Voluntary context switches:         1568
