<?xml version="1.0" encoding="ISO-8859-1"?>
<modeling>
 <generator>
  <i name="program" type="string">vasp </i>
  <i name="version" type="string">5.4.4.18Apr17-6-g9f103f2a35  </i>
  <i name="subversion" type="string">(build Jun 29 2021 12:14:42) complex            parallel </i>
  <i name="platform" type="string">tx2_gcc-7.3_libsci-18.07_cray-fftw-3.3.8 </i>
  <i name="date" type="string">2021 09 21 </i>
  <i name="time" type="string">08:32:47 </i>
 </generator>
 <incar>
  <i type="string" name="SYSTEM"> CsPbBr3 cubic bulk</i>
  <i type="string" name="PREC">accurate</i>
  <i type="string" name="ALGO"> Normal   ! Electronic minimisation algo</i>
  <i type="logical" name="ADDGRID"> T  </i>
  <i type="int" name="NELM">   200</i>
  <i type="int" name="IBRION">     2</i>
  <i name="EDIFF">      0.00000100</i>
  <i name="EDIFFG">     -0.01000000</i>
  <i type="int" name="NSW">     0</i>
  <i type="int" name="ISIF">     3</i>
  <i type="int" name="ISYM">     2</i>
  <i name="ENCUT">    300.00000000</i>
  <i name="POTIM">      0.50000000</i>
  <i type="string" name="LREAL"> AUTO</i>
  <i type="int" name="ISMEAR">     0</i>
  <i name="SIGMA">      0.01000000</i>
  <i name="PSTRESS">      0.00000000</i>
  <i type="logical" name="LWAVE"> F  </i>
  <i type="logical" name="LCHARG"> F  </i>
  <i type="logical" name="LVHAR"> T  </i>
  <i type="int" name="LORBIT">    10</i>
  <i type="logical" name="LASPH"> T  </i>
  <v type="int" name="KPOINT_BSE">    -1     0     0     0</v>
  <i type="int" name="NELM">   200</i>
  <i type="string" name="METAGGA"> SCAN       ! PBE exchange-correlation</i>
  <i type="logical" name="LASPH"> T  </i>
 </incar>
 <structure name="primitive_cell" >
  <crystal>
   <varray name="basis" >
    <v>       8.67261813       0.00000000       0.00000000 </v>
    <v>       0.00000000      11.54587664       0.00000000 </v>
    <v>       0.00000000       0.00000000       8.32031997 </v>
   </varray>
   <i name="volume">    833.13842496 </i>
   <varray name="rec_basis" >
    <v>       0.11530543       0.00000000       0.00000000 </v>
    <v>       0.00000000       0.08661101       0.00000000 </v>
    <v>       0.00000000       0.00000000       0.12018769 </v>
   </varray>
  </crystal>
  <varray name="positions" >
   <v>       0.05610513       0.25000000       0.48220236 </v>
   <v>      -0.01953582       0.25000000      -0.08040070 </v>
   <v>       0.48046418       0.25000000      -0.41959930 </v>
   <v>      -0.21627640       0.03826195       0.28603722 </v>
   <v>      -0.21627640       0.46173805       0.28603722 </v>
   <v>       0.28372360       0.46173805       0.21396278 </v>
   <v>       0.28372360       0.03826195       0.21396278 </v>
   <v>       0.21627640      -0.46173805      -0.28603722 </v>
   <v>       0.21627640      -0.03826195      -0.28603722 </v>
   <v>      -0.50000000       0.00000000      -0.50000000 </v>
   <v>      -0.50000000      -0.50000000      -0.50000000 </v>
   <v>       0.00000000       0.00000000       0.00000000 </v>
   <v>       0.00000000      -0.50000000       0.00000000 </v>
   <v>      -0.28372360      -0.03826195      -0.21396278 </v>
   <v>      -0.28372360      -0.46173805      -0.21396278 </v>
   <v>      -0.44389487       0.25000000       0.01779764 </v>
   <v>      -0.05610513      -0.25000000      -0.48220236 </v>
   <v>       0.01953582      -0.25000000       0.08040070 </v>
   <v>      -0.48046418      -0.25000000       0.41959930 </v>
   <v>       0.44389487      -0.25000000      -0.01779764 </v>
  </varray>
 </structure>
 <varray name="primitive_index" >
  <v type="int" >        1 </v>
  <v type="int" >       10 </v>
  <v type="int" >       12 </v>
  <v type="int" >       15 </v>
  <v type="int" >       20 </v>
  <v type="int" >       13 </v>
  <v type="int" >       17 </v>
  <v type="int" >       14 </v>
  <v type="int" >       18 </v>
  <v type="int" >        6 </v>
  <v type="int" >        7 </v>
  <v type="int" >        5 </v>
  <v type="int" >        8 </v>
  <v type="int" >       16 </v>
  <v type="int" >       19 </v>
  <v type="int" >        3 </v>
  <v type="int" >        4 </v>
  <v type="int" >       11 </v>
  <v type="int" >        9 </v>
  <v type="int" >        2 </v>
 </varray>
 <kpoints>
  <generation param="Gamma">
   <v type="int" name="divisions">       3        2        3 </v>
   <v name="usershift">      0.00000000       0.00000000       0.00000000 </v>
   <v name="genvec1">      0.33333333       0.00000000       0.00000000 </v>
   <v name="genvec2">      0.00000000       0.50000000       0.00000000 </v>
   <v name="genvec3">      0.00000000       0.00000000       0.33333333 </v>
   <v name="shift">      0.00000000       0.00000000       0.00000000 </v>
  </generation>
  <varray name="kpointlist" >
   <v>       0.00000000       0.00000000       0.00000000 </v>
   <v>       0.33333333       0.00000000       0.00000000 </v>
   <v>       0.00000000       0.50000000       0.00000000 </v>
   <v>       0.33333333       0.50000000       0.00000000 </v>
   <v>       0.00000000       0.00000000       0.33333333 </v>
   <v>       0.33333333       0.00000000       0.33333333 </v>
   <v>       0.00000000       0.50000000       0.33333333 </v>
   <v>       0.33333333       0.50000000       0.33333333 </v>
  </varray>
  <varray name="weights" >
   <v>       0.05555556 </v>
   <v>       0.11111111 </v>
   <v>       0.05555556 </v>
   <v>       0.11111111 </v>
   <v>       0.11111111 </v>
   <v>       0.22222222 </v>
   <v>       0.11111111 </v>
   <v>       0.22222222 </v>
  </varray>
 </kpoints>
 <parameters>
  <separator name="general" >
   <i type="string" name="SYSTEM">CsPbBr3 cubic bulk</i>
   <i type="logical" name="LCOMPAT"> F  </i>
  </separator>
  <separator name="electronic" >
   <i type="string" name="PREC">accura</i>
   <i name="ENMAX">    300.00000000</i>
   <i name="ENAUG">    503.85200000</i>
   <i name="EDIFF">      0.00000100</i>
   <i type="int" name="IALGO">    38</i>
   <i type="int" name="IWAVPR">    10</i>
   <i type="int" name="NBANDS">   112</i>
   <i name="NELECT">    176.00000000</i>
   <i type="int" name="TURBO">     0</i>
   <i type="int" name="IRESTART">     0</i>
   <i type="int" name="NREBOOT">     0</i>
   <i type="int" name="NMIN">     0</i>
   <i name="EREF">      0.00000000</i>
   <separator name="electronic smearing" >
    <i type="int" name="ISMEAR">     0</i>
    <i name="SIGMA">      0.01000000</i>
    <i name="KSPACING">      0.50000000</i>
    <i type="logical" name="KGAMMA"> T  </i>
   </separator>
   <separator name="electronic projectors" >
    <i type="logical" name="LREAL"> T  </i>
    <v name="ROPT">     -0.00025000     -0.00025000     -0.00025000</v>
    <i type="int" name="LMAXPAW">  -100</i>
    <i type="int" name="LMAXMIX">     2</i>
    <i type="logical" name="NLSPLINE"> F  </i>
   </separator>
   <separator name="electronic startup" >
    <i type="int" name="ISTART">     0</i>
    <i type="int" name="ICHARG">     2</i>
    <i type="int" name="INIWAV">     1</i>
   </separator>
   <separator name="electronic spin" >
    <i type="int" name="ISPIN">     1</i>
    <i type="logical" name="LNONCOLLINEAR"> F  </i>
    <v name="MAGMOM">      1.00000000      1.00000000      1.00000000      1.00000000      1.00000000      1.00000000      1.00000000      1.00000000      1.00000000      1.00000000      1.00000000      1.00000000      1.00000000      1.00000000      1.00000000      1.00000000      1.00000000      1.00000000      1.00000000      1.00000000
</v>
    <i name="NUPDOWN">     -1.00000000</i>
    <i type="logical" name="LSORBIT"> F  </i>
    <v name="SAXIS">      0.00000000      0.00000000      1.00000000</v>
    <i type="logical" name="LSPIRAL"> F  </i>
    <v name="QSPIRAL">      0.00000000      0.00000000      0.00000000</v>
    <i type="logical" name="LZEROZ"> F  </i>
   </separator>
   <separator name="electronic exchange-correlation" >
    <i type="logical" name="LASPH"> T  </i>
    <i type="logical" name="LMETAGGA"> F  </i>
   </separator>
   <separator name="electronic convergence" >
    <i type="int" name="NELM">   200</i>
    <i type="int" name="NELMDL">    -5</i>
    <i type="int" name="NELMIN">     2</i>
    <i name="ENINI">    300.00000000</i>
    <separator name="electronic convergence detail" >
     <i type="logical" name="LDIAG"> T  </i>
     <i type="logical" name="LSUBROT"> F  </i>
     <i name="WEIMIN">      0.00000000</i>
     <i name="EBREAK">      0.00000000</i>
     <i name="DEPER">      0.30000000</i>
     <i type="int" name="NRMM">     4</i>
     <i name="TIME">      0.40000000</i>
    </separator>
   </separator>
   <separator name="electronic mixer" >
    <i name="AMIX">      0.40000000</i>
    <i name="BMIX">      1.00000000</i>
    <i name="AMIN">      0.10000000</i>
    <i name="AMIX_MAG">      1.60000000</i>
    <i name="BMIX_MAG">      1.00000000</i>
    <separator name="electronic mixer details" >
     <i type="int" name="IMIX">     4</i>
     <i type="logical" name="MIXFIRST"> F  </i>
     <i type="int" name="MAXMIX">   -45</i>
     <i name="WC">    100.00000000</i>
     <i type="int" name="INIMIX">     1</i>
     <i type="int" name="MIXPRE">     1</i>
     <i type="int" name="MREMOVE">     5</i>
    </separator>
   </separator>
   <separator name="electronic dipolcorrection" >
    <i type="logical" name="LDIPOL"> F  </i>
    <i type="logical" name="LMONO"> F  </i>
    <i type="int" name="IDIPOL">     0</i>
    <i name="EPSILON">      1.00000000</i>
    <v name="DIPOL">   -100.00000000   -100.00000000   -100.00000000</v>
    <i name="EFIELD">      0.00000000</i>
   </separator>
  </separator>
  <separator name="grids" >
   <i type="int" name="NGX">    50</i>
   <i type="int" name="NGY">    70</i>
   <i type="int" name="NGZ">    48</i>
   <i type="int" name="NGXF">   100</i>
   <i type="int" name="NGYF">   140</i>
   <i type="int" name="NGZF">    96</i>
   <i type="logical" name="ADDGRID"> T  </i>
  </separator>
  <separator name="ionic" >
   <i type="int" name="NSW">     0</i>
   <i type="int" name="IBRION">    -1</i>
   <i type="int" name="MDALGO">     0</i>
   <i type="int" name="ISIF">     3</i>
   <i name="PSTRESS">      0.00000000</i>
   <i name="EDIFFG">     -0.01000000</i>
   <i type="int" name="NFREE">     1</i>
   <i name="POTIM">      0.50000000</i>
   <i name="SMASS">     -3.00000000</i>
   <i name="SCALEE">      1.00000000</i>
  </separator>
  <separator name="ionic md" >
   <i name="TEBEG">      0.00010000</i>
   <i name="TEEND">      0.00010000</i>
   <i type="int" name="NBLOCK">     1</i>
   <i type="int" name="KBLOCK">     1</i>
   <i type="int" name="NPACO">   256</i>
   <i name="APACO">     16.00000000</i>
  </separator>
  <separator name="symmetry" >
   <i type="int" name="ISYM">     2</i>
   <i name="SYMPREC">      0.00001000</i>
  </separator>
  <separator name="dos" >
   <i type="int" name="LORBIT">    10</i>
   <v name="RWIGS">     -1.00000000     -1.00000000     -1.00000000</v>
   <i type="int" name="NEDOS">   301</i>
   <i name="EMIN">     10.00000000</i>
   <i name="EMAX">    -10.00000000</i>
   <i name="EFERMI">      0.00000000</i>
  </separator>
  <separator name="writing" >
   <i type="int" name="NWRITE">     2</i>
   <i type="logical" name="LWAVE"> F  </i>
   <i type="logical" name="LDOWNSAMPLE"> F  </i>
   <i type="logical" name="LCHARG"> F  </i>
   <i type="logical" name="LPARD"> F  </i>
   <i type="logical" name="LVTOT"> F  </i>
   <i type="logical" name="LVHAR"> T  </i>
   <i type="logical" name="LELF"> F  </i>
   <i type="logical" name="LOPTICS"> F  </i>
   <v name="STM">      0.00000000      0.00000000      0.00000000      0.00000000      0.00000000      0.00000000      0.00000000</v>
  </separator>
  <separator name="performance" >
   <i type="int" name="NPAR">     8</i>
   <i type="int" name="NSIM">     4</i>
   <i type="int" name="NBLK">    -1</i>
   <i type="logical" name="LPLANE"> T  </i>
   <i type="logical" name="LSCALAPACK"> T  </i>
   <i type="logical" name="LSCAAWARE"> F  </i>
   <i type="logical" name="LSCALU"> F  </i>
   <i type="logical" name="LASYNC"> F  </i>
   <i type="logical" name="LORBITALREAL"> F  </i>
  </separator>
  <separator name="miscellaneous" >
   <i type="int" name="IDIOT">     3</i>
   <i type="int" name="ISPECIAL">     0</i>
   <i type="logical" name="LMUSIC"> F  </i>
   <v name="POMASS">    132.90000000    207.20000000     79.90400000</v>
   <v name="DARWINR">      0.00000000      0.00000000      0.00000000</v>
   <v name="DARWINV">      1.00000000      1.00000000      1.00000000</v>
   <i type="logical" name="LCORR"> T  </i>
  </separator>
  <i type="logical" name="GGA_COMPAT"> T  </i>
  <i type="logical" name="LBERRY"> F  </i>
  <i type="int" name="ICORELEVEL">     0</i>
  <i type="logical" name="LDAU"> F  </i>
  <i type="int" name="I_CONSTRAINED_M">     0</i>
  <separator name="electronic exchange-correlation" >
   <i type="string" name="GGA">--</i>
   <i type="int" name="VOSKOWN">     0</i>
   <i type="logical" name="LHFCALC"> F  </i>
   <i type="string" name="PRECFOCK"></i>
   <i type="logical" name="LSYMGRAD"> F  </i>
   <i type="logical" name="LHFONE"> F  </i>
   <i type="logical" name="LRHFCALC"> F  </i>
   <i type="logical" name="LTHOMAS"> F  </i>
   <i type="logical" name="LMODELHF"> F  </i>
   <i name="ENCUT4O">     -1.00000000</i>
   <i type="int" name="EXXOEP">     0</i>
   <i type="int" name="FOURORBIT">     0</i>
   <i name="AEXX">      0.00000000</i>
   <i name="HFALPHA">      0.00000000</i>
   <i name="MCALPHA">      0.00000000</i>
   <i name="ALDAX">      1.00000000</i>
   <i name="AGGAX">      1.00000000</i>
   <i name="ALDAC">      1.00000000</i>
   <i name="AGGAC">      1.00000000</i>
   <i type="int" name="NKREDX">     1</i>
   <i type="int" name="NKREDY">     1</i>
   <i type="int" name="NKREDZ">     1</i>
   <i type="logical" name="SHIFTRED"> F  </i>
   <i type="logical" name="ODDONLY"> F  </i>
   <i type="logical" name="EVENONLY"> F  </i>
   <i type="int" name="LMAXFOCK">     0</i>
   <i type="int" name="NMAXFOCKAE">     0</i>
   <i type="logical" name="LFOCKAEDFT"> F  </i>
   <i name="HFSCREEN">      0.00000000</i>
   <i name="HFSCREENC">      0.00000000</i>
   <i type="int" name="NBANDSGWLOW">     0</i>
  </separator>
  <separator name="vdW DFT" >
   <i type="logical" name="LUSE_VDW"> F  </i>
   <i name="Zab_VDW">     -0.84910000</i>
   <i name="PARAM1">      0.12340000</i>
   <i name="PARAM2">      1.00000000</i>
   <i name="PARAM3">      0.00000000</i>
  </separator>
  <separator name="model GW" >
   <i type="int" name="MODEL_GW">     0</i>
   <i name="MODEL_EPS0">     24.99415275</i>
   <i name="MODEL_ALPHA">      1.00000000</i>
  </separator>
  <separator name="linear response parameters" >
   <i type="logical" name="LEPSILON"> F  </i>
   <i type="logical" name="LRPA"> F  </i>
   <i type="logical" name="LNABLA"> F  </i>
   <i type="logical" name="LVEL"> F  </i>
   <i type="int" name="KINTER">     0</i>
   <i name="CSHIFT">      0.10000000</i>
   <i name="OMEGAMAX">     -1.00000000</i>
   <i name="DEG_THRESHOLD">      0.00200000</i>
   <i name="RTIME">     -0.10000000</i>
   <i name="WPLASMAI">      0.00000000</i>
   <v name="DFIELD">      0.00000000      0.00000000      0.00000000</v>
   <v name="WPLASMA">      0.00000000      0.00000000      0.00000000      0.00000000      0.00000000      0.00000000      0.00000000      0.00000000      0.00000000</v>
  </separator>
  <separator name="orbital magnetization" >
   <i type="logical" name="NUCIND"> F  </i>
   <v name="MAGPOS">      0.00000000      0.00000000      0.00000000</v>
   <i type="logical" name="LNICSALL"> T  </i>
   <i type="logical" name="ORBITALMAG"> F  </i>
   <i type="logical" name="LMAGBLOCH"> F  </i>
   <i type="logical" name="LCHIMAG"> F  </i>
   <i type="logical" name="LGAUGE"> T  </i>
   <i type="int" name="MAGATOM">     0</i>
   <v name="MAGDIPOL">      0.00000000      0.00000000      0.00000000</v>
   <v name="AVECCONST">      0.00000000      0.00000000      0.00000000</v>
  </separator>
  <separator name="response functions" >
   <i type="logical" name="LADDER"> F  </i>
   <i type="logical" name="LRPAFORCE"> F  </i>
   <i type="logical" name="LFXC"> F  </i>
   <i type="logical" name="LHARTREE"> T  </i>
   <i type="int" name="IBSE">     0</i>
   <v type="int" name="KPOINT">    -1     0     0     0</v>
   <i type="logical" name="LTCTE"> F  </i>
   <i type="logical" name="LTETE"> F  </i>
   <i type="logical" name="LTRIPLET"> F  </i>
   <i type="logical" name="LFXCEPS"> F  </i>
   <i type="logical" name="LFXHEG"> F  </i>
   <i type="int" name="NATURALO">     2</i>
   <i type="logical" name="L2ORDER"> F  </i>
   <i type="logical" name="LMP2LT"> F  </i>
   <i type="logical" name="LUSEW"> F  </i>
   <i name="ENCUTGW">     -2.00000000</i>
   <i name="ENCUTGWSOFT">     -2.00000000</i>
   <i name="ENCUTLF">     -1.00000000</i>
   <i type="int" name="LMAXMP2">    -1</i>
   <i name="SCISSOR">      0.00000000</i>
   <i type="int" name="NOMEGA">     0</i>
   <i type="int" name="NOMEGAR">     0</i>
   <i type="int" name="NBANDSGW">    -1</i>
   <i type="int" name="NBANDSO">    -1</i>
   <i type="int" name="NBANDSV">    -1</i>
   <i type="int" name="NELM">   200</i>
   <i type="int" name="NELMHF">     1</i>
   <i type="int" name="DIM">     3</i>
   <i type="int" name="ANTIRES">     0</i>
   <i name="OMEGAMAX">    -30.00000000</i>
   <i name="OMEGAMIN">    -30.00000000</i>
   <i name="OMEGATL">   -200.00000000</i>
   <i type="int" name="OMEGAGRID">   140</i>
   <i name="CSHIFT">     -0.10000000</i>
   <i type="logical" name="SELFENERGY"> F  </i>
   <i type="logical" name="LSPECTRAL"> F  </i>
   <i type="logical" name="LSPECTRALGW"> F  </i>
   <i type="logical" name="LSINGLES"> F  </i>
   <i type="logical" name="LFERMIGW"> F  </i>
   <i type="logical" name="ODDONLYGW"> F  </i>
   <i type="logical" name="EVENONLYGW"> F  </i>
   <i type="int" name="NKREDLFX">     1</i>
   <i type="int" name="NKREDLFY">     1</i>
   <i type="int" name="NKREDLFZ">     1</i>
   <i type="int" name="MAXMEM">  2800</i>
   <i type="int" name="TELESCOPE">     0</i>
   <i type="int" name="TAUPAR">     1</i>
   <i type="int" name="OMEGAPAR">    -1</i>
   <i name="LAMBDA">      1.00000000</i>
  </separator>
  <separator name="External order field" >
   <i name="OFIELD_KAPPA">      0.00000000</i>
   <v name="OFIELD_K">      0.00000000      0.00000000      0.00000000</v>
   <i name="OFIELD_Q6_NEAR">      0.00000000</i>
   <i name="OFIELD_Q6_FAR">      0.00000000</i>
   <i name="OFIELD_A">      0.00000000</i>
  </separator>
 </parameters>
 <atominfo>
  <atoms>      20 </atoms>
  <types>       3 </types>
  <array name="atoms" >
   <dimension dim="1">ion</dimension>
   <field type="string">element</field>
   <field type="int">atomtype</field>
   <set>
    <rc><c>Cs</c><c>   1</c></rc>
    <rc><c>Cs</c><c>   1</c></rc>
    <rc><c>Cs</c><c>   1</c></rc>
    <rc><c>Cs</c><c>   1</c></rc>
    <rc><c>Pb</c><c>   2</c></rc>
    <rc><c>Pb</c><c>   2</c></rc>
    <rc><c>Pb</c><c>   2</c></rc>
    <rc><c>Pb</c><c>   2</c></rc>
    <rc><c>Br</c><c>   3</c></rc>
    <rc><c>Br</c><c>   3</c></rc>
    <rc><c>Br</c><c>   3</c></rc>
    <rc><c>Br</c><c>   3</c></rc>
    <rc><c>Br</c><c>   3</c></rc>
    <rc><c>Br</c><c>   3</c></rc>
    <rc><c>Br</c><c>   3</c></rc>
    <rc><c>Br</c><c>   3</c></rc>
    <rc><c>Br</c><c>   3</c></rc>
    <rc><c>Br</c><c>   3</c></rc>
    <rc><c>Br</c><c>   3</c></rc>
    <rc><c>Br</c><c>   3</c></rc>
   </set>
  </array>
  <array name="atomtypes" >
   <dimension dim="1">type</dimension>
   <field type="int">atomspertype</field>
   <field type="string">element</field>
   <field>mass</field>
   <field>valence</field>
   <field type="string">pseudopotential</field>
   <set>
    <rc><c>   4</c><c>Cs</c><c>    132.90000000</c><c>      9.00000000</c><c>  PAW_PBE Cs_sv 08Apr2002               </c></rc>
    <rc><c>   4</c><c>Pb</c><c>    207.20000000</c><c>     14.00000000</c><c>  PAW_PBE Pb_d 06Sep2000                </c></rc>
    <rc><c>  12</c><c>Br</c><c>     79.90400000</c><c>      7.00000000</c><c>  PAW_PBE Br 06Sep2000                  </c></rc>
   </set>
  </array>
 </atominfo>
 <structure name="initialpos" >
  <crystal>
   <varray name="basis" >
    <v>       8.67261813       0.00000000       0.00000000 </v>
    <v>       0.00000000      11.54587664       0.00000000 </v>
    <v>       0.00000000       0.00000000       8.32031997 </v>
   </varray>
   <i name="volume">    833.13842496 </i>
   <varray name="rec_basis" >
    <v>       0.11530543       0.00000000       0.00000000 </v>
    <v>       0.00000000       0.08661101       0.00000000 </v>
    <v>       0.00000000       0.00000000       0.12018769 </v>
   </varray>
  </crystal>
  <varray name="positions" >
   <v>       0.05610513       0.25000000       0.48220236 </v>
   <v>       0.44389487       0.75000000       0.98220236 </v>
   <v>       0.55610513       0.25000000       0.01779764 </v>
   <v>       0.94389487       0.75000000       0.51779764 </v>
   <v>       0.00000000       0.00000000       0.00000000 </v>
   <v>       0.50000000       0.00000000       0.50000000 </v>
   <v>       0.50000000       0.50000000       0.50000000 </v>
   <v>       0.00000000       0.50000000       0.00000000 </v>
   <v>       0.51953582       0.75000000       0.41959930 </v>
   <v>       0.98046418       0.25000000       0.91959930 </v>
   <v>       0.01953582       0.75000000       0.08040070 </v>
   <v>       0.48046418       0.25000000       0.58040070 </v>
   <v>       0.28372360       0.46173805       0.21396278 </v>
   <v>       0.21627640       0.53826195       0.71396278 </v>
   <v>       0.78372360       0.03826195       0.28603722 </v>
   <v>       0.71627640       0.96173805       0.78603722 </v>
   <v>       0.28372360       0.03826195       0.21396278 </v>
   <v>       0.21627640       0.96173805       0.71396278 </v>
   <v>       0.71627640       0.53826195       0.78603722 </v>
   <v>       0.78372360       0.46173805       0.28603722 </v>
  </varray>
 </structure>
 <calculation>
  <scstep>
   <time name="dav">    4.39    4.39</time>
   <time name="total">    5.62    5.62</time>
   <energy>
    <i name="alphaZ">    433.07201174 </i>
    <i name="ewald">  -9095.65062125 </i>
    <i name="hartreedc">  -3733.38019824 </i>
    <i name="XCdc">    461.22993819 </i>
    <i name="pawpsdc">  10816.98087266 </i>
    <i name="pawaedc"> -11353.96092700 </i>
    <i name="eentropy">     -0.00040362 </i>
    <i name="bandstr">   -163.48943222 </i>
    <i name="atom">  13290.28009929 </i>
    <i name="e_fr_energy">    655.08133954 </i>
    <i name="e_wo_entrp">    655.08174317 </i>
    <i name="e_0_energy">    655.08154135 </i>
   </energy>
  </scstep>
  <scstep>
   <time name="dav">    4.84    4.86</time>
   <time name="total">    4.84    4.86</time>
   <energy>
    <i name="e_fr_energy">   -572.87833099 </i>
    <i name="e_wo_entrp">   -572.87833099 </i>
    <i name="e_0_energy">   -572.87833099 </i>
   </energy>
  </scstep>
  <scstep>
   <time name="dav">    5.21    5.24</time>
   <time name="total">    5.22    5.24</time>
   <energy>
    <i name="e_fr_energy">   -748.52483904 </i>
    <i name="e_wo_entrp">   -748.52483904 </i>
    <i name="e_0_energy">   -748.52483904 </i>
   </energy>
  </scstep>
  <scstep>
   <time name="dav">    4.80    4.84</time>
   <time name="total">    4.80    4.84</time>
   <energy>
    <i name="e_fr_energy">   -754.47348171 </i>
    <i name="e_wo_entrp">   -754.47348171 </i>
    <i name="e_0_energy">   -754.47348171 </i>
   </energy>
  </scstep>
  <scstep>
   <time name="dav">    5.18    5.21</time>
   <time name="total">    6.14    6.16</time>
   <energy>
    <i name="e_fr_energy">   -754.75925770 </i>
    <i name="e_wo_entrp">   -754.75925770 </i>
    <i name="e_0_energy">   -754.75925770 </i>
   </energy>
  </scstep>
  <scstep>
   <time name="dav">    5.09    5.09</time>
   <time name="total">    7.26    7.31</time>
   <energy>
    <i name="e_fr_energy">   -714.85519439 </i>
    <i name="e_wo_entrp">   -714.85519439 </i>
    <i name="e_0_energy">   -714.85519439 </i>
   </energy>
  </scstep>
  <scstep>
   <time name="dav">    4.98    4.98</time>
   <time name="total">    7.18    7.19</time>
   <energy>
    <i name="e_fr_energy">   -714.62210223 </i>
    <i name="e_wo_entrp">   -714.62210223 </i>
    <i name="e_0_energy">   -714.62210223 </i>
   </energy>
  </scstep>
  <scstep>
   <time name="dav">    4.78    4.78</time>
   <time name="total">    6.95    6.99</time>
   <energy>
    <i name="e_fr_energy">   -714.72330889 </i>
    <i name="e_wo_entrp">   -714.72330889 </i>
    <i name="e_0_energy">   -714.72330889 </i>
   </energy>
  </scstep>
  <scstep>
   <time name="dav">    4.58    4.58</time>
   <time name="total">    6.78    6.79</time>
   <energy>
    <i name="e_fr_energy">   -714.76864452 </i>
    <i name="e_wo_entrp">   -714.76864452 </i>
    <i name="e_0_energy">   -714.76864452 </i>
   </energy>
  </scstep>
  <scstep>
   <time name="dav">    5.39    5.39</time>
   <time name="total">    7.57    7.59</time>
   <energy>
    <i name="e_fr_energy">   -714.76970022 </i>
    <i name="e_wo_entrp">   -714.76970022 </i>
    <i name="e_0_energy">   -714.76970022 </i>
   </energy>
  </scstep>
  <scstep>
   <time name="dav">    4.55    4.55</time>
   <time name="total">    6.71    6.76</time>
   <energy>
    <i name="e_fr_energy">   -714.77168337 </i>
    <i name="e_wo_entrp">   -714.77168337 </i>
    <i name="e_0_energy">   -714.77168337 </i>
   </energy>
  </scstep>
  <scstep>
   <time name="dav">    4.78    4.78</time>
   <time name="total">    6.94    7.00</time>
   <energy>
    <i name="e_fr_energy">   -714.77163429 </i>
    <i name="e_wo_entrp">   -714.77163429 </i>
    <i name="e_0_energy">   -714.77163429 </i>
   </energy>
  </scstep>
  <scstep>
   <time name="dav">    4.83    4.83</time>
   <time name="total">    7.02    7.04</time>
   <energy>
    <i name="e_fr_energy">   -714.77163387 </i>
    <i name="e_wo_entrp">   -714.77163387 </i>
    <i name="e_0_energy">   -714.77163387 </i>
   </energy>
  </scstep>
  <scstep>
   <time name="dav">    4.08    4.08</time>
   <time name="total">    6.27    6.28</time>
   <energy>
    <i name="e_fr_energy">   -714.77164837 </i>
    <i name="e_wo_entrp">   -714.77164837 </i>
    <i name="e_0_energy">   -714.77164837 </i>
   </energy>
  </scstep>
  <scstep>
   <time name="dav">    3.54    3.54</time>
   <time name="total">    4.81    4.82</time>
   <energy>
    <i name="alphaZ">    433.07201174 </i>
    <i name="ewald">  -9095.65062125 </i>
    <i name="hartreedc">  -3745.63585352 </i>
    <i name="XCdc">    480.61258453 </i>
    <i name="pawpsdc">  11465.10389068 </i>
    <i name="pawaedc"> -12000.43006224 </i>
    <i name="eentropy">     -0.00000000 </i>
    <i name="bandstr">  -1542.12369846 </i>
    <i name="atom">  13290.28009929 </i>
    <i name="e_fr_energy">   -714.77164923 </i>
    <i name="e_wo_entrp">   -714.77164923 </i>
    <i name="e_0_energy">   -714.77164923 </i>
   </energy>
  </scstep>
  <structure>
   <crystal>
    <varray name="basis" >
     <v>       8.67261813       0.00000000       0.00000000 </v>
     <v>       0.00000000      11.54587664       0.00000000 </v>
     <v>       0.00000000       0.00000000       8.32031997 </v>
    </varray>
    <i name="volume">    833.13842496 </i>
    <varray name="rec_basis" >
     <v>       0.11530543       0.00000000       0.00000000 </v>
     <v>       0.00000000       0.08661101       0.00000000 </v>
     <v>       0.00000000       0.00000000       0.12018769 </v>
    </varray>
   </crystal>
   <varray name="positions" >
    <v>       0.05610513       0.25000000       0.48220236 </v>
    <v>       0.44389487       0.75000000       0.98220236 </v>
    <v>       0.55610513       0.25000000       0.01779764 </v>
    <v>       0.94389487       0.75000000       0.51779764 </v>
    <v>       0.00000000       0.00000000       0.00000000 </v>
    <v>       0.50000000       0.00000000       0.50000000 </v>
    <v>       0.50000000       0.50000000       0.50000000 </v>
    <v>       0.00000000       0.50000000       0.00000000 </v>
    <v>       0.51953582       0.75000000       0.41959930 </v>
    <v>       0.98046418       0.25000000       0.91959930 </v>
    <v>       0.01953582       0.75000000       0.08040070 </v>
    <v>       0.48046418       0.25000000       0.58040070 </v>
    <v>       0.28372360       0.46173805       0.21396278 </v>
    <v>       0.21627640       0.53826195       0.71396278 </v>
    <v>       0.78372360       0.03826195       0.28603722 </v>
    <v>       0.71627640       0.96173805       0.78603722 </v>
    <v>       0.28372360       0.03826195       0.21396278 </v>
    <v>       0.21627640       0.96173805       0.71396278 </v>
    <v>       0.71627640       0.53826195       0.78603722 </v>
    <v>       0.78372360       0.46173805       0.28603722 </v>
   </varray>
  </structure>
  <varray name="forces" >
   <v>      -0.00329216       0.00000000       0.00522741 </v>
   <v>       0.00329216       0.00000000       0.00522741 </v>
   <v>      -0.00329216       0.00000000      -0.00522741 </v>
   <v>       0.00329216       0.00000000      -0.00522741 </v>
   <v>      -0.00000000       0.00000000       0.00000000 </v>
   <v>      -0.00000000       0.00000000       0.00000000 </v>
   <v>      -0.00000000       0.00000000      -0.00000000 </v>
   <v>      -0.00000000       0.00000000      -0.00000000 </v>
   <v>       0.01286318       0.00000000      -0.02542719 </v>
   <v>      -0.01286318       0.00000000      -0.02542719 </v>
   <v>       0.01286318       0.00000000       0.02542719 </v>
   <v>      -0.01286318       0.00000000       0.02542719 </v>
   <v>      -0.00677677      -0.00773086       0.00202044 </v>
   <v>       0.00677677       0.00773086       0.00202044 </v>
   <v>      -0.00677677       0.00773086      -0.00202044 </v>
   <v>       0.00677677      -0.00773086      -0.00202044 </v>
   <v>      -0.00677677       0.00773086       0.00202044 </v>
   <v>       0.00677677      -0.00773086       0.00202044 </v>
   <v>       0.00677677       0.00773086      -0.00202044 </v>
   <v>      -0.00677677      -0.00773086      -0.00202044 </v>
  </varray>
  <varray name="stress" >
   <v>     -13.15821510       0.00000000      -0.00000000 </v>
   <v>       0.00000000      -0.96047032       0.00000000 </v>
   <v>       0.00000000       0.00000000     -10.55693977 </v>
  </varray>
  <energy>
   <i name="e_fr_energy">   -714.77164923 </i>
   <i name="e_wo_entrp">   -714.77164923 </i>
   <i name="e_0_energy">     -0.00000000 </i>
  </energy>
  <time name="totalsc">  111.14  111.64</time>
  <eigenvalues>
   <array>
    <dimension dim="1">band</dimension>
    <dimension dim="2">kpoint</dimension>
    <dimension dim="3">spin</dimension>
    <field>eigene</field>
    <field>occ</field>
    <set>
     <set comment="spin 1">
      <set comment="kpoint 1">
       <r>  -21.0305    1.0000 </r>
       <r>  -21.0290    1.0000 </r>
       <r>  -21.0277    1.0000 </r>
       <r>  -21.0266    1.0000 </r>
       <r>  -16.7537    1.0000 </r>
       <r>  -16.7371    1.0000 </r>
       <r>  -16.7222    1.0000 </r>
       <r>  -16.7220    1.0000 </r>
       <r>  -16.6877    1.0000 </r>
       <r>  -16.6666    1.0000 </r>
       <r>  -16.6622    1.0000 </r>
       <r>  -16.6621    1.0000 </r>
       <r>  -16.6136    1.0000 </r>
       <r>  -16.6134    1.0000 </r>
       <r>  -16.6127    1.0000 </r>
       <r>  -16.6126    1.0000 </r>
       <r>  -16.6039    1.0000 </r>
       <r>  -16.6036    1.0000 </r>
       <r>  -16.6028    1.0000 </r>
       <r>  -16.6025    1.0000 </r>
       <r>  -16.5982    1.0000 </r>
       <r>  -16.5977    1.0000 </r>
       <r>  -16.5973    1.0000 </r>
       <r>  -16.5965    1.0000 </r>
       <r>  -14.4646    1.0000 </r>
       <r>  -14.2644    1.0000 </r>
       <r>  -14.2588    1.0000 </r>
       <r>  -14.2345    1.0000 </r>
       <r>  -14.1900    1.0000 </r>
       <r>  -14.1173    1.0000 </r>
       <r>  -14.1060    1.0000 </r>
       <r>  -14.1033    1.0000 </r>
       <r>  -14.0951    1.0000 </r>
       <r>  -13.9347    1.0000 </r>
       <r>  -13.9056    1.0000 </r>
       <r>  -13.8958    1.0000 </r>
       <r>   -8.3244    1.0000 </r>
       <r>   -7.7865    1.0000 </r>
       <r>   -7.4927    1.0000 </r>
       <r>   -7.4586    1.0000 </r>
       <r>   -7.4495    1.0000 </r>
       <r>   -7.4398    1.0000 </r>
       <r>   -7.4321    1.0000 </r>
       <r>   -7.4272    1.0000 </r>
       <r>   -7.4108    1.0000 </r>
       <r>   -7.4035    1.0000 </r>
       <r>   -7.4011    1.0000 </r>
       <r>   -7.3987    1.0000 </r>
       <r>   -7.3854    1.0000 </r>
       <r>   -7.3850    1.0000 </r>
       <r>   -7.3845    1.0000 </r>
       <r>   -6.8294    1.0000 </r>
       <r>   -3.5089    1.0000 </r>
       <r>   -3.3824    1.0000 </r>
       <r>   -3.3140    1.0000 </r>
       <r>   -3.3009    1.0000 </r>
       <r>   -3.1817    1.0000 </r>
       <r>   -3.1409    1.0000 </r>
       <r>   -2.2202    1.0000 </r>
       <r>   -2.0417    1.0000 </r>
       <r>   -2.0374    1.0000 </r>
       <r>   -2.0127    1.0000 </r>
       <r>   -1.9869    1.0000 </r>
       <r>   -1.9448    1.0000 </r>
       <r>   -1.8509    1.0000 </r>
       <r>   -1.6792    1.0000 </r>
       <r>   -1.6673    1.0000 </r>
       <r>   -1.6537    1.0000 </r>
       <r>   -1.6220    1.0000 </r>
       <r>   -1.6066    1.0000 </r>
       <r>   -1.5674    1.0000 </r>
       <r>   -1.5313    1.0000 </r>
       <r>   -1.5285    1.0000 </r>
       <r>   -1.5148    1.0000 </r>
       <r>   -1.5117    1.0000 </r>
       <r>   -1.4671    1.0000 </r>
       <r>   -1.4646    1.0000 </r>
       <r>   -1.3878    1.0000 </r>
       <r>   -1.3361    1.0000 </r>
       <r>   -1.3004    1.0000 </r>
       <r>   -1.2769    1.0000 </r>
       <r>   -1.1838    1.0000 </r>
       <r>   -1.1697    1.0000 </r>
       <r>   -1.1555    1.0000 </r>
       <r>   -1.0140    1.0000 </r>
       <r>   -0.8753    1.0000 </r>
       <r>   -0.5393    1.0000 </r>
       <r>    0.1026    1.0000 </r>
       <r>    2.3367    0.0000 </r>
       <r>    2.5146    0.0000 </r>
       <r>    2.6685    0.0000 </r>
       <r>    2.7225    0.0000 </r>
       <r>    2.9386    0.0000 </r>
       <r>    3.4067    0.0000 </r>
       <r>    4.6279    0.0000 </r>
       <r>    5.2557    0.0000 </r>
       <r>    5.3952    0.0000 </r>
       <r>    5.6925    0.0000 </r>
       <r>    5.7316    0.0000 </r>
       <r>    5.7477    0.0000 </r>
       <r>    5.8210    0.0000 </r>
       <r>    5.9757    0.0000 </r>
       <r>    6.1264    0.0000 </r>
       <r>    6.1349    0.0000 </r>
       <r>    6.2685    0.0000 </r>
       <r>    6.2872    0.0000 </r>
       <r>    6.4080    0.0000 </r>
       <r>    6.4982    0.0000 </r>
       <r>    6.5274    0.0000 </r>
       <r>    6.5838    0.0000 </r>
       <r>    6.7146    0.0000 </r>
       <r>    6.7657    0.0000 </r>
      </set>
      <set comment="kpoint 2">
       <r>  -21.0297    1.0000 </r>
       <r>  -21.0284    1.0000 </r>
       <r>  -21.0283    1.0000 </r>
       <r>  -21.0272    1.0000 </r>
       <r>  -16.7495    1.0000 </r>
       <r>  -16.7411    1.0000 </r>
       <r>  -16.7078    1.0000 </r>
       <r>  -16.7076    1.0000 </r>
       <r>  -16.6823    1.0000 </r>
       <r>  -16.6779    1.0000 </r>
       <r>  -16.6777    1.0000 </r>
       <r>  -16.6717    1.0000 </r>
       <r>  -16.6133    1.0000 </r>
       <r>  -16.6131    1.0000 </r>
       <r>  -16.6130    1.0000 </r>
       <r>  -16.6127    1.0000 </r>
       <r>  -16.6037    1.0000 </r>
       <r>  -16.6036    1.0000 </r>
       <r>  -16.6028    1.0000 </r>
       <r>  -16.6026    1.0000 </r>
       <r>  -16.5980    1.0000 </r>
       <r>  -16.5977    1.0000 </r>
       <r>  -16.5970    1.0000 </r>
       <r>  -16.5967    1.0000 </r>
       <r>  -14.4215    1.0000 </r>
       <r>  -14.3076    1.0000 </r>
       <r>  -14.2625    1.0000 </r>
       <r>  -14.2585    1.0000 </r>
       <r>  -14.2039    1.0000 </r>
       <r>  -14.1398    1.0000 </r>
       <r>  -14.0547    1.0000 </r>
       <r>  -14.0455    1.0000 </r>
       <r>  -14.0250    1.0000 </r>
       <r>  -13.9558    1.0000 </r>
       <r>  -13.9557    1.0000 </r>
       <r>  -13.9460    1.0000 </r>
       <r>   -8.1440    1.0000 </r>
       <r>   -7.7386    1.0000 </r>
       <r>   -7.6095    1.0000 </r>
       <r>   -7.4530    1.0000 </r>
       <r>   -7.4443    1.0000 </r>
       <r>   -7.4300    1.0000 </r>
       <r>   -7.4286    1.0000 </r>
       <r>   -7.4147    1.0000 </r>
       <r>   -7.4130    1.0000 </r>
       <r>   -7.4077    1.0000 </r>
       <r>   -7.3982    1.0000 </r>
       <r>   -7.3951    1.0000 </r>
       <r>   -7.3904    1.0000 </r>
       <r>   -7.3881    1.0000 </r>
       <r>   -7.3737    1.0000 </r>
       <r>   -7.1063    1.0000 </r>
       <r>   -3.4793    1.0000 </r>
       <r>   -3.4098    1.0000 </r>
       <r>   -3.0370    1.0000 </r>
       <r>   -2.8662    1.0000 </r>
       <r>   -2.8486    1.0000 </r>
       <r>   -2.7854    1.0000 </r>
       <r>   -2.3623    1.0000 </r>
       <r>   -2.2497    1.0000 </r>
       <r>   -2.1410    1.0000 </r>
       <r>   -2.1229    1.0000 </r>
       <r>   -2.0819    1.0000 </r>
       <r>   -2.0723    1.0000 </r>
       <r>   -1.9811    1.0000 </r>
       <r>   -1.8785    1.0000 </r>
       <r>   -1.7907    1.0000 </r>
       <r>   -1.7886    1.0000 </r>
       <r>   -1.6518    1.0000 </r>
       <r>   -1.6446    1.0000 </r>
       <r>   -1.6063    1.0000 </r>
       <r>   -1.6032    1.0000 </r>
       <r>   -1.4781    1.0000 </r>
       <r>   -1.4765    1.0000 </r>
       <r>   -1.4575    1.0000 </r>
       <r>   -1.4157    1.0000 </r>
       <r>   -1.4022    1.0000 </r>
       <r>   -1.4016    1.0000 </r>
       <r>   -1.3325    1.0000 </r>
       <r>   -1.3280    1.0000 </r>
       <r>   -1.2946    1.0000 </r>
       <r>   -1.2327    1.0000 </r>
       <r>   -1.2319    1.0000 </r>
       <r>   -1.1956    1.0000 </r>
       <r>   -1.0265    1.0000 </r>
       <r>   -0.9492    1.0000 </r>
       <r>   -0.7861    1.0000 </r>
       <r>   -0.3870    1.0000 </r>
       <r>    2.8729    0.0000 </r>
       <r>    3.1265    0.0000 </r>
       <r>    3.1266    0.0000 </r>
       <r>    3.3430    0.0000 </r>
       <r>    3.5184    0.0000 </r>
       <r>    3.6947    0.0000 </r>
       <r>    4.5670    0.0000 </r>
       <r>    4.6868    0.0000 </r>
       <r>    4.8096    0.0000 </r>
       <r>    4.8952    0.0000 </r>
       <r>    5.4352    0.0000 </r>
       <r>    5.7498    0.0000 </r>
       <r>    5.9913    0.0000 </r>
       <r>    6.0059    0.0000 </r>
       <r>    6.0876    0.0000 </r>
       <r>    6.1240    0.0000 </r>
       <r>    6.3793    0.0000 </r>
       <r>    6.4043    0.0000 </r>
       <r>    6.4238    0.0000 </r>
       <r>    6.4483    0.0000 </r>
       <r>    6.6000    0.0000 </r>
       <r>    6.6681    0.0000 </r>
       <r>    6.7146    0.0000 </r>
       <r>    6.8259    0.0000 </r>
      </set>
      <set comment="kpoint 3">
       <r>  -21.0296    1.0000 </r>
       <r>  -21.0296    1.0000 </r>
       <r>  -21.0271    1.0000 </r>
       <r>  -21.0271    1.0000 </r>
       <r>  -16.7221    1.0000 </r>
       <r>  -16.7221    1.0000 </r>
       <r>  -16.7210    1.0000 </r>
       <r>  -16.7210    1.0000 </r>
       <r>  -16.7025    1.0000 </r>
       <r>  -16.7025    1.0000 </r>
       <r>  -16.6621    1.0000 </r>
       <r>  -16.6621    1.0000 </r>
       <r>  -16.6135    1.0000 </r>
       <r>  -16.6135    1.0000 </r>
       <r>  -16.6127    1.0000 </r>
       <r>  -16.6127    1.0000 </r>
       <r>  -16.6033    1.0000 </r>
       <r>  -16.6033    1.0000 </r>
       <r>  -16.6030    1.0000 </r>
       <r>  -16.6030    1.0000 </r>
       <r>  -16.5976    1.0000 </r>
       <r>  -16.5976    1.0000 </r>
       <r>  -16.5969    1.0000 </r>
       <r>  -16.5969    1.0000 </r>
       <r>  -14.4117    1.0000 </r>
       <r>  -14.4117    1.0000 </r>
       <r>  -14.2237    1.0000 </r>
       <r>  -14.2237    1.0000 </r>
       <r>  -14.1116    1.0000 </r>
       <r>  -14.1116    1.0000 </r>
       <r>  -14.1010    1.0000 </r>
       <r>  -14.1010    1.0000 </r>
       <r>  -14.0348    1.0000 </r>
       <r>  -14.0348    1.0000 </r>
       <r>  -13.9005    1.0000 </r>
       <r>  -13.9005    1.0000 </r>
       <r>   -8.0767    1.0000 </r>
       <r>   -8.0767    1.0000 </r>
       <r>   -7.4456    1.0000 </r>
       <r>   -7.4456    1.0000 </r>
       <r>   -7.4344    1.0000 </r>
       <r>   -7.4344    1.0000 </r>
       <r>   -7.4188    1.0000 </r>
       <r>   -7.4188    1.0000 </r>
       <r>   -7.4072    1.0000 </r>
       <r>   -7.4072    1.0000 </r>
       <r>   -7.3982    1.0000 </r>
       <r>   -7.3982    1.0000 </r>
       <r>   -7.3924    1.0000 </r>
       <r>   -7.3924    1.0000 </r>
       <r>   -7.2066    1.0000 </r>
       <r>   -7.2066    1.0000 </r>
       <r>   -3.2488    1.0000 </r>
       <r>   -3.2488    1.0000 </r>
       <r>   -3.2456    1.0000 </r>
       <r>   -3.2456    1.0000 </r>
       <r>   -2.6534    1.0000 </r>
       <r>   -2.6534    1.0000 </r>
       <r>   -2.5708    1.0000 </r>
       <r>   -2.5708    1.0000 </r>
       <r>   -2.0949    1.0000 </r>
       <r>   -2.0949    1.0000 </r>
       <r>   -1.9783    1.0000 </r>
       <r>   -1.9783    1.0000 </r>
       <r>   -1.9139    1.0000 </r>
       <r>   -1.9139    1.0000 </r>
       <r>   -1.6422    1.0000 </r>
       <r>   -1.6422    1.0000 </r>
       <r>   -1.6376    1.0000 </r>
       <r>   -1.6376    1.0000 </r>
       <r>   -1.5636    1.0000 </r>
       <r>   -1.5636    1.0000 </r>
       <r>   -1.5253    1.0000 </r>
       <r>   -1.5253    1.0000 </r>
       <r>   -1.4557    1.0000 </r>
       <r>   -1.4557    1.0000 </r>
       <r>   -1.4202    1.0000 </r>
       <r>   -1.4202    1.0000 </r>
       <r>   -1.3482    1.0000 </r>
       <r>   -1.3482    1.0000 </r>
       <r>   -1.2472    1.0000 </r>
       <r>   -1.2472    1.0000 </r>
       <r>   -1.2181    1.0000 </r>
       <r>   -1.2181    1.0000 </r>
       <r>   -1.0327    1.0000 </r>
       <r>   -1.0327    1.0000 </r>
       <r>   -0.3763    1.0000 </r>
       <r>   -0.3763    1.0000 </r>
       <r>    2.5347    0.0000 </r>
       <r>    2.5347    0.0000 </r>
       <r>    2.7192    0.0000 </r>
       <r>    2.7192    0.0000 </r>
       <r>    4.1900    0.0000 </r>
       <r>    4.1900    0.0000 </r>
       <r>    4.7167    0.0000 </r>
       <r>    4.7167    0.0000 </r>
       <r>    5.3576    0.0000 </r>
       <r>    5.3576    0.0000 </r>
       <r>    5.5598    0.0000 </r>
       <r>    5.5598    0.0000 </r>
       <r>    5.5609    0.0000 </r>
       <r>    5.5609    0.0000 </r>
       <r>    6.0206    0.0000 </r>
       <r>    6.0206    0.0000 </r>
       <r>    6.2255    0.0000 </r>
       <r>    6.2255    0.0000 </r>
       <r>    6.4028    0.0000 </r>
       <r>    6.4028    0.0000 </r>
       <r>    6.6813    0.0000 </r>
       <r>    6.6827    0.0000 </r>
       <r>    6.7295    0.0000 </r>
       <r>    6.7328    0.0000 </r>
      </set>
      <set comment="kpoint 4">
       <r>  -21.0291    1.0000 </r>
       <r>  -21.0291    1.0000 </r>
       <r>  -21.0278    1.0000 </r>
       <r>  -21.0278    1.0000 </r>
       <r>  -16.7163    1.0000 </r>
       <r>  -16.7163    1.0000 </r>
       <r>  -16.7078    1.0000 </r>
       <r>  -16.7078    1.0000 </r>
       <r>  -16.7069    1.0000 </r>
       <r>  -16.7069    1.0000 </r>
       <r>  -16.6778    1.0000 </r>
       <r>  -16.6778    1.0000 </r>
       <r>  -16.6133    1.0000 </r>
       <r>  -16.6133    1.0000 </r>
       <r>  -16.6129    1.0000 </r>
       <r>  -16.6129    1.0000 </r>
       <r>  -16.6033    1.0000 </r>
       <r>  -16.6033    1.0000 </r>
       <r>  -16.6031    1.0000 </r>
       <r>  -16.6031    1.0000 </r>
       <r>  -16.5976    1.0000 </r>
       <r>  -16.5976    1.0000 </r>
       <r>  -16.5972    1.0000 </r>
       <r>  -16.5972    1.0000 </r>
       <r>  -14.3764    1.0000 </r>
       <r>  -14.3764    1.0000 </r>
       <r>  -14.2895    1.0000 </r>
       <r>  -14.2895    1.0000 </r>
       <r>  -14.0753    1.0000 </r>
       <r>  -14.0753    1.0000 </r>
       <r>  -14.0557    1.0000 </r>
       <r>  -14.0557    1.0000 </r>
       <r>  -14.0391    1.0000 </r>
       <r>  -14.0391    1.0000 </r>
       <r>  -13.9506    1.0000 </r>
       <r>  -13.9506    1.0000 </r>
       <r>   -7.8946    1.0000 </r>
       <r>   -7.8946    1.0000 </r>
       <r>   -7.4949    1.0000 </r>
       <r>   -7.4949    1.0000 </r>
       <r>   -7.4341    1.0000 </r>
       <r>   -7.4341    1.0000 </r>
       <r>   -7.4329    1.0000 </r>
       <r>   -7.4329    1.0000 </r>
       <r>   -7.4130    1.0000 </r>
       <r>   -7.4130    1.0000 </r>
       <r>   -7.3986    1.0000 </r>
       <r>   -7.3986    1.0000 </r>
       <r>   -7.3979    1.0000 </r>
       <r>   -7.3979    1.0000 </r>
       <r>   -7.3711    1.0000 </r>
       <r>   -7.3711    1.0000 </r>
       <r>   -2.9624    1.0000 </r>
       <r>   -2.9624    1.0000 </r>
       <r>   -2.9271    1.0000 </r>
       <r>   -2.9271    1.0000 </r>
       <r>   -2.6575    1.0000 </r>
       <r>   -2.6575    1.0000 </r>
       <r>   -2.5252    1.0000 </r>
       <r>   -2.5252    1.0000 </r>
       <r>   -2.2662    1.0000 </r>
       <r>   -2.2662    1.0000 </r>
       <r>   -2.1672    1.0000 </r>
       <r>   -2.1672    1.0000 </r>
       <r>   -1.8656    1.0000 </r>
       <r>   -1.8656    1.0000 </r>
       <r>   -1.7820    1.0000 </r>
       <r>   -1.7820    1.0000 </r>
       <r>   -1.6720    1.0000 </r>
       <r>   -1.6720    1.0000 </r>
       <r>   -1.6658    1.0000 </r>
       <r>   -1.6658    1.0000 </r>
       <r>   -1.5739    1.0000 </r>
       <r>   -1.5739    1.0000 </r>
       <r>   -1.5666    1.0000 </r>
       <r>   -1.5666    1.0000 </r>
       <r>   -1.3230    1.0000 </r>
       <r>   -1.3230    1.0000 </r>
       <r>   -1.3158    1.0000 </r>
       <r>   -1.3158    1.0000 </r>
       <r>   -1.2556    1.0000 </r>
       <r>   -1.2556    1.0000 </r>
       <r>   -1.2277    1.0000 </r>
       <r>   -1.2277    1.0000 </r>
       <r>   -1.0291    1.0000 </r>
       <r>   -1.0291    1.0000 </r>
       <r>   -0.8308    1.0000 </r>
       <r>   -0.8308    1.0000 </r>
       <r>    3.2909    0.0000 </r>
       <r>    3.2909    0.0000 </r>
       <r>    3.4966    0.0000 </r>
       <r>    3.4966    0.0000 </r>
       <r>    4.3076    0.0000 </r>
       <r>    4.3076    0.0000 </r>
       <r>    4.5965    0.0000 </r>
       <r>    4.5965    0.0000 </r>
       <r>    4.7609    0.0000 </r>
       <r>    4.7609    0.0000 </r>
       <r>    4.7826    0.0000 </r>
       <r>    4.7826    0.0000 </r>
       <r>    5.7917    0.0000 </r>
       <r>    5.7917    0.0000 </r>
       <r>    6.2214    0.0000 </r>
       <r>    6.2214    0.0000 </r>
       <r>    6.2458    0.0000 </r>
       <r>    6.2458    0.0000 </r>
       <r>    6.3517    0.0000 </r>
       <r>    6.3517    0.0000 </r>
       <r>    6.5041    0.0000 </r>
       <r>    6.5043    0.0000 </r>
       <r>    6.6872    0.0000 </r>
       <r>    6.7670    0.0000 </r>
      </set>
      <set comment="kpoint 5">
       <r>  -21.0298    1.0000 </r>
       <r>  -21.0287    1.0000 </r>
       <r>  -21.0279    1.0000 </r>
       <r>  -21.0272    1.0000 </r>
       <r>  -16.7494    1.0000 </r>
       <r>  -16.7410    1.0000 </r>
       <r>  -16.7078    1.0000 </r>
       <r>  -16.7076    1.0000 </r>
       <r>  -16.6823    1.0000 </r>
       <r>  -16.6778    1.0000 </r>
       <r>  -16.6777    1.0000 </r>
       <r>  -16.6717    1.0000 </r>
       <r>  -16.6133    1.0000 </r>
       <r>  -16.6132    1.0000 </r>
       <r>  -16.6129    1.0000 </r>
       <r>  -16.6128    1.0000 </r>
       <r>  -16.6037    1.0000 </r>
       <r>  -16.6036    1.0000 </r>
       <r>  -16.6028    1.0000 </r>
       <r>  -16.6026    1.0000 </r>
       <r>  -16.5980    1.0000 </r>
       <r>  -16.5978    1.0000 </r>
       <r>  -16.5970    1.0000 </r>
       <r>  -16.5968    1.0000 </r>
       <r>  -14.4211    1.0000 </r>
       <r>  -14.3060    1.0000 </r>
       <r>  -14.2611    1.0000 </r>
       <r>  -14.2602    1.0000 </r>
       <r>  -14.2014    1.0000 </r>
       <r>  -14.1317    1.0000 </r>
       <r>  -14.0652    1.0000 </r>
       <r>  -14.0538    1.0000 </r>
       <r>  -14.0175    1.0000 </r>
       <r>  -13.9591    1.0000 </r>
       <r>  -13.9533    1.0000 </r>
       <r>  -13.9487    1.0000 </r>
       <r>   -8.1428    1.0000 </r>
       <r>   -7.7334    1.0000 </r>
       <r>   -7.5989    1.0000 </r>
       <r>   -7.4466    1.0000 </r>
       <r>   -7.4343    1.0000 </r>
       <r>   -7.4333    1.0000 </r>
       <r>   -7.4204    1.0000 </r>
       <r>   -7.4189    1.0000 </r>
       <r>   -7.4185    1.0000 </r>
       <r>   -7.4070    1.0000 </r>
       <r>   -7.4008    1.0000 </r>
       <r>   -7.3942    1.0000 </r>
       <r>   -7.3870    1.0000 </r>
       <r>   -7.3851    1.0000 </r>
       <r>   -7.3812    1.0000 </r>
       <r>   -7.1136    1.0000 </r>
       <r>   -3.4793    1.0000 </r>
       <r>   -3.4074    1.0000 </r>
       <r>   -3.0368    1.0000 </r>
       <r>   -2.8863    1.0000 </r>
       <r>   -2.8719    1.0000 </r>
       <r>   -2.7396    1.0000 </r>
       <r>   -2.4198    1.0000 </r>
       <r>   -2.2457    1.0000 </r>
       <r>   -2.1612    1.0000 </r>
       <r>   -2.1144    1.0000 </r>
       <r>   -2.1132    1.0000 </r>
       <r>   -2.0174    1.0000 </r>
       <r>   -2.0023    1.0000 </r>
       <r>   -1.8627    1.0000 </r>
       <r>   -1.8181    1.0000 </r>
       <r>   -1.7745    1.0000 </r>
       <r>   -1.6573    1.0000 </r>
       <r>   -1.5337    1.0000 </r>
       <r>   -1.5321    1.0000 </r>
       <r>   -1.5209    1.0000 </r>
       <r>   -1.5101    1.0000 </r>
       <r>   -1.4746    1.0000 </r>
       <r>   -1.4650    1.0000 </r>
       <r>   -1.4324    1.0000 </r>
       <r>   -1.4251    1.0000 </r>
       <r>   -1.4238    1.0000 </r>
       <r>   -1.3655    1.0000 </r>
       <r>   -1.3258    1.0000 </r>
       <r>   -1.3116    1.0000 </r>
       <r>   -1.2570    1.0000 </r>
       <r>   -1.2055    1.0000 </r>
       <r>   -1.2055    1.0000 </r>
       <r>   -1.0971    1.0000 </r>
       <r>   -0.9934    1.0000 </r>
       <r>   -0.7884    1.0000 </r>
       <r>   -0.4130    1.0000 </r>
       <r>    2.8640    0.0000 </r>
       <r>    3.1061    0.0000 </r>
       <r>    3.2146    0.0000 </r>
       <r>    3.2406    0.0000 </r>
       <r>    3.6128    0.0000 </r>
       <r>    3.6286    0.0000 </r>
       <r>    4.6045    0.0000 </r>
       <r>    4.6227    0.0000 </r>
       <r>    4.8343    0.0000 </r>
       <r>    4.9858    0.0000 </r>
       <r>    5.3600    0.0000 </r>
       <r>    5.7391    0.0000 </r>
       <r>    5.8037    0.0000 </r>
       <r>    6.0435    0.0000 </r>
       <r>    6.0629    0.0000 </r>
       <r>    6.1764    0.0000 </r>
       <r>    6.2221    0.0000 </r>
       <r>    6.3911    0.0000 </r>
       <r>    6.4326    0.0000 </r>
       <r>    6.5163    0.0000 </r>
       <r>    6.6369    0.0000 </r>
       <r>    6.7377    0.0000 </r>
       <r>    6.8876    0.0000 </r>
       <r>    6.8975    0.0000 </r>
      </set>
      <set comment="kpoint 6">
       <r>  -21.0293    1.0000 </r>
       <r>  -21.0286    1.0000 </r>
       <r>  -21.0279    1.0000 </r>
       <r>  -21.0275    1.0000 </r>
       <r>  -16.7498    1.0000 </r>
       <r>  -16.7453    1.0000 </r>
       <r>  -16.7068    1.0000 </r>
       <r>  -16.6979    1.0000 </r>
       <r>  -16.6943    1.0000 </r>
       <r>  -16.6833    1.0000 </r>
       <r>  -16.6731    1.0000 </r>
       <r>  -16.6654    1.0000 </r>
       <r>  -16.6132    1.0000 </r>
       <r>  -16.6130    1.0000 </r>
       <r>  -16.6130    1.0000 </r>
       <r>  -16.6128    1.0000 </r>
       <r>  -16.6037    1.0000 </r>
       <r>  -16.6036    1.0000 </r>
       <r>  -16.6027    1.0000 </r>
       <r>  -16.6026    1.0000 </r>
       <r>  -16.5980    1.0000 </r>
       <r>  -16.5978    1.0000 </r>
       <r>  -16.5969    1.0000 </r>
       <r>  -16.5968    1.0000 </r>
       <r>  -14.3832    1.0000 </r>
       <r>  -14.3149    1.0000 </r>
       <r>  -14.2621    1.0000 </r>
       <r>  -14.2607    1.0000 </r>
       <r>  -14.1675    1.0000 </r>
       <r>  -14.1107    1.0000 </r>
       <r>  -14.1060    1.0000 </r>
       <r>  -14.0732    1.0000 </r>
       <r>  -14.0464    1.0000 </r>
       <r>  -13.9940    1.0000 </r>
       <r>  -13.9502    1.0000 </r>
       <r>  -13.9191    1.0000 </r>
       <r>   -8.0356    1.0000 </r>
       <r>   -7.8313    1.0000 </r>
       <r>   -7.4972    1.0000 </r>
       <r>   -7.4344    1.0000 </r>
       <r>   -7.4328    1.0000 </r>
       <r>   -7.4251    1.0000 </r>
       <r>   -7.4164    1.0000 </r>
       <r>   -7.4163    1.0000 </r>
       <r>   -7.4141    1.0000 </r>
       <r>   -7.4093    1.0000 </r>
       <r>   -7.3980    1.0000 </r>
       <r>   -7.3963    1.0000 </r>
       <r>   -7.3918    1.0000 </r>
       <r>   -7.3890    1.0000 </r>
       <r>   -7.3603    1.0000 </r>
       <r>   -7.2133    1.0000 </r>
       <r>   -3.4688    1.0000 </r>
       <r>   -3.4323    1.0000 </r>
       <r>   -3.2576    1.0000 </r>
       <r>   -3.0911    1.0000 </r>
       <r>   -2.9165    1.0000 </r>
       <r>   -2.7373    1.0000 </r>
       <r>   -2.3340    1.0000 </r>
       <r>   -2.2075    1.0000 </r>
       <r>   -2.2003    1.0000 </r>
       <r>   -2.1647    1.0000 </r>
       <r>   -2.1091    1.0000 </r>
       <r>   -1.9053    1.0000 </r>
       <r>   -1.8271    1.0000 </r>
       <r>   -1.8112    1.0000 </r>
       <r>   -1.6976    1.0000 </r>
       <r>   -1.6714    1.0000 </r>
       <r>   -1.6697    1.0000 </r>
       <r>   -1.6040    1.0000 </r>
       <r>   -1.5681    1.0000 </r>
       <r>   -1.5339    1.0000 </r>
       <r>   -1.5016    1.0000 </r>
       <r>   -1.4968    1.0000 </r>
       <r>   -1.4702    1.0000 </r>
       <r>   -1.4501    1.0000 </r>
       <r>   -1.4270    1.0000 </r>
       <r>   -1.4022    1.0000 </r>
       <r>   -1.4020    1.0000 </r>
       <r>   -1.3745    1.0000 </r>
       <r>   -1.3249    1.0000 </r>
       <r>   -1.3192    1.0000 </r>
       <r>   -1.2720    1.0000 </r>
       <r>   -1.2284    1.0000 </r>
       <r>   -1.0250    1.0000 </r>
       <r>   -0.9261    1.0000 </r>
       <r>   -0.6356    1.0000 </r>
       <r>   -0.3532    1.0000 </r>
       <r>    2.6658    0.0000 </r>
       <r>    2.9445    0.0000 </r>
       <r>    3.0379    0.0000 </r>
       <r>    3.1168    0.0000 </r>
       <r>    3.4481    0.0000 </r>
       <r>    3.7970    0.0000 </r>
       <r>    4.4215    0.0000 </r>
       <r>    4.7908    0.0000 </r>
       <r>    5.1419    0.0000 </r>
       <r>    5.5103    0.0000 </r>
       <r>    5.5996    0.0000 </r>
       <r>    5.8358    0.0000 </r>
       <r>    5.9955    0.0000 </r>
       <r>    6.0506    0.0000 </r>
       <r>    6.1539    0.0000 </r>
       <r>    6.2491    0.0000 </r>
       <r>    6.2842    0.0000 </r>
       <r>    6.4670    0.0000 </r>
       <r>    6.5193    0.0000 </r>
       <r>    6.5980    0.0000 </r>
       <r>    6.5983    0.0000 </r>
       <r>    6.7329    0.0000 </r>
       <r>    6.7584    0.0000 </r>
       <r>    7.0014    0.0000 </r>
      </set>
      <set comment="kpoint 7">
       <r>  -21.0291    1.0000 </r>
       <r>  -21.0291    1.0000 </r>
       <r>  -21.0276    1.0000 </r>
       <r>  -21.0276    1.0000 </r>
       <r>  -16.7163    1.0000 </r>
       <r>  -16.7163    1.0000 </r>
       <r>  -16.7078    1.0000 </r>
       <r>  -16.7078    1.0000 </r>
       <r>  -16.7069    1.0000 </r>
       <r>  -16.7069    1.0000 </r>
       <r>  -16.6778    1.0000 </r>
       <r>  -16.6778    1.0000 </r>
       <r>  -16.6133    1.0000 </r>
       <r>  -16.6133    1.0000 </r>
       <r>  -16.6128    1.0000 </r>
       <r>  -16.6128    1.0000 </r>
       <r>  -16.6033    1.0000 </r>
       <r>  -16.6033    1.0000 </r>
       <r>  -16.6030    1.0000 </r>
       <r>  -16.6030    1.0000 </r>
       <r>  -16.5975    1.0000 </r>
       <r>  -16.5975    1.0000 </r>
       <r>  -16.5972    1.0000 </r>
       <r>  -16.5972    1.0000 </r>
       <r>  -14.3762    1.0000 </r>
       <r>  -14.3762    1.0000 </r>
       <r>  -14.2880    1.0000 </r>
       <r>  -14.2880    1.0000 </r>
       <r>  -14.0712    1.0000 </r>
       <r>  -14.0712    1.0000 </r>
       <r>  -14.0581    1.0000 </r>
       <r>  -14.0581    1.0000 </r>
       <r>  -14.0409    1.0000 </r>
       <r>  -14.0409    1.0000 </r>
       <r>  -13.9535    1.0000 </r>
       <r>  -13.9535    1.0000 </r>
       <r>   -7.8919    1.0000 </r>
       <r>   -7.8919    1.0000 </r>
       <r>   -7.4769    1.0000 </r>
       <r>   -7.4769    1.0000 </r>
       <r>   -7.4438    1.0000 </r>
       <r>   -7.4438    1.0000 </r>
       <r>   -7.4223    1.0000 </r>
       <r>   -7.4223    1.0000 </r>
       <r>   -7.4105    1.0000 </r>
       <r>   -7.4105    1.0000 </r>
       <r>   -7.4040    1.0000 </r>
       <r>   -7.4040    1.0000 </r>
       <r>   -7.3915    1.0000 </r>
       <r>   -7.3915    1.0000 </r>
       <r>   -7.3859    1.0000 </r>
       <r>   -7.3859    1.0000 </r>
       <r>   -2.9748    1.0000 </r>
       <r>   -2.9748    1.0000 </r>
       <r>   -2.9083    1.0000 </r>
       <r>   -2.9083    1.0000 </r>
       <r>   -2.6710    1.0000 </r>
       <r>   -2.6710    1.0000 </r>
       <r>   -2.5454    1.0000 </r>
       <r>   -2.5454    1.0000 </r>
       <r>   -2.3139    1.0000 </r>
       <r>   -2.3139    1.0000 </r>
       <r>   -2.1519    1.0000 </r>
       <r>   -2.1519    1.0000 </r>
       <r>   -1.8323    1.0000 </r>
       <r>   -1.8323    1.0000 </r>
       <r>   -1.7945    1.0000 </r>
       <r>   -1.7945    1.0000 </r>
       <r>   -1.7041    1.0000 </r>
       <r>   -1.7041    1.0000 </r>
       <r>   -1.6272    1.0000 </r>
       <r>   -1.6272    1.0000 </r>
       <r>   -1.4853    1.0000 </r>
       <r>   -1.4853    1.0000 </r>
       <r>   -1.4387    1.0000 </r>
       <r>   -1.4387    1.0000 </r>
       <r>   -1.3895    1.0000 </r>
       <r>   -1.3895    1.0000 </r>
       <r>   -1.3468    1.0000 </r>
       <r>   -1.3468    1.0000 </r>
       <r>   -1.2640    1.0000 </r>
       <r>   -1.2640    1.0000 </r>
       <r>   -1.2152    1.0000 </r>
       <r>   -1.2152    1.0000 </r>
       <r>   -1.0979    1.0000 </r>
       <r>   -1.0979    1.0000 </r>
       <r>   -0.9024    1.0000 </r>
       <r>   -0.9024    1.0000 </r>
       <r>    3.3664    0.0000 </r>
       <r>    3.3664    0.0000 </r>
       <r>    3.4146    0.0000 </r>
       <r>    3.4146    0.0000 </r>
       <r>    4.3181    0.0000 </r>
       <r>    4.3181    0.0000 </r>
       <r>    4.5860    0.0000 </r>
       <r>    4.5860    0.0000 </r>
       <r>    4.7283    0.0000 </r>
       <r>    4.7283    0.0000 </r>
       <r>    4.7864    0.0000 </r>
       <r>    4.7864    0.0000 </r>
       <r>    5.7712    0.0000 </r>
       <r>    5.7712    0.0000 </r>
       <r>    6.1049    0.0000 </r>
       <r>    6.1049    0.0000 </r>
       <r>    6.1870    0.0000 </r>
       <r>    6.1870    0.0000 </r>
       <r>    6.5540    0.0000 </r>
       <r>    6.5540    0.0000 </r>
       <r>    6.5955    0.0000 </r>
       <r>    6.5955    0.0000 </r>
       <r>    6.6770    0.0000 </r>
       <r>    6.6770    0.0000 </r>
      </set>
      <set comment="kpoint 8">
       <r>  -21.0287    1.0000 </r>
       <r>  -21.0287    1.0000 </r>
       <r>  -21.0280    1.0000 </r>
       <r>  -21.0280    1.0000 </r>
       <r>  -16.7212    1.0000 </r>
       <r>  -16.7212    1.0000 </r>
       <r>  -16.7145    1.0000 </r>
       <r>  -16.7145    1.0000 </r>
       <r>  -16.6931    1.0000 </r>
       <r>  -16.6931    1.0000 </r>
       <r>  -16.6802    1.0000 </r>
       <r>  -16.6802    1.0000 </r>
       <r>  -16.6132    1.0000 </r>
       <r>  -16.6132    1.0000 </r>
       <r>  -16.6129    1.0000 </r>
       <r>  -16.6129    1.0000 </r>
       <r>  -16.6032    1.0000 </r>
       <r>  -16.6032    1.0000 </r>
       <r>  -16.6031    1.0000 </r>
       <r>  -16.6031    1.0000 </r>
       <r>  -16.5974    1.0000 </r>
       <r>  -16.5974    1.0000 </r>
       <r>  -16.5973    1.0000 </r>
       <r>  -16.5973    1.0000 </r>
       <r>  -14.3449    1.0000 </r>
       <r>  -14.3449    1.0000 </r>
       <r>  -14.2934    1.0000 </r>
       <r>  -14.2934    1.0000 </r>
       <r>  -14.1088    1.0000 </r>
       <r>  -14.1088    1.0000 </r>
       <r>  -14.0715    1.0000 </r>
       <r>  -14.0715    1.0000 </r>
       <r>  -14.0047    1.0000 </r>
       <r>  -14.0047    1.0000 </r>
       <r>  -13.9691    1.0000 </r>
       <r>  -13.9691    1.0000 </r>
       <r>   -7.7820    1.0000 </r>
       <r>   -7.7820    1.0000 </r>
       <r>   -7.5735    1.0000 </r>
       <r>   -7.5735    1.0000 </r>
       <r>   -7.4338    1.0000 </r>
       <r>   -7.4338    1.0000 </r>
       <r>   -7.4198    1.0000 </r>
       <r>   -7.4198    1.0000 </r>
       <r>   -7.4078    1.0000 </r>
       <r>   -7.4078    1.0000 </r>
       <r>   -7.4030    1.0000 </r>
       <r>   -7.4030    1.0000 </r>
       <r>   -7.3961    1.0000 </r>
       <r>   -7.3961    1.0000 </r>
       <r>   -7.3838    1.0000 </r>
       <r>   -7.3838    1.0000 </r>
       <r>   -3.1824    1.0000 </r>
       <r>   -3.1824    1.0000 </r>
       <r>   -2.8766    1.0000 </r>
       <r>   -2.8766    1.0000 </r>
       <r>   -2.7065    1.0000 </r>
       <r>   -2.7065    1.0000 </r>
       <r>   -2.5707    1.0000 </r>
       <r>   -2.5707    1.0000 </r>
       <r>   -2.2630    1.0000 </r>
       <r>   -2.2630    1.0000 </r>
       <r>   -2.1273    1.0000 </r>
       <r>   -2.1273    1.0000 </r>
       <r>   -1.8203    1.0000 </r>
       <r>   -1.8203    1.0000 </r>
       <r>   -1.7581    1.0000 </r>
       <r>   -1.7581    1.0000 </r>
       <r>   -1.6642    1.0000 </r>
       <r>   -1.6642    1.0000 </r>
       <r>   -1.5785    1.0000 </r>
       <r>   -1.5785    1.0000 </r>
       <r>   -1.5153    1.0000 </r>
       <r>   -1.5153    1.0000 </r>
       <r>   -1.4668    1.0000 </r>
       <r>   -1.4668    1.0000 </r>
       <r>   -1.4092    1.0000 </r>
       <r>   -1.4092    1.0000 </r>
       <r>   -1.3386    1.0000 </r>
       <r>   -1.3386    1.0000 </r>
       <r>   -1.2912    1.0000 </r>
       <r>   -1.2912    1.0000 </r>
       <r>   -1.2480    1.0000 </r>
       <r>   -1.2480    1.0000 </r>
       <r>   -1.0127    1.0000 </r>
       <r>   -1.0127    1.0000 </r>
       <r>   -0.7987    1.0000 </r>
       <r>   -0.7987    1.0000 </r>
       <r>    2.8598    0.0000 </r>
       <r>    2.8598    0.0000 </r>
       <r>    3.6065    0.0000 </r>
       <r>    3.6065    0.0000 </r>
       <r>    4.4066    0.0000 </r>
       <r>    4.4066    0.0000 </r>
       <r>    4.5162    0.0000 </r>
       <r>    4.5162    0.0000 </r>
       <r>    4.6246    0.0000 </r>
       <r>    4.6246    0.0000 </r>
       <r>    5.3093    0.0000 </r>
       <r>    5.3093    0.0000 </r>
       <r>    5.9800    0.0000 </r>
       <r>    5.9800    0.0000 </r>
       <r>    6.2073    0.0000 </r>
       <r>    6.2073    0.0000 </r>
       <r>    6.3478    0.0000 </r>
       <r>    6.3478    0.0000 </r>
       <r>    6.5402    0.0000 </r>
       <r>    6.5403    0.0000 </r>
       <r>    6.6218    0.0000 </r>
       <r>    6.6219    0.0000 </r>
       <r>    6.7089    0.0000 </r>
       <r>    6.7099    0.0000 </r>
      </set>
     </set>
    </set>
   </array>
  </eigenvalues>
  <separator name="orbital magnetization" >
   <v name="MAGDIPOLOUT">      0.00000000      0.00000000      0.00000000</v>
  </separator>
  <dos>
   <i name="efermi">      0.20600650 </i>
   <total>
    <array>
     <dimension dim="1">gridpoints</dimension>
     <dimension dim="2">spin</dimension>
     <field>energy</field>
     <field>total</field>
     <field>integrated</field>
     <set>
      <set comment="spin 1">
       <r>   -22.4321     0.0000     0.0000 </r>
       <r>   -22.3293     0.0000     0.0000 </r>
       <r>   -22.2265     0.0000     0.0000 </r>
       <r>   -22.1237     0.0000     0.0000 </r>
       <r>   -22.0209     0.0000     0.0000 </r>
       <r>   -21.9182     0.0000     0.0000 </r>
       <r>   -21.8154     0.0000     0.0000 </r>
       <r>   -21.7126     0.0000     0.0000 </r>
       <r>   -21.6098     0.0000     0.0000 </r>
       <r>   -21.5070     0.0000     0.0000 </r>
       <r>   -21.4042     0.0000     0.0000 </r>
       <r>   -21.3015     0.0000     0.0000 </r>
       <r>   -21.1987     0.0000     0.0000 </r>
       <r>   -21.0959     0.0000     0.0000 </r>
       <r>   -20.9931    77.8334     8.0000 </r>
       <r>   -20.8903     0.0000     8.0000 </r>
       <r>   -20.7875     0.0000     8.0000 </r>
       <r>   -20.6848     0.0000     8.0000 </r>
       <r>   -20.5820     0.0000     8.0000 </r>
       <r>   -20.4792     0.0000     8.0000 </r>
       <r>   -20.3764     0.0000     8.0000 </r>
       <r>   -20.2736     0.0000     8.0000 </r>
       <r>   -20.1708     0.0000     8.0000 </r>
       <r>   -20.0681     0.0000     8.0000 </r>
       <r>   -19.9653     0.0000     8.0000 </r>
       <r>   -19.8625     0.0000     8.0000 </r>
       <r>   -19.7597     0.0000     8.0000 </r>
       <r>   -19.6569     0.0000     8.0000 </r>
       <r>   -19.5541     0.0000     8.0000 </r>
       <r>   -19.4514     0.0000     8.0000 </r>
       <r>   -19.3486     0.0000     8.0000 </r>
       <r>   -19.2458     0.0000     8.0000 </r>
       <r>   -19.1430     0.0000     8.0000 </r>
       <r>   -19.0402     0.0000     8.0000 </r>
       <r>   -18.9374     0.0000     8.0000 </r>
       <r>   -18.8346     0.0000     8.0000 </r>
       <r>   -18.7319     0.0000     8.0000 </r>
       <r>   -18.6291     0.0000     8.0000 </r>
       <r>   -18.5263     0.0000     8.0000 </r>
       <r>   -18.4235     0.0000     8.0000 </r>
       <r>   -18.3207     0.0000     8.0000 </r>
       <r>   -18.2179     0.0000     8.0000 </r>
       <r>   -18.1152     0.0000     8.0000 </r>
       <r>   -18.0124     0.0000     8.0000 </r>
       <r>   -17.9096     0.0000     8.0000 </r>
       <r>   -17.8068     0.0000     8.0000 </r>
       <r>   -17.7040     0.0000     8.0000 </r>
       <r>   -17.6012     0.0000     8.0000 </r>
       <r>   -17.4985     0.0000     8.0000 </r>
       <r>   -17.3957     0.0000     8.0000 </r>
       <r>   -17.2929     0.0000     8.0000 </r>
       <r>   -17.1901     0.0000     8.0000 </r>
       <r>   -17.0873     0.0000     8.0000 </r>
       <r>   -16.9845     0.0000     8.0000 </r>
       <r>   -16.8818     0.0000     8.0000 </r>
       <r>   -16.7790     0.0003     8.0000 </r>
       <r>   -16.6762   129.0582    21.2651 </r>
       <r>   -16.5734   233.4714    47.9970 </r>
       <r>   -16.4706     0.0000    48.0000 </r>
       <r>   -16.3678     0.0000    48.0000 </r>
       <r>   -16.2651     0.0000    48.0000 </r>
       <r>   -16.1623     0.0000    48.0000 </r>
       <r>   -16.0595     0.0000    48.0000 </r>
       <r>   -15.9567     0.0000    48.0000 </r>
       <r>   -15.8539     0.0000    48.0000 </r>
       <r>   -15.7511     0.0000    48.0000 </r>
       <r>   -15.6484     0.0000    48.0000 </r>
       <r>   -15.5456     0.0000    48.0000 </r>
       <r>   -15.4428     0.0000    48.0000 </r>
       <r>   -15.3400     0.0000    48.0000 </r>
       <r>   -15.2372     0.0000    48.0000 </r>
       <r>   -15.1344     0.0000    48.0000 </r>
       <r>   -15.0317     0.0000    48.0000 </r>
       <r>   -14.9289     0.0000    48.0000 </r>
       <r>   -14.8261     0.0000    48.0000 </r>
       <r>   -14.7233     0.0000    48.0000 </r>
       <r>   -14.6205     0.0000    48.0000 </r>
       <r>   -14.5177     0.0000    48.0000 </r>
       <r>   -14.4150     5.3055    48.5453 </r>
       <r>   -14.3122    25.4435    51.3929 </r>
       <r>   -14.2094    27.7355    56.0731 </r>
       <r>   -14.1066    23.1776    58.9378 </r>
       <r>   -14.0038    63.4127    66.6289 </r>
       <r>   -13.9010    42.0446    71.7659 </r>
       <r>   -13.7983     0.0000    72.0000 </r>
       <r>   -13.6955     0.0000    72.0000 </r>
       <r>   -13.5927     0.0000    72.0000 </r>
       <r>   -13.4899     0.0000    72.0000 </r>
       <r>   -13.3871     0.0000    72.0000 </r>
       <r>   -13.2843     0.0000    72.0000 </r>
       <r>   -13.1816     0.0000    72.0000 </r>
       <r>   -13.0788     0.0000    72.0000 </r>
       <r>   -12.9760     0.0000    72.0000 </r>
       <r>   -12.8732     0.0000    72.0000 </r>
       <r>   -12.7704     0.0000    72.0000 </r>
       <r>   -12.6676     0.0000    72.0000 </r>
       <r>   -12.5649     0.0000    72.0000 </r>
       <r>   -12.4621     0.0000    72.0000 </r>
       <r>   -12.3593     0.0000    72.0000 </r>
       <r>   -12.2565     0.0000    72.0000 </r>
       <r>   -12.1537     0.0000    72.0000 </r>
       <r>   -12.0509     0.0000    72.0000 </r>
       <r>   -11.9482     0.0000    72.0000 </r>
       <r>   -11.8454     0.0000    72.0000 </r>
       <r>   -11.7426     0.0000    72.0000 </r>
       <r>   -11.6398     0.0000    72.0000 </r>
       <r>   -11.5370     0.0000    72.0000 </r>
       <r>   -11.4342     0.0000    72.0000 </r>
       <r>   -11.3314     0.0000    72.0000 </r>
       <r>   -11.2287     0.0000    72.0000 </r>
       <r>   -11.1259     0.0000    72.0000 </r>
       <r>   -11.0231     0.0000    72.0000 </r>
       <r>   -10.9203     0.0000    72.0000 </r>
       <r>   -10.8175     0.0000    72.0000 </r>
       <r>   -10.7147     0.0000    72.0000 </r>
       <r>   -10.6120     0.0000    72.0000 </r>
       <r>   -10.5092     0.0000    72.0000 </r>
       <r>   -10.4064     0.0000    72.0000 </r>
       <r>   -10.3036     0.0000    72.0000 </r>
       <r>   -10.2008     0.0000    72.0000 </r>
       <r>   -10.0980     0.0000    72.0000 </r>
       <r>    -9.9953     0.0000    72.0000 </r>
       <r>    -9.8925     0.0000    72.0000 </r>
       <r>    -9.7897     0.0000    72.0000 </r>
       <r>    -9.6869     0.0000    72.0000 </r>
       <r>    -9.5841     0.0000    72.0000 </r>
       <r>    -9.4813     0.0000    72.0000 </r>
       <r>    -9.3786     0.0000    72.0000 </r>
       <r>    -9.2758     0.0000    72.0000 </r>
       <r>    -9.1730     0.0000    72.0000 </r>
       <r>    -9.0702     0.0000    72.0000 </r>
       <r>    -8.9674     0.0000    72.0000 </r>
       <r>    -8.8646     0.0000    72.0000 </r>
       <r>    -8.7619     0.0000    72.0000 </r>
       <r>    -8.6591     0.0000    72.0000 </r>
       <r>    -8.5563     0.0000    72.0000 </r>
       <r>    -8.4535     0.0000    72.0000 </r>
       <r>    -8.3507     0.0001    72.0000 </r>
       <r>    -8.2479     1.0809    72.1111 </r>
       <r>    -8.1452     1.7358    72.2895 </r>
       <r>    -8.0424     2.8886    72.8525 </r>
       <r>    -7.9396     0.0000    73.2222 </r>
       <r>    -7.8368     9.5985    74.2088 </r>
       <r>    -7.7340    12.3444    75.8244 </r>
       <r>    -7.6312     0.0023    76.0002 </r>
       <r>    -7.5285    10.8102    77.3333 </r>
       <r>    -7.4257    71.3114    84.6630 </r>
       <r>    -7.3229    91.8848   102.7778 </r>
       <r>    -7.2201     0.7856   102.8585 </r>
       <r>    -7.1173     0.7747   103.5241 </r>
       <r>    -7.0145     0.0000   103.8889 </r>
       <r>    -6.9118     0.0000   103.8889 </r>
       <r>    -6.8090     1.0789   103.9998 </r>
       <r>    -6.7062     0.0000   104.0000 </r>
       <r>    -6.6034     0.0000   104.0000 </r>
       <r>    -6.5006     0.0000   104.0000 </r>
       <r>    -6.3978     0.0000   104.0000 </r>
       <r>    -6.2951     0.0000   104.0000 </r>
       <r>    -6.1923     0.0000   104.0000 </r>
       <r>    -6.0895     0.0000   104.0000 </r>
       <r>    -5.9867     0.0000   104.0000 </r>
       <r>    -5.8839     0.0000   104.0000 </r>
       <r>    -5.7811     0.0000   104.0000 </r>
       <r>    -5.6784     0.0000   104.0000 </r>
       <r>    -5.5756     0.0000   104.0000 </r>
       <r>    -5.4728     0.0000   104.0000 </r>
       <r>    -5.3700     0.0000   104.0000 </r>
       <r>    -5.2672     0.0000   104.0000 </r>
       <r>    -5.1644     0.0000   104.0000 </r>
       <r>    -5.0617     0.0000   104.0000 </r>
       <r>    -4.9589     0.0000   104.0000 </r>
       <r>    -4.8561     0.0000   104.0000 </r>
       <r>    -4.7533     0.0000   104.0000 </r>
       <r>    -4.6505     0.0000   104.0000 </r>
       <r>    -4.5477     0.0000   104.0000 </r>
       <r>    -4.4449     0.0000   104.0000 </r>
       <r>    -4.3422     0.0000   104.0000 </r>
       <r>    -4.2394     0.0000   104.0000 </r>
       <r>    -4.1366     0.0000   104.0000 </r>
       <r>    -4.0338     0.0000   104.0000 </r>
       <r>    -3.9310     0.0000   104.0000 </r>
       <r>    -3.8282     0.0000   104.0000 </r>
       <r>    -3.7255     0.0000   104.0000 </r>
       <r>    -3.6227     0.0000   104.0000 </r>
       <r>    -3.5199     0.0646   104.0066 </r>
       <r>    -3.4171    13.4132   105.4898 </r>
       <r>    -3.3143     1.6302   106.0564 </r>
       <r>    -3.2115     8.6483   107.1111 </r>
       <r>    -3.1088    10.8376   108.2251 </r>
       <r>    -3.0060     4.3241   109.1111 </r>
       <r>    -2.9032    20.4934   111.2175 </r>
       <r>    -2.8004    15.1698   113.1148 </r>
       <r>    -2.6976    14.2321   114.7962 </r>
       <r>    -2.5948    10.8134   116.0004 </r>
       <r>    -2.4921    19.4548   118.0000 </r>
       <r>    -2.3893     2.1622   118.2222 </r>
       <r>    -2.2865    10.8225   119.3346 </r>
       <r>    -2.1837    22.7132   122.1127 </r>
       <r>    -2.0809    29.4871   126.2530 </r>
       <r>    -1.9781    11.0573   127.6921 </r>
       <r>    -1.8754     9.4626   128.8615 </r>
       <r>    -1.7726    38.8943   133.5533 </r>
       <r>    -1.6698    20.5858   136.6714 </r>
       <r>    -1.5670    39.1678   142.9147 </r>
       <r>    -1.4642    59.4241   149.7745 </r>
       <r>    -1.3614    52.3740   156.6055 </r>
       <r>    -1.2587    59.2057   163.4193 </r>
       <r>    -1.1559    28.5952   167.9392 </r>
       <r>    -1.0531     6.4923   168.6673 </r>
       <r>    -0.9503    23.6421   171.3191 </r>
       <r>    -0.8475     9.7669   172.4485 </r>
       <r>    -0.7447    12.9722   174.2222 </r>
       <r>    -0.6420     0.7898   174.3034 </r>
       <r>    -0.5392     0.5492   174.7231 </r>
       <r>    -0.4364     0.0010   174.7779 </r>
       <r>    -0.3336    10.7973   175.8877 </r>
       <r>    -0.2308     0.0000   175.8889 </r>
       <r>    -0.1280     0.0000   175.8889 </r>
       <r>    -0.0253     0.0000   175.8889 </r>
       <r>     0.0775     0.0002   175.8889 </r>
       <r>     0.1803     1.0808   176.0000 </r>
       <r>     0.2831     0.0000   176.0000 </r>
       <r>     0.3859     0.0000   176.0000 </r>
       <r>     0.4887     0.0000   176.0000 </r>
       <r>     0.5914     0.0000   176.0000 </r>
       <r>     0.6942     0.0000   176.0000 </r>
       <r>     0.7970     0.0000   176.0000 </r>
       <r>     0.8998     0.0000   176.0000 </r>
       <r>     1.0026     0.0000   176.0000 </r>
       <r>     1.1054     0.0000   176.0000 </r>
       <r>     1.2081     0.0000   176.0000 </r>
       <r>     1.3109     0.0000   176.0000 </r>
       <r>     1.4137     0.0000   176.0000 </r>
       <r>     1.5165     0.0000   176.0000 </r>
       <r>     1.6193     0.0000   176.0000 </r>
       <r>     1.7221     0.0000   176.0000 </r>
       <r>     1.8248     0.0000   176.0000 </r>
       <r>     1.9276     0.0000   176.0000 </r>
       <r>     2.0304     0.0000   176.0000 </r>
       <r>     2.1332     0.0000   176.0000 </r>
       <r>     2.2360     0.0000   176.0000 </r>
       <r>     2.3388     0.6623   176.0681 </r>
       <r>     2.4415     0.0000   176.1111 </r>
       <r>     2.5443     3.0550   176.4251 </r>
       <r>     2.6471     0.0192   176.4464 </r>
       <r>     2.7499     3.2430   177.3333 </r>
       <r>     2.8527     1.4939   177.4869 </r>
       <r>     2.9555     5.1345   179.1944 </r>
       <r>     3.0583     4.3156   179.6658 </r>
       <r>     3.1610    10.8102   180.7778 </r>
       <r>     3.2638     4.3232   181.2221 </r>
       <r>     3.3666     8.7001   182.1165 </r>
       <r>     3.4694     9.7238   183.3328 </r>
       <r>     3.5722     6.4859   184.0000 </r>
       <r>     3.6750    12.9778   185.3339 </r>
       <r>     3.7777     0.0139   185.5570 </r>
       <r>     3.8805     0.0000   186.0000 </r>
       <r>     3.9833     0.0000   186.0000 </r>
       <r>     4.0861     0.0000   186.0000 </r>
       <r>     4.1889     0.9479   186.0974 </r>
       <r>     4.2917     0.0518   186.2275 </r>
       <r>     4.3944     4.6947   187.1492 </r>
       <r>     4.4972     4.3549   188.4476 </r>
       <r>     4.6000     9.9388   190.3549 </r>
       <r>     4.7028    11.9169   192.1140 </r>
       <r>     4.8056    22.1349   194.6085 </r>
       <r>     4.9084     4.2552   195.2151 </r>
       <r>     5.0111     2.1617   195.4444 </r>
       <r>     5.1139     0.0002   195.4445 </r>
       <r>     5.2167     4.3239   195.8889 </r>
       <r>     5.3195     9.0908   196.8233 </r>
       <r>     5.4223     5.4778   197.4519 </r>
       <r>     5.5251     4.2454   198.1030 </r>
       <r>     5.6278     8.6480   199.0000 </r>
       <r>     5.7306     1.8314   199.1882 </r>
       <r>     5.8334    13.4355   201.1587 </r>
       <r>     5.9362     0.0000   201.4444 </r>
       <r>     6.0390    21.3115   203.6349 </r>
       <r>     6.1418    12.9505   205.5534 </r>
       <r>     6.2445    26.7400   208.7484 </r>
       <r>     6.3473    11.7470   210.5408 </r>
       <r>     6.4501    15.3799   212.9141 </r>
       <r>     6.5529    23.1918   215.8282 </r>
       <r>     6.6557    27.1072   218.8973 </r>
       <r>     6.7585    27.4395   222.3759 </r>
       <r>     6.8612     2.1622   223.1111 </r>
       <r>     6.9640     4.3239   223.5556 </r>
       <r>     7.0668     4.3241   224.0000 </r>
       <r>     7.1696     0.0000   224.0000 </r>
       <r>     7.2724     0.0000   224.0000 </r>
       <r>     7.3752     0.0000   224.0000 </r>
       <r>     7.4779     0.0000   224.0000 </r>
       <r>     7.5807     0.0000   224.0000 </r>
       <r>     7.6835     0.0000   224.0000 </r>
       <r>     7.7863     0.0000   224.0000 </r>
       <r>     7.8891     0.0000   224.0000 </r>
       <r>     7.9919     0.0000   224.0000 </r>
       <r>     8.0946     0.0000   224.0000 </r>
       <r>     8.1974     0.0000   224.0000 </r>
       <r>     8.3002     0.0000   224.0000 </r>
       <r>     8.4030     0.0000   224.0000 </r>
      </set>
     </set>
    </array>
   </total>
   <partial>
    <array>
     <dimension dim="1">gridpoints</dimension>
     <dimension dim="2">spin</dimension>
     <dimension dim="3">ion</dimension>
     <field>energy</field>
     <field>  s  </field>
     <field>  p  </field>
     <field>  d  </field>
     <set>
      <set comment="ion 1">
       <set comment="spin 1">
        <r>   -22.4321     0.0000     0.0000     0.0000 </r>
        <r>   -22.3293     0.0000     0.0000     0.0000 </r>
        <r>   -22.2265     0.0000     0.0000     0.0000 </r>
        <r>   -22.1237     0.0000     0.0000     0.0000 </r>
        <r>   -22.0209     0.0000     0.0000     0.0000 </r>
        <r>   -21.9182     0.0000     0.0000     0.0000 </r>
        <r>   -21.8154     0.0000     0.0000     0.0000 </r>
        <r>   -21.7126     0.0000     0.0000     0.0000 </r>
        <r>   -21.6098     0.0000     0.0000     0.0000 </r>
        <r>   -21.5070     0.0000     0.0000     0.0000 </r>
        <r>   -21.4042     0.0000     0.0000     0.0000 </r>
        <r>   -21.3015     0.0000     0.0000     0.0000 </r>
        <r>   -21.1987     0.0000     0.0000     0.0000 </r>
        <r>   -21.0959     0.0000     0.0000     0.0000 </r>
[...]
        <r>  0.0000  0.0002  0.0002 </r>
        <r>  0.0020  0.1051  0.0009 </r>
        <r>  0.0018  0.0998  0.0011 </r>
        <r>  0.0015  0.0765  0.0007 </r>
        <r>  0.0012  0.0742  0.0008 </r>
        <r>  0.0002  0.0038  0.0015 </r>
        <r>  0.0004  0.0062  0.0009 </r>
        <r>  0.0002  0.0040  0.0014 </r>
        <r>  0.0003  0.0060  0.0009 </r>
        <r>  0.0056  0.0153  0.0029 </r>
        <r>  0.0002  0.0051  0.0002 </r>
        <r>  0.0002  0.0070  0.0004 </r>
        <r>  0.0076  0.0212  0.0040 </r>
        <r>  0.0079  0.0213  0.0039 </r>
        <r>  0.0001  0.0067  0.0003 </r>
        <r>  0.0053  0.0151  0.0031 </r>
        <r>  0.0002  0.0054  0.0003 </r>
       </set>
       <set comment="band 93">
        <r>  0.0000  0.0001  0.0002 </r>
        <r>  0.0004  0.0001  0.0005 </r>
        <r>  0.0000  0.0000  0.0002 </r>
        <r>  0.0000  0.0004  0.0015 </r>
        <r>  0.0013  0.0765  0.0014 </r>
        <r>  0.0019  0.0734  0.0019 </r>
        <r>  0.0014  0.1020  0.0014 </r>
        <r>  0.0012  0.0710  0.0016 </r>
        <r>  0.0116  0.0030  0.0054 </r>
        <r>  0.0002  0.0555  0.0010 </r>
        <r>  0.0099  0.0022  0.0047 </r>
        <r>  0.0002  0.0644  0.0009 </r>
        <r>  0.0001  0.0088  0.0014 </r>
        <r>  0.0000  0.0011  0.0017 </r>
        <r>  0.0000  0.0011  0.0017 </r>
        <r>  0.0011  0.0036  0.0007 </r>
        <r>  0.0000  0.0083  0.0013 </r>
        <r>  0.0000  0.0009  0.0015 </r>
        <r>  0.0011  0.0041  0.0007 </r>
        <r>  0.0000  0.0013  0.0020 </r>
       </set>
       <set comment="band 94">
        <r>  0.0000  0.0004  0.0015 </r>
        <r>  0.0000  0.0000  0.0002 </r>
        <r>  0.0004  0.0001  0.0005 </r>
        <r>  0.0000  0.0001  0.0002 </r>
        <r>  0.0012  0.0710  0.0016 </r>
        <r>  0.0014  0.1020  0.0014 </r>
        <r>  0.0019  0.0734  0.0019 </r>
        <r>  0.0013  0.0765  0.0014 </r>
        <r>  0.0002  0.0644  0.0009 </r>
        <r>  0.0099  0.0022  0.0047 </r>
        <r>  0.0002  0.0555  0.0010 </r>
        <r>  0.0116  0.0030  0.0054 </r>
        <r>  0.0011  0.0036  0.0007 </r>
        <r>  0.0000  0.0011  0.0017 </r>
        <r>  0.0000  0.0011  0.0017 </r>
        <r>  0.0001  0.0088  0.0014 </r>
        <r>  0.0011  0.0041  0.0007 </r>
        <r>  0.0000  0.0013  0.0020 </r>
        <r>  0.0000  0.0083  0.0013 </r>
        <r>  0.0000  0.0009  0.0015 </r>
       </set>
       <set comment="band 95">
        <r>  0.0000  0.0001  0.0008 </r>
        <r>  0.0001  0.0010  0.0007 </r>
        <r>  0.0000  0.0001  0.0007 </r>
        <r>  0.0001  0.0007  0.0004 </r>
        <r>  0.0024  0.1087  0.0009 </r>
        <r>  0.0033  0.0618  0.0009 </r>
        <r>  0.0017  0.0721  0.0009 </r>
        <r>  0.0049  0.0692  0.0012 </r>
        <r>  0.0067  0.0014  0.0027 </r>
        <r>  0.0003  0.0507  0.0007 </r>
        <r>  0.0094  0.0020  0.0040 </r>
        <r>  0.0002  0.0347  0.0006 </r>
        <r>  0.0019  0.0152  0.0010 </r>
        <r>  0.0001  0.0009  0.0011 </r>
        <r>  0.0002  0.0042  0.0014 </r>
        <r>  0.0008  0.0180  0.0027 </r>
        <r>  0.0021  0.0164  0.0014 </r>
        <r>  0.0000  0.0014  0.0011 </r>
        <r>  0.0007  0.0168  0.0023 </r>
        <r>  0.0002  0.0037  0.0013 </r>
       </set>
       <set comment="band 96">
        <r>  0.0001  0.0007  0.0004 </r>
        <r>  0.0000  0.0001  0.0007 </r>
        <r>  0.0001  0.0010  0.0007 </r>
        <r>  0.0000  0.0001  0.0008 </r>
        <r>  0.0049  0.0692  0.0012 </r>
        <r>  0.0017  0.0721  0.0009 </r>
        <r>  0.0033  0.0618  0.0009 </r>
        <r>  0.0024  0.1087  0.0009 </r>
        <r>  0.0002  0.0347  0.0006 </r>
        <r>  0.0094  0.0020  0.0040 </r>
        <r>  0.0003  0.0507  0.0007 </r>
        <r>  0.0067  0.0014  0.0027 </r>
        <r>  0.0008  0.0180  0.0027 </r>
        <r>  0.0002  0.0042  0.0014 </r>
        <r>  0.0001  0.0009  0.0011 </r>
        <r>  0.0019  0.0152  0.0010 </r>
        <r>  0.0007  0.0168  0.0023 </r>
        <r>  0.0002  0.0037  0.0013 </r>
        <r>  0.0021  0.0164  0.0014 </r>
        <r>  0.0000  0.0014  0.0011 </r>
       </set>
       <set comment="band 97">
        <r>  0.0000  0.0000  0.0009 </r>
        <r>  0.0002  0.0005  0.0009 </r>
        <r>  0.0000  0.0001  0.0017 </r>
        <r>  0.0005  0.0003  0.0002 </r>
        <r>  0.0020  0.0913  0.0010 </r>
        <r>  0.0029  0.0977  0.0009 </r>
        <r>  0.0025  0.0680  0.0010 </r>
        <r>  0.0018  0.0618  0.0010 </r>
        <r>  0.0062  0.0054  0.0020 </r>
        <r>  0.0000  0.0185  0.0034 </r>
        <r>  0.0051  0.0049  0.0016 </r>
        <r>  0.0001  0.0264  0.0037 </r>
        <r>  0.0012  0.0204  0.0014 </r>
        <r>  0.0001  0.0014  0.0008 </r>
        <r>  0.0003  0.0050  0.0010 </r>
        <r>  0.0028  0.0308  0.0006 </r>
        <r>  0.0020  0.0303  0.0017 </r>
        <r>  0.0001  0.0025  0.0011 </r>
        <r>  0.0021  0.0209  0.0004 </r>
        <r>  0.0002  0.0039  0.0007 </r>
       </set>
       <set comment="band 98">
        <r>  0.0005  0.0003  0.0002 </r>
        <r>  0.0000  0.0001  0.0017 </r>
        <r>  0.0002  0.0005  0.0009 </r>
        <r>  0.0000  0.0000  0.0009 </r>
        <r>  0.0018  0.0618  0.0010 </r>
        <r>  0.0025  0.0680  0.0010 </r>
        <r>  0.0029  0.0977  0.0009 </r>
        <r>  0.0020  0.0913  0.0010 </r>
        <r>  0.0001  0.0264  0.0037 </r>
        <r>  0.0051  0.0049  0.0016 </r>
        <r>  0.0000  0.0185  0.0034 </r>
        <r>  0.0062  0.0054  0.0020 </r>
        <r>  0.0028  0.0308  0.0006 </r>
        <r>  0.0003  0.0050  0.0010 </r>
        <r>  0.0001  0.0014  0.0008 </r>
        <r>  0.0012  0.0204  0.0014 </r>
        <r>  0.0021  0.0209  0.0004 </r>
        <r>  0.0002  0.0039  0.0007 </r>
        <r>  0.0020  0.0303  0.0017 </r>
        <r>  0.0001  0.0025  0.0011 </r>
       </set>
       <set comment="band 99">
        <r>  0.0000  0.0001  0.0006 </r>
        <r>  0.0000  0.0001  0.0011 </r>
        <r>  0.0000  0.0002  0.0010 </r>
        <r>  0.0000  0.0000  0.0015 </r>
        <r>  0.0000  0.0214  0.0004 </r>
        <r>  0.0000  0.0218  0.0004 </r>
        <r>  0.0000  0.1423  0.0003 </r>
        <r>  0.0000  0.1382  0.0003 </r>
        <r>  0.0000  0.0005  0.0031 </r>
        <r>  0.0001  0.0037  0.0009 </r>
        <r>  0.0000  0.0010  0.0033 </r>
        <r>  0.0001  0.0025  0.0009 </r>
        <r>  0.0000  0.0013  0.0036 </r>
        <r>  0.0000  0.0915  0.0012 </r>
        <r>  0.0000  0.0145  0.0006 </r>
        <r>  0.0000  0.0005  0.0005 </r>
        <r>  0.0000  0.0005  0.0006 </r>
        <r>  0.0000  0.0140  0.0002 </r>
        <r>  0.0000  0.0014  0.0034 </r>
        <r>  0.0000  0.0921  0.0015 </r>
       </set>
       <set comment="band 100">
        <r>  0.0000  0.0000  0.0015 </r>
        <r>  0.0000  0.0002  0.0010 </r>
        <r>  0.0000  0.0001  0.0011 </r>
        <r>  0.0000  0.0001  0.0006 </r>
        <r>  0.0000  0.1382  0.0003 </r>
        <r>  0.0000  0.1423  0.0003 </r>
        <r>  0.0000  0.0218  0.0004 </r>
        <r>  0.0000  0.0214  0.0004 </r>
        <r>  0.0001  0.0025  0.0009 </r>
        <r>  0.0000  0.0010  0.0033 </r>
        <r>  0.0001  0.0037  0.0009 </r>
        <r>  0.0000  0.0005  0.0031 </r>
        <r>  0.0000  0.0005  0.0005 </r>
        <r>  0.0000  0.0145  0.0006 </r>
        <r>  0.0000  0.0915  0.0012 </r>
        <r>  0.0000  0.0013  0.0036 </r>
        <r>  0.0000  0.0014  0.0034 </r>
        <r>  0.0000  0.0921  0.0015 </r>
        <r>  0.0000  0.0005  0.0006 </r>
        <r>  0.0000  0.0140  0.0002 </r>
       </set>
       <set comment="band 101">
        <r>  0.0138  0.0026  0.0100 </r>
        <r>  0.0000  0.0021  0.0156 </r>
        <r>  0.0123  0.0024  0.0054 </r>
        <r>  0.0000  0.0029  0.0074 </r>
        <r>  0.0002  0.0046  0.0002 </r>
        <r>  0.0003  0.0081  0.0002 </r>
        <r>  0.0003  0.0082  0.0002 </r>
        <r>  0.0002  0.0046  0.0002 </r>
        <r>  0.0000  0.0056  0.0003 </r>
        <r>  0.0012  0.0055  0.0018 </r>
        <r>  0.0000  0.0040  0.0001 </r>
        <r>  0.0009  0.0040  0.0019 </r>
        <r>  0.0027  0.0029  0.0025 </r>
        <r>  0.0027  0.0027  0.0019 </r>
        <r>  0.0055  0.0046  0.0017 </r>
        <r>  0.0014  0.0048  0.0013 </r>
        <r>  0.0027  0.0029  0.0025 </r>
        <r>  0.0026  0.0026  0.0019 </r>
        <r>  0.0014  0.0047  0.0013 </r>
        <r>  0.0056  0.0046  0.0018 </r>
       </set>
       <set comment="band 102">
        <r>  0.0000  0.0029  0.0074 </r>
        <r>  0.0123  0.0024  0.0054 </r>
        <r>  0.0000  0.0021  0.0156 </r>
        <r>  0.0138  0.0026  0.0100 </r>
        <r>  0.0002  0.0046  0.0002 </r>
        <r>  0.0003  0.0082  0.0002 </r>
        <r>  0.0003  0.0081  0.0002 </r>
        <r>  0.0002  0.0046  0.0002 </r>
        <r>  0.0009  0.0040  0.0019 </r>
        <r>  0.0000  0.0040  0.0001 </r>
        <r>  0.0012  0.0055  0.0018 </r>
        <r>  0.0000  0.0056  0.0003 </r>
        <r>  0.0014  0.0048  0.0013 </r>
        <r>  0.0055  0.0046  0.0017 </r>
        <r>  0.0027  0.0027  0.0019 </r>
        <r>  0.0027  0.0029  0.0025 </r>
        <r>  0.0014  0.0047  0.0013 </r>
        <r>  0.0056  0.0046  0.0018 </r>
        <r>  0.0027  0.0029  0.0025 </r>
        <r>  0.0026  0.0026  0.0019 </r>
       </set>
       <set comment="band 103">
        <r>  0.0033  0.0013  0.0128 </r>
        <r>  0.0018  0.0011  0.0259 </r>
        <r>  0.0027  0.0016  0.0371 </r>
        <r>  0.0022  0.0011  0.0117 </r>
        <r>  0.0000  0.0130  0.0002 </r>
        <r>  0.0001  0.0008  0.0005 </r>
        <r>  0.0000  0.0073  0.0003 </r>
        <r>  0.0000  0.0063  0.0009 </r>
        <r>  0.0003  0.0050  0.0025 </r>
        <r>  0.0016  0.0029  0.0039 </r>
        <r>  0.0011  0.0026  0.0029 </r>
        <r>  0.0004  0.0066  0.0035 </r>
        <r>  0.0000  0.0048  0.0010 </r>
        <r>  0.0011  0.0008  0.0017 </r>
        <r>  0.0009  0.0014  0.0020 </r>
        <r>  0.0002  0.0055  0.0022 </r>
        <r>  0.0002  0.0058  0.0022 </r>
        <r>  0.0011  0.0013  0.0019 </r>
        <r>  0.0000  0.0045  0.0009 </r>
        <r>  0.0009  0.0008  0.0018 </r>
       </set>
       <set comment="band 104">
        <r>  0.0022  0.0011  0.0117 </r>
        <r>  0.0027  0.0016  0.0371 </r>
        <r>  0.0018  0.0011  0.0259 </r>
        <r>  0.0033  0.0014  0.0128 </r>
        <r>  0.0000  0.0063  0.0009 </r>
        <r>  0.0000  0.0073  0.0003 </r>
        <r>  0.0001  0.0008  0.0005 </r>
        <r>  0.0000  0.0130  0.0002 </r>
        <r>  0.0004  0.0066  0.0035 </r>
        <r>  0.0011  0.0026  0.0029 </r>
        <r>  0.0016  0.0029  0.0039 </r>
        <r>  0.0003  0.0050  0.0025 </r>
        <r>  0.0002  0.0055  0.0022 </r>
        <r>  0.0009  0.0014  0.0020 </r>
        <r>  0.0011  0.0008  0.0017 </r>
        <r>  0.0000  0.0048  0.0010 </r>
        <r>  0.0000  0.0045  0.0009 </r>
        <r>  0.0009  0.0008  0.0018 </r>
        <r>  0.0002  0.0058  0.0022 </r>
        <r>  0.0011  0.0013  0.0019 </r>
       </set>
       <set comment="band 105">
        <r>  0.0001  0.0007  0.0305 </r>
        <r>  0.0013  0.0021  0.0162 </r>
        <r>  0.0006  0.0017  0.0155 </r>
        <r>  0.0003  0.0014  0.0517 </r>
        <r>  0.0001  0.0018  0.0007 </r>
        <r>  0.0000  0.0102  0.0005 </r>
        <r>  0.0000  0.0015  0.0016 </r>
        <r>  0.0000  0.0021  0.0012 </r>
        <r>  0.0018  0.0033  0.0047 </r>
        <r>  0.0000  0.0034  0.0017 </r>
        <r>  0.0000  0.0060  0.0032 </r>
        <r>  0.0008  0.0019  0.0026 </r>
        <r>  0.0009  0.0033  0.0016 </r>
        <r>  0.0001  0.0030  0.0024 </r>
        <r>  0.0018  0.0013  0.0016 </r>
        <r>  0.0010  0.0024  0.0020 </r>
        <r>  0.0016  0.0012  0.0018 </r>
        <r>  0.0015  0.0017  0.0019 </r>
        <r>  0.0003  0.0045  0.0017 </r>
        <r>  0.0004  0.0026  0.0021 </r>
       </set>
       <set comment="band 106">
        <r>  0.0003  0.0014  0.0517 </r>
        <r>  0.0006  0.0017  0.0155 </r>
        <r>  0.0013  0.0021  0.0162 </r>
        <r>  0.0001  0.0007  0.0305 </r>
        <r>  0.0000  0.0021  0.0012 </r>
        <r>  0.0000  0.0015  0.0016 </r>
        <r>  0.0000  0.0102  0.0005 </r>
        <r>  0.0001  0.0018  0.0007 </r>
        <r>  0.0008  0.0019  0.0026 </r>
        <r>  0.0000  0.0060  0.0032 </r>
        <r>  0.0000  0.0034  0.0017 </r>
        <r>  0.0018  0.0033  0.0047 </r>
        <r>  0.0010  0.0024  0.0020 </r>
        <r>  0.0018  0.0013  0.0016 </r>
        <r>  0.0001  0.0030  0.0024 </r>
        <r>  0.0009  0.0033  0.0016 </r>
        <r>  0.0003  0.0045  0.0017 </r>
        <r>  0.0004  0.0026  0.0021 </r>
        <r>  0.0016  0.0012  0.0018 </r>
        <r>  0.0015  0.0017  0.0019 </r>
       </set>
       <set comment="band 107">
        <r>  0.0005  0.0034  0.0554 </r>
        <r>  0.0004  0.0015  0.0068 </r>
        <r>  0.0030  0.0024  0.0196 </r>
        <r>  0.0001  0.0014  0.0335 </r>
        <r>  0.0001  0.0018  0.0008 </r>
        <r>  0.0000  0.0027  0.0014 </r>
        <r>  0.0001  0.0040  0.0006 </r>
        <r>  0.0002  0.0056  0.0006 </r>
        <r>  0.0003  0.0015  0.0011 </r>
        <r>  0.0012  0.0081  0.0022 </r>
        <r>  0.0002  0.0022  0.0010 </r>
        <r>  0.0018  0.0045  0.0020 </r>
        <r>  0.0001  0.0049  0.0030 </r>
        <r>  0.0009  0.0043  0.0035 </r>
        <r>  0.0009  0.0029  0.0039 </r>
        <r>  0.0001  0.0016  0.0012 </r>
        <r>  0.0001  0.0057  0.0025 </r>
        <r>  0.0004  0.0018  0.0025 </r>
        <r>  0.0001  0.0008  0.0017 </r>
        <r>  0.0014  0.0054  0.0049 </r>
       </set>
       <set comment="band 108">
        <r>  0.0001  0.0014  0.0333 </r>
        <r>  0.0030  0.0024  0.0195 </r>
        <r>  0.0004  0.0015  0.0068 </r>
        <r>  0.0005  0.0034  0.0556 </r>
        <r>  0.0002  0.0056  0.0006 </r>
        <r>  0.0001  0.0040  0.0006 </r>
        <r>  0.0000  0.0027  0.0014 </r>
        <r>  0.0001  0.0018  0.0008 </r>
        <r>  0.0018  0.0045  0.0020 </r>
        <r>  0.0002  0.0022  0.0010 </r>
        <r>  0.0012  0.0081  0.0022 </r>
        <r>  0.0003  0.0015  0.0010 </r>
        <r>  0.0001  0.0016  0.0012 </r>
        <r>  0.0009  0.0029  0.0039 </r>
        <r>  0.0009  0.0043  0.0035 </r>
        <r>  0.0001  0.0049  0.0030 </r>
        <r>  0.0001  0.0008  0.0017 </r>
        <r>  0.0014  0.0054  0.0049 </r>
        <r>  0.0001  0.0057  0.0025 </r>
        <r>  0.0004  0.0018  0.0025 </r>
       </set>
       <set comment="band 109">
        <r>  0.0035  0.0037  0.0186 </r>
        <r>  0.0003  0.0008  0.0352 </r>
        <r>  0.0007  0.0009  0.0377 </r>
        <r>  0.0016  0.0021  0.0208 </r>
        <r>  0.0000  0.0063  0.0008 </r>
        <r>  0.0000  0.0027  0.0017 </r>
        <r>  0.0000  0.0061  0.0007 </r>
        <r>  0.0000  0.0074  0.0007 </r>
        <r>  0.0003  0.0029  0.0020 </r>
        <r>  0.0006  0.0066  0.0028 </r>
        <r>  0.0003  0.0057  0.0020 </r>
        <r>  0.0006  0.0032  0.0023 </r>
        <r>  0.0034  0.0048  0.0044 </r>
        <r>  0.0000  0.0029  0.0009 </r>
        <r>  0.0011  0.0020  0.0031 </r>
        <r>  0.0005  0.0006  0.0023 </r>
        <r>  0.0011  0.0014  0.0034 </r>
        <r>  0.0010  0.0007  0.0024 </r>
        <r>  0.0028  0.0040  0.0032 </r>
        <r>  0.0001  0.0041  0.0017 </r>
       </set>
       <set comment="band 110">
        <r>  0.0017  0.0021  0.0210 </r>
        <r>  0.0007  0.0009  0.0377 </r>
        <r>  0.0004  0.0008  0.0352 </r>
        <r>  0.0034  0.0038  0.0184 </r>
        <r>  0.0000  0.0074  0.0007 </r>
        <r>  0.0000  0.0061  0.0007 </r>
        <r>  0.0000  0.0027  0.0017 </r>
        <r>  0.0000  0.0063  0.0008 </r>
        <r>  0.0006  0.0032  0.0023 </r>
        <r>  0.0003  0.0057  0.0020 </r>
        <r>  0.0005  0.0066  0.0027 </r>
        <r>  0.0003  0.0030  0.0020 </r>
        <r>  0.0005  0.0006  0.0023 </r>
        <r>  0.0011  0.0020  0.0031 </r>
        <r>  0.0000  0.0029  0.0009 </r>
        <r>  0.0035  0.0048  0.0044 </r>
        <r>  0.0028  0.0040  0.0032 </r>
        <r>  0.0001  0.0041  0.0017 </r>
        <r>  0.0011  0.0015  0.0034 </r>
        <r>  0.0010  0.0007  0.0024 </r>
       </set>
       <set comment="band 111">
        <r>  0.0006  0.0013  0.0193 </r>
        <r>  0.0022  0.0051  0.0446 </r>
        <r>  0.0006  0.0022  0.0235 </r>
        <r>  0.0022  0.0022  0.0256 </r>
        <r>  0.0000  0.0017  0.0008 </r>
        <r>  0.0004  0.0066  0.0002 </r>
        <r>  0.0001  0.0035  0.0003 </r>
        <r>  0.0000  0.0053  0.0003 </r>
        <r>  0.0004  0.0084  0.0013 </r>
        <r>  0.0001  0.0022  0.0015 </r>
        <r>  0.0002  0.0045  0.0019 </r>
        <r>  0.0001  0.0036  0.0009 </r>
        <r>  0.0009  0.0023  0.0021 </r>
        <r>  0.0011  0.0049  0.0043 </r>
        <r>  0.0015  0.0032  0.0010 </r>
        <r>  0.0023  0.0035  0.0032 </r>
        <r>  0.0023  0.0024  0.0025 </r>
        <r>  0.0023  0.0060  0.0031 </r>
        <r>  0.0010  0.0035  0.0028 </r>
        <r>  0.0002  0.0022  0.0021 </r>
       </set>
       <set comment="band 112">
        <r>  0.0024  0.0024  0.0258 </r>
        <r>  0.0006  0.0022  0.0237 </r>
        <r>  0.0025  0.0051  0.0421 </r>
        <r>  0.0006  0.0012  0.0193 </r>
        <r>  0.0000  0.0054  0.0003 </r>
        <r>  0.0001  0.0036  0.0003 </r>
        <r>  0.0004  0.0067  0.0002 </r>
        <r>  0.0000  0.0017  0.0008 </r>
        <r>  0.0001  0.0037  0.0009 </r>
        <r>  0.0002  0.0045  0.0019 </r>
        <r>  0.0001  0.0023  0.0015 </r>
        <r>  0.0004  0.0086  0.0013 </r>
        <r>  0.0025  0.0033  0.0032 </r>
        <r>  0.0014  0.0032  0.0011 </r>
        <r>  0.0011  0.0050  0.0042 </r>
        <r>  0.0009  0.0022  0.0020 </r>
        <r>  0.0011  0.0033  0.0028 </r>
        <r>  0.0003  0.0023  0.0021 </r>
        <r>  0.0023  0.0024  0.0025 </r>
        <r>  0.0023  0.0062  0.0031 </r>
       </set>
      </set>
     </set>
    </set>
   </array>
  </projected>
 </calculation>
 <structure name="finalpos" >
  <crystal>
   <varray name="basis" >
    <v>       8.67261813       0.00000000       0.00000000 </v>
    <v>       0.00000000      11.54587664       0.00000000 </v>
    <v>       0.00000000       0.00000000       8.32031997 </v>
   </varray>
   <i name="volume">    833.13842496 </i>
   <varray name="rec_basis" >
    <v>       0.11530543       0.00000000       0.00000000 </v>
    <v>       0.00000000       0.08661101       0.00000000 </v>
    <v>       0.00000000       0.00000000       0.12018769 </v>
   </varray>
  </crystal>
  <varray name="positions" >
   <v>       0.05610513       0.25000000       0.48220236 </v>
   <v>       0.44389487       0.75000000       0.98220236 </v>
   <v>       0.55610513       0.25000000       0.01779764 </v>
   <v>       0.94389487       0.75000000       0.51779764 </v>
   <v>       0.00000000       0.00000000       0.00000000 </v>
   <v>       0.50000000       0.00000000       0.50000000 </v>
   <v>       0.50000000       0.50000000       0.50000000 </v>
   <v>       0.00000000       0.50000000       0.00000000 </v>
   <v>       0.51953582       0.75000000       0.41959930 </v>
   <v>       0.98046418       0.25000000       0.91959930 </v>
   <v>       0.01953582       0.75000000       0.08040070 </v>
   <v>       0.48046418       0.25000000       0.58040070 </v>
   <v>       0.28372360       0.46173805       0.21396278 </v>
   <v>       0.21627640       0.53826195       0.71396278 </v>
   <v>       0.78372360       0.03826195       0.28603722 </v>
   <v>       0.71627640       0.96173805       0.78603722 </v>
   <v>       0.28372360       0.03826195       0.21396278 </v>
   <v>       0.21627640       0.96173805       0.71396278 </v>
   <v>       0.71627640       0.53826195       0.78603722 </v>
   <v>       0.78372360       0.46173805       0.28603722 </v>
  </varray>
 </structure>
</modeling>
