CsPbBr3 cubic bulk                      
           1
     8.672618    0.000000    0.000000
     0.000000   11.545877    0.000000
     0.000000    0.000000    8.320320
   Cs   Pb   Br
   4   4  12
Direct configuration=     1
   0.05610513  0.25000000  0.48220236
   0.44389487  0.75000000  0.98220236
   0.55610513  0.25000000  0.01779764
   0.94389487  0.75000000  0.51779764
   0.00000000  0.00000000  0.00000000
   0.50000000  0.00000000  0.50000000
   0.50000000  0.50000000  0.50000000
   0.00000000  0.50000000  0.00000000
   0.51953582  0.75000000  0.41959930
   0.98046418  0.25000000  0.91959930
   0.01953582  0.75000000  0.08040070
   0.48046418  0.25000000  0.58040070
   0.28372360  0.46173805  0.21396278
   0.21627640  0.53826195  0.71396278
   0.78372360  0.03826195  0.28603722
   0.71627640  0.96173805  0.78603722
   0.28372360  0.03826195  0.21396278
   0.21627640  0.96173805  0.71396278
   0.71627640  0.53826195  0.78603722
   0.78372360  0.46173805  0.28603722
