  20  20   1   0
  0.4013081E+02  0.8372703E-09  0.1174947E-08  0.8158760E-09  0.5000000E-15
   1.0000000000000000E-004
  CAR 
 CsPbBr3 cubic bulk                      
      8.61831225    -22.17079958  301      0.53617039      1.00000000
    -22.171  0.0000E+00  0.0000E+00
    -22.068  0.0000E+00  0.0000E+00
    -21.966  0.0000E+00  0.0000E+00
    -21.863  0.0000E+00  0.0000E+00
    -21.760  0.0000E+00  0.0000E+00
    -21.658  0.0000E+00  0.0000E+00
    -21.555  0.0000E+00  0.0000E+00
    -21.452  0.0000E+00  0.0000E+00
    -21.350  0.0000E+00  0.0000E+00
    -21.247  0.0000E+00  0.0000E+00
    -21.144  0.0000E+00  0.0000E+00
    -21.042  0.0000E+00  0.0000E+00
    -20.939  0.0000E+00  0.0000E+00
    -20.837  0.0000E+00  0.0000E+00
    -20.734  0.7795E+02  0.8000E+01
    -20.631  0.0000E+00  0.8000E+01
    -20.529  0.0000E+00  0.8000E+01
    -20.426  0.0000E+00  0.8000E+01
    -20.323  0.0000E+00  0.8000E+01
    -20.221  0.0000E+00  0.8000E+01
    -20.118  0.0000E+00  0.8000E+01
    -20.016  0.0000E+00  0.8000E+01
    -19.913  0.0000E+00  0.8000E+01
    -19.810  0.0000E+00  0.8000E+01
    -19.708  0.0000E+00  0.8000E+01
    -19.605  0.0000E+00  0.8000E+01
    -19.502  0.0000E+00  0.8000E+01
    -19.400  0.0000E+00  0.8000E+01
    -19.297  0.0000E+00  0.8000E+01
    -19.195  0.0000E+00  0.8000E+01
    -19.092  0.0000E+00  0.8000E+01
    -18.989  0.0000E+00  0.8000E+01
    -18.887  0.0000E+00  0.8000E+01
    -18.784  0.0000E+00  0.8000E+01
    -18.681  0.0000E+00  0.8000E+01
    -18.579  0.0000E+00  0.8000E+01
    -18.476  0.0000E+00  0.8000E+01
    -18.373  0.0000E+00  0.8000E+01
    -18.271  0.0000E+00  0.8000E+01
    -18.168  0.0000E+00  0.8000E+01
    -18.066  0.0000E+00  0.8000E+01
    -17.963  0.0000E+00  0.8000E+01
    -17.860  0.0000E+00  0.8000E+01
    -17.758  0.0000E+00  0.8000E+01
    -17.655  0.0000E+00  0.8000E+01
    -17.552  0.0000E+00  0.8000E+01
    -17.450  0.0000E+00  0.8000E+01
    -17.347  0.0000E+00  0.8000E+01
    -17.245  0.0000E+00  0.8000E+01
    -17.142  0.0000E+00  0.8000E+01
    -17.039  0.0000E+00  0.8000E+01
    -16.937  0.0000E+00  0.8000E+01
    -16.834  0.0000E+00  0.8000E+01
    -16.731  0.0000E+00  0.8000E+01
    -16.629  0.0000E+00  0.8000E+01
    -16.526  0.0000E+00  0.8000E+01
    -16.423  0.5875E+02  0.1403E+02
    -16.321  0.6292E+02  0.2401E+02
    -16.218  0.1559E+03  0.4800E+02
    -16.116  0.0000E+00  0.4800E+02
    -16.013  0.0000E+00  0.4800E+02
    -15.910  0.0000E+00  0.4800E+02
    -15.808  0.0000E+00  0.4800E+02
    -15.705  0.0000E+00  0.4800E+02
    -15.602  0.0000E+00  0.4800E+02
    -15.500  0.0000E+00  0.4800E+02
    -15.397  0.0000E+00  0.4800E+02
    -15.295  0.0000E+00  0.4800E+02
    -15.192  0.0000E+00  0.4800E+02
    -15.089  0.0000E+00  0.4800E+02
    -14.987  0.0000E+00  0.4800E+02
    -14.884  0.0000E+00  0.4800E+02
    -14.781  0.0000E+00  0.4800E+02
    -14.679  0.0000E+00  0.4800E+02
    -14.576  0.0000E+00  0.4800E+02
    -14.474  0.0000E+00  0.4800E+02
    -14.371  0.8191E-09  0.4800E+02
    -14.268  0.6466E+01  0.4866E+02
    -14.166  0.2154E+02  0.5099E+02
    -14.063  0.3088E+02  0.5450E+02
    -13.960  0.5207E+02  0.6001E+02
    -13.858  0.4076E+02  0.6474E+02
    -13.755  0.4395E+02  0.7062E+02
    -13.652  0.8661E+01  0.7200E+02
    -13.550  0.0000E+00  0.7200E+02
    -13.447  0.0000E+00  0.7200E+02
    -13.345  0.0000E+00  0.7200E+02
    -13.242  0.0000E+00  0.7200E+02
    -13.139  0.0000E+00  0.7200E+02
    -13.037  0.0000E+00  0.7200E+02
    -12.934  0.0000E+00  0.7200E+02
    -12.831  0.0000E+00  0.7200E+02
    -12.729  0.0000E+00  0.7200E+02
    -12.626  0.0000E+00  0.7200E+02
    -12.524  0.0000E+00  0.7200E+02
    -12.421  0.0000E+00  0.7200E+02
    -12.318  0.0000E+00  0.7200E+02
    -12.216  0.0000E+00  0.7200E+02
    -12.113  0.0000E+00  0.7200E+02
    -12.010  0.0000E+00  0.7200E+02
    -11.908  0.0000E+00  0.7200E+02
    -11.805  0.0000E+00  0.7200E+02
    -11.703  0.0000E+00  0.7200E+02
    -11.600  0.0000E+00  0.7200E+02
    -11.497  0.0000E+00  0.7200E+02
    -11.395  0.0000E+00  0.7200E+02
    -11.292  0.0000E+00  0.7200E+02
    -11.189  0.0000E+00  0.7200E+02
    -11.087  0.0000E+00  0.7200E+02
    -10.984  0.0000E+00  0.7200E+02
    -10.881  0.0000E+00  0.7200E+02
    -10.779  0.0000E+00  0.7200E+02
    -10.676  0.0000E+00  0.7200E+02
    -10.574  0.0000E+00  0.7200E+02
    -10.471  0.0000E+00  0.7200E+02
    -10.368  0.0000E+00  0.7200E+02
    -10.266  0.0000E+00  0.7200E+02
    -10.163  0.0000E+00  0.7200E+02
    -10.060  0.0000E+00  0.7200E+02
     -9.958  0.0000E+00  0.7200E+02
     -9.855  0.0000E+00  0.7200E+02
     -9.753  0.0000E+00  0.7200E+02
     -9.650  0.0000E+00  0.7200E+02
     -9.547  0.0000E+00  0.7200E+02
     -9.445  0.0000E+00  0.7200E+02
     -9.342  0.0000E+00  0.7200E+02
     -9.239  0.0000E+00  0.7200E+02
     -9.137  0.0000E+00  0.7200E+02
     -9.034  0.0000E+00  0.7200E+02
     -8.931  0.0000E+00  0.7200E+02
     -8.829  0.0000E+00  0.7200E+02
     -8.726  0.0000E+00  0.7200E+02
     -8.624  0.0000E+00  0.7200E+02
     -8.521  0.0000E+00  0.7200E+02
     -8.418  0.0000E+00  0.7200E+02
     -8.316  0.0000E+00  0.7200E+02
     -8.213  0.7813E-15  0.7200E+02
     -8.110  0.1083E+01  0.7211E+02
     -8.008  0.0000E+00  0.7211E+02
     -7.905  0.6483E+01  0.7278E+02
     -7.803  0.4269E+01  0.7322E+02
     -7.700  0.8177E+01  0.7406E+02
     -7.597  0.1164E+01  0.7423E+02
     -7.495  0.2280E-02  0.7556E+02
     -7.392  0.6496E+01  0.7644E+02
     -7.289  0.1293E+02  0.7777E+02
     -7.187  0.4805E+02  0.8271E+02
     -7.084  0.1353E+03  0.1028E+03
     -6.982  0.1815E+01  0.1030E+03
     -6.879  0.1787E+01  0.1034E+03
     -6.776  0.0000E+00  0.1039E+03
     -6.674  0.0000E+00  0.1039E+03
     -6.571  0.1829E-11  0.1039E+03
     -6.468  0.1083E+01  0.1040E+03
     -6.366  0.0000E+00  0.1040E+03
     -6.263  0.0000E+00  0.1040E+03
     -6.160  0.0000E+00  0.1040E+03
     -6.058  0.0000E+00  0.1040E+03
     -5.955  0.0000E+00  0.1040E+03
     -5.853  0.0000E+00  0.1040E+03
     -5.750  0.0000E+00  0.1040E+03
     -5.647  0.0000E+00  0.1040E+03
     -5.545  0.0000E+00  0.1040E+03
     -5.442  0.0000E+00  0.1040E+03
     -5.339  0.0000E+00  0.1040E+03
     -5.237  0.0000E+00  0.1040E+03
     -5.134  0.0000E+00  0.1040E+03
     -5.032  0.0000E+00  0.1040E+03
     -4.929  0.0000E+00  0.1040E+03
     -4.826  0.0000E+00  0.1040E+03
     -4.724  0.0000E+00  0.1040E+03
     -4.621  0.0000E+00  0.1040E+03
     -4.518  0.0000E+00  0.1040E+03
     -4.416  0.0000E+00  0.1040E+03
     -4.313  0.0000E+00  0.1040E+03
     -4.210  0.0000E+00  0.1040E+03
     -4.108  0.0000E+00  0.1040E+03
     -4.005  0.0000E+00  0.1040E+03
     -3.903  0.0000E+00  0.1040E+03
     -3.800  0.0000E+00  0.1040E+03
     -3.697  0.0000E+00  0.1040E+03
     -3.595  0.0000E+00  0.1040E+03
     -3.492  0.0000E+00  0.1040E+03
     -3.389  0.0000E+00  0.1040E+03
     -3.287  0.9647E+00  0.1041E+03
     -3.184  0.1847E+02  0.1060E+03
     -3.082  0.1556E+02  0.1082E+03
     -2.979  0.4349E+01  0.1087E+03
     -2.876  0.1076E+02  0.1100E+03
     -2.774  0.1720E+02  0.1118E+03
     -2.671  0.6601E+01  0.1133E+03
     -2.568  0.0000E+00  0.1140E+03
     -2.466  0.9128E+01  0.1149E+03
     -2.363  0.1540E+02  0.1171E+03
     -2.261  0.4319E+01  0.1182E+03
     -2.158  0.1083E+02  0.1193E+03
     -2.055  0.2364E+02  0.1222E+03
     -1.953  0.2889E+02  0.1260E+03
     -1.850  0.7361E+01  0.1271E+03
     -1.747  0.9711E+01  0.1282E+03
     -1.645  0.3295E+02  0.1316E+03
     -1.542  0.1624E+02  0.1346E+03
     -1.439  0.4066E+02  0.1387E+03
     -1.337  0.6564E+02  0.1465E+03
     -1.234  0.4481E+02  0.1533E+03
     -1.132  0.4153E+02  0.1594E+03
     -1.029  0.5999E+02  0.1667E+03
     -0.926  0.6496E+01  0.1680E+03
     -0.824  0.7763E+01  0.1688E+03
     -0.721  0.1191E+02  0.1710E+03
     -0.618  0.9084E+01  0.1719E+03
     -0.516  0.1381E+02  0.1739E+03
     -0.413  0.1439E-08  0.1742E+03
     -0.311  0.4331E+01  0.1747E+03
     -0.208  0.6010E-16  0.1747E+03
     -0.105  0.3019E+01  0.1750E+03
     -0.003  0.7731E+01  0.1758E+03
      0.100  0.0000E+00  0.1759E+03
      0.203  0.0000E+00  0.1759E+03
      0.305  0.0000E+00  0.1759E+03
      0.408  0.3606E-15  0.1759E+03
      0.511  0.1083E+01  0.1760E+03
      0.613  0.0000E+00  0.1760E+03
      0.716  0.0000E+00  0.1760E+03
      0.818  0.0000E+00  0.1760E+03
      0.921  0.0000E+00  0.1760E+03
      1.024  0.0000E+00  0.1760E+03
      1.126  0.0000E+00  0.1760E+03
      1.229  0.0000E+00  0.1760E+03
      1.332  0.0000E+00  0.1760E+03
      1.434  0.0000E+00  0.1760E+03
      1.537  0.0000E+00  0.1760E+03
      1.639  0.0000E+00  0.1760E+03
      1.742  0.0000E+00  0.1760E+03
      1.845  0.0000E+00  0.1760E+03
      1.947  0.0000E+00  0.1760E+03
      2.050  0.0000E+00  0.1760E+03
      2.153  0.0000E+00  0.1760E+03
      2.255  0.0000E+00  0.1760E+03
      2.358  0.0000E+00  0.1760E+03
      2.460  0.0000E+00  0.1760E+03
      2.563  0.0000E+00  0.1760E+03
      2.666  0.0000E+00  0.1760E+03
      2.768  0.1036E+01  0.1761E+03
      2.871  0.2092E+01  0.1763E+03
      2.974  0.2720E+01  0.1766E+03
      3.076  0.6799E+01  0.1777E+03
      3.179  0.1083E+01  0.1782E+03
      3.282  0.1283E+02  0.1795E+03
      3.384  0.4331E+01  0.1801E+03
      3.487  0.4248E+01  0.1805E+03
      3.589  0.3248E+01  0.1809E+03
      3.692  0.2131E+01  0.1813E+03
      3.795  0.1078E+02  0.1824E+03
      3.897  0.8192E+01  0.1833E+03
      4.000  0.2157E+01  0.1842E+03
      4.103  0.1118E+02  0.1854E+03
      4.205  0.2096E-08  0.1856E+03
      4.308  0.4331E+01  0.1860E+03
      4.410  0.2165E+01  0.1862E+03
      4.513  0.8661E+01  0.1871E+03
      4.616  0.8661E+01  0.1880E+03
      4.718  0.8661E+01  0.1889E+03
      4.821  0.8661E+01  0.1898E+03
      4.924  0.7489E+01  0.1905E+03
      5.026  0.1773E+00  0.1906E+03
      5.129  0.1357E+02  0.1922E+03
      5.232  0.6607E+01  0.1930E+03
      5.334  0.1083E+02  0.1950E+03
      5.437  0.4329E+01  0.1954E+03
      5.539  0.1662E-06  0.1954E+03
      5.642  0.6496E+01  0.1961E+03
      5.745  0.1348E+01  0.1962E+03
      5.847  0.1193E+02  0.1977E+03
      5.950  0.3171E+01  0.1984E+03
      6.053  0.1114E+02  0.1998E+03
      6.155  0.1074E+02  0.2014E+03
      6.258  0.1400E+02  0.2029E+03
      6.360  0.1799E+02  0.2047E+03
      6.463  0.2027E+02  0.2074E+03
      6.566  0.1466E+02  0.2097E+03
      6.668  0.1950E+02  0.2123E+03
      6.771  0.1951E+02  0.2150E+03
      6.874  0.1816E+02  0.2176E+03
      6.976  0.2292E+02  0.2208E+03
      7.079  0.1524E+02  0.2232E+03
      7.181  0.2830E-06  0.2236E+03
      7.284  0.4331E+01  0.2240E+03
      7.387  0.0000E+00  0.2240E+03
      7.489  0.0000E+00  0.2240E+03
      7.592  0.0000E+00  0.2240E+03
      7.695  0.0000E+00  0.2240E+03
      7.797  0.0000E+00  0.2240E+03
      7.900  0.0000E+00  0.2240E+03
      8.003  0.0000E+00  0.2240E+03
      8.105  0.0000E+00  0.2240E+03
      8.208  0.0000E+00  0.2240E+03
      8.310  0.0000E+00  0.2240E+03
      8.413  0.0000E+00  0.2240E+03
      8.516  0.0000E+00  0.2240E+03
      8.618  0.0000E+00  0.2240E+03
      8.61831225    -22.17079958  301      0.53617039      1.00000000
    -22.171  0.0000E+00  0.0000E+00  0.0000E+00
    -22.068  0.0000E+00  0.0000E+00  0.0000E+00
    -21.966  0.0000E+00  0.0000E+00  0.0000E+00
    -21.863  0.0000E+00  0.0000E+00  0.0000E+00
    -21.760  0.0000E+00  0.0000E+00  0.0000E+00
    -21.658  0.0000E+00  0.0000E+00  0.0000E+00
    -21.555  0.0000E+00  0.0000E+00  0.0000E+00
    -21.452  0.0000E+00  0.0000E+00  0.0000E+00
    -21.350  0.0000E+00  0.0000E+00  0.0000E+00
    -21.247  0.0000E+00  0.0000E+00  0.0000E+00
    -21.144  0.0000E+00  0.0000E+00  0.0000E+00
    -21.042  0.0000E+00  0.0000E+00  0.0000E+00
    -20.939  0.0000E+00  0.0000E+00  0.0000E+00
    -20.837  0.0000E+00  0.0000E+00  0.0000E+00
    -20.734  0.1730E+02  0.5006E-05  0.2945E-05
    -20.631  0.0000E+00  0.0000E+00  0.0000E+00
    -20.529  0.0000E+00  0.0000E+00  0.0000E+00
    -20.426  0.0000E+00  0.0000E+00  0.0000E+00
    -20.323  0.0000E+00  0.0000E+00  0.0000E+00
    -20.221  0.0000E+00  0.0000E+00  0.0000E+00
    -20.118  0.0000E+00  0.0000E+00  0.0000E+00
    -20.016  0.0000E+00  0.0000E+00  0.0000E+00
    -19.913  0.0000E+00  0.0000E+00  0.0000E+00
    -19.810  0.0000E+00  0.0000E+00  0.0000E+00
    -19.708  0.0000E+00  0.0000E+00  0.0000E+00
    -19.605  0.0000E+00  0.0000E+00  0.0000E+00
    -19.502  0.0000E+00  0.0000E+00  0.0000E+00
    -19.400  0.0000E+00  0.0000E+00  0.0000E+00
    -19.297  0.0000E+00  0.0000E+00  0.0000E+00
    -19.195  0.0000E+00  0.0000E+00  0.0000E+00
    -19.092  0.0000E+00  0.0000E+00  0.0000E+00
    -18.989  0.0000E+00  0.0000E+00  0.0000E+00
    -18.887  0.0000E+00  0.0000E+00  0.0000E+00
    -18.784  0.0000E+00  0.0000E+00  0.0000E+00
    -18.681  0.0000E+00  0.0000E+00  0.0000E+00
    -18.579  0.0000E+00  0.0000E+00  0.0000E+00
    -18.476  0.0000E+00  0.0000E+00  0.0000E+00
    -18.373  0.0000E+00  0.0000E+00  0.0000E+00
    -18.271  0.0000E+00  0.0000E+00  0.0000E+00
    -18.168  0.0000E+00  0.0000E+00  0.0000E+00
    -18.066  0.0000E+00  0.0000E+00  0.0000E+00
    -17.963  0.0000E+00  0.0000E+00  0.0000E+00
    -17.860  0.0000E+00  0.0000E+00  0.0000E+00
    -17.758  0.0000E+00  0.0000E+00  0.0000E+00
    -17.655  0.0000E+00  0.0000E+00  0.0000E+00
    -17.552  0.0000E+00  0.0000E+00  0.0000E+00
    -17.450  0.0000E+00  0.0000E+00  0.0000E+00
    -17.347  0.0000E+00  0.0000E+00  0.0000E+00
    -17.245  0.0000E+00  0.0000E+00  0.0000E+00
    -17.142  0.0000E+00  0.0000E+00  0.0000E+00
    -17.039  0.0000E+00  0.0000E+00  0.0000E+00
    -16.937  0.0000E+00  0.0000E+00  0.0000E+00
    -16.834  0.0000E+00  0.0000E+00  0.0000E+00
    -16.731  0.0000E+00  0.0000E+00  0.0000E+00
    -16.629  0.0000E+00  0.0000E+00  0.0000E+00
    -16.526  0.0000E+00  0.0000E+00  0.0000E+00
    -16.423  0.9093E-04  0.5902E-04  0.1412E-04
    -16.321  0.1798E-04  0.3156E-04  0.3105E-05
    -16.218  0.1758E-04  0.1139E-04  0.1572E-05
    -16.116  0.0000E+00  0.0000E+00  0.0000E+00
    -16.013  0.0000E+00  0.0000E+00  0.0000E+00
    -15.910  0.0000E+00  0.0000E+00  0.0000E+00
    -15.808  0.0000E+00  0.0000E+00  0.0000E+00
    -15.705  0.0000E+00  0.0000E+00  0.0000E+00
    -15.602  0.0000E+00  0.0000E+00  0.0000E+00
    -15.500  0.0000E+00  0.0000E+00  0.0000E+00
    -15.397  0.0000E+00  0.0000E+00  0.0000E+00
    -15.295  0.0000E+00  0.0000E+00  0.0000E+00
    -15.192  0.0000E+00  0.0000E+00  0.0000E+00
    -15.089  0.0000E+00  0.0000E+00  0.0000E+00
    -14.987  0.0000E+00  0.0000E+00  0.0000E+00
    -14.884  0.0000E+00  0.0000E+00  0.0000E+00
    -14.781  0.0000E+00  0.0000E+00  0.0000E+00
    -14.679  0.0000E+00  0.0000E+00  0.0000E+00
    -14.576  0.0000E+00  0.0000E+00  0.0000E+00
    -14.474  0.0000E+00  0.0000E+00  0.0000E+00
    -14.371  0.3538E-12  0.2745E-14  0.5027E-15
    -14.268  0.2053E-02  0.4572E-03  0.9209E-05
    -14.166  0.3283E-02  0.3610E-02  0.8247E-04
    -14.063  0.7649E-03  0.5035E-02  0.2385E-03
    -13.960  0.3434E-02  0.7246E-02  0.5974E-03
    -13.858  0.7579E-03  0.3735E-02  0.3643E-03
    -13.755  0.1193E-02  0.2730E-02  0.4657E-03
    -13.652  0.4968E-03  0.5800E-03  0.6884E-04
    -13.550  0.0000E+00  0.0000E+00  0.0000E+00
    -13.447  0.0000E+00  0.0000E+00  0.0000E+00
    -13.345  0.0000E+00  0.0000E+00  0.0000E+00
    -13.242  0.0000E+00  0.0000E+00  0.0000E+00
    -13.139  0.0000E+00  0.0000E+00  0.0000E+00
    -13.037  0.0000E+00  0.0000E+00  0.0000E+00
    -12.934  0.0000E+00  0.0000E+00  0.0000E+00
    -12.831  0.0000E+00  0.0000E+00  0.0000E+00
    -12.729  0.0000E+00  0.0000E+00  0.0000E+00
    -12.626  0.0000E+00  0.0000E+00  0.0000E+00
    -12.524  0.0000E+00  0.0000E+00  0.0000E+00
    -12.421  0.0000E+00  0.0000E+00  0.0000E+00
    -12.318  0.0000E+00  0.0000E+00  0.0000E+00
    -12.216  0.0000E+00  0.0000E+00  0.0000E+00
    -12.113  0.0000E+00  0.0000E+00  0.0000E+00
    -12.010  0.0000E+00  0.0000E+00  0.0000E+00
    -11.908  0.0000E+00  0.0000E+00  0.0000E+00
    -11.805  0.0000E+00  0.0000E+00  0.0000E+00
    -11.703  0.0000E+00  0.0000E+00  0.0000E+00
    -11.600  0.0000E+00  0.0000E+00  0.0000E+00
    -11.497  0.0000E+00  0.0000E+00  0.0000E+00
    -11.395  0.0000E+00  0.0000E+00  0.0000E+00
    -11.292  0.0000E+00  0.0000E+00  0.0000E+00
    -11.189  0.0000E+00  0.0000E+00  0.0000E+00
    -11.087  0.0000E+00  0.0000E+00  0.0000E+00
    -10.984  0.0000E+00  0.0000E+00  0.0000E+00
    -10.881  0.0000E+00  0.0000E+00  0.0000E+00
    -10.779  0.0000E+00  0.0000E+00  0.0000E+00
    -10.676  0.0000E+00  0.0000E+00  0.0000E+00
    -10.574  0.0000E+00  0.0000E+00  0.0000E+00
    -10.471  0.0000E+00  0.0000E+00  0.0000E+00
    -10.368  0.0000E+00  0.0000E+00  0.0000E+00
    -10.266  0.0000E+00  0.0000E+00  0.0000E+00
    -10.163  0.0000E+00  0.0000E+00  0.0000E+00
    -10.060  0.0000E+00  0.0000E+00  0.0000E+00
     -9.958  0.0000E+00  0.0000E+00  0.0000E+00
     -9.855  0.0000E+00  0.0000E+00  0.0000E+00
     -9.753  0.0000E+00  0.0000E+00  0.0000E+00
     -9.650  0.0000E+00  0.0000E+00  0.0000E+00
     -9.547  0.0000E+00  0.0000E+00  0.0000E+00
     -9.445  0.0000E+00  0.0000E+00  0.0000E+00
     -9.342  0.0000E+00  0.0000E+00  0.0000E+00
     -9.239  0.0000E+00  0.0000E+00  0.0000E+00
     -9.137  0.0000E+00  0.0000E+00  0.0000E+00
     -9.034  0.0000E+00  0.0000E+00  0.0000E+00
     -8.931  0.0000E+00  0.0000E+00  0.0000E+00
     -8.829  0.0000E+00  0.0000E+00  0.0000E+00
     -8.726  0.0000E+00  0.0000E+00  0.0000E+00
     -8.624  0.0000E+00  0.0000E+00  0.0000E+00
     -8.521  0.0000E+00  0.0000E+00  0.0000E+00
     -8.418  0.0000E+00  0.0000E+00  0.0000E+00
     -8.316  0.0000E+00  0.0000E+00  0.0000E+00
     -8.213  0.5512E-32  0.5338E-20  0.4228E-20
     -8.110  0.7638E-17  0.7397E-05  0.5859E-05
     -8.008  0.0000E+00  0.0000E+00  0.0000E+00
     -7.905  0.2061E-06  0.4910E-02  0.3116E-04
     -7.803  0.1074E-16  0.3378E-02  0.2701E-04
     -7.700  0.1048E-04  0.2042E-01  0.3778E-04
     -7.597  0.4144E-06  0.7278E-02  0.2970E-05
     -7.495  0.6072E-20  0.2389E-04  0.8250E-08
     -7.392  0.1072E-04  0.7660E-01  0.3741E-04
     -7.289  0.4880E-04  0.4195E+00  0.4006E-04
     -7.187  0.5357E-04  0.8034E+01  0.5208E-04
     -7.084  0.3830E-04  0.2509E+02  0.6201E-04
     -6.982  0.1007E-04  0.5196E-01  0.1167E-04
     -6.879  0.1390E-04  0.9343E-02  0.1072E-04
     -6.776  0.0000E+00  0.0000E+00  0.0000E+00
     -6.674  0.0000E+00  0.0000E+00  0.0000E+00
     -6.571  0.2275E-16  0.4651E-14  0.1426E-17
     -6.468  0.1347E-04  0.2754E-02  0.8445E-06
     -6.366  0.0000E+00  0.0000E+00  0.0000E+00
     -6.263  0.0000E+00  0.0000E+00  0.0000E+00
     -6.160  0.0000E+00  0.0000E+00  0.0000E+00
     -6.058  0.0000E+00  0.0000E+00  0.0000E+00
     -5.955  0.0000E+00  0.0000E+00  0.0000E+00
     -5.853  0.0000E+00  0.0000E+00  0.0000E+00
     -5.750  0.0000E+00  0.0000E+00  0.0000E+00
     -5.647  0.0000E+00  0.0000E+00  0.0000E+00
     -5.545  0.0000E+00  0.0000E+00  0.0000E+00
     -5.442  0.0000E+00  0.0000E+00  0.0000E+00
     -5.339  0.0000E+00  0.0000E+00  0.0000E+00
     -5.237  0.0000E+00  0.0000E+00  0.0000E+00
     -5.134  0.0000E+00  0.0000E+00  0.0000E+00
     -5.032  0.0000E+00  0.0000E+00  0.0000E+00
     -4.929  0.0000E+00  0.0000E+00  0.0000E+00
     -4.826  0.0000E+00  0.0000E+00  0.0000E+00
     -4.724  0.0000E+00  0.0000E+00  0.0000E+00
     -4.621  0.0000E+00  0.0000E+00  0.0000E+00
     -4.518  0.0000E+00  0.0000E+00  0.0000E+00
     -4.416  0.0000E+00  0.0000E+00  0.0000E+00
     -4.313  0.0000E+00  0.0000E+00  0.0000E+00
     -4.210  0.0000E+00  0.0000E+00  0.0000E+00
     -4.108  0.0000E+00  0.0000E+00  0.0000E+00
     -4.005  0.0000E+00  0.0000E+00  0.0000E+00
     -3.903  0.0000E+00  0.0000E+00  0.0000E+00
     -3.800  0.0000E+00  0.0000E+00  0.0000E+00
     -3.697  0.0000E+00  0.0000E+00  0.0000E+00
     -3.595  0.0000E+00  0.0000E+00  0.0000E+00
     -3.492  0.0000E+00  0.0000E+00  0.0000E+00
     -3.389  0.0000E+00  0.0000E+00  0.0000E+00
     -3.287  0.4778E-08  0.1817E-02  0.9708E-05
     -3.184  0.1363E-03  0.2196E-01  0.1647E-02
     -3.082  0.1156E-03  0.1033E-01  0.1808E-02
     -2.979  0.5814E-06  0.1536E-02  0.4923E-03
     -2.876  0.4179E-03  0.1743E-01  0.8277E-03
     -2.774  0.2883E-03  0.2104E-01  0.1381E-02
     -2.671  0.4142E-03  0.8942E-02  0.7894E-03
     -2.568  0.0000E+00  0.0000E+00  0.0000E+00
     -2.466  0.2728E-03  0.1738E-01  0.1091E-02
     -2.363  0.8965E-03  0.1002E-01  0.1754E-02
     -2.261  0.7375E-03  0.2918E-02  0.4020E-03
     -2.158  0.4223E-02  0.1033E-01  0.1011E-02
     -2.055  0.1758E-01  0.2735E-01  0.3514E-02
     -1.953  0.2012E-01  0.4768E-01  0.6169E-02
     -1.850  0.1035E-02  0.3334E-01  0.1026E-02
     -1.747  0.1309E-02  0.5658E-01  0.2617E-02
     -1.645  0.2817E-02  0.1288E+00  0.1139E-01
     -1.542  0.7937E-03  0.3936E-01  0.6417E-02
     -1.439  0.4167E-02  0.9567E-01  0.1620E-01
     -1.337  0.5352E-02  0.9256E-01  0.2924E-01
     -1.234  0.4178E-02  0.5680E-01  0.1023E-01
     -1.132  0.2270E-02  0.8007E-01  0.1232E-01
     -1.029  0.2236E-02  0.8192E-01  0.1625E-01
     -0.926  0.2449E-03  0.8192E-02  0.2105E-02
     -0.824  0.1108E-03  0.1057E-01  0.2971E-02
     -0.721  0.9643E-03  0.1406E-01  0.2691E-02
     -0.618  0.6128E-03  0.5166E-02  0.8029E-03
     -0.516  0.4863E-03  0.4292E-02  0.1389E-02
     -0.413  0.2383E-25  0.1001E-11  0.6850E-14
     -0.311  0.7172E-16  0.3012E-02  0.2061E-04
     -0.208  0.9765E-23  0.1772E-19  0.9475E-20
     -0.105  0.1759E-06  0.4237E-03  0.3948E-03
     -0.003  0.2872E-06  0.9897E-03  0.1144E-02
      0.100  0.0000E+00  0.0000E+00  0.0000E+00
      0.203  0.0000E+00  0.0000E+00  0.0000E+00
      0.305  0.0000E+00  0.0000E+00  0.0000E+00
      0.408  0.2558E-32  0.2667E-20  0.2393E-19
      0.511  0.7679E-17  0.8006E-05  0.7185E-04
      0.613  0.0000E+00  0.0000E+00  0.0000E+00
      0.716  0.0000E+00  0.0000E+00  0.0000E+00
      0.818  0.0000E+00  0.0000E+00  0.0000E+00
      0.921  0.0000E+00  0.0000E+00  0.0000E+00
      1.024  0.0000E+00  0.0000E+00  0.0000E+00
      1.126  0.0000E+00  0.0000E+00  0.0000E+00
      1.229  0.0000E+00  0.0000E+00  0.0000E+00
      1.332  0.0000E+00  0.0000E+00  0.0000E+00
      1.434  0.0000E+00  0.0000E+00  0.0000E+00
      1.537  0.0000E+00  0.0000E+00  0.0000E+00
      1.639  0.0000E+00  0.0000E+00  0.0000E+00
      1.742  0.0000E+00  0.0000E+00  0.0000E+00
      1.845  0.0000E+00  0.0000E+00  0.0000E+00
      1.947  0.0000E+00  0.0000E+00  0.0000E+00
      2.050  0.0000E+00  0.0000E+00  0.0000E+00
      2.153  0.0000E+00  0.0000E+00  0.0000E+00
      2.255  0.0000E+00  0.0000E+00  0.0000E+00
      2.358  0.0000E+00  0.0000E+00  0.0000E+00
      2.460  0.0000E+00  0.0000E+00  0.0000E+00
      2.563  0.0000E+00  0.0000E+00  0.0000E+00
      2.666  0.0000E+00  0.0000E+00  0.0000E+00
      2.768  0.2696E-13  0.1700E-04  0.7752E-03
      2.871  0.2358E-04  0.1837E-03  0.1659E-02
      2.974  0.3443E-03  0.2932E-03  0.1271E-02
      3.076  0.3985E-04  0.2135E-02  0.3195E-02
      3.179  0.2314E-03  0.1744E-03  0.3449E-03
      3.282  0.1083E-02  0.5429E-02  0.3281E-02
      3.384  0.2611E-03  0.1513E-02  0.7930E-03
      3.487  0.6869E-03  0.1617E-02  0.1973E-02
      3.589  0.7183E-06  0.7354E-03  0.1462E-02
      3.692  0.1920E-12  0.2785E-03  0.2527E-02
      3.795  0.8114E-03  0.2234E-02  0.8837E-02
      3.897  0.6466E-03  0.2181E-02  0.5701E-02
      4.000  0.2606E-03  0.3749E-03  0.1123E-02
      4.103  0.4466E-03  0.2843E-02  0.4026E-02
      4.205  0.4012E-13  0.6289E-12  0.5703E-12
      4.308  0.8290E-04  0.1299E-02  0.1178E-02
      4.410  0.1588E-04  0.2743E-03  0.3199E-02
      4.513  0.7442E-03  0.2728E-02  0.1023E-01
      4.616  0.5979E-05  0.3627E-02  0.7479E-02
      4.718  0.1304E-02  0.1909E-02  0.4077E-02
      4.821  0.2285E-02  0.3659E-02  0.4897E-02
      4.924  0.1293E-01  0.1318E-02  0.7925E-02
      5.026  0.1972E-11  0.3141E-04  0.1835E-03
      5.129  0.1371E-02  0.4675E-02  0.1493E-01
      5.232  0.1443E-01  0.4217E-02  0.7074E-02
      5.334  0.1256E-01  0.9604E-02  0.6362E-02
      5.437  0.1981E-02  0.5190E-03  0.6597E-02
      5.539  0.4530E-14  0.4754E-11  0.5202E-09
      5.642  0.1848E-01  0.3551E-02  0.1690E-01
      5.745  0.1242E-02  0.2763E-03  0.2615E-02
      5.847  0.9572E-02  0.2417E-02  0.2336E-01
      5.950  0.2411E-01  0.9974E-02  0.7200E-02
      6.053  0.5239E-02  0.4201E-02  0.5137E-01
      6.155  0.4433E-01  0.7733E-02  0.1225E+00
      6.258  0.8481E-02  0.4582E-02  0.1691E+00
      6.360  0.7012E-01  0.3257E-01  0.2962E+00
      6.463  0.4236E-01  0.2318E-01  0.5091E+00
      6.566  0.2559E-01  0.9671E-02  0.3866E+00
      6.668  0.3330E-01  0.3487E-01  0.5699E+00
      6.771  0.3658E-01  0.3639E-01  0.4752E+00
      6.874  0.1297E-01  0.2820E-01  0.5654E+00
      6.976  0.1527E-01  0.3820E-01  0.8523E+00
      7.079  0.6508E-02  0.5392E-01  0.3522E+00
      7.181  0.2842E-10  0.4162E-09  0.6990E-08
      7.284  0.4350E-03  0.6370E-02  0.1070E+00
      7.387  0.0000E+00  0.0000E+00  0.0000E+00
      7.489  0.0000E+00  0.0000E+00  0.0000E+00
      7.592  0.0000E+00  0.0000E+00  0.0000E+00
      7.695  0.0000E+00  0.0000E+00  0.0000E+00
      7.797  0.0000E+00  0.0000E+00  0.0000E+00
      7.900  0.0000E+00  0.0000E+00  0.0000E+00
      8.003  0.0000E+00  0.0000E+00  0.0000E+00
      8.105  0.0000E+00  0.0000E+00  0.0000E+00
      8.208  0.0000E+00  0.0000E+00  0.0000E+00
      8.310  0.0000E+00  0.0000E+00  0.0000E+00
      8.413  0.0000E+00  0.0000E+00  0.0000E+00
      8.516  0.0000E+00  0.0000E+00  0.0000E+00
      8.618  0.0000E+00  0.0000E+00  0.0000E+00
      8.61831225    -22.17079958  301      0.53617039      1.00000000
    -22.171  0.0000E+00  0.0000E+00  0.0000E+00
    -22.068  0.0000E+00  0.0000E+00  0.0000E+00
    -21.966  0.0000E+00  0.0000E+00  0.0000E+00
    -21.863  0.0000E+00  0.0000E+00  0.0000E+00
    -21.760  0.0000E+00  0.0000E+00  0.0000E+00
    -21.658  0.0000E+00  0.0000E+00  0.0000E+00
    -21.555  0.0000E+00  0.0000E+00  0.0000E+00
    -21.452  0.0000E+00  0.0000E+00  0.0000E+00
    -21.350  0.0000E+00  0.0000E+00  0.0000E+00
    -21.247  0.0000E+00  0.0000E+00  0.0000E+00
    -21.144  0.0000E+00  0.0000E+00  0.0000E+00
    -21.042  0.0000E+00  0.0000E+00  0.0000E+00
    -20.939  0.0000E+00  0.0000E+00  0.0000E+00
    -20.837  0.0000E+00  0.0000E+00  0.0000E+00
    -20.734  0.1730E+02  0.5000E-05  0.2958E-05
    -20.631  0.0000E+00  0.0000E+00  0.0000E+00
    -20.529  0.0000E+00  0.0000E+00  0.0000E+00
    -20.426  0.0000E+00  0.0000E+00  0.0000E+00
    -20.323  0.0000E+00  0.0000E+00  0.0000E+00
    -20.221  0.0000E+00  0.0000E+00  0.0000E+00
    -20.118  0.0000E+00  0.0000E+00  0.0000E+00
    -20.016  0.0000E+00  0.0000E+00  0.0000E+00
    -19.913  0.0000E+00  0.0000E+00  0.0000E+00
    -19.810  0.0000E+00  0.0000E+00  0.0000E+00
    -19.708  0.0000E+00  0.0000E+00  0.0000E+00
    -19.605  0.0000E+00  0.0000E+00  0.0000E+00
    -19.502  0.0000E+00  0.0000E+00  0.0000E+00
    -19.400  0.0000E+00  0.0000E+00  0.0000E+00
    -19.297  0.0000E+00  0.0000E+00  0.0000E+00
    -19.195  0.0000E+00  0.0000E+00  0.0000E+00
    -19.092  0.0000E+00  0.0000E+00  0.0000E+00
    -18.989  0.0000E+00  0.0000E+00  0.0000E+00
    -18.887  0.0000E+00  0.0000E+00  0.0000E+00
    -18.784  0.0000E+00  0.0000E+00  0.0000E+00
    -18.681  0.0000E+00  0.0000E+00  0.0000E+00
    -18.579  0.0000E+00  0.0000E+00  0.0000E+00
    -18.476  0.0000E+00  0.0000E+00  0.0000E+00
    -18.373  0.0000E+00  0.0000E+00  0.0000E+00
    -18.271  0.0000E+00  0.0000E+00  0.0000E+00
    -18.168  0.0000E+00  0.0000E+00  0.0000E+00
    -18.066  0.0000E+00  0.0000E+00  0.0000E+00
    -17.963  0.0000E+00  0.0000E+00  0.0000E+00
    -17.860  0.0000E+00  0.0000E+00  0.0000E+00
    -17.758  0.0000E+00  0.0000E+00  0.0000E+00
    -17.655  0.0000E+00  0.0000E+00  0.0000E+00
    -17.552  0.0000E+00  0.0000E+00  0.0000E+00
    -17.450  0.0000E+00  0.0000E+00  0.0000E+00
    -17.347  0.0000E+00  0.0000E+00  0.0000E+00
    -17.245  0.0000E+00  0.0000E+00  0.0000E+00
    -17.142  0.0000E+00  0.0000E+00  0.0000E+00
    -17.039  0.0000E+00  0.0000E+00  0.0000E+00
    -16.937  0.0000E+00  0.0000E+00  0.0000E+00
    -16.834  0.0000E+00  0.0000E+00  0.0000E+00
    -16.731  0.0000E+00  0.0000E+00  0.0000E+00
    -16.629  0.0000E+00  0.0000E+00  0.0000E+00
    -16.526  0.0000E+00  0.0000E+00  0.0000E+00
    -16.423  0.8806E-04  0.5119E-04  0.1173E-04
    -16.321  0.1000E-04  0.4720E-04  0.3867E-05
    -16.218  0.1775E-04  0.1148E-04  0.1570E-05
    -16.116  0.0000E+00  0.0000E+00  0.0000E+00
    -16.013  0.0000E+00  0.0000E+00  0.0000E+00
    -15.910  0.0000E+00  0.0000E+00  0.0000E+00
    -15.808  0.0000E+00  0.0000E+00  0.0000E+00
    -15.705  0.0000E+00  0.0000E+00  0.0000E+00
    -15.602  0.0000E+00  0.0000E+00  0.0000E+00
    -15.500  0.0000E+00  0.0000E+00  0.0000E+00
    -15.397  0.0000E+00  0.0000E+00  0.0000E+00
    -15.295  0.0000E+00  0.0000E+00  0.0000E+00
    -15.192  0.0000E+00  0.0000E+00  0.0000E+00
    -15.089  0.0000E+00  0.0000E+00  0.0000E+00
    -14.987  0.0000E+00  0.0000E+00  0.0000E+00
    -14.884  0.0000E+00  0.0000E+00  0.0000E+00
    -14.781  0.0000E+00  0.0000E+00  0.0000E+00
    -14.679  0.0000E+00  0.0000E+00  0.0000E+00
    -14.576  0.0000E+00  0.0000E+00  0.0000E+00
    -14.474  0.0000E+00  0.0000E+00  0.0000E+00
    -14.371  0.3538E-12  0.2745E-14  0.5027E-15
    -14.268  0.2053E-02  0.4572E-03  0.9209E-05
    -14.166  0.3833E-02  0.2751E-02  0.8342E-04
    -14.063  0.7504E-03  0.7182E-02  0.2460E-03
    -13.960  0.1682E-02  0.4789E-02  0.4475E-03
    -13.858  0.1649E-02  0.4739E-02  0.4676E-03
    -13.755  0.1707E-02  0.2461E-02  0.4449E-03
    -13.652  0.1779E-03  0.4899E-03  0.7318E-04
    -13.550  0.0000E+00  0.0000E+00  0.0000E+00
    -13.447  0.0000E+00  0.0000E+00  0.0000E+00
    -13.345  0.0000E+00  0.0000E+00  0.0000E+00
    -13.242  0.0000E+00  0.0000E+00  0.0000E+00
    -13.139  0.0000E+00  0.0000E+00  0.0000E+00
    -13.037  0.0000E+00  0.0000E+00  0.0000E+00