 vasp.5.4.4.18Apr17-6-g9f103f2a35 (build Jun 29 2021 13:39:03) complex           
 executed on tx2_gcc-7.3_libsci-1 date 2021.09.21  08:29:00
 running on   64 total cores
 distrk:  each k-point on   64 cores,    1 groups
 distr:  one band on NCORES_PER_BAND=   8 cores,    8 groups


--------------------------------------------------------------------------------------------------------


 INCAR:
 POTCAR:    PAW_PBE Cs_sv 08Apr2002               
 POTCAR:    PAW_PBE Pb_d 06Sep2000                
 POTCAR:    PAW_PBE Br 06Sep2000                  
 POTCAR:    PAW_PBE Cs_sv 08Apr2002               
   SHA256 =  c1463496f0f6037ed62c6012a8013a89ee9ad6ffb38599dcd6c079e7ed31779b Cs
   COPYR  = (c) Copyright 08Apr2002 Georg Kresse                                
   COPYR  = This file is part of the software VASP. Any use, copying, and all ot
   COPYR  = If you do not have a valid VASP license, you may not use, copy or di
   VRHFIN =Cs: 5s5p6s                                                           
   LEXCH  = PE                                                                  
   EATOM  =   555.6835 eV,   40.8416 Ry                                         
                                                                                
   TITEL  = PAW_PBE Cs_sv 08Apr2002                                             
   LULTRA =        F    use ultrasoft PP ?                                      
   IUNSCR =        1    unscreen: 0-lin 1-nonlin 2-no                           
   RPACOR =    2.200    partial core radius                                     
   POMASS =  132.900; ZVAL   =    9.000    mass and valenz                      
   RCORE  =    2.500    outmost cutoff radius                                   
   RWIGS  =    2.500; RWIGS  =    1.323    wigner-seitz radius (au A)           
   ENMAX  =  220.318; ENMIN  =  165.238 eV                                      
   RCLOC  =    2.207    cutoff for local pot                                    
   LCOR   =        T    correct aug charges                                     
   LPAW   =        T    paw PP                                                  
   EAUG   =  407.933                                                            
   DEXC   =    0.000                                                            
   RMAX   =    2.554    core radius for proj-oper                               
   RAUG   =    1.300    factor for augmentation sphere                          
   RDEP   =    2.590    radius for radial grids                                 
   RDEPT  =    2.117    core radius for aug-charge                              
                                                                                
   Atomic configuration                                                         
   13 entries                                                                   
     n  l   j            E        occ.                                          
     1  0  0.50    -35790.1377   2.0000                                         
     2  0  0.50     -5613.6201   2.0000                                         
     2  1  1.50     -5035.0101   6.0000                                         
     3  0  0.50     -1167.0767   2.0000                                         
     3  1  1.50      -980.9754   6.0000                                         
     3  2  2.50      -708.0703  10.0000                                         
     4  0  0.50      -220.2386   2.0000                                         
     4  1  1.50      -160.7596   6.0000                                         
     4  2  2.50       -74.2354  10.0000                                         
     5  0  0.50       -26.7287   2.0000                                         
     6  0  0.50        -2.0862   1.0000                                         
     5  1  1.50       -13.5159   6.0000                                         
     5  2  2.50        -0.4136   0.0000                                         
   Description                                                                  
     l       E           TYP  RCUT    TYP  RCUT                                 
     0    -26.7287425     23  1.900                                             
     0     -2.0862306     23  1.900                                             
     1    -13.5158719     23  2.500                                             
     1     -2.7211652     23  2.500                                             
     2     -0.4136171     23  2.500                                             
  local pseudopotential read in
  partial core-charges read in
  partial kinetic energy density read in
  atomic valenz-charges read in
  non local Contribution for L=           0  read in
    real space projection operators read in
  non local Contribution for L=           0  read in
    real space projection operators read in
  non local Contribution for L=           1  read in
    real space projection operators read in
  non local Contribution for L=           1  read in
    real space projection operators read in
  non local Contribution for L=           2  read in
    real space projection operators read in
    PAW grid and wavefunctions read in

   number of l-projection  operators is LMAX  =           5
   number of lm-projection operators is LMMAX =          13

 POTCAR:    PAW_PBE Pb_d 06Sep2000                
   SHA256 =  fb885b08f0fba73a15f6a6b0e39bd200c13ec96ef97cf3ecd8e63bade5137abd Pb
   COPYR  = (c) Copyright 06Sep2000 Georg Kresse                                
   COPYR  = This file is part of the software VASP. Any use, copying, and all ot
   COPYR  = If you do not have a valid VASP license, you may not use, copy or di
   VRHFIN =Pb:                                                                  
   LEXCH  = PE                                                                  
   EATOM  =  1661.6185 eV,  122.1255 Ry                                         
                                                                                
   TITEL  = PAW_PBE Pb_d 06Sep2000                                              
   LULTRA =        F    use ultrasoft PP ?                                      
   IUNSCR =        1    unscreen: 0-lin 1-nonlin 2-no                           
   RPACOR =    2.200    partial core radius                                     
   POMASS =  207.200; ZVAL   =   14.000    mass and valenz                      
   RCORE  =    2.500    outmost cutoff radius                                   
   RWIGS  =    3.260; RWIGS  =    1.725    wigner-seitz radius (au A)           
   ENMAX  =  237.835; ENMIN  =  178.376 eV                                      
   ICORE  =        3    local potential                                         
   LCOR   =        T    correct aug charges                                     
   LPAW   =        T    paw PP                                                  
   EAUG   =  391.914                                                            
   DEXC   =    0.000                                                            
   RMAX   =    2.565    core radius for proj-oper                               
   RAUG   =    1.300    factor for augmentation sphere                          
   RDEP   =    2.643    radius for radial grids                                 
   RDEPT  =    2.092    core radius for aug-charge                              
                                                                                
   Atomic configuration                                                         
   16 entries                                                                   
     n  l   j            E        occ.                                          
     1  0  0.50    -88091.8466   2.0000                                         
     2  0  0.50    -15753.4197   2.0000                                         
     2  1  1.50    -13508.1797   6.0000                                         
     3  0  0.50     -3781.7194   2.0000                                         
     3  1  1.50     -3138.2529   6.0000                                         
     3  2  2.50     -2483.2977  10.0000                                         
     4  0  0.50      -856.2895   2.0000                                         
     4  1  1.50      -645.4942   6.0000                                         
     4  2  2.50      -401.8768  10.0000                                         
     4  3  3.50      -132.9059  14.0000                                         
     5  0  0.50      -144.0950   2.0000                                         
     5  1  1.50       -85.7879   6.0000                                         
     5  2  2.50       -21.1769  10.0000                                         
     6  0  0.50       -12.0372   2.0000                                         
     6  1  1.50        -3.4971   2.0000                                         
     5  3  2.50        -2.7212   0.0000                                         
   Description                                                                  
     l       E           TYP  RCUT    TYP  RCUT                                 
     2    -21.1768523     23  2.500                                             
     2      1.3605826     23  2.500                                             
     0    -12.0371562     23  2.500                                             
     0     13.6058260     23  2.500                                             
     1     -3.4971339     23  2.500                                             
     1     13.6058260     23  2.500                                             
     3     -1.3605826      7  2.500                                             
  local pseudopotential read in
  partial core-charges read in
  partial kinetic energy density read in
  atomic valenz-charges read in
  non local Contribution for L=           2  read in
    real space projection operators read in
  non local Contribution for L=           2  read in
    real space projection operators read in
  non local Contribution for L=           0  read in
    real space projection operators read in
  non local Contribution for L=           0  read in
    real space projection operators read in
  non local Contribution for L=           1  read in
    real space projection operators read in
  non local Contribution for L=           1  read in
    real space projection operators read in
    PAW grid and wavefunctions read in

   number of l-projection  operators is LMAX  =           6
   number of lm-projection operators is LMMAX =          18

 POTCAR:    PAW_PBE Br 06Sep2000                  
   SHA256 =  96a73d2954943bbee26f4990d676cc6c3bf44b8dd2c75cd4b3b825d8403f0103 Br
   COPYR  = (c) Copyright 06Sep2000 Georg Kresse                                
   COPYR  = This file is part of the software VASP. Any use, copying, and all ot
   COPYR  = If you do not have a valid VASP license, you may not use, copy or di
   VRHFIN =Br: s2p5                                                             
   LEXCH  = PE                                                                  
   EATOM  =   368.4488 eV,   27.0802 Ry                                         
                                                                                
   TITEL  = PAW_PBE Br 06Sep2000                                                
   LULTRA =        F    use ultrasoft PP ?                                      
   IUNSCR =        1    unscreen: 0-lin 1-nonlin 2-no                           
   RPACOR =    1.900    partial core radius                                     
   POMASS =   79.904; ZVAL   =    7.000    mass and valenz                      
   RCORE  =    2.100    outmost cutoff radius                                   
   RWIGS  =    2.200; RWIGS  =    1.164    wigner-seitz radius (au A)           
   ENMAX  =  216.285; ENMIN  =  162.214 eV                                      
   ICORE  =        3    local potential                                         
   LCOR   =        T    correct aug charges                                     
   LPAW   =        T    paw PP                                                  
   EAUG   =  503.852                                                            
   DEXC   =    0.000                                                            
   RMAX   =    2.139    core radius for proj-oper                               
   RAUG   =    1.300    factor for augmentation sphere                          
   RDEP   =    2.186    radius for radial grids                                 
   RDEPT  =    1.890    core radius for aug-charge                              
                                                                                
   Atomic configuration                                                         
   10 entries                                                                   
     n  l   j            E        occ.                                          
     1  0  0.50    -13316.2796   2.0000                                         
     2  0  0.50     -1732.8239   2.0000                                         
     2  1  1.50     -1528.2193   6.0000                                         
     3  0  0.50      -238.0460   2.0000                                         
     3  1  1.50      -173.4609   6.0000                                         
     3  2  2.50       -66.7132  10.0000                                         
     4  0  0.50       -20.1334   2.0000                                         
     4  1  0.50        -7.8591   5.0000                                         
     4  2  2.50        -8.1635   0.0000                                         
     4  3  2.50        -8.1635   0.0000                                         
   Description                                                                  
     l       E           TYP  RCUT    TYP  RCUT                                 
     0    -20.1333652     23  2.100                                             
     0    -21.4939478     23  2.100                                             
     1     -7.8591052     23  2.100                                             
     1     -3.1608434     23  2.100                                             
     2     -8.1634956     23  2.100                                             
     3     -1.3605826      7  2.100                                             
  local pseudopotential read in
  partial core-charges read in
  partial kinetic energy density read in
  atomic valenz-charges read in
  non local Contribution for L=           0  read in
    real space projection operators read in
  non local Contribution for L=           0  read in
    real space projection operators read in
  non local Contribution for L=           1  read in
    real space projection operators read in
  non local Contribution for L=           1  read in
    real space projection operators read in
  non local Contribution for L=           2  read in
    real space projection operators read in
    PAW grid and wavefunctions read in

   number of l-projection  operators is LMAX  =           5
   number of lm-projection operators is LMMAX =          13

 Optimization of the real space projectors (new method)

 maximal supplied QI-value         = 15.12
 optimisation between [QCUT,QGAM] = [  8.77, 17.69] = [ 21.53, 87.61] Ry 
 Optimized for a Real-space Cutoff    1.85 Angstroem

   l    n(q)    QCUT    max X(q) W(low)/X(q) W(high)/X(q)  e(spline) 
   0     10     8.768    25.322    0.81E-04    0.51E-04    0.48E-06
   0     10     8.768    99.187    0.78E-04    0.50E-04    0.47E-06
   1      9     8.768    11.761    0.21E-03    0.20E-03    0.37E-06
   1      9     8.768     8.275    0.24E-03    0.22E-03    0.41E-06
   2      9     8.768     3.829    0.23E-04    0.15E-03    0.18E-06
 Optimization of the real space projectors (new method)

 maximal supplied QI-value         = 15.12
 optimisation between [QCUT,QGAM] = [  8.77, 17.69] = [ 21.53, 87.61] Ry 
 Optimized for a Real-space Cutoff    1.59 Angstroem

   l    n(q)    QCUT    max X(q) W(low)/X(q) W(high)/X(q)  e(spline) 
   2      7     8.768     3.846    0.48E-04    0.11E-03    0.11E-06
   2      7     8.768     8.593    0.20E-03    0.22E-04    0.24E-06
   0      8     8.768    20.082    0.68E-04    0.88E-04    0.41E-07
   0      8     8.768     8.597    0.89E-04    0.13E-03    0.59E-07
   1      8     8.768    33.223    0.15E-03    0.53E-04    0.87E-07
   1      8     8.768    15.899    0.14E-03    0.44E-04    0.78E-07
 Optimization of the real space projectors (new method)

 maximal supplied QI-value         = 17.95
 optimisation between [QCUT,QGAM] = [  8.80, 17.59] = [ 21.67, 86.68] Ry 
 Optimized for a Real-space Cutoff    1.59 Angstroem

   l    n(q)    QCUT    max X(q) W(low)/X(q) W(high)/X(q)  e(spline) 
   0      8     8.797   175.082    0.82E-04    0.14E-03    0.89E-07
   0      8     8.797   174.004    0.79E-04    0.14E-03    0.86E-07
   1      8     8.797    54.315    0.16E-03    0.14E-04    0.30E-06
   1      8     8.797    42.441    0.16E-03    0.14E-04    0.30E-06
   2      7     8.797     3.596    0.92E-04    0.15E-03    0.85E-07
  PAW_PBE Cs_sv 08Apr2002               :
 energy of atom  1       EATOM= -555.6835
 kinetic energy error for atom=    0.0069 (will be added to EATOM!!)
  PAW_PBE Pb_d 06Sep2000                :
 energy of atom  2       EATOM=-1661.6185
 kinetic energy error for atom=    0.0498 (will be added to EATOM!!)
  PAW_PBE Br 06Sep2000                  :
 energy of atom  3       EATOM= -368.4488
 kinetic energy error for atom=    0.0072 (will be added to EATOM!!)


 POSCAR: Cs4 Pb4 Br12                            
  positions in direct lattice
  velocities in cartesian coordinates

 METAGGA = SCAN     LMAXTAU =  6    LMIXTAU =  F

 exchange correlation table for  LEXCH =        8
   RHO(1)=    0.500       N(1)  =     2000
   RHO(2)=  100.500       N(2)  =     4000

 VTST: version 3.2, (02/03/18)

 CHAIN: initializing optimizer
 
 OPT: Using VASP Conjugate-Gradient optimizer
 CHAIN: Read ICHAIN            0

 POSCAR: Cs4 Pb4 Br12                            
  positions in direct lattice
  velocities in cartesian coordinates



--------------------------------------------------------------------------------------------------------


 ion  position               nearest neighbor table
   1  0.061  0.250  0.483-
   2  0.439  0.750  0.983-
   3  0.561  0.250  0.017-
   4  0.939  0.750  0.517-
   5  0.000  0.000  0.000-  10 2.99  11 2.99  15 3.00  18 3.00  17 3.01  16 3.01
   6  0.500  0.000  0.500-   9 2.99  12 2.99  16 3.00  17 3.00  15 3.01  18 3.01
   7  0.500  0.500  0.500-   9 2.99  12 2.99  13 3.00  19 3.00  14 3.01  20 3.01
   8  0.000  0.500  0.000-  10 2.99  11 2.99  14 3.00  20 3.00  19 3.01  13 3.01
   9  0.506  0.750  0.432-   6 2.99   7 2.99
  10  0.994  0.250  0.932-   5 2.99   8 2.99
  11  0.006  0.750  0.068-   5 2.99   8 2.99
  12  0.494  0.250  0.568-   6 2.99   7 2.99
  13  0.298  0.465  0.200-   7 3.00   8 3.01
  14  0.202  0.535  0.700-   8 3.00   7 3.01
  15  0.798  0.035  0.300-   5 3.00   6 3.01
  16  0.702  0.965  0.800-   6 3.00   5 3.01
  17  0.298  0.035  0.200-   6 3.00   5 3.01
  18  0.202  0.965  0.700-   5 3.00   6 3.01
  19  0.702  0.535  0.800-   7 3.00   8 3.01
  20  0.798  0.465  0.300-   8 3.00   7 3.01

  LATTYP: Found a simple orthorhombic cell.
 ALAT       =     8.1587603592
 B/A-ratio  =     1.0262223761
 C/A-ratio  =     1.4401042962
  
  Lattice vectors:
  
 A1 = (   0.0000000000,   0.0000000000,   8.1587603592)
 A2 = (  -8.3727024415,   0.0000000000,   0.0000000000)
 A3 = (   0.0000000000, -11.7494658446,   0.0000000000)


Analysis of symmetry for initial positions (statically):
=====================================================================
 Subroutine PRICEL returns:
 Original cell was already a primitive cell.
 

 Routine SETGRP: Setting up the symmetry group for a 
 simple orthorhombic supercell.


 Subroutine GETGRP returns: Found  8 space group operations
 (whereof  2 operations were pure point group operations)
 out of a pool of  8 trial point group operations.


The static configuration has the point symmetry S_2 .
 The point group associated with its full space group is D_2h.


Analysis of symmetry for dynamics (positions and initial velocities):
=====================================================================
 Subroutine PRICEL returns:
 Original cell was already a primitive cell.
 

 Routine SETGRP: Setting up the symmetry group for a 
 simple orthorhombic supercell.


 Subroutine GETGRP returns: Found  8 space group operations
 (whereof  2 operations were pure point group operations)
 out of a pool of  8 trial point group operations.


The dynamic configuration has the point symmetry S_2 .
 The point group associated with its full space group is D_2h.


 Subroutine INISYM returns: Found  8 space group operations
 (whereof  2 operations are pure point group operations),
 and found     1 'primitive' translations



 KPOINTS: 1x1x1                                   

Automatic generation of k-mesh.
Space group operators:
 irot       det(A)        alpha          n_x          n_y          n_z        tau_x        tau_y        tau_z
    1     1.000000     0.000000     1.000000     0.000000     0.000000     0.000000     0.000000     0.000000
    2    -1.000000     0.000000     1.000000     0.000000     0.000000     0.000000     0.000000     0.000000
    3     1.000000   179.999999     0.000000     1.000000     0.000000     0.000000    -0.500000     0.000000
    4    -1.000000   179.999999     0.000000     1.000000     0.000000     0.000000    -0.500000     0.000000
    5     1.000000   180.000000     1.000000     0.000000     0.000000    -0.500000    -0.500000     0.500000
    6    -1.000000   180.000000     1.000000     0.000000     0.000000    -0.500000    -0.500000     0.500000
    7     1.000000   180.000000     0.000000     0.000000     1.000000    -0.500000     0.000000     0.500000
    8    -1.000000   180.000000     0.000000     0.000000     1.000000    -0.500000     0.000000     0.500000
 
 Subroutine IBZKPT returns following result:
 ===========================================
 
 Found      8 irreducible k-points:
 
 Following reciprocal coordinates:
            Coordinates               Weight
  0.000000  0.000000  0.000000      1.000000
  0.333333  0.000000  0.000000      2.000000
  0.000000  0.500000  0.000000      1.000000
  0.333333  0.500000  0.000000      2.000000
  0.000000  0.000000  0.333333      2.000000
  0.333333  0.000000  0.333333      4.000000
  0.000000  0.500000  0.333333      2.000000
  0.333333  0.500000  0.333333      4.000000
 
 Following cartesian coordinates:
            Coordinates               Weight
  0.000000  0.000000  0.000000      1.000000
  0.039812  0.000000  0.000000      2.000000
  0.000000  0.042555  0.000000      1.000000
  0.039812  0.042555  0.000000      2.000000
  0.000000  0.000000  0.040856      2.000000
  0.039812  0.000000  0.040856      4.000000
  0.000000  0.042555  0.040856      2.000000
  0.039812  0.042555  0.040856      4.000000
 


--------------------------------------------------------------------------------------------------------




 Dimension of arrays:
   k-points           NKPTS =      8   k-points in BZ     NKDIM =      8   number of bands    NBANDS=    112
   number of dos      NEDOS =    301   number of ions     NIONS =     20
   non local maximal  LDIM  =      6   non local SUM 2l+1 LMDIM =     18
   total plane-waves  NPLWV = 161280
   max r-space proj   IRMAX =   5362   max aug-charges    IRDMAX=  85538
   dimension x,y,z NGX =    48 NGY =   70 NGZ =   48
   dimension x,y,z NGXF=    96 NGYF=  140 NGZF=   96
   support grid    NGXF=   192 NGYF=  280 NGZF=  192
   ions per type =               4   4  12
   NGX,Y,Z   is equivalent  to a cutoff of   9.53,  9.90,  9.78 a.u.
   NGXF,Y,Z  is equivalent  to a cutoff of  19.06, 19.81, 19.56 a.u.

 SYSTEM =  CsPbBr3 cubic bulk                      
 POSCAR =  Cs4 Pb4 Br12                            

 Startparameter for this run:
   NWRITE =      2    write-flag & timer
   PREC   = accura    normal or accurate (medium, high low for compatibility)
   ISTART =      0    job   : 0-new  1-cont  2-samecut
   ICHARG =      2    charge: 1-file 2-atom 10-const
   ISPIN  =      1    spin polarized calculation?
   LNONCOLLINEAR =      F non collinear calculations
   LSORBIT =      F    spin-orbit coupling
   INIWAV =      1    electr: 0-lowe 1-rand  2-diag
   LASPH  =      T    aspherical Exc in radial PAW
   METAGGA=      F    non-selfconsistent MetaGGA calc.

 Electronic Relaxation 1
   ENCUT  =  300.0 eV  22.05 Ry    4.70 a.u.  11.82 16.59 11.52*2*pi/ulx,y,z
   ENINI  =  300.0     initial cutoff
   ENAUG  =  503.9 eV  augmentation charge cutoff
   NELM   =    200;   NELMIN=  2; NELMDL= -5     # of ELM steps 
   EDIFF  = 0.1E-05   stopping-criterion for ELM
   LREAL  =      T    real-space projection
   NLSPLINE    = F    spline interpolate recip. space projectors
   LCOMPAT=      F    compatible to vasp.4.4
   GGA_COMPAT  = T    GGA compatible to vasp.4.4-vasp.4.6
   LMAXPAW     = -100 max onsite density
   LMAXMIX     =    2 max onsite mixed and CHGCAR
   VOSKOWN=      0    Vosko Wilk Nusair interpolation
   ROPT   =   -0.00025  -0.00025  -0.00025
 Ionic relaxation
   EDIFFG = -.1E-01   stopping-criterion for IOM
   NSW    =      0    number of steps for IOM
   NBLOCK =      1;   KBLOCK =      1    inner block; outer block 
   IBRION =     -1    ionic relax: 0-MD 1-quasi-New 2-CG
   NFREE  =      1    steps in history (QN), initial steepest desc. (CG)
   ISIF   =      3    stress and relaxation
   IWAVPR =     10    prediction:  0-non 1-charg 2-wave 3-comb
   ISYM   =      2    0-nonsym 1-usesym 2-fastsym
   LCORR  =      T    Harris-Foulkes like correction to forces

   POTIM  = 0.5000    time-step for ionic-motion
   TEIN   =    0.0    initial temperature
   TEBEG  =    0.0;   TEEND  =   0.0 temperature during run
   SMASS  =  -3.00    Nose mass-parameter (am)
   estimated Nose-frequenzy (Omega)   =  0.10E-29 period in steps =****** mass=  -0.160E-26a.u.
   SCALEE = 1.0000    scale energy and forces
   NPACO  =    256;   APACO  = 16.0  distance and # of slots for P.C.
   PSTRESS=    0.0 pullay stress

  Mass of Ions in am
   POMASS = 132.90207.20 79.90
  Ionic Valenz
   ZVAL   =   9.00 14.00  7.00
  Atomic Wigner-Seitz radii
   RWIGS  =  -1.00 -1.00 -1.00
  virtual crystal weights 
   VCA    =   1.00  1.00  1.00
   NELECT =     176.0000    total number of electrons
   NUPDOWN=      -1.0000    fix difference up-down

 DOS related values:
   EMIN   =  10.00;   EMAX   =-10.00  energy-range for DOS
   EFERMI =   0.00
   ISMEAR =     0;   SIGMA  =   0.01  broadening in eV -4-tet -1-fermi 0-gaus

 Electronic relaxation 2 (details)
   IALGO  =     38    algorithm
   LDIAG  =      T    sub-space diagonalisation (order eigenvalues)
   LSUBROT=      F    optimize rotation matrix (better conditioning)
   TURBO    =      0    0=normal 1=particle mesh
   IRESTART =      0    0=no restart 2=restart with 2 vectors
   NREBOOT  =      0    no. of reboots
   NMIN     =      0    reboot dimension
   EREF     =   0.00    reference energy to select bands
   IMIX   =      4    mixing-type and parameters
     AMIX     =   0.40;   BMIX     =  1.00
     AMIX_MAG =   1.60;   BMIX_MAG =  1.00
     AMIN     =   0.10
     WC   =   100.;   INIMIX=   1;  MIXPRE=   1;  MAXMIX= -45

 Intra band minimization:
   WEIMIN = 0.0000     energy-eigenvalue tresh-hold
   EBREAK =  0.22E-08  absolut break condition
   DEPER  =   0.30     relativ break condition  

   TIME   =   0.40     timestep for ELM

  volume/ion in A,a.u.               =      40.13       270.82
  Fermi-wavevector in a.u.,A,eV,Ry     =   0.987210  1.865557 13.260026  0.974584
  Thomas-Fermi vector in A             =   2.118648

 Write flags
   LWAVE        =      F    write WAVECAR
   LDOWNSAMPLE  =      F    k-point downsampling of WAVECAR
   LCHARG       =      F    write CHGCAR
   LVTOT        =      F    write LOCPOT, total local potential
   LVHAR        =      T    write LOCPOT, Hartree potential only
   LELF         =      F    write electronic localiz. function (ELF)
   LORBIT       =     10    0 simple, 1 ext, 2 COOP (PROOUT), +10 PAW based schemes


 Dipole corrections
   LMONO  =      F    monopole corrections only (constant potential shift)
   LDIPOL =      F    correct potential (dipole corrections)
   IDIPOL =      0    1-x, 2-y, 3-z, 4-all directions 
   EPSILON=  1.0000000 bulk dielectric constant

 Exchange correlation treatment:
   GGA     =    --    GGA type
   LEXCH   =     8    internal setting for exchange type
   VOSKOWN=      0    Vosko Wilk Nusair interpolation
   LHFCALC =     F    Hartree Fock is set to
   LHFONE  =     F    Hartree Fock one center treatment
   AEXX    =    0.0000 exact exchange contribution

 Linear response parameters
   LEPSILON=     F    determine dielectric tensor
   LRPA    =     F    only Hartree local field effects (RPA)
   LNABLA  =     F    use nabla operator in PAW spheres
   LVEL    =     F    velocity operator in full k-point grid
   LINTERFAST=   F  fast interpolation
   KINTER  =     0    interpolate to denser k-point grid
   CSHIFT  =0.1000    complex shift for real part using Kramers Kronig
   OMEGAMAX=  -1.0    maximum frequency
   DEG_THRESHOLD= 0.2000000E-02 threshold for treating states as degnerate
   RTIME   =   -0.100 relaxation time in fs
  (WPLASMAI=    0.000 imaginary part of plasma frequency in eV, 0.658/RTIME)
   DFIELD  = 0.0000000 0.0000000 0.0000000 field for delta impulse in time

 Orbital magnetization related:
   ORBITALMAG=     F  switch on orbital magnetization
   LCHIMAG   =     F  perturbation theory with respect to B field
   DQ        =  0.001000  dq finite difference perturbation B field
   LLRAUG    =     F  two centre corrections for induced B field



--------------------------------------------------------------------------------------------------------


 Static calculation
 charge density and potential will be updated during run
 non-spin polarized calculation
 Variant of blocked Davidson
 Davidson routine will perform the subspace rotation
 perform sub-space diagonalisation
    after iterative eigenvector-optimisation
 modified Broyden-mixing scheme, WC =      100.0
 initial mixing is a Kerker type mixing with AMIX =  0.4000 and BMIX =      1.0000
 Hartree-type preconditioning will be used
 using additional bands           24
 real space projection scheme for non local part
 use partial core corrections
 calculate Harris-corrections to forces   (improved forces if not selfconsistent)
 use gradient corrections 
 use of overlap-Matrix (Vanderbilt PP)
 Gauss-broadening in eV      SIGMA  =   0.01


--------------------------------------------------------------------------------------------------------


  energy-cutoff  :      300.00
  volume of cell :      802.62
      direct lattice vectors                 reciprocal lattice vectors
     8.372702442  0.000000000  0.000000000     0.119435751  0.000000000  0.000000000
     0.000000000 11.749465845  0.000000000     0.000000000  0.085110252  0.000000000
     0.000000000  0.000000000  8.158760359     0.000000000  0.000000000  0.122567640

  length of vectors
     8.372702442 11.749465845  8.158760359     0.119435751  0.085110252  0.122567640



 k-points in units of 2pi/SCALE and weight: 1x1x1                                   
   0.00000000  0.00000000  0.00000000       0.056
   0.03981192  0.00000000  0.00000000       0.111
   0.00000000  0.04255513  0.00000000       0.056
   0.03981192  0.04255513  0.00000000       0.111
   0.00000000  0.00000000  0.04085588       0.111
   0.03981192  0.00000000  0.04085588       0.222
   0.00000000  0.04255513  0.04085588       0.111
   0.03981192  0.04255513  0.04085588       0.222

 k-points in reciprocal lattice and weights: 1x1x1                                   
   0.00000000  0.00000000  0.00000000       0.056
   0.33333333  0.00000000  0.00000000       0.111
   0.00000000  0.50000000  0.00000000       0.056
   0.33333333  0.50000000  0.00000000       0.111
   0.00000000  0.00000000  0.33333333       0.111
   0.33333333  0.00000000  0.33333333       0.222
   0.00000000  0.50000000  0.33333333       0.111
   0.33333333  0.50000000  0.33333333       0.222

 position of ions in fractional coordinates (direct lattice) 
   0.06058496  0.25000000  0.48343568
   0.43941504  0.75000000  0.98343568
   0.56058496  0.25000000  0.01656432
   0.93941504  0.75000000  0.51656432
   0.00000000  0.00000000  0.00000000
   0.50000000  0.00000000  0.50000000
   0.50000000  0.50000000  0.50000000
   0.00000000  0.50000000  0.00000000
   0.50603518  0.75000000  0.43210579
   0.99396482  0.25000000  0.93210579
   0.00603518  0.75000000  0.06789421
   0.49396482  0.25000000  0.56789421
   0.29788690  0.46546847  0.19989321
   0.20211310  0.53453153  0.69989321
   0.79788690  0.03453153  0.30010679
   0.70211310  0.96546847  0.80010679
   0.29788690  0.03453153  0.19989321
   0.20211310  0.96546847  0.69989321
   0.70211310  0.53453153  0.80010679
   0.79788690  0.46546847  0.30010679

 position of ions in cartesian coordinates  (Angst):
   0.50725985  2.93736646  3.94423586
   3.67909137  8.81209938  8.02361604
   4.69361107  2.93736646  0.13514432
   7.86544259  8.81209938  4.21452450
   0.00000000  0.00000000  0.00000000
   4.18635122  0.00000000  4.07938018
   4.18635122  5.87473292  4.07938018
   0.00000000  5.87473292  0.00000000
   4.23688200  8.81209938  3.52544759
   8.32217167  2.93736646  7.60482777
   0.05053078  8.81209938  0.55393259
   4.13582045  2.93736646  4.63331277
   2.49411841  5.46900585  1.63088077
   1.69223281  6.28046000  5.71026095
   6.68046963  0.40572708  2.44849941
   5.87858403 11.34373877  6.52787959
   2.49411841  0.40572708  1.63088077
   1.69223281 11.34373877  5.71026095
   5.87858403  6.28046000  6.52787959
   6.68046963  5.46900585  2.44849941



--------------------------------------------------------------------------------------------------------


 k-point  1 :   0.0000 0.0000 0.0000  plane waves:    9493
 k-point  2 :   0.3333 0.0000 0.0000  plane waves:    9486
 k-point  3 :   0.0000 0.5000 0.0000  plane waves:    9470
 k-point  4 :   0.3333 0.5000 0.0000  plane waves:    9476
 k-point  5 :   0.0000 0.0000 0.3333  plane waves:    9485
 k-point  6 :   0.3333 0.0000 0.3333  plane waves:    9474
 k-point  7 :   0.0000 0.5000 0.3333  plane waves:    9478
 k-point  8 :   0.3333 0.5000 0.3333  plane waves:    9464

 maximum and minimum number of plane-waves per node :      1205     1166

 maximum number of plane-waves:      9493
 maximum index in each direction: 
   IXMAX=   11   IYMAX=   16   IZMAX=   11
   IXMIN=  -12   IYMIN=  -17   IZMIN=  -11


 real space projection operators:
  total allocation   :       7972.12 KBytes
  max/ min on nodes  :       1035.94        965.59


 parallel 3D FFT for wavefunctions:
    minimum data exchange during FFTs selected (reduces bandwidth)
 parallel 3D FFT for charge:
    minimum data exchange during FFTs selected (reduces bandwidth)


 total amount of memory used by VASP MPI-rank0    42346. kBytes
=======================================================================

   base      :      30000. kBytes
   nonlr-proj:       3002. kBytes
   fftplans  :       3667. kBytes
   grid      :       3424. kBytes
   one-center:         46. kBytes
   wavefun   :       2207. kBytes

     INWAV:  cpu time    0.0000: real time    0.0000
 Broyden mixing: mesh for mixing (old mesh)
   NGX = 23   NGY = 33   NGZ = 23
  (NGX  = 96   NGY  =140   NGZ  = 96)
  gives a total of  17457 points

 initial charge density was supplied:
 charge density of overlapping atoms calculated
 number of electron     176.0000000 magnetization 
 keeping initial charge density in first step


--------------------------------------------------------------------------------------------------------


 Maximum index for non-local projection operator          622
 Maximum index for augmentation-charges         2345 (set IRDMAX)


--------------------------------------------------------------------------------------------------------


 First call to EWALD:  gamma=   0.191
 Maximum number of real-space cells 3x 2x 3
 Maximum number of reciprocal cells 3x 3x 2

    FEWALD:  cpu time    0.0021: real time    0.0021


--------------------------------------- Iteration      1(   1)  ---------------------------------------


    POTLOK:  cpu time    0.1318: real time    0.1329
    SETDIJ:  cpu time    1.0965: real time    1.0965
     EDDAV:  cpu time    3.9531: real time    3.9591
       DOS:  cpu time    0.0006: real time    0.0006
    --------------------------------------------
      LOOP:  cpu time    5.1820: real time    5.1891

 eigenvalue-minimisations  :  1840
 total energy-change (2. order) : 0.6658253E+03  (-0.5618169E+04)
 number of electron     176.0000000 magnetization 
 augmentation part      176.0000000 magnetization 

 Free energy of the ion-electron system (eV)
  ---------------------------------------------------
  alpha Z        PSCENC =       449.54101829
  Ewald energy   TEWEN  =     -9228.46668776
  -Hartree energ DENC   =     -3655.22216904
  -exchange      EXHF   =         0.00000000
  -V(xc)+E(xc)   XCENC  =       462.00726106
  PAW double counting   =     10816.98087266   -11353.96092700
  entropy T*S    EENTRO =        -0.00062688
  eigenvalues    EBANDS =      -115.33354841
  atomic energy  EATOM  =     13290.28009929
  Solvation  Ediel_sol  =         0.00000000
  ---------------------------------------------------
  free energy    TOTEN  =       665.82529222 eV

  energy without entropy =      665.82591910  energy(sigma->0) =      665.82560566


--------------------------------------------------------------------------------------------------------




--------------------------------------- Iteration      1(   2)  ---------------------------------------


     EDDAV:  cpu time    4.4142: real time    4.4536
       DOS:  cpu time    0.0003: real time    0.0003
    --------------------------------------------
      LOOP:  cpu time    4.4145: real time    4.4539

 eigenvalue-minimisations  :  2176
 total energy-change (2. order) :-0.1239471E+04  (-0.1186153E+04)
 number of electron     176.0000000 magnetization 
 augmentation part      176.0000000 magnetization 

 Free energy of the ion-electron system (eV)
  ---------------------------------------------------
  alpha Z        PSCENC =       449.54101829
  Ewald energy   TEWEN  =     -9228.46668776
  -Hartree energ DENC   =     -3655.22216904
  -exchange      EXHF   =         0.00000000
  -V(xc)+E(xc)   XCENC  =       462.00726106
  PAW double counting   =     10816.98087266   -11353.96092700
  entropy T*S    EENTRO =        -0.00000000
  eigenvalues    EBANDS =     -1354.80542256
  atomic energy  EATOM  =     13290.28009929
  Solvation  Ediel_sol  =         0.00000000
  ---------------------------------------------------
  free energy    TOTEN  =      -573.64595506 eV

  energy without entropy =     -573.64595506  energy(sigma->0) =     -573.64595506


--------------------------------------------------------------------------------------------------------




--------------------------------------- Iteration      1(   3)  ---------------------------------------


     EDDAV:  cpu time    4.7822: real time    4.7903
       DOS:  cpu time    0.0003: real time    0.0003
    --------------------------------------------
      LOOP:  cpu time    4.7825: real time    4.7906

 eigenvalue-minimisations  :  2432
 total energy-change (2. order) :-0.1751005E+03  (-0.1739262E+03)
 number of electron     176.0000000 magnetization 
 augmentation part      176.0000000 magnetization 

 Free energy of the ion-electron system (eV)
  ---------------------------------------------------
  alpha Z        PSCENC =       449.54101829
  Ewald energy   TEWEN  =     -9228.46668776
  -Hartree energ DENC   =     -3655.22216904
  -exchange      EXHF   =         0.00000000
  -V(xc)+E(xc)   XCENC  =       462.00726106
  PAW double counting   =     10816.98087266   -11353.96092700
  entropy T*S    EENTRO =        -0.00000000
  eigenvalues    EBANDS =     -1529.90592919
  atomic energy  EATOM  =     13290.28009929
  Solvation  Ediel_sol  =         0.00000000
  ---------------------------------------------------
  free energy    TOTEN  =      -748.74646168 eV

  energy without entropy =     -748.74646168  energy(sigma->0) =     -748.74646168


--------------------------------------------------------------------------------------------------------




--------------------------------------- Iteration      1(   4)  ---------------------------------------


     EDDAV:  cpu time    4.3844: real time    4.3994
       DOS:  cpu time    0.0003: real time    0.0003
    --------------------------------------------
      LOOP:  cpu time    4.3847: real time    4.3997

 eigenvalue-minimisations  :  2144
 total energy-change (2. order) :-0.5754054E+01  (-0.5734112E+01)
 number of electron     176.0000000 magnetization 
 augmentation part      176.0000000 magnetization 

 Free energy of the ion-electron system (eV)
  ---------------------------------------------------
  alpha Z        PSCENC =       449.54101829
  Ewald energy   TEWEN  =     -9228.46668776
  -Hartree energ DENC   =     -3655.22216904
  -exchange      EXHF   =         0.00000000
  -V(xc)+E(xc)   XCENC  =       462.00726106
  PAW double counting   =     10816.98087266   -11353.96092700
  entropy T*S    EENTRO =        -0.00000000
  eigenvalues    EBANDS =     -1535.65998288
  atomic energy  EATOM  =     13290.28009929
  Solvation  Ediel_sol  =         0.00000000
  ---------------------------------------------------
  free energy    TOTEN  =      -754.50051537 eV

  energy without entropy =     -754.50051537  energy(sigma->0) =     -754.50051537


--------------------------------------------------------------------------------------------------------




--------------------------------------- Iteration      1(   5)  ---------------------------------------


     EDDAV:  cpu time    4.7097: real time    4.7296
       DOS:  cpu time    0.0003: real time    0.0003
    CHARGE:  cpu time    0.8619: real time    0.8620
    MIXING:  cpu time    0.0008: real time    0.0008
    --------------------------------------------
      LOOP:  cpu time    5.5727: real time    5.5927

 eigenvalue-minimisations  :  2392
 total energy-change (2. order) :-0.2809473E+00  (-0.2807464E+00)
 number of electron     176.0000000 magnetization 
 augmentation part       -3.2474320 magnetization 

 Broyden mixing:
  rms(total) = 0.70557E+00    rms(broyden)= 0.70531E+00
  rms(prec ) = 0.97591E+00
  weight for this iteration     100.00

 Free energy of the ion-electron system (eV)
  ---------------------------------------------------
  alpha Z        PSCENC =       449.54101829
  Ewald energy   TEWEN  =     -9228.46668776
  -Hartree energ DENC   =     -3655.22216904
  -exchange      EXHF   =         0.00000000
  -V(xc)+E(xc)   XCENC  =       462.00726106
  PAW double counting   =     10816.98087266   -11353.96092700
  entropy T*S    EENTRO =        -0.00000000
  eigenvalues    EBANDS =     -1535.94093016
  atomic energy  EATOM  =     13290.28009929
  Solvation  Ediel_sol  =         0.00000000
  ---------------------------------------------------
  free energy    TOTEN  =      -754.78146265 eV

  energy without entropy =     -754.78146265  energy(sigma->0) =     -754.78146265


--------------------------------------------------------------------------------------------------------




--------------------------------------- Iteration      1(   6)  ---------------------------------------


    POTLOK:  cpu time    0.1510: real time    0.1634
    SETDIJ:  cpu time    1.0922: real time    1.0923
     EDDAV:  cpu time    4.6388: real time    4.6391
       DOS:  cpu time    0.0004: real time    0.0004
    CHARGE:  cpu time    0.8436: real time    0.8437
    MIXING:  cpu time    0.0009: real time    0.0009
    --------------------------------------------
      LOOP:  cpu time    6.7270: real time    6.7397

 eigenvalue-minimisations  :  2368
 total energy-change (2. order) : 0.3977259E+02  (-0.1182982E+01)
 number of electron     176.0000000 magnetization 
 augmentation part       -2.5275616 magnetization 

 Broyden mixing:
  rms(total) = 0.50232E+00    rms(broyden)= 0.50225E+00
  rms(prec ) = 0.62307E+00
  weight for this iteration     100.00

 eigenvalues of (default mixing * dielectric matrix)
  average eigenvalue GAMMA=   1.1698
  1.1698

 Free energy of the ion-electron system (eV)
  ---------------------------------------------------
  alpha Z        PSCENC =       449.54101829
  Ewald energy   TEWEN  =     -9228.46668776
  -Hartree energ DENC   =     -3645.38339299
  -exchange      EXHF   =         0.00000000
  -V(xc)+E(xc)   XCENC  =       477.50847508
  PAW double counting   =     10967.16826136   -11503.30176719
  entropy T*S    EENTRO =        -0.00000000
  eigenvalues    EBANDS =     -1522.35487697
  atomic energy  EATOM  =     13290.28009929
  Solvation  Ediel_sol  =         0.00000000
  ---------------------------------------------------
  free energy    TOTEN  =      -715.00887090 eV

  energy without entropy =     -715.00887090  energy(sigma->0) =     -715.00887090


--------------------------------------------------------------------------------------------------------




--------------------------------------- Iteration      1(   7)  ---------------------------------------


    POTLOK:  cpu time    0.1426: real time    0.1479
    SETDIJ:  cpu time    1.0924: real time    1.0924
     EDDAV:  cpu time    4.5126: real time    4.5129
       DOS:  cpu time    0.0004: real time    0.0004
    CHARGE:  cpu time    0.8250: real time    0.8251
    MIXING:  cpu time    0.0009: real time    0.0009
    --------------------------------------------
      LOOP:  cpu time    6.5739: real time    6.5796

 eigenvalue-minimisations  :  2272
 total energy-change (2. order) : 0.2283279E+00  (-0.3808665E+00)
 number of electron     176.0000000 magnetization 
 augmentation part       -2.2661164 magnetization 

 Broyden mixing:
  rms(total) = 0.25795E+00    rms(broyden)= 0.25794E+00
  rms(prec ) = 0.28267E+00
  weight for this iteration     100.00

 eigenvalues of (default mixing * dielectric matrix)
  average eigenvalue GAMMA=   1.3159
  1.3159  1.3159

 Free energy of the ion-electron system (eV)
  ---------------------------------------------------
  alpha Z        PSCENC =       449.54101829
  Ewald energy   TEWEN  =     -9228.46668776
  -Hartree energ DENC   =     -3665.21966936
  -exchange      EXHF   =         0.00000000
  -V(xc)+E(xc)   XCENC  =       480.16497939
  PAW double counting   =     11276.16809736   -11811.44443877
  entropy T*S    EENTRO =        -0.00000000
  eigenvalues    EBANDS =     -1505.80394140
  atomic energy  EATOM  =     13290.28009929
  Solvation  Ediel_sol  =         0.00000000
  ---------------------------------------------------
  free energy    TOTEN  =      -714.78054297 eV

  energy without entropy =     -714.78054297  energy(sigma->0) =     -714.78054297


--------------------------------------------------------------------------------------------------------




--------------------------------------- Iteration      1(   8)  ---------------------------------------


    POTLOK:  cpu time    0.1197: real time    0.1673
    SETDIJ:  cpu time    1.0925: real time    1.0926
     EDDAV:  cpu time    4.3536: real time    4.3537
       DOS:  cpu time    0.0003: real time    0.0004
    CHARGE:  cpu time    0.8305: real time    0.8306
    MIXING:  cpu time    0.0009: real time    0.0009
    --------------------------------------------
      LOOP:  cpu time    6.3976: real time    6.4454

 eigenvalue-minimisations  :  2152
 total energy-change (2. order) :-0.9531317E-01  (-0.1807785E-01)
 number of electron     176.0000000 magnetization 
 augmentation part       -2.3062316 magnetization 

 Broyden mixing:
  rms(total) = 0.14836E+00    rms(broyden)= 0.14836E+00
  rms(prec ) = 0.16392E+00
  weight for this iteration     100.00

 eigenvalues of (default mixing * dielectric matrix)
  average eigenvalue GAMMA=   1.7222
  1.1104  1.2977  2.7585

 Free energy of the ion-electron system (eV)
  ---------------------------------------------------
  alpha Z        PSCENC =       449.54101829
  Ewald energy   TEWEN  =     -9228.46668776
  -Hartree energ DENC   =     -3667.50757553
  -exchange      EXHF   =         0.00000000
  -V(xc)+E(xc)   XCENC  =       480.57555111
  PAW double counting   =     11398.93357908   -11934.37439125
  entropy T*S    EENTRO =        -0.00000000
  eigenvalues    EBANDS =     -1503.85744937
  atomic energy  EATOM  =     13290.28009929
  Solvation  Ediel_sol  =         0.00000000
  ---------------------------------------------------
  free energy    TOTEN  =      -714.87585613 eV

  energy without entropy =     -714.87585613  energy(sigma->0) =     -714.87585613


--------------------------------------------------------------------------------------------------------




--------------------------------------- Iteration      1(   9)  ---------------------------------------


    POTLOK:  cpu time    0.1381: real time    0.1763
    SETDIJ:  cpu time    1.0921: real time    1.0921
     EDDAV:  cpu time    4.1661: real time    4.1664
       DOS:  cpu time    0.0006: real time    0.0006
    CHARGE:  cpu time    0.8295: real time    0.8295
    MIXING:  cpu time    0.0009: real time    0.0009
    --------------------------------------------
      LOOP:  cpu time    6.2275: real time    6.2660

 eigenvalue-minimisations  :  2008
 total energy-change (2. order) :-0.4041196E-01  (-0.8115267E-02)
 number of electron     176.0000000 magnetization 
 augmentation part       -2.3279862 magnetization 

 Broyden mixing:
  rms(total) = 0.32783E-01    rms(broyden)= 0.32780E-01
  rms(prec ) = 0.35119E-01
  weight for this iteration     100.00

 eigenvalues of (default mixing * dielectric matrix)
  average eigenvalue GAMMA=   1.4674
  2.5552  1.2429  1.2429  0.8287

 Free energy of the ion-electron system (eV)
  ---------------------------------------------------
  alpha Z        PSCENC =       449.54101829
  Ewald energy   TEWEN  =     -9228.46668776
  -Hartree energ DENC   =     -3670.05689568
  -exchange      EXHF   =         0.00000000
  -V(xc)+E(xc)   XCENC  =       481.57675561
  PAW double counting   =     11574.11915841   -12109.94548879
  entropy T*S    EENTRO =        -0.00000000
  eigenvalues    EBANDS =     -1501.96422748
  atomic energy  EATOM  =     13290.28009929
  Solvation  Ediel_sol  =         0.00000000
  ---------------------------------------------------
  free energy    TOTEN  =      -714.91626810 eV

  energy without entropy =     -714.91626810  energy(sigma->0) =     -714.91626810


--------------------------------------------------------------------------------------------------------




--------------------------------------- Iteration      1(  10)  ---------------------------------------


    POTLOK:  cpu time    0.1220: real time    0.1756
    SETDIJ:  cpu time    1.0922: real time    1.0922
     EDDAV:  cpu time    4.8332: real time    4.8334
       DOS:  cpu time    0.0004: real time    0.0004
    CHARGE:  cpu time    0.8242: real time    0.8243
    MIXING:  cpu time    0.0010: real time    0.0010
    --------------------------------------------
      LOOP:  cpu time    6.8731: real time    6.9269

 eigenvalue-minimisations  :  2512
 total energy-change (2. order) :-0.7414829E-03  (-0.4595713E-03)
 number of electron     176.0000000 magnetization 
 augmentation part       -2.3213242 magnetization 

 Broyden mixing:
  rms(total) = 0.18220E-01    rms(broyden)= 0.18219E-01
  rms(prec ) = 0.20286E-01
  weight for this iteration     100.00

 eigenvalues of (default mixing * dielectric matrix)
  average eigenvalue GAMMA=   1.5782
  2.3914  2.3914  1.1272  1.1272  0.8537

 Free energy of the ion-electron system (eV)
  ---------------------------------------------------
  alpha Z        PSCENC =       449.54101829
  Ewald energy   TEWEN  =     -9228.46668776
  -Hartree energ DENC   =     -3669.12074839
  -exchange      EXHF   =         0.00000000
  -V(xc)+E(xc)   XCENC  =       481.46548051
  PAW double counting   =     11555.08370166   -12090.94492384
  entropy T*S    EENTRO =        -0.00000000
  eigenvalues    EBANDS =     -1502.75494934
  atomic energy  EATOM  =     13290.28009929
  Solvation  Ediel_sol  =         0.00000000
  ---------------------------------------------------
  free energy    TOTEN  =      -714.91700958 eV

  energy without entropy =     -714.91700958  energy(sigma->0) =     -714.91700958


--------------------------------------------------------------------------------------------------------




--------------------------------------- Iteration      1(  11)  ---------------------------------------


    POTLOK:  cpu time    0.1419: real time    0.1588
    SETDIJ:  cpu time    1.0928: real time    1.0928
     EDDAV:  cpu time    4.1610: real time    4.1612
       DOS:  cpu time    0.0003: real time    0.0003
    CHARGE:  cpu time    0.8257: real time    0.8258
    MIXING:  cpu time    0.0010: real time    0.0010
    --------------------------------------------
      LOOP:  cpu time    6.2227: real time    6.2398

 eigenvalue-minimisations  :  2008
 total energy-change (2. order) :-0.1380868E-02  (-0.1511268E-03)
 number of electron     176.0000000 magnetization 
 augmentation part       -2.3209062 magnetization 

 Broyden mixing:
  rms(total) = 0.63732E-02    rms(broyden)= 0.63727E-02
  rms(prec ) = 0.78407E-02
  weight for this iteration     100.00

 eigenvalues of (default mixing * dielectric matrix)
  average eigenvalue GAMMA=   1.5788
  2.5852  2.5852  1.2291  1.2291  0.9222  0.9222

 Free energy of the ion-electron system (eV)
  ---------------------------------------------------
  alpha Z        PSCENC =       449.54101829
  Ewald energy   TEWEN  =     -9228.46668776
  -Hartree energ DENC   =     -3667.83972073
  -exchange      EXHF   =         0.00000000
  -V(xc)+E(xc)   XCENC  =       481.41731773
  PAW double counting   =     11541.12840573   -12077.13440886
  entropy T*S    EENTRO =        -0.00000000
  eigenvalues    EBANDS =     -1503.84441413
  atomic energy  EATOM  =     13290.28009929
  Solvation  Ediel_sol  =         0.00000000
  ---------------------------------------------------
  free energy    TOTEN  =      -714.91839045 eV

  energy without entropy =     -714.91839045  energy(sigma->0) =     -714.91839045


--------------------------------------------------------------------------------------------------------




--------------------------------------- Iteration      1(  12)  ---------------------------------------


    POTLOK:  cpu time    0.1430: real time    0.1911
    SETDIJ:  cpu time    1.0924: real time    1.0924
     EDDAV:  cpu time    4.2824: real time    4.2826
       DOS:  cpu time    0.0004: real time    0.0004
    CHARGE:  cpu time    0.8344: real time    0.8344
    MIXING:  cpu time    0.0010: real time    0.0010
    --------------------------------------------
      LOOP:  cpu time    6.3536: real time    6.4019

 eigenvalue-minimisations  :  2096
 total energy-change (2. order) :-0.1292323E-03  (-0.4339493E-04)
 number of electron     176.0000000 magnetization 
 augmentation part       -2.3225361 magnetization 

 Broyden mixing:
  rms(total) = 0.22710E-02    rms(broyden)= 0.22703E-02
  rms(prec ) = 0.25437E-02
  weight for this iteration     100.00

 eigenvalues of (default mixing * dielectric matrix)
  average eigenvalue GAMMA=   1.6286
  3.0432  2.3172  1.8837  1.1975  1.0438  0.9575  0.9575

 Free energy of the ion-electron system (eV)
  ---------------------------------------------------
  alpha Z        PSCENC =       449.54101829
  Ewald energy   TEWEN  =     -9228.46668776
  -Hartree energ DENC   =     -3667.92816458
  -exchange      EXHF   =         0.00000000
  -V(xc)+E(xc)   XCENC  =       481.47556415
  PAW double counting   =     11545.77604643   -12081.83538744
  entropy T*S    EENTRO =        -0.00000000
  eigenvalues    EBANDS =     -1503.76100807
  atomic energy  EATOM  =     13290.28009929
  Solvation  Ediel_sol  =         0.00000000
  ---------------------------------------------------
  free energy    TOTEN  =      -714.91851968 eV

  energy without entropy =     -714.91851968  energy(sigma->0) =     -714.91851968


--------------------------------------------------------------------------------------------------------




--------------------------------------- Iteration      1(  13)  ---------------------------------------


    POTLOK:  cpu time    0.1458: real time    0.1674
    SETDIJ:  cpu time    1.0925: real time    1.0925
     EDDAV:  cpu time    4.5240: real time    4.5241
       DOS:  cpu time    0.0004: real time    0.0004
    CHARGE:  cpu time    0.8285: real time    0.8287
    MIXING:  cpu time    0.0013: real time    0.0013
    --------------------------------------------
      LOOP:  cpu time    6.5925: real time    6.6143

 eigenvalue-minimisations  :  2280
 total energy-change (2. order) :-0.1014919E-04  (-0.3750583E-05)
 number of electron     176.0000000 magnetization 
 augmentation part       -2.3225136 magnetization 

 Broyden mixing:
  rms(total) = 0.72322E-03    rms(broyden)= 0.72206E-03
  rms(prec ) = 0.78269E-03
  weight for this iteration     100.00

 eigenvalues of (default mixing * dielectric matrix)
  average eigenvalue GAMMA=   1.6473
  2.9749  2.3260  2.3260  1.3089  1.3089  0.9429  0.9955  0.9955

 Free energy of the ion-electron system (eV)
  ---------------------------------------------------
  alpha Z        PSCENC =       449.54101829
  Ewald energy   TEWEN  =     -9228.46668776
  -Hartree energ DENC   =     -3668.06310845
  -exchange      EXHF   =         0.00000000
  -V(xc)+E(xc)   XCENC  =       481.48772199
  PAW double counting   =     11544.50062203   -12080.56547306
  entropy T*S    EENTRO =        -0.00000000
  eigenvalues    EBANDS =     -1503.63272217
  atomic energy  EATOM  =     13290.28009929
  Solvation  Ediel_sol  =         0.00000000
  ---------------------------------------------------
  free energy    TOTEN  =      -714.91852983 eV

  energy without entropy =     -714.91852983  energy(sigma->0) =     -714.91852983


--------------------------------------------------------------------------------------------------------




--------------------------------------- Iteration      1(  14)  ---------------------------------------


    POTLOK:  cpu time    0.1186: real time    0.1765
    SETDIJ:  cpu time    1.0929: real time    1.0930
     EDDAV:  cpu time    3.8849: real time    3.8851
       DOS:  cpu time    0.0004: real time    0.0004
    CHARGE:  cpu time    0.8278: real time    0.8278
    MIXING:  cpu time    0.0011: real time    0.0011
    --------------------------------------------
      LOOP:  cpu time    5.9257: real time    5.9839

 eigenvalue-minimisations  :  1768
 total energy-change (2. order) :-0.1027331E-04  (-0.3023514E-06)
 number of electron     176.0000000 magnetization 
 augmentation part       -2.3223136 magnetization 

 Broyden mixing:
  rms(total) = 0.19892E-03    rms(broyden)= 0.19491E-03
  rms(prec ) = 0.24644E-03
  weight for this iteration     100.00

 eigenvalues of (default mixing * dielectric matrix)
  average eigenvalue GAMMA=   1.6752
  2.8764  2.8764  2.0576  2.0576  1.1587  1.1587  0.9284  0.9814  0.9814

 Free energy of the ion-electron system (eV)
  ---------------------------------------------------
  alpha Z        PSCENC =       449.54101829
  Ewald energy   TEWEN  =     -9228.46668776
  -Hartree energ DENC   =     -3668.08169804
  -exchange      EXHF   =         0.00000000
  -V(xc)+E(xc)   XCENC  =       481.48836161
  PAW double counting   =     11544.16990714   -12080.23226430
  entropy T*S    EENTRO =        -0.00000000
  eigenvalues    EBANDS =     -1503.61727634
  atomic energy  EATOM  =     13290.28009929
  Solvation  Ediel_sol  =         0.00000000
  ---------------------------------------------------
  free energy    TOTEN  =      -714.91854010 eV

  energy without entropy =     -714.91854010  energy(sigma->0) =     -714.91854010


--------------------------------------------------------------------------------------------------------




--------------------------------------- Iteration      1(  15)  ---------------------------------------


    POTLOK:  cpu time    0.1199: real time    0.1753
    SETDIJ:  cpu time    1.0927: real time    1.0928
     EDDAV:  cpu time    3.2282: real time    3.2284
       DOS:  cpu time    0.0004: real time    0.0004
    CHARGE:  cpu time    0.8293: real time    0.8293
    MIXING:  cpu time    0.0011: real time    0.0011
    --------------------------------------------
      LOOP:  cpu time    5.2716: real time    5.3273

 eigenvalue-minimisations  :  1256
 total energy-change (2. order) :-0.7631187E-05  (-0.7035464E-07)
 number of electron     176.0000000 magnetization 
 augmentation part       -2.3223449 magnetization 

 Broyden mixing:
  rms(total) = 0.12488E-03    rms(broyden)= 0.11845E-03
  rms(prec ) = 0.12912E-03
  weight for this iteration     100.00

 eigenvalues of (default mixing * dielectric matrix)
  average eigenvalue GAMMA=   1.6199
  2.9055  2.9055  2.1501  2.1501  1.1765  1.1765  1.0193  1.0193  0.9183  0.7775

 Free energy of the ion-electron system (eV)
  ---------------------------------------------------
  alpha Z        PSCENC =       449.54101829
  Ewald energy   TEWEN  =     -9228.46668776
  -Hartree energ DENC   =     -3668.06214657
  -exchange      EXHF   =         0.00000000
  -V(xc)+E(xc)   XCENC  =       481.48703107
  PAW double counting   =     11544.08021260   -12080.14460242
  entropy T*S    EENTRO =        -0.00000000
  eigenvalues    EBANDS =     -1503.63347224
  atomic energy  EATOM  =     13290.28009929
  Solvation  Ediel_sol  =         0.00000000
  ---------------------------------------------------
  free energy    TOTEN  =      -714.91854774 eV

  energy without entropy =     -714.91854774  energy(sigma->0) =     -714.91854774


--------------------------------------------------------------------------------------------------------




--------------------------------------- Iteration      1(  16)  ---------------------------------------


    POTLOK:  cpu time    0.1468: real time    0.1710
    SETDIJ:  cpu time    1.0923: real time    1.0924
     EDDAV:  cpu time    3.1469: real time    3.1470
       DOS:  cpu time    0.0004: real time    0.0004
    CHARGE:  cpu time    0.8332: real time    0.8332
    MIXING:  cpu time    0.0015: real time    0.0015
    --------------------------------------------
      LOOP:  cpu time    5.2210: real time    5.2454

 eigenvalue-minimisations  :  1192
 total energy-change (2. order) : 0.4244015E-05  (-0.2006213E-07)
 number of electron     176.0000000 magnetization 
 augmentation part       -2.3223711 magnetization 

 Broyden mixing:
  rms(total) = 0.58325E-04    rms(broyden)= 0.42849E-04
  rms(prec ) = 0.48513E-04
  weight for this iteration     100.00
  WARNING: grid for Broyden might be to small

 eigenvalues of (default mixing * dielectric matrix)
  average eigenvalue GAMMA=   1.5659
  3.0401  2.5914  2.5914  1.8235  1.3767  1.1376  1.1376  0.9554  0.9554  0.8077
  0.8077

 Free energy of the ion-electron system (eV)
  ---------------------------------------------------
  alpha Z        PSCENC =       449.54101829
  Ewald energy   TEWEN  =     -9228.46668776
  -Hartree energ DENC   =     -3668.06708931
  -exchange      EXHF   =         0.00000000
  -V(xc)+E(xc)   XCENC  =       481.48748190
  PAW double counting   =     11544.11985274   -12080.18265892
  entropy T*S    EENTRO =        -0.00000000
  eigenvalues    EBANDS =     -1503.63055973
  atomic energy  EATOM  =     13290.28009929
  Solvation  Ediel_sol  =         0.00000000
  ---------------------------------------------------
  free energy    TOTEN  =      -714.91854349 eV

  energy without entropy =     -714.91854349  energy(sigma->0) =     -714.91854349


--------------------------------------------------------------------------------------------------------




--------------------------------------- Iteration      1(  17)  ---------------------------------------


    POTLOK:  cpu time    0.1437: real time    0.1604
    SETDIJ:  cpu time    1.0929: real time    1.0929
     EDDAV:  cpu time    3.0672: real time    3.0674
       DOS:  cpu time    0.0003: real time    0.0003
    CHARGE:  cpu time    0.8271: real time    0.8271
    MIXING:  cpu time    0.0012: real time    0.0012
    --------------------------------------------
      LOOP:  cpu time    5.1324: real time    5.1493

 eigenvalue-minimisations  :  1128
 total energy-change (2. order) : 0.1628683E-05  (-0.6726315E-08)
 number of electron     176.0000000 magnetization 
 augmentation part       -2.3223733 magnetization 

 Broyden mixing:
  rms(total) = 0.44192E-04    rms(broyden)= 0.19682E-04
  rms(prec ) = 0.23079E-04
  weight for this iteration     100.00
  WARNING: grid for Broyden might be to small

 eigenvalues of (default mixing * dielectric matrix)
  average eigenvalue GAMMA=   1.6705
  3.1983  3.1543  2.4969  2.0711  2.0711  1.2124  1.2124  0.9949  0.9949  0.9783
  0.9783  0.6838

 Free energy of the ion-electron system (eV)
  ---------------------------------------------------
  alpha Z        PSCENC =       449.54101829
  Ewald energy   TEWEN  =     -9228.46668776
  -Hartree energ DENC   =     -3668.07005114
  -exchange      EXHF   =         0.00000000
  -V(xc)+E(xc)   XCENC  =       481.48774184
  PAW double counting   =     11544.12823714   -12080.19193760
  entropy T*S    EENTRO =        -0.00000000
  eigenvalues    EBANDS =     -1503.62696193
  atomic energy  EATOM  =     13290.28009929
  Solvation  Ediel_sol  =         0.00000000
  ---------------------------------------------------
  free energy    TOTEN  =      -714.91854186 eV

  energy without entropy =     -714.91854186  energy(sigma->0) =     -714.91854186


--------------------------------------------------------------------------------------------------------




--------------------------------------- Iteration      1(  18)  ---------------------------------------


    POTLOK:  cpu time    0.1636: real time    0.1649
    SETDIJ:  cpu time    1.0940: real time    1.0941
     EDDAV:  cpu time    3.0070: real time    3.0072
       DOS:  cpu time    0.0006: real time    0.0006
    --------------------------------------------
      LOOP:  cpu time    4.2653: real time    4.2667

 eigenvalue-minimisations  :  1080
 total energy-change (2. order) : 0.5458253E-06  (-0.3687284E-08)
 number of electron     176.0000000 magnetization 
 augmentation part       -2.3223733 magnetization 

 Free energy of the ion-electron system (eV)
  ---------------------------------------------------
  alpha Z        PSCENC =       449.54101829
  Ewald energy   TEWEN  =     -9228.46668776
  -Hartree energ DENC   =     -3668.07164866
  -exchange      EXHF   =         0.00000000
  -V(xc)+E(xc)   XCENC  =       481.48785967
  PAW double counting   =     11544.10298039   -12080.16572558
  entropy T*S    EENTRO =        -0.00000000
  eigenvalues    EBANDS =     -1503.62643697
  atomic energy  EATOM  =     13290.28009929
  Solvation  Ediel_sol  =         0.00000000
  ---------------------------------------------------
  free energy    TOTEN  =      -714.91854132 eV

  energy without entropy =     -714.91854132  energy(sigma->0) =     -714.91854132


--------------------------------------------------------------------------------------------------------




 average (electrostatic) potential at core
  the test charge radii are     1.1312  1.1541  1.0178
  (the norm of the test charge is              1.0000)
       1 -55.2411       2 -55.2411       3 -55.2411       4 -55.2411       5-101.6373
       6-101.6373       7-101.6373       8-101.6373       9 -68.9785      10 -68.9785
      11 -68.9785      12 -68.9785      13 -68.9715      14 -68.9715      15 -68.9715
      16 -68.9715      17 -68.9715      18 -68.9715      19 -68.9715      20 -68.9715



 E-fermi :   0.5362     XC(G=0):  -8.0790     alpha+bet : -7.0526


 k-point     1 :       0.0000    0.0000    0.0000
  band No.  band energies     occupation 
      1     -20.7713      2.00000
      2     -20.7696      2.00000
      3     -20.7676      2.00000
      4     -20.7664      2.00000
      5     -16.4595      2.00000
      6     -16.4485      2.00000
      7     -16.4483      2.00000
      8     -16.4339      2.00000
      9     -16.4005      2.00000
     10     -16.3687      2.00000
     11     -16.3621      2.00000
     12     -16.3619      2.00000
     13     -16.3005      2.00000
     14     -16.3001      2.00000
     15     -16.2993      2.00000
     16     -16.2988      2.00000
     17     -16.2972      2.00000
     18     -16.2968      2.00000
     19     -16.2963      2.00000
     20     -16.2957      2.00000
     21     -16.2918      2.00000
     22     -16.2913      2.00000
     23     -16.2904      2.00000
     24     -16.2900      2.00000
     25     -14.3282      2.00000
     26     -14.1438      2.00000
     27     -14.0186      2.00000
     28     -14.0128      2.00000
     29     -13.9954      2.00000
     30     -13.9890      2.00000
     31     -13.9854      2.00000
     32     -13.9817      2.00000
     33     -13.9508      2.00000
     34     -13.7333      2.00000
     35     -13.7294      2.00000
     36     -13.7259      2.00000
     37      -8.1566      2.00000
     38      -7.6497      2.00000
     39      -7.2139      2.00000
     40      -7.2014      2.00000
     41      -7.2008      2.00000
     42      -7.1945      2.00000
     43      -7.1748      2.00000
     44      -7.1718      2.00000
     45      -7.1696      2.00000
     46      -7.1673      2.00000
     47      -7.1609      2.00000
     48      -7.1543      2.00000
     49      -7.1443      2.00000
     50      -7.1350      2.00000
     51      -7.1120      2.00000
     52      -6.5218      2.00000
     53      -3.2955      2.00000
     54      -3.2616      2.00000
     55      -3.2266      2.00000
     56      -3.1567      2.00000
     57      -3.1249      2.00000
     58      -3.0792      2.00000
     59      -2.1173      2.00000
     60      -1.8995      2.00000
     61      -1.8595      2.00000
     62      -1.8568      2.00000
     63      -1.8397      2.00000
     64      -1.7656      2.00000
     65      -1.6138      2.00000
     66      -1.4973      2.00000
     67      -1.4897      2.00000
     68      -1.4727      2.00000
     69      -1.4072      2.00000
     70      -1.4001      2.00000
     71      -1.3962      2.00000
     72      -1.3840      2.00000
     73      -1.3370      2.00000
     74      -1.3256      2.00000
     75      -1.3202      2.00000
     76      -1.3146      2.00000
     77      -1.2995      2.00000
     78      -1.2217      2.00000
     79      -1.1171      2.00000
     80      -1.1014      2.00000
     81      -1.0967      2.00000
     82      -1.0384      2.00000
     83      -1.0020      2.00000
     84      -0.9686      2.00000
     85      -0.7999      2.00000
     86      -0.6141      2.00000
     87      -0.1493      2.00000
     88       0.4651      2.00000
     89       2.7562      0.00000
     90       2.8106      0.00000
     91       2.8605      0.00000
     92       3.1353      0.00000
     93       3.3005      0.00000
     94       3.5529      0.00000
     95       4.9124      0.00000
     96       5.7087      0.00000
     97       5.8247      0.00000
     98       5.9592      0.00000
     99       6.0437      0.00000
    100       6.0942      0.00000
    101       6.1239      0.00000
    102       6.2336      0.00000
    103       6.3431      0.00000
    104       6.3766      0.00000
    105       6.5408      0.00000
    106       6.5640      0.00000
    107       6.5837      0.00000
    108       6.7540      0.00000
    109       6.8271      0.00000
    110       6.8645      0.00000
    111       6.9113      0.00000
    112       7.0433      0.00000

 k-point     2 :       0.3333    0.0000    0.0000
  band No.  band energies     occupation 
      1     -20.7703      2.00000
      2     -20.7688      2.00000
      3     -20.7684      2.00000
      4     -20.7672      2.00000
      5     -16.4529      2.00000
      6     -16.4401      2.00000
      7     -16.4280      2.00000
      8     -16.4279      2.00000
      9     -16.3925      2.00000
     10     -16.3848      2.00000
     11     -16.3847      2.00000
     12     -16.3765      2.00000
     13     -16.3002      2.00000
     14     -16.2997      2.00000
     15     -16.2996      2.00000
     16     -16.2991      2.00000
     17     -16.2970      2.00000
     18     -16.2968      2.00000
     19     -16.2962      2.00000
     20     -16.2958      2.00000
     21     -16.2915      2.00000
     22     -16.2910      2.00000
     23     -16.2908      2.00000
     24     -16.2904      2.00000
     25     -14.2786      2.00000
     26     -14.1449      2.00000
     27     -14.1067      2.00000
     28     -14.0276      2.00000
     29     -14.0175      2.00000
     30     -14.0145      2.00000
     31     -13.9245      2.00000
     32     -13.9175      2.00000
     33     -13.8319      2.00000
     34     -13.7946      2.00000
     35     -13.7898      2.00000
     36     -13.7556      2.00000
     37      -7.9477      2.00000
     38      -7.4729      2.00000
     39      -7.4380      2.00000
     40      -7.2179      2.00000
     41      -7.1892      2.00000
     42      -7.1886      2.00000
     43      -7.1819      2.00000
     44      -7.1706      2.00000
     45      -7.1648      2.00000
     46      -7.1555      2.00000
     47      -7.1534      2.00000
     48      -7.1446      2.00000
     49      -7.1382      2.00000
     50      -7.1354      2.00000
     51      -7.1310      2.00000
     52      -6.8643      2.00000
     53      -3.2481      2.00000
     54      -3.1524      2.00000
     55      -2.9620      2.00000
     56      -2.8324      2.00000
     57      -2.7081      2.00000
     58      -2.6826      2.00000
     59      -2.2166      2.00000
     60      -2.0981      2.00000
     61      -2.0458      2.00000
     62      -1.9555      2.00000
     63      -1.9553      2.00000
     64      -1.9107      2.00000
     65      -1.8020      2.00000
     66      -1.6821      2.00000
     67      -1.6406      2.00000
     68      -1.5996      2.00000
     69      -1.4276      2.00000
     70      -1.4020      2.00000
     71      -1.3779      2.00000
     72      -1.3747      2.00000
     73      -1.3575      2.00000
     74      -1.3571      2.00000
     75      -1.2869      2.00000
     76      -1.2751      2.00000
     77      -1.2232      2.00000
     78      -1.1896      2.00000
     79      -1.1863      2.00000
     80      -1.1793      2.00000
     81      -1.1177      2.00000
     82      -1.1011      2.00000
     83      -1.0389      2.00000
     84      -0.9969      2.00000
     85      -0.7960      2.00000
     86      -0.6587      2.00000
     87      -0.5059      2.00000
     88      -0.0758      2.00000
     89       2.9838      0.00000
     90       3.3296      0.00000
     91       3.5730      0.00000
     92       3.7356      0.00000
     93       3.9191      0.00000
     94       4.1096      0.00000
     95       5.1071      0.00000
     96       5.1201      0.00000
     97       5.2024      0.00000
     98       5.4142      0.00000
     99       5.8181      0.00000
    100       5.8667      0.00000
    101       6.1908      0.00000
    102       6.2448      0.00000
    103       6.4136      0.00000
    104       6.4459      0.00000
    105       6.5037      0.00000
    106       6.5441      0.00000
    107       6.5530      0.00000
    108       6.7416      0.00000
    109       6.8539      0.00000
    110       7.0304      0.00000
    111       7.0784      0.00000
    112       7.0951      0.00000

 k-point     3 :       0.0000    0.5000    0.0000
  band No.  band energies     occupation 
      1     -20.7704      2.00000
      2     -20.7704      2.00000
      3     -20.7670      2.00000
      4     -20.7670      2.00000
      5     -16.4484      2.00000
      6     -16.4484      2.00000
      7     -16.4302      2.00000
      8     -16.4302      2.00000
      9     -16.4018      2.00000
     10     -16.4018      2.00000
     11     -16.3620      2.00000
     12     -16.3620      2.00000
     13     -16.3002      2.00000
     14     -16.3002      2.00000
     15     -16.2991      2.00000
     16     -16.2991      2.00000
     17     -16.2967      2.00000
     18     -16.2967      2.00000
     19     -16.2962      2.00000
     20     -16.2962      2.00000
     21     -16.2915      2.00000
     22     -16.2915      2.00000
     23     -16.2902      2.00000
     24     -16.2902      2.00000
     25     -14.2709      2.00000
     26     -14.2709      2.00000
     27     -13.9910      2.00000
     28     -13.9910      2.00000
     29     -13.9855      2.00000
     30     -13.9855      2.00000
     31     -13.9805      2.00000
     32     -13.9805      2.00000
     33     -13.8403      2.00000
     34     -13.8403      2.00000
     35     -13.7276      2.00000
     36     -13.7276      2.00000
     37      -7.9231      2.00000
     38      -7.9231      2.00000
     39      -7.2079      2.00000
     40      -7.2079      2.00000
     41      -7.1917      2.00000
     42      -7.1917      2.00000
     43      -7.1703      2.00000
     44      -7.1703      2.00000
     45      -7.1608      2.00000
     46      -7.1608      2.00000
     47      -7.1530      2.00000
     48      -7.1530      2.00000
     49      -7.1436      2.00000
     50      -7.1436      2.00000
     51      -6.8840      2.00000
     52      -6.8840      2.00000
     53      -3.2090      2.00000
     54      -3.2090      2.00000
     55      -3.1859      2.00000
     56      -3.1859      2.00000
     57      -2.4600      2.00000
     58      -2.4600      2.00000
     59      -2.3166      2.00000
     60      -2.3166      2.00000
     61      -1.9929      2.00000
     62      -1.9929      2.00000
     63      -1.7921      2.00000
     64      -1.7921      2.00000
     65      -1.7632      2.00000
     66      -1.7632      2.00000
     67      -1.4668      2.00000
     68      -1.4668      2.00000
     69      -1.4535      2.00000
     70      -1.4535      2.00000
     71      -1.3425      2.00000
     72      -1.3425      2.00000
     73      -1.3291      2.00000
     74      -1.3291      2.00000
     75      -1.2921      2.00000
     76      -1.2921      2.00000
     77      -1.1785      2.00000
     78      -1.1785      2.00000
     79      -1.1760      2.00000
     80      -1.1760      2.00000
     81      -1.0836      2.00000
     82      -1.0836      2.00000
     83      -1.0835      2.00000
     84      -1.0835      2.00000
     85      -0.8229      2.00000
     86      -0.8229      2.00000
     87      -0.0039      2.00000
     88      -0.0039      2.00000
     89       2.9606      0.00000
     90       2.9606      0.00000
     91       3.0764      0.00000
     92       3.0764      0.00000
     93       4.3403      0.00000
     94       4.3403      0.00000
     95       4.9080      0.00000
     96       4.9080      0.00000
     97       5.5905      0.00000
     98       5.5905      0.00000
     99       6.0489      0.00000
    100       6.0489      0.00000
    101       6.0904      0.00000
    102       6.0904      0.00000
    103       6.3105      0.00000
    104       6.3105      0.00000
    105       6.3546      0.00000
[...]
     60      -2.3633      2.00000
     61      -2.1795      2.00000
     62      -2.1795      2.00000
     63      -2.0131      2.00000
     64      -2.0131      2.00000
     65      -1.6812      2.00000
     66      -1.6812      2.00000
     67      -1.6349      2.00000
     68      -1.6349      2.00000
     69      -1.5145      2.00000
     70      -1.5145      2.00000
     71      -1.4314      2.00000
     72      -1.4314      2.00000
     73      -1.3250      2.00000
     74      -1.3250      2.00000
     75      -1.2919      2.00000
     76      -1.2919      2.00000
     77      -1.1744      2.00000
     78      -1.1744      2.00000
     79      -1.1212      2.00000
     80      -1.1212      2.00000
     81      -1.0948      2.00000
     82      -1.0948      2.00000
     83      -1.0604      2.00000
     84      -1.0604      2.00000
     85      -0.8665      2.00000
     86      -0.8665      2.00000
     87      -0.6052      2.00000
     88      -0.6052      2.00000
     89       3.7787      0.00000
     90       3.7787      0.00000
     91       3.8351      0.00000
     92       3.8351      0.00000
     93       4.4756      0.00000
     94       4.4756      0.00000
     95       4.7479      0.00000
     96       4.7479      0.00000
     97       5.2078      0.00000
     98       5.2078      0.00000
     99       5.2622      0.00000
    100       5.2622      0.00000
    101       6.0737      0.00000
    102       6.0737      0.00000
    103       6.3315      0.00000
    104       6.3315      0.00000
    105       6.4815      0.00000
    106       6.4815      0.00000
    107       6.6893      0.00000
    108       6.6893      0.00000
    109       6.8476      0.00000
    110       6.8476      0.00000
    111       7.0051      0.00000
    112       7.0051      0.00000

 k-point     8 :       0.3333    0.5000    0.3333
  band No.  band energies     occupation 
      1     -20.7691      2.00000
      2     -20.7691      2.00000
      3     -20.7682      2.00000
      4     -20.7682      2.00000
      5     -16.4367      2.00000
      6     -16.4367      2.00000
      7     -16.4242      2.00000
      8     -16.4242      2.00000
      9     -16.4000      2.00000
     10     -16.4000      2.00000
     11     -16.3839      2.00000
     12     -16.3839      2.00000
     13     -16.2998      2.00000
     14     -16.2998      2.00000
     15     -16.2995      2.00000
     16     -16.2995      2.00000
     17     -16.2965      2.00000
     18     -16.2965      2.00000
     19     -16.2964      2.00000
     20     -16.2964      2.00000
     21     -16.2911      2.00000
     22     -16.2911      2.00000
     23     -16.2907      2.00000
     24     -16.2907      2.00000
     25     -14.1812      2.00000
     26     -14.1812      2.00000
     27     -14.0972      2.00000
     28     -14.0972      2.00000
     29     -13.9957      2.00000
     30     -13.9957      2.00000
     31     -13.9144      2.00000
     32     -13.9144      2.00000
     33     -13.8266      2.00000
     34     -13.8266      2.00000
     35     -13.7938      2.00000
     36     -13.7938      2.00000
     37      -7.5803      2.00000
     38      -7.5803      2.00000
     39      -7.3391      2.00000
     40      -7.3391      2.00000
     41      -7.1882      2.00000
     42      -7.1882      2.00000
     43      -7.1725      2.00000
     44      -7.1725      2.00000
     45      -7.1559      2.00000
     46      -7.1559      2.00000
     47      -7.1506      2.00000
     48      -7.1506      2.00000
     49      -7.1464      2.00000
     50      -7.1464      2.00000
     51      -7.1233      2.00000
     52      -7.1233      2.00000
     53      -3.1148      2.00000
     54      -3.1148      2.00000
     55      -2.7578      2.00000
     56      -2.7578      2.00000
     57      -2.5049      2.00000
     58      -2.5049      2.00000
     59      -2.3748      2.00000
     60      -2.3748      2.00000
     61      -2.1208      2.00000
     62      -2.1208      2.00000
     63      -1.9814      2.00000
     64      -1.9814      2.00000
     65      -1.7040      2.00000
     66      -1.7040      2.00000
     67      -1.6217      2.00000
     68      -1.6217      2.00000
     69      -1.4805      2.00000
     70      -1.4805      2.00000
     71      -1.3979      2.00000
     72      -1.3979      2.00000
     73      -1.3363      2.00000
     74      -1.3363      2.00000
     75      -1.2564      2.00000
     76      -1.2564      2.00000
     77      -1.2245      2.00000
     78      -1.2245      2.00000
     79      -1.1590      2.00000
     80      -1.1590      2.00000
     81      -1.1009      2.00000
     82      -1.1009      2.00000
     83      -1.0515      2.00000
     84      -1.0515      2.00000
     85      -0.7871      2.00000
     86      -0.7871      2.00000
     87      -0.5227      2.00000
     88      -0.5227      2.00000
     89       3.2668      0.00000
     90       3.2668      0.00000
     91       4.0512      0.00000
     92       4.0512      0.00000
     93       4.5549      0.00000
     94       4.5549      0.00000
     95       4.6908      0.00000
     96       4.6908      0.00000
     97       5.0682      0.00000
     98       5.0682      0.00000
     99       5.7937      0.00000
    100       5.7937      0.00000
    101       6.3243      0.00000
    102       6.3243      0.00000
    103       6.4614      0.00000
    104       6.4614      0.00000
    105       6.6410      0.00000
    106       6.6410      0.00000
    107       6.7764      0.00000
    108       6.7764      0.00000
    109       6.8728      0.00000
    110       6.8728      0.00000
    111       6.9763      0.00000
    112       6.9763      0.00000


--------------------------------------------------------------------------------------------------------


 soft charge-density along one line, spin component           1
         0         1         2         3         4         5         6         7         8         9
 total charge-density along one line

 pseudopotential strength for first ion, spin component:           1
 17.956  -4.700  -0.000  -0.001  -0.001   0.000   0.001   0.001
 -4.700   1.239   0.000   0.000   0.000  -0.000  -0.000  -0.000
 -0.000   0.000   2.258  -0.000  -0.000  -2.699   0.000   0.000
 -0.001   0.000  -0.000   2.259  -0.001   0.000  -2.701   0.001
 -0.001   0.000  -0.000  -0.001   2.258   0.000   0.001  -2.700
  0.000  -0.000  -2.699   0.000   0.000   3.194  -0.000  -0.000
  0.001  -0.000   0.000  -2.701   0.001  -0.000   3.197  -0.002
  0.001  -0.000   0.000   0.001  -2.700  -0.000  -0.002   3.195
 -0.000   0.000   0.000  -0.000   0.000  -0.000   0.000  -0.000
 -0.000   0.000   0.001   0.000  -0.000  -0.001  -0.000   0.000
  0.001  -0.000   0.000  -0.002   0.000  -0.000   0.002  -0.000
 -0.001   0.000  -0.000  -0.000   0.000   0.000   0.000  -0.000
  0.000  -0.000   0.000  -0.000  -0.001  -0.000   0.000   0.001
 total augmentation occupancy for first ion, spin component:           1
  1.911  -0.141   0.000  -0.000  -0.000   0.000  -0.000  -0.000   0.000   0.000   0.000  -0.002   0.000
 -0.141   0.118   0.000  -0.003  -0.001   0.000   0.001   0.002   0.000   0.000  -0.001   0.005   0.001
  0.000   0.000   2.016   0.000   0.000   0.003   0.000   0.000   0.002   0.002   0.000   0.000   0.000
 -0.000  -0.003   0.000   2.017  -0.003   0.000   0.004  -0.002   0.000   0.000  -0.005  -0.000  -0.000
 -0.000  -0.001   0.000  -0.003   2.017   0.000  -0.002   0.004   0.000   0.000   0.001   0.001  -0.003
  0.000   0.000   0.003   0.000   0.000   0.008   0.000   0.000  -0.001  -0.002   0.000   0.000   0.000
 -0.000   0.001   0.000   0.004  -0.002   0.000   0.008   0.001   0.000   0.000   0.003  -0.001   0.000
 -0.000   0.002   0.000  -0.002   0.004   0.000   0.001   0.009   0.000   0.000  -0.001  -0.001   0.002
  0.000   0.000   0.002   0.000   0.000  -0.001   0.000   0.000   0.006   0.002   0.000  -0.000   0.000
  0.000   0.000   0.002   0.000   0.000  -0.002   0.000   0.000   0.002   0.005   0.000   0.000   0.000
  0.000  -0.001   0.000  -0.005   0.001   0.000   0.003  -0.001   0.000   0.000   0.005  -0.002  -0.001
 -0.002   0.005   0.000  -0.000   0.001   0.000  -0.001  -0.001  -0.000   0.000  -0.002   0.004   0.001
  0.000   0.001   0.000  -0.000  -0.003   0.000   0.000   0.002   0.000   0.000  -0.001   0.001   0.004


------------------------ aborting loop because EDIFF is reached ----------------------------------------





 total charge     

# of ion       s       p       d       tot
------------------------------------------
    1        1.786   4.719   0.018   6.522
    2        1.785   4.719   0.018   6.522
    3        1.785   4.719   0.018   6.522
    4        1.785   4.719   0.018   6.522
    5        1.553   0.420   9.833  11.807
    6        1.553   0.420   9.833  11.806
    7        1.553   0.420   9.833  11.806
    8        1.553   0.420   9.833  11.807
    9        1.614   3.286   0.006   4.907
   10        1.614   3.286   0.006   4.907
   11        1.614   3.286   0.006   4.907
   12        1.614   3.286   0.006   4.907
   13        1.615   3.271   0.006   4.892
   14        1.613   3.294   0.006   4.913
   15        1.613   3.294   0.006   4.913
   16        1.615   3.271   0.006   4.892
   17        1.615   3.271   0.006   4.892
   18        1.613   3.294   0.006   4.913
   19        1.615   3.271   0.006   4.892
   20        1.613   3.294   0.006   4.913
--------------------------------------------------
tot         32.726  59.961  39.479 132.167

    CHARGE:  cpu time    0.1271: real time    0.1271
    FORLOC:  cpu time    0.0034: real time    0.0034
    FORNL :  cpu time    0.5446: real time    0.5446
    STRESS:  cpu time   12.3229: real time   12.3238
    FORCOR:  cpu time    0.1026: real time    0.1026
    FORHAR:  cpu time    0.0109: real time    0.0109
    MIXING:  cpu time    0.0013: real time    0.0013
    OFIELD:  cpu time    0.0000: real time    0.0000

  FORCE on cell =-STRESS in cart. coord.  units (eV):
  Direction    XX          YY          ZZ          XY          YZ          ZX
  --------------------------------------------------------------------------------------
  Alpha Z   449.54102   449.54102   449.54102
  Ewald   -3088.60658 -3010.67462 -3129.21267     0.00000    -0.00000    -0.00000
  Hartree  1218.52610  1257.71051  1191.83491    -0.00000    -0.00000    -0.00000
  E(xc)    -738.89866  -738.88995  -738.93492    -0.00000     0.00000    -0.03432
  Local   -1398.41537 -1514.69123 -1330.89794    -0.00000     0.00000     0.00000
  n-local   899.62482   900.22120   899.49934     0.00000    -0.00000     0.09382
  augment   406.30233   406.20505   406.19145     0.00000    -0.00004     0.00001
  Kinetic  2251.11690  2250.08226  2250.58685    -0.00000     0.00000    -1.62750
  Fock        0.00000     0.00000     0.00000     0.00000     0.00000     0.00000
  -------------------------------------------------------------------------------------
  Total      -0.80946    -0.49576    -1.39195     0.00000     0.00000     0.00000
  in kB      -1.61585    -0.98964    -2.77861     0.00000     0.00000     0.00000
  external pressure =       -1.79 kB  Pullay stress =        0.00 kB


 VOLUME and BASIS-vectors are now :
 -----------------------------------------------------------------------------
  energy-cutoff  :      300.00
  volume of cell :      802.62
      direct lattice vectors                 reciprocal lattice vectors
     8.372702442  0.000000000  0.000000000     0.119435751  0.000000000  0.000000000
     0.000000000 11.749465845  0.000000000     0.000000000  0.085110252  0.000000000
     0.000000000  0.000000000  8.158760359     0.000000000  0.000000000  0.122567640

  length of vectors
     8.372702442 11.749465845  8.158760359     0.119435751  0.085110252  0.122567640


 FORCES acting on ions
    electron-ion (+dipol)            ewald-force                    non-local-force                 convergence-correction
 -----------------------------------------------------------------------------------------------
   0.275E+02 0.333E-13 -.963E+01   -.274E+02 -.711E-14 0.969E+01   -.828E-01 0.000E+00 -.632E-01   -.177E-04 -.196E-13 -.407E-06
   -.275E+02 0.489E-12 -.963E+01   0.274E+02 -.391E-13 0.969E+01   0.828E-01 -.132E-22 -.632E-01   0.177E-04 0.439E-13 -.407E-06
   0.275E+02 -.149E-11 0.963E+01   -.274E+02 0.142E-13 -.969E+01   -.828E-01 0.132E-22 0.632E-01   -.177E-04 -.545E-14 0.407E-06
   -.275E+02 -.651E-12 0.963E+01   0.274E+02 -.711E-14 -.969E+01   0.828E-01 0.000E+00 0.632E-01   0.177E-04 0.777E-13 0.407E-06
   0.178E-13 -.255E-13 -.988E-14   -.107E-13 -.888E-13 0.568E-13   0.000E+00 0.000E+00 -.638E-23   -.408E-13 0.110E-12 -.527E-13
   0.246E-11 -.563E-12 -.842E-11   -.711E-14 -.675E-13 -.114E-12   0.000E+00 0.000E+00 0.177E-24   -.756E-13 0.738E-13 0.810E-13
   0.318E-11 -.172E-11 -.605E-11   -.284E-13 0.853E-13 -.568E-13   0.000E+00 0.000E+00 0.655E-23   -.823E-13 -.132E-12 0.676E-13
   -.249E-13 0.115E-11 -.224E-13   -.711E-13 0.853E-13 0.426E-13   0.000E+00 0.000E+00 0.105E-23   -.680E-13 -.137E-12 -.556E-13
   0.103E+02 -.680E-12 0.353E+02   -.105E+02 0.284E-13 -.356E+02   0.888E-01 -.529E-22 0.263E+00   0.256E-05 0.285E-13 -.943E-05
   -.103E+02 -.261E-11 0.353E+02   0.105E+02 0.142E-13 -.356E+02   -.888E-01 0.000E+00 0.263E+00   -.256E-05 -.740E-13 -.943E-05
   0.103E+02 0.619E-12 -.353E+02   -.105E+02 0.284E-13 0.356E+02   0.888E-01 0.000E+00 -.263E+00   0.256E-05 0.152E-13 0.943E-05
   -.103E+02 0.242E-11 -.353E+02   0.105E+02 0.284E-13 0.356E+02   -.888E-01 0.529E-22 -.263E+00   -.256E-05 -.787E-13 0.943E-05
   -.196E+02 0.179E+02 0.243E+02   0.198E+02 -.181E+02 -.245E+02   -.161E+00 0.146E+00 0.196E+00   0.140E-04 -.155E-04 -.112E-04
   0.196E+02 -.179E+02 0.243E+02   -.198E+02 0.181E+02 -.245E+02   0.161E+00 -.146E+00 0.196E+00   -.140E-04 0.155E-04 -.112E-04
   -.196E+02 -.179E+02 -.243E+02   0.198E+02 0.181E+02 0.245E+02   -.161E+00 -.146E+00 -.196E+00   0.140E-04 0.155E-04 0.112E-04
   0.196E+02 0.179E+02 -.243E+02   -.198E+02 -.181E+02 0.245E+02   0.161E+00 0.146E+00 -.196E+00   -.140E-04 -.155E-04 0.112E-04
   -.196E+02 -.179E+02 0.243E+02   0.198E+02 0.181E+02 -.245E+02   -.161E+00 -.146E+00 0.196E+00   0.140E-04 0.155E-04 -.112E-04
   0.196E+02 0.179E+02 0.243E+02   -.198E+02 -.181E+02 -.245E+02   0.161E+00 0.146E+00 0.196E+00   -.140E-04 -.155E-04 -.112E-04
   0.196E+02 -.179E+02 -.243E+02   -.198E+02 0.181E+02 0.245E+02   0.161E+00 -.146E+00 -.196E+00   -.140E-04 0.155E-04 0.112E-04
   -.196E+02 0.179E+02 -.243E+02   0.198E+02 -.181E+02 0.245E+02   -.161E+00 0.146E+00 -.196E+00   0.140E-04 -.155E-04 0.112E-04
 -----------------------------------------------------------------------------------------------
   0.433E-11 -.502E-11 -.218E-10   0.142E-13 0.426E-13 -.213E-13   -.111E-15 0.000E+00 0.000E+00   -.283E-12 -.129E-12 0.876E-13


 POSITION                                       TOTAL-FORCE (eV/Angst)
 -----------------------------------------------------------------------------------
      0.50726      2.93737      3.94424        -0.006195      0.000000     -0.000456
      3.67909      8.81210      8.02362         0.006195      0.000000     -0.000456
      4.69361      2.93737      0.13514        -0.006195      0.000000      0.000456
      7.86544      8.81210      4.21452         0.006195      0.000000      0.000456
      0.00000      0.00000      0.00000         0.000000      0.000000     -0.000000
      4.18635      0.00000      4.07938         0.000000      0.000000     -0.000000
      4.18635      5.87473      4.07938         0.000000      0.000000     -0.000000
      0.00000      5.87473      0.00000         0.000000      0.000000     -0.000000
      4.23688      8.81210      3.52545         0.006400     -0.000000     -0.013555
      8.32217      2.93737      7.60483        -0.006400      0.000000     -0.013555
      0.05053      8.81210      0.55393         0.006400      0.000000      0.013555
      4.13582      2.93737      4.63331        -0.006400      0.000000      0.013555
      2.49412      5.46901      1.63088         0.007468     -0.005495     -0.001877
      1.69223      6.28046      5.71026        -0.007468      0.005495     -0.001877
      6.68047      0.40573      2.44850         0.007468      0.005495      0.001877
      5.87858     11.34374      6.52788        -0.007468     -0.005495      0.001877
      2.49412      0.40573      1.63088         0.007468      0.005495     -0.001877
      1.69223     11.34374      5.71026        -0.007468     -0.005495     -0.001877
      5.87858      6.28046      6.52788        -0.007468      0.005495      0.001877
      6.68047      5.46901      2.44850         0.007468     -0.005495      0.001877
 -----------------------------------------------------------------------------------
    total drift:                                0.000000     -0.000000     -0.000000


--------------------------------------------------------------------------------------------------------



  FREE ENERGIE OF THE ION-ELECTRON SYSTEM (eV)
  ---------------------------------------------------
  free  energy   TOTEN  =      -714.91854132 eV

  energy  without entropy=     -714.91854132  energy(sigma->0) =     -714.91854132



--------------------------------------------------------------------------------------------------------


    POTLOK:  cpu time    1.1948: real time    1.1948


--------------------------------------------------------------------------------------------------------


 stress matrix after NEB project (eV)
     -0.80946      0.00000      0.00000
      0.00000     -0.49576      0.00000
      0.00000      0.00000     -1.39195
  FORCES: max atom, RMS     0.014990    0.009405
  FORCE total and by dimension    0.042060    0.013555
  Stress total and by dimension    1.684799    1.391955
     LOOP+:  cpu time  117.5958: real time  118.1307
    4ORBIT:  cpu time    0.0000: real time    0.0000



 total charge     

# of ion       s       p       d       tot
------------------------------------------
    1        1.786   4.719   0.018   6.522
    2        1.785   4.719   0.018   6.522
    3        1.785   4.719   0.018   6.522
    4        1.785   4.719   0.018   6.522
    5        1.553   0.420   9.833  11.807
    6        1.553   0.420   9.833  11.806
    7        1.553   0.420   9.833  11.806
    8        1.553   0.420   9.833  11.807
    9        1.614   3.286   0.006   4.907
   10        1.614   3.286   0.006   4.907
   11        1.614   3.286   0.006   4.907
   12        1.614   3.286   0.006   4.907
   13        1.615   3.271   0.006   4.892
   14        1.613   3.294   0.006   4.913
   15        1.613   3.294   0.006   4.913
   16        1.615   3.271   0.006   4.892
   17        1.615   3.271   0.006   4.892
   18        1.613   3.294   0.006   4.913
   19        1.615   3.271   0.006   4.892
   20        1.613   3.294   0.006   4.913
--------------------------------------------------
tot         32.726  59.961  39.479 132.167


 total amount of memory used by VASP MPI-rank0    42346. kBytes
=======================================================================

   base      :      30000. kBytes
   nonlr-proj:       3002. kBytes
   fftplans  :       3667. kBytes
   grid      :       3424. kBytes
   one-center:         46. kBytes
   wavefun   :       2207. kBytes

  
  
 General timing and accounting informations for this job:
 ========================================================
  
                  Total CPU time used (sec):      123.936
                            User time (sec):      123.112
                          System time (sec):        0.824
                         Elapsed time (sec):      124.637
  
                   Maximum memory used (kb):       78064.
                   Average memory used (kb):           0.
  
                          Minor page faults:        19049
                          Major page faults:            2
                 Voluntary context switches:         1642
