PROCAR new format
# of k-points:    8         # of bands:  112         # of ions:   20

 k-point     1 :    0.00000000 0.00000000 0.00000000     weight = 0.05555556

band     1 # energy  -20.77129450 # occ.  2.00000000

ion      s      p      d    tot
    1  0.222  0.000  0.000  0.222
    2  0.222  0.000  0.000  0.222
    3  0.222  0.000  0.000  0.222
    4  0.222  0.000  0.000  0.222
    5  0.000  0.000  0.000  0.000
    6  0.000  0.000  0.000  0.000
    7  0.000  0.000  0.000  0.000
    8  0.000  0.000  0.000  0.000
    9  0.000  0.000  0.000  0.000
   10  0.000  0.000  0.000  0.000
   11  0.000  0.000  0.000  0.000
   12  0.000  0.000  0.000  0.000
   13  0.000  0.000  0.000  0.000
   14  0.000  0.000  0.000  0.000
   15  0.000  0.000  0.000  0.000
   16  0.000  0.000  0.000  0.000
   17  0.000  0.000  0.000  0.000
   18  0.000  0.000  0.000  0.000
   19  0.000  0.000  0.000  0.000
   20  0.000  0.000  0.000  0.000
tot    0.887  0.000  0.000  0.887

band     2 # energy  -20.76960677 # occ.  2.00000000

ion      s      p      d    tot
    1  0.222  0.000  0.000  0.222
    2  0.222  0.000  0.000  0.222
    3  0.222  0.000  0.000  0.222
    4  0.222  0.000  0.000  0.222
    5  0.000  0.000  0.000  0.000
    6  0.000  0.000  0.000  0.000
    7  0.000  0.000  0.000  0.000
    8  0.000  0.000  0.000  0.000
    9  0.000  0.000  0.000  0.000
   10  0.000  0.000  0.000  0.000
   11  0.000  0.000  0.000  0.000
   12  0.000  0.000  0.000  0.000
   13  0.000  0.000  0.000  0.000
   14  0.000  0.000  0.000  0.000
   15  0.000  0.000  0.000  0.000
   16  0.000  0.000  0.000  0.000
   17  0.000  0.000  0.000  0.000
   18  0.000  0.000  0.000  0.000
   19  0.000  0.000  0.000  0.000
   20  0.000  0.000  0.000  0.000
tot    0.888  0.000  0.000  0.888

band     3 # energy  -20.76762814 # occ.  2.00000000

ion      s      p      d    tot
    1  0.222  0.000  0.000  0.222
    2  0.222  0.000  0.000  0.222
    3  0.222  0.000  0.000  0.222
    4  0.222  0.000  0.000  0.222
    5  0.000  0.000  0.000  0.000
    6  0.000  0.000  0.000  0.000
    7  0.000  0.000  0.000  0.000
    8  0.000  0.000  0.000  0.000
    9  0.000  0.000  0.000  0.000
   10  0.000  0.000  0.000  0.000
   11  0.000  0.000  0.000  0.000
   12  0.000  0.000  0.000  0.000
   13  0.000  0.000  0.000  0.000
   14  0.000  0.000  0.000  0.000
   15  0.000  0.000  0.000  0.000
   16  0.000  0.000  0.000  0.000
   17  0.000  0.000  0.000  0.000
   18  0.000  0.000  0.000  0.000
   19  0.000  0.000  0.000  0.000
   20  0.000  0.000  0.000  0.000
tot    0.888  0.000  0.000  0.888

band     4 # energy  -20.76640309 # occ.  2.00000000

ion      s      p      d    tot
    1  0.222  0.000  0.000  0.222
    2  0.222  0.000  0.000  0.222
    3  0.222  0.000  0.000  0.222
    4  0.222  0.000  0.000  0.222
    5  0.000  0.000  0.000  0.000
    6  0.000  0.000  0.000  0.000
    7  0.000  0.000  0.000  0.000
    8  0.000  0.000  0.000  0.000
    9  0.000  0.000  0.000  0.000
   10  0.000  0.000  0.000  0.000
   11  0.000  0.000  0.000  0.000
   12  0.000  0.000  0.000  0.000
   13  0.000  0.000  0.000  0.000
   14  0.000  0.000  0.000  0.000
   15  0.000  0.000  0.000  0.000
   16  0.000  0.000  0.000  0.000
   17  0.000  0.000  0.000  0.000
   18  0.000  0.000  0.000  0.000
   19  0.000  0.000  0.000  0.000
   20  0.000  0.000  0.000  0.000
tot    0.888  0.000  0.000  0.888

band     5 # energy  -16.45946790 # occ.  2.00000000

ion      s      p      d    tot
    1  0.000  0.000  0.000  0.000
    2  0.000  0.000  0.000  0.000
    3  0.000  0.000  0.000  0.000
    4  0.000  0.000  0.000  0.000
    5  0.000  0.000  0.231  0.231
    6  0.000  0.000  0.231  0.231
    7  0.000  0.000  0.231  0.231
    8  0.000  0.000  0.231  0.231
    9  0.006  0.000  0.000  0.007
   10  0.006  0.000  0.000  0.007
   11  0.006  0.000  0.000  0.007
   12  0.006  0.000  0.000  0.007
   13  0.001  0.000  0.000  0.001
   14  0.001  0.000  0.000  0.001
   15  0.001  0.000  0.000  0.001
   16  0.001  0.000  0.000  0.001
   17  0.001  0.000  0.000  0.001
   18  0.001  0.000  0.000  0.001
   19  0.001  0.000  0.000  0.001
   20  0.001  0.000  0.000  0.001
tot    0.037  0.000  0.924  0.961

band     6 # energy  -16.44845096 # occ.  2.00000000

ion      s      p      d    tot
    1  0.000  0.000  0.000  0.000
    2  0.000  0.000  0.000  0.000
    3  0.000  0.000  0.000  0.000
    4  0.000  0.000  0.000  0.000
    5  0.000  0.000  0.231  0.231
    6  0.000  0.000  0.231  0.231
    7  0.000  0.000  0.231  0.231
    8  0.000  0.000  0.231  0.231
    9  0.000  0.000  0.000  0.000
   10  0.000  0.000  0.000  0.000
   11  0.000  0.000  0.000  0.000
   12  0.000  0.000  0.000  0.000
   13  0.004  0.000  0.000  0.004
   14  0.004  0.000  0.000  0.004
   15  0.004  0.000  0.000  0.004
   16  0.004  0.000  0.000  0.004
   17  0.004  0.000  0.000  0.004
   18  0.004  0.000  0.000  0.004
   19  0.004  0.000  0.000  0.004
   20  0.004  0.000  0.000  0.004
tot    0.035  0.000  0.926  0.962

band     7 # energy  -16.44831149 # occ.  2.00000000

ion      s      p      d    tot
    1  0.000  0.000  0.000  0.000
    2  0.000  0.000  0.000  0.000
    3  0.000  0.000  0.000  0.000
    4  0.000  0.000  0.000  0.000
    5  0.000  0.000  0.232  0.232
    6  0.000  0.000  0.232  0.232
    7  0.000  0.000  0.232  0.232
    8  0.000  0.000  0.232  0.232
    9  0.000  0.000  0.000  0.000
   10  0.000  0.000  0.000  0.000
   11  0.000  0.000  0.000  0.000
   12  0.000  0.000  0.000  0.000
   13  0.004  0.000  0.000  0.004
   14  0.004  0.000  0.000  0.004
   15  0.004  0.000  0.000  0.004
   16  0.004  0.000  0.000  0.004
   17  0.004  0.000  0.000  0.004
   18  0.004  0.000  0.000  0.004
   19  0.004  0.000  0.000  0.004
   20  0.004  0.000  0.000  0.004
tot    0.035  0.000  0.926  0.962

band     8 # energy  -16.43387712 # occ.  2.00000000

ion      s      p      d    tot
    1  0.000  0.000  0.000  0.000
    2  0.000  0.000  0.000  0.000
    3  0.000  0.000  0.000  0.000
    4  0.000  0.000  0.000  0.000
    5  0.000  0.000  0.234  0.234
    6  0.000  0.000  0.234  0.234
    7  0.000  0.000  0.234  0.234
    8  0.000  0.000  0.234  0.234
    9  0.007  0.000  0.000  0.007
   10  0.007  0.000  0.000  0.007
   11  0.007  0.000  0.000  0.007
   12  0.007  0.000  0.000  0.007
   13  0.000  0.000  0.000  0.000
   14  0.000  0.000  0.000  0.000
   15  0.000  0.000  0.000  0.000
   16  0.000  0.000  0.000  0.000
   17  0.000  0.000  0.000  0.000
   18  0.000  0.000  0.000  0.000
   19  0.000  0.000  0.000  0.000
   20  0.000  0.000  0.000  0.000
tot    0.028  0.001  0.935  0.964

band     9 # energy  -16.40047871 # occ.  2.00000000

ion      s      p      d    tot
    1  0.000  0.000  0.000  0.000
    2  0.000  0.000  0.000  0.000
    3  0.000  0.000  0.000  0.000
    4  0.000  0.000  0.000  0.000
    5  0.000  0.000  0.238  0.238
    6  0.000  0.000  0.238  0.238
    7  0.000  0.000  0.238  0.238
    8  0.000  0.000  0.238  0.238
    9  0.000  0.000  0.000  0.000
   10  0.000  0.000  0.000  0.000
   11  0.000  0.000  0.000  0.000
   12  0.000  0.000  0.000  0.000
   13  0.002  0.000  0.000  0.002
   14  0.002  0.000  0.000  0.002
   15  0.002  0.000  0.000  0.002
   16  0.002  0.000  0.000  0.002
   17  0.002  0.000  0.000  0.002
   18  0.002  0.000  0.000  0.002
   19  0.002  0.000  0.000  0.002
   20  0.002  0.000  0.000  0.002
tot    0.014  0.002  0.953  0.969

band    10 # energy  -16.36872933 # occ.  2.00000000

ion      s      p      d    tot
    1  0.000  0.000  0.000  0.000
    2  0.000  0.000  0.000  0.000
    3  0.000  0.000  0.000  0.000
    4  0.000  0.000  0.000  0.000
    5  0.000  0.000  0.243  0.243
    6  0.000  0.000  0.243  0.243
    7  0.000  0.000  0.243  0.243
    8  0.000  0.000  0.243  0.243
    9  0.000  0.000  0.000  0.000
   10  0.000  0.000  0.000  0.000
   11  0.000  0.000  0.000  0.000
   12  0.000  0.000  0.000  0.000
   13  0.000  0.000  0.000  0.000
   14  0.000  0.000  0.000  0.000
   15  0.000  0.000  0.000  0.000
   16  0.000  0.000  0.000  0.000
   17  0.000  0.000  0.000  0.000
   18  0.000  0.000  0.000  0.000
   19  0.000  0.000  0.000  0.000
   20  0.000  0.000  0.000  0.000
tot    0.000  0.002  0.972  0.974

band    11 # energy  -16.36206563 # occ.  2.00000000

ion      s      p      d    tot
    1  0.000  0.000  0.000  0.000
    2  0.000  0.000  0.000  0.000
    3  0.000  0.000  0.000  0.000
    4  0.000  0.000  0.000  0.000
    5  0.000  0.000  0.243  0.243
    6  0.000  0.000  0.243  0.243
    7  0.000  0.000  0.243  0.243
    8  0.000  0.000  0.243  0.243
    9  0.000  0.000  0.000  0.000
   10  0.000  0.000  0.000  0.000
   11  0.000  0.000  0.000  0.000
   12  0.000  0.000  0.000  0.000
   13  0.000  0.000  0.000  0.000
   14  0.000  0.000  0.000  0.000
   15  0.000  0.000  0.000  0.000
   16  0.000  0.000  0.000  0.000
   17  0.000  0.000  0.000  0.000
   18  0.000  0.000  0.000  0.000
   19  0.000  0.000  0.000  0.000
   20  0.000  0.000  0.000  0.000
tot    0.000  0.002  0.972  0.975

band    12 # energy  -16.36189315 # occ.  2.00000000

ion      s      p      d    tot
    1  0.000  0.000  0.000  0.000
    2  0.000  0.000  0.000  0.000
    3  0.000  0.000  0.000  0.000
    4  0.000  0.000  0.000  0.000
    5  0.000  0.000  0.243  0.243
    6  0.000  0.000  0.243  0.243
    7  0.000  0.000  0.243  0.243
    8  0.000  0.000  0.243  0.243
    9  0.000  0.000  0.000  0.000
   10  0.000  0.000  0.000  0.000
   11  0.000  0.000  0.000  0.000
   12  0.000  0.000  0.000  0.000
   13  0.000  0.000  0.000  0.000
   14  0.000  0.000  0.000  0.000
   15  0.000  0.000  0.000  0.000
   16  0.000  0.000  0.000  0.000
   17  0.000  0.000  0.000  0.000
   18  0.000  0.000  0.000  0.000
   19  0.000  0.000  0.000  0.000
   20  0.000  0.000  0.000  0.000
tot    0.000  0.002  0.972  0.975

band    13 # energy  -16.30054975 # occ.  2.00000000

ion      s      p      d    tot
    1  0.000  0.000  0.000  0.000
    2  0.000  0.000  0.000  0.000
    3  0.000  0.000  0.000  0.000
    4  0.000  0.000  0.000  0.000
    5  0.000  0.000  0.244  0.244
    6  0.000  0.000  0.244  0.244
    7  0.000  0.000  0.244  0.244
    8  0.000  0.000  0.244  0.244
    9  0.000  0.000  0.000  0.000
   10  0.000  0.000  0.000  0.000
   11  0.000  0.000  0.000  0.000
   12  0.000  0.000  0.000  0.000
   13  0.000  0.000  0.000  0.000
   14  0.000  0.000  0.000  0.000
   15  0.000  0.000  0.000  0.000
   16  0.000  0.000  0.000  0.000
   17  0.000  0.000  0.000  0.000
   18  0.000  0.000  0.000  0.000
   19  0.000  0.000  0.000  0.000
   20  0.000  0.000  0.000  0.000
tot    0.000  0.000  0.977  0.978

band    14 # energy  -16.30005684 # occ.  2.00000000

ion      s      p      d    tot
    1  0.000  0.000  0.000  0.000
    2  0.000  0.000  0.000  0.000
    3  0.000  0.000  0.000  0.000
    4  0.000  0.000  0.000  0.000
    5  0.000  0.000  0.244  0.244
    6  0.000  0.000  0.244  0.244
    7  0.000  0.000  0.244  0.244
    8  0.000  0.000  0.244  0.244
    9  0.000  0.000  0.000  0.000
   10  0.000  0.000  0.000  0.000
   11  0.000  0.000  0.000  0.000
   12  0.000  0.000  0.000  0.000
   13  0.000  0.000  0.000  0.000
   14  0.000  0.000  0.000  0.000
   15  0.000  0.000  0.000  0.000
   16  0.000  0.000  0.000  0.000
   17  0.000  0.000  0.000  0.000
   18  0.000  0.000  0.000  0.000
   19  0.000  0.000  0.000  0.000
   20  0.000  0.000  0.000  0.000
tot    0.000  0.000  0.978  0.978

band    15 # energy  -16.29933678 # occ.  2.00000000

ion      s      p      d    tot
    1  0.000  0.000  0.000  0.000
    2  0.000  0.000  0.000  0.000
    3  0.000  0.000  0.000  0.000
    4  0.000  0.000  0.000  0.000
    5  0.000  0.000  0.244  0.244
    6  0.000  0.000  0.244  0.244
    7  0.000  0.000  0.244  0.244
    8  0.000  0.000  0.244  0.244
    9  0.000  0.000  0.000  0.000
   10  0.000  0.000  0.000  0.000
   11  0.000  0.000  0.000  0.000
   12  0.000  0.000  0.000  0.000
   13  0.000  0.000  0.000  0.000
   14  0.000  0.000  0.000  0.000
   15  0.000  0.000  0.000  0.000
   16  0.000  0.000  0.000  0.000
   17  0.000  0.000  0.000  0.000
   18  0.000  0.000  0.000  0.000
   19  0.000  0.000  0.000  0.000
   20  0.000  0.000  0.000  0.000
tot    0.000  0.000  0.978  0.978

band    16 # energy  -16.29876012 # occ.  2.00000000

ion      s      p      d    tot
    1  0.000  0.000  0.000  0.000
    2  0.000  0.000  0.000  0.000
    3  0.000  0.000  0.000  0.000
    4  0.000  0.000  0.000  0.000
    5  0.000  0.000  0.244  0.244
    6  0.000  0.000  0.244  0.244
    7  0.000  0.000  0.244  0.244
    8  0.000  0.000  0.244  0.244
    9  0.000  0.000  0.000  0.000
   10  0.000  0.000  0.000  0.000
   11  0.000  0.000  0.000  0.000
   12  0.000  0.000  0.000  0.000
   13  0.000  0.000  0.000  0.000
   14  0.000  0.000  0.000  0.000
   15  0.000  0.000  0.000  0.000
   16  0.000  0.000  0.000  0.000
   17  0.000  0.000  0.000  0.000
   18  0.000  0.000  0.000  0.000
   19  0.000  0.000  0.000  0.000
   20  0.000  0.000  0.000  0.000
tot    0.000  0.000  0.978  0.978

band    17 # energy  -16.29716537 # occ.  2.00000000

ion      s      p      d    tot
    1  0.000  0.000  0.000  0.000
    2  0.000  0.000  0.000  0.000
    3  0.000  0.000  0.000  0.000
    4  0.000  0.000  0.000  0.000
    5  0.000  0.000  0.244  0.244
    6  0.000  0.000  0.244  0.244
    7  0.000  0.000  0.244  0.244
    8  0.000  0.000  0.244  0.244
    9  0.000  0.000  0.000  0.000
   10  0.000  0.000  0.000  0.000
   11  0.000  0.000  0.000  0.000
   12  0.000  0.000  0.000  0.000
   13  0.000  0.000  0.000  0.000
   14  0.000  0.000  0.000  0.000
   15  0.000  0.000  0.000  0.000
   16  0.000  0.000  0.000  0.000
   17  0.000  0.000  0.000  0.000
   18  0.000  0.000  0.000  0.000
   19  0.000  0.000  0.000  0.000
   20  0.000  0.000  0.000  0.000
tot    0.000  0.000  0.977  0.978

band    18 # energy  -16.29676741 # occ.  2.00000000

ion      s      p      d    tot
    1  0.000  0.000  0.000  0.000
    2  0.000  0.000  0.000  0.000
    3  0.000  0.000  0.000  0.000
    4  0.000  0.000  0.000  0.000
    5  0.000  0.000  0.245  0.245
    6  0.000  0.000  0.244  0.244
    7  0.000  0.000  0.245  0.245
    8  0.000  0.000  0.244  0.244
    9  0.000  0.000  0.000  0.000
   10  0.000  0.000  0.000  0.000
   11  0.000  0.000  0.000  0.000
   12  0.000  0.000  0.000  0.000
   13  0.000  0.000  0.000  0.000
   14  0.000  0.000  0.000  0.000
   15  0.000  0.000  0.000  0.000
   16  0.000  0.000  0.000  0.000
   17  0.000  0.000  0.000  0.000
   18  0.000  0.000  0.000  0.000
   19  0.000  0.000  0.000  0.000
   20  0.000  0.000  0.000  0.000
tot    0.000  0.000  0.978  0.978

band    19 # energy  -16.29626911 # occ.  2.00000000

ion      s      p      d    tot
    1  0.000  0.000  0.000  0.000
    2  0.000  0.000  0.000  0.000
    3  0.000  0.000  0.000  0.000
    4  0.000  0.000  0.000  0.000
    5  0.000  0.000  0.244  0.244
    6  0.000  0.000  0.245  0.245
    7  0.000  0.000  0.244  0.244
    8  0.000  0.000  0.245  0.245
    9  0.000  0.000  0.000  0.000
   10  0.000  0.000  0.000  0.000
   11  0.000  0.000  0.000  0.000
   12  0.000  0.000  0.000  0.000
   13  0.000  0.000  0.000  0.000
   14  0.000  0.000  0.000  0.000
   15  0.000  0.000  0.000  0.000
   16  0.000  0.000  0.000  0.000
   17  0.000  0.000  0.000  0.000
   18  0.000  0.000  0.000  0.000
   19  0.000  0.000  0.000  0.000
   20  0.000  0.000  0.000  0.000
tot    0.000  0.000  0.978  0.978

band    20 # energy  -16.29572950 # occ.  2.00000000

ion      s      p      d    tot
    1  0.000  0.000  0.000  0.000
    2  0.000  0.000  0.000  0.000
    3  0.000  0.000  0.000  0.000
    4  0.000  0.000  0.000  0.000
    5  0.000  0.000  0.244  0.244
    6  0.000  0.000  0.244  0.244
    7  0.000  0.000  0.244  0.244
    8  0.000  0.000  0.244  0.244
    9  0.000  0.000  0.000  0.000
   10  0.000  0.000  0.000  0.000
   11  0.000  0.000  0.000  0.000
   12  0.000  0.000  0.000  0.000
   13  0.000  0.000  0.000  0.000
   14  0.000  0.000  0.000  0.000
   15  0.000  0.000  0.000  0.000
   16  0.000  0.000  0.000  0.000
   17  0.000  0.000  0.000  0.000
   18  0.000  0.000  0.000  0.000
   19  0.000  0.000  0.000  0.000
   20  0.000  0.000  0.000  0.000
tot    0.000  0.000  0.978  0.978

band    21 # energy  -16.29180809 # occ.  2.00000000

ion      s      p      d    tot
    1  0.000  0.000  0.000  0.000
    2  0.000  0.000  0.000  0.000
    3  0.000  0.000  0.000  0.000
    4  0.000  0.000  0.000  0.000
    5  0.000  0.000  0.244  0.244
    6  0.000  0.000  0.244  0.244
    7  0.000  0.000  0.244  0.244
    8  0.000  0.000  0.244  0.244
    9  0.000  0.000  0.000  0.000
   10  0.000  0.000  0.000  0.000
   11  0.000  0.000  0.000  0.000
   12  0.000  0.000  0.000  0.000
   13  0.000  0.000  0.000  0.000
   14  0.000  0.000  0.000  0.000
   15  0.000  0.000  0.000  0.000
   16  0.000  0.000  0.000  0.000
   17  0.000  0.000  0.000  0.000
   18  0.000  0.000  0.000  0.000
   19  0.000  0.000  0.000  0.000
   20  0.000  0.000  0.000  0.000
tot    0.000  0.000  0.977  0.978

band    22 # energy  -16.29133303 # occ.  2.00000000

ion      s      p      d    tot
    1  0.000  0.000  0.000  0.000
    2  0.000  0.000  0.000  0.000
    3  0.000  0.000  0.000  0.000
    4  0.000  0.000  0.000  0.000
    5  0.000  0.000  0.244  0.244
    6  0.000  0.000  0.244  0.244
    7  0.000  0.000  0.244  0.244
    8  0.000  0.000  0.244  0.244
    9  0.000  0.000  0.000  0.000
   10  0.000  0.000  0.000  0.000
   11  0.000  0.000  0.000  0.000
   12  0.000  0.000  0.000  0.000
   13  0.000  0.000  0.000  0.000
   14  0.000  0.000  0.000  0.000
   15  0.000  0.000  0.000  0.000
   16  0.000  0.000  0.000  0.000
   17  0.000  0.000  0.000  0.000
   18  0.000  0.000  0.000  0.000
   19  0.000  0.000  0.000  0.000
   20  0.000  0.000  0.000  0.000
tot    0.000  0.000  0.978  0.978

band    23 # energy  -16.29040963 # occ.  2.00000000

ion      s      p      d    tot
    1  0.000  0.000  0.000  0.000
    2  0.000  0.000  0.000  0.000
    3  0.000  0.000  0.000  0.000
    4  0.000  0.000  0.000  0.000
    5  0.000  0.000  0.244  0.244
    6  0.000  0.000  0.244  0.244
    7  0.000  0.000  0.244  0.244
    8  0.000  0.000  0.244  0.244
    9  0.000  0.000  0.000  0.000
   10  0.000  0.000  0.000  0.000
   11  0.000  0.000  0.000  0.000
   12  0.000  0.000  0.000  0.000
   13  0.000  0.000  0.000  0.000
   14  0.000  0.000  0.000  0.000
   15  0.000  0.000  0.000  0.000
   16  0.000  0.000  0.000  0.000
   17  0.000  0.000  0.000  0.000
   18  0.000  0.000  0.000  0.000
   19  0.000  0.000  0.000  0.000
   20  0.000  0.000  0.000  0.000
tot    0.000  0.000  0.978  0.978

band    24 # energy  -16.28996976 # occ.  2.00000000

ion      s      p      d    tot
    1  0.000  0.000  0.000  0.000
    2  0.000  0.000  0.000  0.000
    3  0.000  0.000  0.000  0.000
    4  0.000  0.000  0.000  0.000
    5  0.000  0.000  0.244  0.244
    6  0.000  0.000  0.244  0.244
    7  0.000  0.000  0.244  0.244
    8  0.000  0.000  0.244  0.244
    9  0.000  0.000  0.000  0.000
   10  0.000  0.000  0.000  0.000
   11  0.000  0.000  0.000  0.000
   12  0.000  0.000  0.000  0.000
   13  0.000  0.000  0.000  0.000
   14  0.000  0.000  0.000  0.000
   15  0.000  0.000  0.000  0.000
   16  0.000  0.000  0.000  0.000
   17  0.000  0.000  0.000  0.000
   18  0.000  0.000  0.000  0.000
   19  0.000  0.000  0.000  0.000
   20  0.000  0.000  0.000  0.000
tot    0.000  0.000  0.978  0.978

band    25 # energy  -14.32816114 # occ.  2.00000000

ion      s      p      d    tot
    1  0.000  0.000  0.000  0.000
    2  0.000  0.000  0.000  0.000
    3  0.000  0.000  0.000  0.000
    4  0.000  0.000  0.000  0.000
    5  0.008  0.000  0.000  0.008
    6  0.008  0.000  0.000  0.008
    7  0.008  0.000  0.000  0.008
    8  0.008  0.000  0.000  0.008
    9  0.064  0.000  0.000  0.064
   10  0.064  0.000  0.000  0.064
   11  0.064  0.000  0.000  0.064
   12  0.064  0.000  0.000  0.064
   13  0.060  0.000  0.000  0.060
   14  0.060  0.000  0.000  0.060
   15  0.060  0.000  0.000  0.060
   16  0.060  0.000  0.000  0.060
   17  0.060  0.000  0.000  0.060
   18  0.060  0.000  0.000  0.060
   19  0.060  0.000  0.000  0.060
   20  0.060  0.000  0.000  0.060
tot    0.771  0.000  0.000  0.771

band    26 # energy  -14.14375041 # occ.  2.00000000

ion      s      p      d    tot
    1  0.000  0.000  0.000  0.000
    2  0.000  0.000  0.000  0.000
    3  0.000  0.000  0.000  0.000
    4  0.000  0.000  0.000  0.000
    5  0.006  0.000  0.005  0.011
    6  0.006  0.000  0.005  0.011
    7  0.006  0.000  0.005  0.011
    8  0.006  0.000  0.005  0.011
    9  0.000  0.000  0.000  0.000
   10  0.000  0.000  0.000  0.000
   11  0.000  0.000  0.000  0.000
   12  0.000  0.000  0.000  0.000
   13  0.093  0.000  0.000  0.093
   14  0.093  0.000  0.000  0.093
   15  0.093  0.000  0.000  0.093
   16  0.093  0.000  0.000  0.093
   17  0.093  0.000  0.000  0.093
   18  0.093  0.000  0.000  0.093
   19  0.093  0.000  0.000  0.093
   20  0.093  0.000  0.000  0.093
tot    0.764  0.002  0.021  0.787

band    27 # energy  -14.01864282 # occ.  2.00000000

ion      s      p      d    tot
    1  0.000  0.000  0.000  0.000
    2  0.000  0.000  0.000  0.000
    3  0.000  0.000  0.000  0.000
    4  0.000  0.000  0.000  0.000
    5  0.000  0.001  0.000  0.001
    6  0.000  0.001  0.000  0.001
    7  0.000  0.001  0.000  0.001
    8  0.000  0.001  0.000  0.001
    9  0.196  0.000  0.000  0.196
   10  0.196  0.000  0.000  0.196
   11  0.196  0.000  0.000  0.196
   12  0.196  0.000  0.000  0.196
   13  0.001  0.000  0.000  0.001
   14  0.001  0.000  0.000  0.001
   15  0.001  0.000  0.000  0.001
   16  0.001  0.000  0.000  0.001
   17  0.001  0.000  0.000  0.001
   18  0.001  0.000  0.000  0.001
   19  0.001  0.000  0.000  0.001
   20  0.001  0.000  0.000  0.001
tot    0.793  0.005  0.000  0.798

band    28 # energy  -14.01280386 # occ.  2.00000000

ion      s      p      d    tot
    1  0.000  0.000  0.000  0.000
    2  0.000  0.000  0.000  0.000
    3  0.000  0.000  0.000  0.000
    4  0.000  0.000  0.000  0.000
    5  0.000  0.001  0.000  0.001
    6  0.000  0.001  0.000  0.001
    7  0.000  0.001  0.000  0.001
    8  0.000  0.001  0.000  0.001
    9  0.194  0.000  0.000  0.194
   10  0.194  0.000  0.000  0.194
   11  0.194  0.000  0.000  0.194
   12  0.194  0.000  0.000  0.194
   13  0.003  0.000  0.000  0.003
   14  0.003  0.000  0.000  0.003
   15  0.003  0.000  0.000  0.003
   16  0.003  0.000  0.000  0.003
   17  0.003  0.000  0.000  0.003
   18  0.003  0.000  0.000  0.003
   19  0.003  0.000  0.000  0.003
   20  0.003  0.000  0.000  0.003
tot    0.794  0.005  0.000  0.799

band    29 # energy  -13.99536326 # occ.  2.00000000

ion      s      p      d    tot
    1  0.000  0.000  0.000  0.000
    2  0.000  0.000  0.000  0.000
    3  0.000  0.000  0.000  0.000
    4  0.000  0.000  0.000  0.000
    5  0.000  0.001  0.000  0.001
    6  0.000  0.001  0.000  0.001
    7  0.000  0.001  0.000  0.001
    8  0.000  0.001  0.000  0.001
    9  0.005  0.000  0.000  0.005
   10  0.005  0.000  0.000  0.005
   11  0.005  0.000  0.000  0.005
   12  0.005  0.000  0.000  0.005
   13  0.097  0.000  0.000  0.097
   14  0.097  0.000  0.000  0.097
   15  0.097  0.000  0.000  0.097
   16  0.097  0.000  0.000  0.097
   17  0.097  0.000  0.000  0.097
   18  0.097  0.000  0.000  0.097
   19  0.097  0.000  0.000  0.097
   20  0.097  0.000  0.000  0.097
tot    0.793  0.005  0.000  0.798

band    30 # energy  -13.98900416 # occ.  2.00000000

ion      s      p      d    tot
    1  0.000  0.000  0.000  0.000
    2  0.000  0.000  0.000  0.000
    3  0.000  0.000  0.000  0.000
    4  0.000  0.000  0.000  0.000
    5  0.000  0.001  0.000  0.001
    6  0.000  0.001  0.000  0.001
    7  0.000  0.001  0.000  0.001
    8  0.000  0.001  0.000  0.001
    9  0.002  0.000  0.000  0.002
   10  0.002  0.000  0.000  0.002
   11  0.002  0.000  0.000  0.002
   12  0.002  0.000  0.000  0.002
   13  0.098  0.000  0.000  0.098
   14  0.098  0.000  0.000  0.098
   15  0.098  0.000  0.000  0.098
   16  0.098  0.000  0.000  0.098
   17  0.098  0.000  0.000  0.098
   18  0.098  0.000  0.000  0.098
   19  0.098  0.000  0.000  0.098
   20  0.098  0.000  0.000  0.098
tot    0.794  0.005  0.000  0.799

band    31 # energy  -13.98535859 # occ.  2.00000000

ion      s      p      d    tot
    1  0.000  0.000  0.000  0.000
    2  0.000  0.000  0.000  0.000
    3  0.000  0.000  0.000  0.000
    4  0.000  0.000  0.000  0.000
    5  0.000  0.001  0.000  0.001
    6  0.000  0.001  0.000  0.001
    7  0.000  0.001  0.000  0.001
    8  0.000  0.001  0.000  0.001
    9  0.000  0.000  0.000  0.000
   10  0.000  0.000  0.000  0.000
   11  0.000  0.000  0.000  0.000
   12  0.000  0.000  0.000  0.000
   13  0.099  0.000  0.000  0.099
   14  0.099  0.000  0.000  0.099
   15  0.099  0.000  0.000  0.099
   16  0.099  0.000  0.000  0.099
   17  0.099  0.000  0.000  0.099
   18  0.099  0.000  0.000  0.099
   19  0.099  0.000  0.000  0.099
   20  0.099  0.000  0.000  0.099
tot    0.795  0.004  0.000  0.800

band    32 # energy  -13.98170575 # occ.  2.00000000

ion      s      p      d    tot
    1  0.000  0.000  0.000  0.000
    2  0.000  0.000  0.000  0.000
    3  0.000  0.000  0.000  0.000
    4  0.000  0.000  0.000  0.000
    5  0.000  0.001  0.000  0.001
    6  0.000  0.001  0.000  0.001
    7  0.000  0.001  0.000  0.001
    8  0.000  0.001  0.000  0.001
    9  0.000  0.000  0.000  0.000
   10  0.000  0.000  0.000  0.000
   11  0.000  0.000  0.000  0.000
   12  0.000  0.000  0.000  0.000
   13  0.099  0.000  0.000  0.099
   14  0.099  0.000  0.000  0.099
   15  0.099  0.000  0.000  0.099
   16  0.099  0.000  0.000  0.099
   17  0.099  0.000  0.000  0.099
   18  0.099  0.000  0.000  0.099
   19  0.099  0.000  0.000  0.099
   20  0.099  0.000  0.000  0.099
tot    0.795  0.004  0.000  0.800

band    33 # energy  -13.95081777 # occ.  2.00000000

ion      s      p      d    tot
    1  0.000  0.000  0.000  0.000
    2  0.000  0.000  0.000  0.000
    3  0.000  0.000  0.000  0.000
    4  0.000  0.000  0.000  0.000
    5  0.003  0.000  0.010  0.014
    6  0.003  0.000  0.010  0.014
    7  0.003  0.000  0.010  0.014
    8  0.003  0.000  0.010  0.014
    9  0.188  0.000  0.000  0.188
   10  0.188  0.000  0.000  0.188
   11  0.188  0.000  0.000  0.188
   12  0.188  0.000  0.000  0.188
   13  0.000  0.000  0.000  0.000
   14  0.000  0.000  0.000  0.000
   15  0.000  0.000  0.000  0.000
   16  0.000  0.000  0.000  0.000
   17  0.000  0.000  0.000  0.000
   18  0.000  0.000  0.000  0.000
   19  0.000  0.000  0.000  0.000
   20  0.000  0.000  0.000  0.000
tot    0.765  0.001  0.042  0.808

band    34 # energy  -13.73328497 # occ.  2.00000000

ion      s      p      d    tot
    1  0.000  0.000  0.000  0.000
    2  0.000  0.000  0.000  0.000
    3  0.000  0.000  0.000  0.000
    4  0.000  0.000  0.000  0.000
    5  0.000  0.000  0.014  0.014
    6  0.000  0.000  0.014  0.014
    7  0.000  0.000  0.014  0.014
    8  0.000  0.000  0.014  0.014
    9  0.126  0.000  0.000  0.126
   10  0.126  0.000  0.000  0.126
   11  0.126  0.000  0.000  0.126
   12  0.126  0.000  0.000  0.126
   13  0.034  0.000  0.000  0.034
   14  0.034  0.000  0.000  0.034
   15  0.034  0.000  0.000  0.034
   16  0.034  0.000  0.000  0.034
   17  0.034  0.000  0.000  0.034
   18  0.034  0.000  0.000  0.034
   19  0.034  0.000  0.000  0.034
   20  0.034  0.000  0.000  0.034
tot    0.772  0.001  0.056  0.829

band    35 # energy  -13.72941246 # occ.  2.00000000

ion      s      p      d    tot
    1  0.000  0.000  0.000  0.000
    2  0.000  0.000  0.000  0.000
    3  0.000  0.000  0.000  0.000
    4  0.000  0.000  0.000  0.000
    5  0.000  0.000  0.013  0.013
    6  0.000  0.000  0.013  0.013
    7  0.000  0.000  0.013  0.013
    8  0.000  0.000  0.013  0.013
    9  0.000  0.000  0.000  0.000
   10  0.000  0.000  0.000  0.000
   11  0.000  0.000  0.000  0.000
   12  0.000  0.000  0.000  0.000
   13  0.097  0.000  0.000  0.097
   14  0.097  0.000  0.000  0.097
   15  0.097  0.000  0.000  0.097
   16  0.097  0.000  0.000  0.097
   17  0.097  0.000  0.000  0.097
   18  0.097  0.000  0.000  0.097
   19  0.097  0.000  0.000  0.097
   20  0.097  0.000  0.000  0.097
tot    0.774  0.000  0.054  0.828

band    36 # energy  -13.72591587 # occ.  2.00000000

ion      s      p      d    tot
    1  0.000  0.000  0.000  0.000
    2  0.000  0.000  0.000  0.000
    3  0.000  0.000  0.000  0.000
    4  0.000  0.000  0.000  0.000
    5  0.000  0.000  0.013  0.013
    6  0.000  0.000  0.013  0.013
    7  0.000  0.000  0.013  0.013
    8  0.000  0.000  0.013  0.013
    9  0.000  0.000  0.000  0.000
   10  0.000  0.000  0.000  0.000
   11  0.000  0.000  0.000  0.000
   12  0.000  0.000  0.000  0.000
   13  0.097  0.000  0.000  0.097
   14  0.097  0.000  0.000  0.097
   15  0.097  0.000  0.000  0.097
   16  0.097  0.000  0.000  0.097
   17  0.097  0.000  0.000  0.097
   18  0.097  0.000  0.000  0.097
   19  0.097  0.000  0.000  0.097
   20  0.097  0.000  0.000  0.097
tot    0.775  0.000  0.053  0.828

band    37 # energy   -8.15662469 # occ.  2.00000000

ion      s      p      d    tot
    1  0.000  0.000  0.000  0.000
    2  0.000  0.000  0.000  0.000
    3  0.000  0.000  0.000  0.000
    4  0.000  0.000  0.000  0.000
    5  0.143  0.000  0.000  0.143
    6  0.143  0.000  0.000  0.143
    7  0.143  0.000  0.000  0.143
    8  0.143  0.000  0.000  0.143
    9  0.000  0.008  0.000  0.008
   10  0.000  0.008  0.000  0.008
   11  0.000  0.008  0.000  0.008
   12  0.000  0.008  0.000  0.008
   13  0.000  0.008  0.000  0.008
   14  0.000  0.008  0.000  0.008
   15  0.000  0.008  0.000  0.008
   16  0.000  0.008  0.000  0.008
   17  0.000  0.008  0.000  0.008
   18  0.000  0.008  0.000  0.008
   19  0.000  0.008  0.000  0.008
   20  0.000  0.008  0.000  0.008
tot    0.573  0.096  0.001  0.670

band    38 # energy   -7.64972335 # occ.  2.00000000

ion      s      p      d    tot
    1  0.000  0.006  0.000  0.006
    2  0.000  0.006  0.000  0.006
    3  0.000  0.006  0.000  0.006