CsPbBr3 cubic bulk                      
           1
     8.372702    0.000000    0.000000
     0.000000   11.749466    0.000000
     0.000000    0.000000    8.158760
   Cs   Pb   Br
   4   4  12
Direct configuration=     1
   0.06058496  0.25000000  0.48343568
   0.43941504  0.75000000  0.98343568
   0.56058496  0.25000000  0.01656432
   0.93941504  0.75000000  0.51656432
   0.00000000  0.00000000  0.00000000
   0.50000000  0.00000000  0.50000000
   0.50000000  0.50000000  0.50000000
   0.00000000  0.50000000  0.00000000
   0.50603518  0.75000000  0.43210579
   0.99396482  0.25000000  0.93210579
   0.00603518  0.75000000  0.06789421
   0.49396482  0.25000000  0.56789421
   0.29788690  0.46546847  0.19989321
   0.20211310  0.53453153  0.69989321
   0.79788690  0.03453153  0.30010679
   0.70211310  0.96546847  0.80010679
   0.29788690  0.03453153  0.19989321
   0.20211310  0.96546847  0.69989321
   0.70211310  0.53453153  0.80010679
   0.79788690  0.46546847  0.30010679
