   2   2   1   0
  0.3978052E+02  0.4300974E-09  0.4300974E-09  0.4300974E-09  0.5000000E-15
   1.0000000000000000E-004
  CAR 
 CsPbBr3 cubic bulk                      
     14.29458309    -22.69161069  301     -0.48448351      1.00000000
    -22.692  0.0000E+00  0.0000E+00
    -22.568  0.0000E+00  0.0000E+00
    -22.445  0.0000E+00  0.0000E+00
    -22.322  0.0000E+00  0.0000E+00
    -22.198  0.0000E+00  0.0000E+00
    -22.075  0.0000E+00  0.0000E+00
    -21.952  0.0000E+00  0.0000E+00
    -21.829  0.0000E+00  0.0000E+00
    -21.705  0.0000E+00  0.0000E+00
    -21.582  0.0000E+00  0.0000E+00
    -21.459  0.0000E+00  0.0000E+00
    -21.335  0.0000E+00  0.0000E+00
    -21.212  0.0000E+00  0.0000E+00
    -21.089  0.0000E+00  0.0000E+00
    -20.966  0.2584E+01  0.3186E+00
    -20.842  0.5201E+01  0.2000E+01
    -20.719  0.0000E+00  0.2000E+01
    -20.596  0.0000E+00  0.2000E+01
    -20.472  0.0000E+00  0.2000E+01
    -20.349  0.0000E+00  0.2000E+01
    -20.226  0.0000E+00  0.2000E+01
    -20.103  0.0000E+00  0.2000E+01
    -19.979  0.0000E+00  0.2000E+01
    -19.856  0.0000E+00  0.2000E+01
    -19.733  0.0000E+00  0.2000E+01
    -19.609  0.0000E+00  0.2000E+01
    -19.486  0.0000E+00  0.2000E+01
    -19.363  0.0000E+00  0.2000E+01
    -19.240  0.0000E+00  0.2000E+01
    -19.116  0.0000E+00  0.2000E+01
    -18.993  0.0000E+00  0.2000E+01
    -18.870  0.0000E+00  0.2000E+01
    -18.746  0.0000E+00  0.2000E+01
    -18.623  0.0000E+00  0.2000E+01
    -18.500  0.0000E+00  0.2000E+01
    -18.377  0.0000E+00  0.2000E+01
    -18.253  0.0000E+00  0.2000E+01
    -18.130  0.0000E+00  0.2000E+01
    -18.007  0.0000E+00  0.2000E+01
    -17.883  0.0000E+00  0.2000E+01
    -17.760  0.0000E+00  0.2000E+01
    -17.637  0.0000E+00  0.2000E+01
    -17.514  0.0000E+00  0.2000E+01
    -17.390  0.0000E+00  0.2000E+01
    -17.267  0.0000E+00  0.2000E+01
    -17.144  0.0000E+00  0.2000E+01
    -17.020  0.0000E+00  0.2000E+01
    -16.897  0.0000E+00  0.2000E+01
    -16.774  0.0000E+00  0.2000E+01
    -16.651  0.0000E+00  0.2000E+01
    -16.527  0.0000E+00  0.2000E+01
    -16.404  0.0000E+00  0.2000E+01
    -16.281  0.0000E+00  0.2000E+01
    -16.157  0.0000E+00  0.2000E+01
    -16.034  0.0000E+00  0.2000E+01
    -15.911  0.0000E+00  0.2000E+01
    -15.788  0.0000E+00  0.2000E+01
    -15.664  0.0000E+00  0.2000E+01
    -15.541  0.0000E+00  0.2000E+01
    -15.418  0.0000E+00  0.2000E+01
    -15.294  0.0000E+00  0.2000E+01
    -15.171  0.0000E+00  0.2000E+01
    -15.048  0.0000E+00  0.2000E+01
    -14.925  0.0000E+00  0.2000E+01
    -14.801  0.0000E+00  0.2000E+01
    -14.678  0.0000E+00  0.2000E+01
    -14.555  0.0000E+00  0.2000E+01
    -14.431  0.0000E+00  0.2000E+01
    -14.308  0.0000E+00  0.2000E+01
    -14.185  0.0000E+00  0.2000E+01
    -14.061  0.0000E+00  0.2000E+01
    -13.938  0.0000E+00  0.2000E+01
    -13.815  0.0000E+00  0.2000E+01
    -13.692  0.0000E+00  0.2000E+01
    -13.568  0.0000E+00  0.2000E+01
    -13.445  0.4432E+01  0.2546E+01
    -13.322  0.6052E+01  0.3883E+01
    -13.198  0.0000E+00  0.4000E+01
    -13.075  0.0000E+00  0.4000E+01
    -12.952  0.0000E+00  0.4000E+01
    -12.829  0.0000E+00  0.4000E+01
    -12.705  0.0000E+00  0.4000E+01
    -12.582  0.0000E+00  0.4000E+01
    -12.459  0.0000E+00  0.4000E+01
    -12.335  0.0000E+00  0.4000E+01
    -12.212  0.0000E+00  0.4000E+01
    -12.089  0.0000E+00  0.4000E+01
    -11.966  0.0000E+00  0.4000E+01
    -11.842  0.0000E+00  0.4000E+01
    -11.719  0.0000E+00  0.4000E+01
    -11.596  0.0000E+00  0.4000E+01
    -11.472  0.0000E+00  0.4000E+01
    -11.349  0.0000E+00  0.4000E+01
    -11.226  0.0000E+00  0.4000E+01
    -11.103  0.0000E+00  0.4000E+01
    -10.979  0.0000E+00  0.4000E+01
    -10.856  0.0000E+00  0.4000E+01
    -10.733  0.0000E+00  0.4000E+01
    -10.609  0.0000E+00  0.4000E+01
    -10.486  0.0000E+00  0.4000E+01
    -10.363  0.0000E+00  0.4000E+01
    -10.240  0.0000E+00  0.4000E+01
    -10.116  0.0000E+00  0.4000E+01
     -9.993  0.0000E+00  0.4000E+01
     -9.870  0.0000E+00  0.4000E+01
     -9.746  0.0000E+00  0.4000E+01
     -9.623  0.0000E+00  0.4000E+01
     -9.500  0.0000E+00  0.4000E+01
     -9.377  0.0000E+00  0.4000E+01
     -9.253  0.0000E+00  0.4000E+01
     -9.130  0.0000E+00  0.4000E+01
     -9.007  0.0000E+00  0.4000E+01
     -8.883  0.0000E+00  0.4000E+01
     -8.760  0.0000E+00  0.4000E+01
     -8.637  0.0000E+00  0.4000E+01
     -8.514  0.0000E+00  0.4000E+01
     -8.390  0.0000E+00  0.4000E+01
     -8.267  0.0000E+00  0.4000E+01
     -8.144  0.0000E+00  0.4000E+01
     -8.020  0.0000E+00  0.4000E+01
     -7.897  0.0000E+00  0.4000E+01
     -7.774  0.1340E-08  0.4000E+01
     -7.651  0.3107E+01  0.4390E+01
     -7.527  0.8482E+01  0.5789E+01
     -7.404  0.2610E+01  0.6637E+01
     -7.281  0.3296E+01  0.7550E+01
     -7.157  0.6435E+01  0.8527E+01
     -7.034  0.7110E+01  0.9845E+01
     -6.911  0.2816E-01  0.1000E+02
     -6.788  0.0000E+00  0.1000E+02
     -6.664  0.0000E+00  0.1000E+02
     -6.541  0.0000E+00  0.1000E+02
     -6.418  0.0000E+00  0.1000E+02
     -6.294  0.0000E+00  0.1000E+02
     -6.171  0.0000E+00  0.1000E+02
     -6.048  0.0000E+00  0.1000E+02
     -5.925  0.0000E+00  0.1000E+02
     -5.801  0.0000E+00  0.1000E+02
     -5.678  0.0000E+00  0.1000E+02
     -5.555  0.0000E+00  0.1000E+02
     -5.431  0.0000E+00  0.1000E+02
     -5.308  0.0000E+00  0.1000E+02
     -5.185  0.0000E+00  0.1000E+02
     -5.062  0.0000E+00  0.1000E+02
     -4.938  0.0000E+00  0.1000E+02
     -4.815  0.0000E+00  0.1000E+02
     -4.692  0.0000E+00  0.1000E+02
     -4.568  0.0000E+00  0.1000E+02
     -4.445  0.0000E+00  0.1000E+02
     -4.322  0.0000E+00  0.1000E+02
     -4.199  0.0000E+00  0.1000E+02
     -4.075  0.0000E+00  0.1000E+02
     -3.952  0.0000E+00  0.1000E+02
     -3.829  0.0000E+00  0.1000E+02
     -3.705  0.0000E+00  0.1000E+02
     -3.582  0.0000E+00  0.1000E+02
     -3.459  0.0000E+00  0.1000E+02
     -3.336  0.0000E+00  0.1000E+02
     -3.212  0.0000E+00  0.1000E+02
     -3.089  0.0000E+00  0.1000E+02
     -2.966  0.0000E+00  0.1000E+02
     -2.842  0.0000E+00  0.1000E+02
     -2.719  0.0000E+00  0.1000E+02
     -2.596  0.0000E+00  0.1000E+02
     -2.472  0.0000E+00  0.1000E+02
     -2.349  0.0000E+00  0.1000E+02
     -2.226  0.0000E+00  0.1000E+02
     -2.103  0.0000E+00  0.1000E+02
     -1.979  0.0000E+00  0.1000E+02
     -1.856  0.6445E-01  0.1001E+02
     -1.733  0.6577E+00  0.1011E+02
     -1.609  0.1860E+01  0.1039E+02
     -1.486  0.3542E+01  0.1094E+02
     -1.363  0.4746E+01  0.1183E+02
     -1.240  0.3230E+01  0.1250E+02
     -1.116  0.2984E+01  0.1305E+02
     -0.993  0.2923E+01  0.1361E+02
     -0.870  0.4567E+01  0.1432E+02
     -0.746  0.6728E+01  0.1537E+02
     -0.623  0.1615E+01  0.1599E+02
     -0.500  0.0000E+00  0.1600E+02
     -0.377  0.0000E+00  0.1600E+02
     -0.253  0.0000E+00  0.1600E+02
     -0.130  0.0000E+00  0.1600E+02
     -0.007  0.0000E+00  0.1600E+02
      0.117  0.0000E+00  0.1600E+02
      0.240  0.0000E+00  0.1600E+02
      0.363  0.0000E+00  0.1600E+02
      0.486  0.0000E+00  0.1600E+02
      0.610  0.0000E+00  0.1600E+02
      0.733  0.0000E+00  0.1600E+02
      0.856  0.0000E+00  0.1600E+02
      0.980  0.0000E+00  0.1600E+02
      1.103  0.0000E+00  0.1600E+02
      1.226  0.0000E+00  0.1600E+02
      1.349  0.0000E+00  0.1600E+02
      1.473  0.0000E+00  0.1600E+02
      1.596  0.0000E+00  0.1600E+02
      1.719  0.0000E+00  0.1600E+02
      1.843  0.0000E+00  0.1600E+02
      1.966  0.0000E+00  0.1600E+02
      2.089  0.0000E+00  0.1600E+02
      2.212  0.0000E+00  0.1600E+02
      2.336  0.0000E+00  0.1600E+02
      2.459  0.0000E+00  0.1600E+02
      2.582  0.0000E+00  0.1600E+02
      2.706  0.0000E+00  0.1600E+02
      2.829  0.0000E+00  0.1600E+02
      2.952  0.0000E+00  0.1600E+02
      3.075  0.0000E+00  0.1600E+02
      3.199  0.0000E+00  0.1600E+02
      3.322  0.0000E+00  0.1600E+02
      3.445  0.0000E+00  0.1600E+02
      3.569  0.0000E+00  0.1600E+02
      3.692  0.0000E+00  0.1600E+02
      3.815  0.0000E+00  0.1600E+02
      3.938  0.0000E+00  0.1600E+02
      4.062  0.0000E+00  0.1600E+02
      4.185  0.0000E+00  0.1600E+02
      4.308  0.0000E+00  0.1600E+02
      4.432  0.0000E+00  0.1600E+02
      4.555  0.1631E-07  0.1600E+02
      4.678  0.0000E+00  0.1600E+02
      4.801  0.7330E-01  0.1601E+02
      4.925  0.9675E-01  0.1603E+02
      5.048  0.6926E-01  0.1606E+02
      5.171  0.3761E+00  0.1613E+02
      5.295  0.4258E+00  0.1619E+02
      5.418  0.5655E+00  0.1630E+02
      5.541  0.1497E+01  0.1653E+02
      5.664  0.6550E+00  0.1667E+02
      5.788  0.1565E+01  0.1703E+02
      5.911  0.2349E+01  0.1738E+02
      6.034  0.1460E+01  0.1773E+02
      6.158  0.1408E+01  0.1803E+02
      6.281  0.1577E+01  0.1826E+02
      6.404  0.3613E+01  0.1883E+02
      6.527  0.1144E+01  0.1904E+02
      6.651  0.7220E+00  0.1924E+02
      6.774  0.1239E+01  0.1963E+02
      6.897  0.1935E+01  0.1991E+02
      7.021  0.9833E+00  0.2019E+02
      7.144  0.9004E+00  0.2044E+02
      7.267  0.1278E+01  0.2060E+02
      7.390  0.1644E+01  0.2093E+02
      7.514  0.2246E+01  0.2128E+02
      7.637  0.2837E+01  0.2190E+02
      7.760  0.4748E+00  0.2204E+02
      7.884  0.1692E+01  0.2240E+02
      8.007  0.2410E+01  0.2292E+02
      8.130  0.2042E+01  0.2331E+02
      8.254  0.1936E+01  0.2366E+02
      8.377  0.1809E+01  0.2404E+02
      8.500  0.1767E+01  0.2435E+02
      8.623  0.1588E+01  0.2478E+02
      8.747  0.2468E+01  0.2522E+02
      8.870  0.3042E+01  0.2571E+02
      8.993  0.2465E+01  0.2613E+02
      9.117  0.7314E+00  0.2627E+02
      9.240  0.1986E+01  0.2655E+02
      9.363  0.9699E+00  0.2678E+02
      9.486  0.5655E+00  0.2698E+02
      9.610  0.1987E+01  0.2730E+02
      9.733  0.1697E+01  0.2760E+02
      9.856  0.9438E+00  0.2773E+02
      9.980  0.4779E+00  0.2786E+02
     10.103  0.5980E+00  0.2798E+02
     10.226  0.7767E+00  0.2815E+02
     10.349  0.4898E+00  0.2824E+02
     10.473  0.8997E+00  0.2839E+02
     10.596  0.3068E+00  0.2844E+02
     10.719  0.5433E+00  0.2861E+02
     10.843  0.2306E+00  0.2865E+02
     10.966  0.1359E+01  0.2887E+02
     11.089  0.9987E+00  0.2902E+02
     11.212  0.9449E+00  0.2923E+02
     11.336  0.1032E+01  0.2947E+02
     11.459  0.1007E+01  0.2963E+02
     11.582  0.2704E+01  0.3010E+02
     11.706  0.1257E+01  0.3031E+02
     11.829  0.2250E+01  0.3069E+02
     11.952  0.1025E+01  0.3082E+02
     12.075  0.1858E+01  0.3121E+02
     12.199  0.1897E+01  0.3148E+02
     12.322  0.2161E+01  0.3181E+02
     12.445  0.2910E+00  0.3192E+02
     12.569  0.2816E+00  0.3197E+02
     12.692  0.2253E+00  0.3200E+02
     12.815  0.0000E+00  0.3200E+02
     12.938  0.0000E+00  0.3200E+02
     13.062  0.0000E+00  0.3200E+02
     13.185  0.0000E+00  0.3200E+02
     13.308  0.0000E+00  0.3200E+02
     13.432  0.0000E+00  0.3200E+02
     13.555  0.0000E+00  0.3200E+02
     13.678  0.0000E+00  0.3200E+02
     13.801  0.0000E+00  0.3200E+02
     13.925  0.0000E+00  0.3200E+02
     14.048  0.0000E+00  0.3200E+02
     14.171  0.0000E+00  0.3200E+02
     14.295  0.0000E+00  0.3200E+02
     14.29458309    -22.69161069  301     -0.48448351      1.00000000
    -22.692  0.0000E+00  0.0000E+00  0.0000E+00
    -22.568  0.0000E+00  0.0000E+00  0.0000E+00
    -22.445  0.0000E+00  0.0000E+00  0.0000E+00
    -22.322  0.0000E+00  0.0000E+00  0.0000E+00
    -22.198  0.0000E+00  0.0000E+00  0.0000E+00
    -22.075  0.0000E+00  0.0000E+00  0.0000E+00
    -21.952  0.0000E+00  0.0000E+00  0.0000E+00
    -21.829  0.0000E+00  0.0000E+00  0.0000E+00
    -21.705  0.0000E+00  0.0000E+00  0.0000E+00
    -21.582  0.0000E+00  0.0000E+00  0.0000E+00
    -21.459  0.0000E+00  0.0000E+00  0.0000E+00
    -21.335  0.0000E+00  0.0000E+00  0.0000E+00
    -21.212  0.0000E+00  0.0000E+00  0.0000E+00
    -21.089  0.0000E+00  0.0000E+00  0.0000E+00
    -20.966  0.2282E+01  0.2727E-04  0.2434E-05
    -20.842  0.4640E+01  0.4565E-04  0.9596E-05
    -20.719  0.0000E+00  0.0000E+00  0.0000E+00
    -20.596  0.0000E+00  0.0000E+00  0.0000E+00
    -20.472  0.0000E+00  0.0000E+00  0.0000E+00
    -20.349  0.0000E+00  0.0000E+00  0.0000E+00
    -20.226  0.0000E+00  0.0000E+00  0.0000E+00
    -20.103  0.0000E+00  0.0000E+00  0.0000E+00
    -19.979  0.0000E+00  0.0000E+00  0.0000E+00
    -19.856  0.0000E+00  0.0000E+00  0.0000E+00
    -19.733  0.0000E+00  0.0000E+00  0.0000E+00
    -19.609  0.0000E+00  0.0000E+00  0.0000E+00
    -19.486  0.0000E+00  0.0000E+00  0.0000E+00
    -19.363  0.0000E+00  0.0000E+00  0.0000E+00
    -19.240  0.0000E+00  0.0000E+00  0.0000E+00
    -19.116  0.0000E+00  0.0000E+00  0.0000E+00
    -18.993  0.0000E+00  0.0000E+00  0.0000E+00
    -18.870  0.0000E+00  0.0000E+00  0.0000E+00
    -18.746  0.0000E+00  0.0000E+00  0.0000E+00
    -18.623  0.0000E+00  0.0000E+00  0.0000E+00
    -18.500  0.0000E+00  0.0000E+00  0.0000E+00
    -18.377  0.0000E+00  0.0000E+00  0.0000E+00
    -18.253  0.0000E+00  0.0000E+00  0.0000E+00
    -18.130  0.0000E+00  0.0000E+00  0.0000E+00
    -18.007  0.0000E+00  0.0000E+00  0.0000E+00
    -17.883  0.0000E+00  0.0000E+00  0.0000E+00
    -17.760  0.0000E+00  0.0000E+00  0.0000E+00
    -17.637  0.0000E+00  0.0000E+00  0.0000E+00
    -17.514  0.0000E+00  0.0000E+00  0.0000E+00
    -17.390  0.0000E+00  0.0000E+00  0.0000E+00
    -17.267  0.0000E+00  0.0000E+00  0.0000E+00
    -17.144  0.0000E+00  0.0000E+00  0.0000E+00
    -17.020  0.0000E+00  0.0000E+00  0.0000E+00
    -16.897  0.0000E+00  0.0000E+00  0.0000E+00
    -16.774  0.0000E+00  0.0000E+00  0.0000E+00
    -16.651  0.0000E+00  0.0000E+00  0.0000E+00
    -16.527  0.0000E+00  0.0000E+00  0.0000E+00
    -16.404  0.0000E+00  0.0000E+00  0.0000E+00
    -16.281  0.0000E+00  0.0000E+00  0.0000E+00
    -16.157  0.0000E+00  0.0000E+00  0.0000E+00
    -16.034  0.0000E+00  0.0000E+00  0.0000E+00
    -15.911  0.0000E+00  0.0000E+00  0.0000E+00
    -15.788  0.0000E+00  0.0000E+00  0.0000E+00
    -15.664  0.0000E+00  0.0000E+00  0.0000E+00
    -15.541  0.0000E+00  0.0000E+00  0.0000E+00
    -15.418  0.0000E+00  0.0000E+00  0.0000E+00
    -15.294  0.0000E+00  0.0000E+00  0.0000E+00
    -15.171  0.0000E+00  0.0000E+00  0.0000E+00
    -15.048  0.0000E+00  0.0000E+00  0.0000E+00
    -14.925  0.0000E+00  0.0000E+00  0.0000E+00
    -14.801  0.0000E+00  0.0000E+00  0.0000E+00
    -14.678  0.0000E+00  0.0000E+00  0.0000E+00
    -14.555  0.0000E+00  0.0000E+00  0.0000E+00
    -14.431  0.0000E+00  0.0000E+00  0.0000E+00
    -14.308  0.0000E+00  0.0000E+00  0.0000E+00
    -14.185  0.0000E+00  0.0000E+00  0.0000E+00
    -14.061  0.0000E+00  0.0000E+00  0.0000E+00
    -13.938  0.0000E+00  0.0000E+00  0.0000E+00
    -13.815  0.0000E+00  0.0000E+00  0.0000E+00
    -13.692  0.0000E+00  0.0000E+00  0.0000E+00
    -13.568  0.0000E+00  0.0000E+00  0.0000E+00
    -13.445  0.9750E-02  0.1721E-01  0.2099E-03
    -13.322  0.5403E-03  0.8894E-02  0.1683E-02
    -13.198  0.0000E+00  0.0000E+00  0.0000E+00
    -13.075  0.0000E+00  0.0000E+00  0.0000E+00
    -12.952  0.0000E+00  0.0000E+00  0.0000E+00
    -12.829  0.0000E+00  0.0000E+00  0.0000E+00
    -12.705  0.0000E+00  0.0000E+00  0.0000E+00
    -12.582  0.0000E+00  0.0000E+00  0.0000E+00
    -12.459  0.0000E+00  0.0000E+00  0.0000E+00
    -12.335  0.0000E+00  0.0000E+00  0.0000E+00
    -12.212  0.0000E+00  0.0000E+00  0.0000E+00
    -12.089  0.0000E+00  0.0000E+00  0.0000E+00
    -11.966  0.0000E+00  0.0000E+00  0.0000E+00
    -11.842  0.0000E+00  0.0000E+00  0.0000E+00
    -11.719  0.0000E+00  0.0000E+00  0.0000E+00
    -11.596  0.0000E+00  0.0000E+00  0.0000E+00
    -11.472  0.0000E+00  0.0000E+00  0.0000E+00
    -11.349  0.0000E+00  0.0000E+00  0.0000E+00
    -11.226  0.0000E+00  0.0000E+00  0.0000E+00
    -11.103  0.0000E+00  0.0000E+00  0.0000E+00
    -10.979  0.0000E+00  0.0000E+00  0.0000E+00
    -10.856  0.0000E+00  0.0000E+00  0.0000E+00
    -10.733  0.0000E+00  0.0000E+00  0.0000E+00
    -10.609  0.0000E+00  0.0000E+00  0.0000E+00
    -10.486  0.0000E+00  0.0000E+00  0.0000E+00
    -10.363  0.0000E+00  0.0000E+00  0.0000E+00
    -10.240  0.0000E+00  0.0000E+00  0.0000E+00
    -10.116  0.0000E+00  0.0000E+00  0.0000E+00
     -9.993  0.0000E+00  0.0000E+00  0.0000E+00
     -9.870  0.0000E+00  0.0000E+00  0.0000E+00
     -9.746  0.0000E+00  0.0000E+00  0.0000E+00
     -9.623  0.0000E+00  0.0000E+00  0.0000E+00
     -9.500  0.0000E+00  0.0000E+00  0.0000E+00
     -9.377  0.0000E+00  0.0000E+00  0.0000E+00
     -9.253  0.0000E+00  0.0000E+00  0.0000E+00
     -9.130  0.0000E+00  0.0000E+00  0.0000E+00
     -9.007  0.0000E+00  0.0000E+00  0.0000E+00
     -8.883  0.0000E+00  0.0000E+00  0.0000E+00
     -8.760  0.0000E+00  0.0000E+00  0.0000E+00
     -8.637  0.0000E+00  0.0000E+00  0.0000E+00
     -8.514  0.0000E+00  0.0000E+00  0.0000E+00
     -8.390  0.0000E+00  0.0000E+00  0.0000E+00
     -8.267  0.0000E+00  0.0000E+00  0.0000E+00
     -8.144  0.0000E+00  0.0000E+00  0.0000E+00
     -8.020  0.0000E+00  0.0000E+00  0.0000E+00
     -7.897  0.0000E+00  0.0000E+00  0.0000E+00
     -7.774  0.1690E-27  0.9578E-09  0.6105E-18
     -7.651  0.8550E-04  0.2246E+01  0.1117E-03
     -7.527  0.6390E-03  0.6256E+01  0.6708E-03
     -7.404  0.2657E-03  0.1969E+01  0.4835E-03
     -7.281  0.6278E-03  0.2537E+01  0.5889E-03
     -7.157  0.1199E-02  0.5033E+01  0.8069E-03
     -7.034  0.3684E-03  0.5686E+01  0.3071E-03
     -6.911  0.1765E-23  0.2287E-01  0.1418E-25
     -6.788  0.0000E+00  0.0000E+00  0.0000E+00
     -6.664  0.0000E+00  0.0000E+00  0.0000E+00
     -6.541  0.0000E+00  0.0000E+00  0.0000E+00
     -6.418  0.0000E+00  0.0000E+00  0.0000E+00
     -6.294  0.0000E+00  0.0000E+00  0.0000E+00
     -6.171  0.0000E+00  0.0000E+00  0.0000E+00
     -6.048  0.0000E+00  0.0000E+00  0.0000E+00
     -5.925  0.0000E+00  0.0000E+00  0.0000E+00
     -5.801  0.0000E+00  0.0000E+00  0.0000E+00
     -5.678  0.0000E+00  0.0000E+00  0.0000E+00
     -5.555  0.0000E+00  0.0000E+00  0.0000E+00
     -5.431  0.0000E+00  0.0000E+00  0.0000E+00
     -5.308  0.0000E+00  0.0000E+00  0.0000E+00
     -5.185  0.0000E+00  0.0000E+00  0.0000E+00
     -5.062  0.0000E+00  0.0000E+00  0.0000E+00
     -4.938  0.0000E+00  0.0000E+00  0.0000E+00
     -4.815  0.0000E+00  0.0000E+00  0.0000E+00
     -4.692  0.0000E+00  0.0000E+00  0.0000E+00
     -4.568  0.0000E+00  0.0000E+00  0.0000E+00
     -4.445  0.0000E+00  0.0000E+00  0.0000E+00
     -4.322  0.0000E+00  0.0000E+00  0.0000E+00
     -4.199  0.0000E+00  0.0000E+00  0.0000E+00
     -4.075  0.0000E+00  0.0000E+00  0.0000E+00
     -3.952  0.0000E+00  0.0000E+00  0.0000E+00
     -3.829  0.0000E+00  0.0000E+00  0.0000E+00
     -3.705  0.0000E+00  0.0000E+00  0.0000E+00
     -3.582  0.0000E+00  0.0000E+00  0.0000E+00
     -3.459  0.0000E+00  0.0000E+00  0.0000E+00
     -3.336  0.0000E+00  0.0000E+00  0.0000E+00
     -3.212  0.0000E+00  0.0000E+00  0.0000E+00
     -3.089  0.0000E+00  0.0000E+00  0.0000E+00
     -2.966  0.0000E+00  0.0000E+00  0.0000E+00
     -2.842  0.0000E+00  0.0000E+00  0.0000E+00
     -2.719  0.0000E+00  0.0000E+00  0.0000E+00
     -2.596  0.0000E+00  0.0000E+00  0.0000E+00
     -2.472  0.0000E+00  0.0000E+00  0.0000E+00
     -2.349  0.0000E+00  0.0000E+00  0.0000E+00
     -2.226  0.0000E+00  0.0000E+00  0.0000E+00
     -2.103  0.0000E+00  0.0000E+00  0.0000E+00
     -1.979  0.0000E+00  0.0000E+00  0.0000E+00
     -1.856  0.9271E-03  0.2308E-03  0.1855E-03
     -1.733  0.7266E-02  0.5723E-02  0.2817E-02
     -1.609  0.1129E-01  0.2997E-01  0.1196E-01
     -1.486  0.1732E-01  0.9091E-01  0.1801E-01
     -1.363  0.1607E-01  0.1381E+00  0.2226E-01
     -1.240  0.7945E-02  0.8818E-01  0.1462E-01
     -1.116  0.3647E-02  0.8797E-01  0.1238E-01
     -0.993  0.3771E-02  0.7679E-01  0.1121E-01
     -0.870  0.1365E-02  0.8695E-01  0.1745E-01
     -0.746  0.1039E-02  0.8415E-01  0.2587E-01
     -0.623  0.1604E-14  0.2185E-01  0.2738E-02
     -0.500  0.0000E+00  0.0000E+00  0.0000E+00
     -0.377  0.0000E+00  0.0000E+00  0.0000E+00
     -0.253  0.0000E+00  0.0000E+00  0.0000E+00
     -0.130  0.0000E+00  0.0000E+00  0.0000E+00
     -0.007  0.0000E+00  0.0000E+00  0.0000E+00
      0.117  0.0000E+00  0.0000E+00  0.0000E+00
      0.240  0.0000E+00  0.0000E+00  0.0000E+00
      0.363  0.0000E+00  0.0000E+00  0.0000E+00
      0.486  0.0000E+00  0.0000E+00  0.0000E+00
      0.610  0.0000E+00  0.0000E+00  0.0000E+00
      0.733  0.0000E+00  0.0000E+00  0.0000E+00
      0.856  0.0000E+00  0.0000E+00  0.0000E+00
      0.980  0.0000E+00  0.0000E+00  0.0000E+00
      1.103  0.0000E+00  0.0000E+00  0.0000E+00
      1.226  0.0000E+00  0.0000E+00  0.0000E+00
      1.349  0.0000E+00  0.0000E+00  0.0000E+00
      1.473  0.0000E+00  0.0000E+00  0.0000E+00
      1.596  0.0000E+00  0.0000E+00  0.0000E+00
      1.719  0.0000E+00  0.0000E+00  0.0000E+00
      1.843  0.0000E+00  0.0000E+00  0.0000E+00
      1.966  0.0000E+00  0.0000E+00  0.0000E+00
      2.089  0.0000E+00  0.0000E+00  0.0000E+00
      2.212  0.0000E+00  0.0000E+00  0.0000E+00
      2.336  0.0000E+00  0.0000E+00  0.0000E+00
      2.459  0.0000E+00  0.0000E+00  0.0000E+00
      2.582  0.0000E+00  0.0000E+00  0.0000E+00
      2.706  0.0000E+00  0.0000E+00  0.0000E+00
      2.829  0.0000E+00  0.0000E+00  0.0000E+00
      2.952  0.0000E+00  0.0000E+00  0.0000E+00
      3.075  0.0000E+00  0.0000E+00  0.0000E+00
      3.199  0.0000E+00  0.0000E+00  0.0000E+00
      3.322  0.0000E+00  0.0000E+00  0.0000E+00
      3.445  0.0000E+00  0.0000E+00  0.0000E+00
      3.569  0.0000E+00  0.0000E+00  0.0000E+00
      3.692  0.0000E+00  0.0000E+00  0.0000E+00
      3.815  0.0000E+00  0.0000E+00  0.0000E+00
      3.938  0.0000E+00  0.0000E+00  0.0000E+00
      4.062  0.0000E+00  0.0000E+00  0.0000E+00
      4.185  0.0000E+00  0.0000E+00  0.0000E+00
      4.308  0.0000E+00  0.0000E+00  0.0000E+00
      4.432  0.0000E+00  0.0000E+00  0.0000E+00
      4.555  0.1444E-08  0.1149E-24  0.4780E-21
      4.678  0.0000E+00  0.0000E+00  0.0000E+00
      4.801  0.4830E-02  0.3154E-03  0.3217E-02
      4.925  0.7822E-02  0.9847E-03  0.5874E-03
      5.048  0.8409E-04  0.5196E-04  0.1333E-01
      5.171  0.1936E-04  0.8721E-03  0.7352E-01
      5.295  0.7210E-02  0.2128E-02  0.6984E-01
      5.418  0.2371E-01  0.5994E-02  0.5959E-01
      5.541  0.2772E-01  0.8602E-02  0.2587E+00
      5.664  0.1454E-01  0.5418E-02  0.1031E+00
      5.788  0.3374E-01  0.1203E-01  0.2632E+00
      5.911  0.3230E-01  0.2151E-01  0.4470E+00
      6.034  0.3703E-01  0.2505E-01  0.2187E+00
      6.158  0.4424E-01  0.3530E-01  0.1685E+00
      6.281  0.8602E-02  0.2847E-01  0.2786E+00
      6.404  0.4672E-01  0.7727E-01  0.6071E+00
      6.527  0.4332E-01  0.2577E-01  0.1095E+00
      6.651  0.6432E-02  0.1298E-01  0.1327E+00
      6.774  0.2084E-01  0.3287E-01  0.1812E+00
      6.897  0.1668E-01  0.5435E-01  0.3328E+00
      7.021  0.1537E-01  0.3016E-01  0.1736E+00
      7.144  0.1492E-01  0.1870E-01  0.1555E+00
      7.267  0.3576E-01  0.1986E-01  0.2133E+00
      7.390  0.1014E-01  0.3015E-01  0.3421E+00
      7.514  0.1083E-01  0.6187E-01  0.4645E+00
      7.637  0.1359E-01  0.4170E-01  0.6566E+00
      7.760  0.5950E-04  0.5295E-02  0.1093E+00
      7.884  0.7993E-02  0.3100E-01  0.3855E+00
      8.007  0.1647E-02  0.1318E-01  0.5488E+00
      8.130  0.1457E-01  0.2441E-01  0.4342E+00
      8.254  0.7788E-02  0.1551E-01  0.4252E+00
      8.377  0.4125E-02  0.2639E-01  0.4238E+00
      8.500  0.8036E-02  0.1552E-01  0.4044E+00
      8.623  0.1536E-01  0.1431E-01  0.3834E+00
      8.747  0.1500E-01  0.4157E-01  0.6429E+00
      8.870  0.3149E-01  0.7932E-01  0.6467E+00
      8.993  0.2111E-01  0.6970E-01  0.5808E+00
      9.117  0.7701E-02  0.3753E-01  0.1195E+00
      9.240  0.2652E-01  0.7866E-01  0.3841E+00
      9.363  0.1517E-01  0.7231E-01  0.8211E-01
      9.486  0.7535E-10  0.2840E-01  0.1183E+00
      9.610  0.1099E-01  0.4361E-01  0.5003E+00
      9.733  0.7185E-02  0.1125E+00  0.2897E+00
      9.856  0.1771E-01  0.7236E-01  0.8031E-01
      9.980  0.4469E-02  0.1691E-01  0.9712E-01
     10.103  0.8074E-02  0.2310E-01  0.7655E-01
     10.226  0.7994E-02  0.5386E-01  0.5648E-01
     10.349  0.3765E-02  0.9221E-02  0.3607E-01
     10.473  0.1794E-02  0.1366E-01  0.1131E+00
     10.596  0.2347E-02  0.1530E-02  0.3925E-01
     10.719  0.2425E-02  0.1007E-01  0.4317E-01
     10.843  0.5079E-11  0.1960E-01  0.1883E-01
     10.966  0.1557E-02  0.3326E-01  0.1559E+00
     11.089  0.9996E-02  0.3597E-01  0.8668E-01
     11.212  0.1161E-01  0.1782E-01  0.1580E+00
     11.336  0.1288E-01  0.2168E-01  0.1756E+00
     11.459  0.1420E-01  0.1900E-01  0.1684E+00
     11.582  0.3541E-01  0.6654E-01  0.5245E+00
     11.706  0.1943E-01  0.2465E-01  0.2339E+00
     11.829  0.1744E-01  0.6890E-01  0.3418E+00
     11.952  0.4343E-02  0.2694E-01  0.1530E+00
     12.075  0.1043E-01  0.6167E-01  0.4060E+00
     12.199  0.4795E-02  0.6924E-01  0.2934E+00
     12.322  0.2086E-02  0.5223E-01  0.3648E+00
     12.445  0.7939E-03  0.7363E-02  0.4855E-01
     12.569  0.8068E-04  0.1224E-01  0.3391E-01
     12.692  0.4390E-07  0.9511E-02  0.4900E-01
     12.815  0.0000E+00  0.0000E+00  0.0000E+00
     12.938  0.0000E+00  0.0000E+00  0.0000E+00
     13.062  0.0000E+00  0.0000E+00  0.0000E+00
     13.185  0.0000E+00  0.0000E+00  0.0000E+00
     13.308  0.0000E+00  0.0000E+00  0.0000E+00
     13.432  0.0000E+00  0.0000E+00  0.0000E+00
     13.555  0.0000E+00  0.0000E+00  0.0000E+00
     13.678  0.0000E+00  0.0000E+00  0.0000E+00
     13.801  0.0000E+00  0.0000E+00  0.0000E+00
     13.925  0.0000E+00  0.0000E+00  0.0000E+00
     14.048  0.0000E+00  0.0000E+00  0.0000E+00
     14.171  0.0000E+00  0.0000E+00  0.0000E+00
     14.295  0.0000E+00  0.0000E+00  0.0000E+00
     14.29458309    -22.69161069  301     -0.48448351      1.00000000
    -22.692  0.0000E+00  0.0000E+00  0.0000E+00
    -22.568  0.0000E+00  0.0000E+00  0.0000E+00
    -22.445  0.0000E+00  0.0000E+00  0.0000E+00
    -22.322  0.0000E+00  0.0000E+00  0.0000E+00
    -22.198  0.0000E+00  0.0000E+00  0.0000E+00
    -22.075  0.0000E+00  0.0000E+00  0.0000E+00
    -21.952  0.0000E+00  0.0000E+00  0.0000E+00
    -21.829  0.0000E+00  0.0000E+00  0.0000E+00
    -21.705  0.0000E+00  0.0000E+00  0.0000E+00
    -21.582  0.0000E+00  0.0000E+00  0.0000E+00
    -21.459  0.0000E+00  0.0000E+00  0.0000E+00
    -21.335  0.0000E+00  0.0000E+00  0.0000E+00
    -21.212  0.0000E+00  0.0000E+00  0.0000E+00
    -21.089  0.0000E+00  0.0000E+00  0.0000E+00
    -20.966  0.1715E-02  0.1508E-03  0.3773E-05
    -20.842  0.3583E-04  0.8451E-04  0.6292E-04
    -20.719  0.0000E+00  0.0000E+00  0.0000E+00
    -20.596  0.0000E+00  0.0000E+00  0.0000E+00
    -20.472  0.0000E+00  0.0000E+00  0.0000E+00
    -20.349  0.0000E+00  0.0000E+00  0.0000E+00
    -20.226  0.0000E+00  0.0000E+00  0.0000E+00
    -20.103  0.0000E+00  0.0000E+00  0.0000E+00
    -19.979  0.0000E+00  0.0000E+00  0.0000E+00
    -19.856  0.0000E+00  0.0000E+00  0.0000E+00
    -19.733  0.0000E+00  0.0000E+00  0.0000E+00
    -19.609  0.0000E+00  0.0000E+00  0.0000E+00
    -19.486  0.0000E+00  0.0000E+00  0.0000E+00
    -19.363  0.0000E+00  0.0000E+00  0.0000E+00
    -19.240  0.0000E+00  0.0000E+00  0.0000E+00
    -19.116  0.0000E+00  0.0000E+00  0.0000E+00
    -18.993  0.0000E+00  0.0000E+00  0.0000E+00
    -18.870  0.0000E+00  0.0000E+00  0.0000E+00
    -18.746  0.0000E+00  0.0000E+00  0.0000E+00
    -18.623  0.0000E+00  0.0000E+00  0.0000E+00
    -18.500  0.0000E+00  0.0000E+00  0.0000E+00
    -18.377  0.0000E+00  0.0000E+00  0.0000E+00
    -18.253  0.0000E+00  0.0000E+00  0.0000E+00
    -18.130  0.0000E+00  0.0000E+00  0.0000E+00
    -18.007  0.0000E+00  0.0000E+00  0.0000E+00
    -17.883  0.0000E+00  0.0000E+00  0.0000E+00
    -17.760  0.0000E+00  0.0000E+00  0.0000E+00
    -17.637  0.0000E+00  0.0000E+00  0.0000E+00
    -17.514  0.0000E+00  0.0000E+00  0.0000E+00
    -17.390  0.0000E+00  0.0000E+00  0.0000E+00
    -17.267  0.0000E+00  0.0000E+00  0.0000E+00
    -17.144  0.0000E+00  0.0000E+00  0.0000E+00
    -17.020  0.0000E+00  0.0000E+00  0.0000E+00
    -16.897  0.0000E+00  0.0000E+00  0.0000E+00
    -16.774  0.0000E+00  0.0000E+00  0.0000E+00
    -16.651  0.0000E+00  0.0000E+00  0.0000E+00
    -16.527  0.0000E+00  0.0000E+00  0.0000E+00
    -16.404  0.0000E+00  0.0000E+00  0.0000E+00
    -16.281  0.0000E+00  0.0000E+00  0.0000E+00
    -16.157  0.0000E+00  0.0000E+00  0.0000E+00
    -16.034  0.0000E+00  0.0000E+00  0.0000E+00
    -15.911  0.0000E+00  0.0000E+00  0.0000E+00
    -15.788  0.0000E+00  0.0000E+00  0.0000E+00
    -15.664  0.0000E+00  0.0000E+00  0.0000E+00
    -15.541  0.0000E+00  0.0000E+00  0.0000E+00
    -15.418  0.0000E+00  0.0000E+00  0.0000E+00
    -15.294  0.0000E+00  0.0000E+00  0.0000E+00
    -15.171  0.0000E+00  0.0000E+00  0.0000E+00
    -15.048  0.0000E+00  0.0000E+00  0.0000E+00
    -14.925  0.0000E+00  0.0000E+00  0.0000E+00
    -14.801  0.0000E+00  0.0000E+00  0.0000E+00
    -14.678  0.0000E+00  0.0000E+00  0.0000E+00
    -14.555  0.0000E+00  0.0000E+00  0.0000E+00
    -14.431  0.0000E+00  0.0000E+00  0.0000E+00
    -14.308  0.0000E+00  0.0000E+00  0.0000E+00
    -14.185  0.0000E+00  0.0000E+00  0.0000E+00
    -14.061  0.0000E+00  0.0000E+00  0.0000E+00
    -13.938  0.0000E+00  0.0000E+00  0.0000E+00
    -13.815  0.0000E+00  0.0000E+00  0.0000E+00
    -13.692  0.0000E+00  0.0000E+00  0.0000E+00
    -13.568  0.0000E+00  0.0000E+00  0.0000E+00
    -13.445  0.3475E+01  0.4431E-04  0.9825E-05
    -13.322  0.4830E+01  0.1610E-03  0.1246E-04
    -13.198  0.0000E+00  0.0000E+00  0.0000E+00
    -13.075  0.0000E+00  0.0000E+00  0.0000E+00
    -12.952  0.0000E+00  0.0000E+00  0.0000E+00
    -12.829  0.0000E+00  0.0000E+00  0.0000E+00
    -12.705  0.0000E+00  0.0000E+00  0.0000E+00
    -12.582  0.0000E+00  0.0000E+00  0.0000E+00
    -12.459  0.0000E+00  0.0000E+00  0.0000E+00
    -12.335  0.0000E+00  0.0000E+00  0.0000E+00
    -12.212  0.0000E+00  0.0000E+00  0.0000E+00
    -12.089  0.0000E+00  0.0000E+00  0.0000E+00
    -11.966  0.0000E+00  0.0000E+00  0.0000E+00
    -11.842  0.0000E+00  0.0000E+00  0.0000E+00
    -11.719  0.0000E+00  0.0000E+00  0.0000E+00