    2    2    1    1
  0.3978052E+02  0.4300974E-09  0.4300974E-09  0.4300974E-09  0.5000000E-15
   1.0000000000000000E-004
  CAR 
 CsPbBr3 cubic bulk                      
     16     84     16

  0.3885781E-15  0.3885781E-15  0.3885781E-15  0.5787037E-03
    1      -21.010420   1.000000
    2      -13.460007   1.000000
    3       -7.156473   1.000000
    4       -7.156473   1.000000
    5       -7.156473   1.000000
    6       -0.620245   1.000000
    7       -0.620245   1.000000
    8       -0.620245   1.000000
    9        4.587699   0.000000
   10        4.792227   0.000000
   11        4.792227   0.000000
   12        9.231665   0.000000
   13        9.231665   0.000000
   14        9.231665   0.000000
   15       12.138882   0.000000
   16       12.138882   0.000000

  0.8333333E-01  0.3885781E-15  0.3885781E-15  0.3472222E-02
    1      -21.006939   1.000000
    2      -13.460859   1.000000
    3       -7.184517   1.000000
    4       -7.149747   1.000000
    5       -7.149746   1.000000
    6       -0.731312   1.000000
    7       -0.633030   1.000000
    8       -0.633030   1.000000
    9        4.761024   0.000000
   10        4.838334   0.000000
   11        4.954189   0.000000
   12        9.181818   0.000000
   13        9.181818   0.000000
   14        9.268948   0.000000
   15       11.644203   0.000000
   16       12.240962   0.000000

  0.1666667E+00  0.3885781E-15  0.3885781E-15  0.3472222E-02
    1      -20.997195   1.000000
    2      -13.463348   1.000000
    3       -7.258684   1.000000
    4       -7.131131   1.000000
    5       -7.131131   1.000000
    6       -1.008412   1.000000
    7       -0.668357   1.000000
    8       -0.668356   1.000000
    9        4.973739   0.000000
   10        5.227434   0.000000
   11        5.409070   0.000000
   12        9.071729   0.000000
   13        9.071729   0.000000
   14        9.376761   0.000000
   15       10.748222   0.000000
   16       12.524406   0.000000

  0.2500000E+00  0.3885781E-15  0.3885781E-15  0.3472222E-02
    1      -20.983682   1.000000
    2      -13.467200   1.000000
    3       -7.354310   1.000000
    4       -7.105381   1.000000
    5       -7.105381   1.000000
    6       -1.340935   1.000000
    7       -0.717558   1.000000
    8       -0.717558   1.000000
    9        5.187694   0.000000
   10        5.868763   0.000000
   11        6.077049   0.000000
   12        8.974196   0.000000
   13        8.974196   0.000000
   14        9.541259   0.000000
   15        9.858295   0.000000
   16       12.410713   0.000000

  0.3333333E+00  0.3885781E-15  0.3885781E-15  0.3472222E-02
    1      -20.970124   1.000000
    2      -13.471609   1.000000
    3       -7.444157   1.000000
    4       -7.079235   1.000000
    5       -7.079235   1.000000
    6       -1.636055   1.000000
    7       -0.767836   1.000000
    8       -0.767836   1.000000
    9        5.453434   0.000000
   10        6.532323   0.000000
   11        6.851800   0.000000
   12        8.933059   0.000000
   13        8.933059   0.000000
   14        9.088195   0.000000
   15        9.733014   0.000000
   16       11.736438   0.000000

  0.4166667E+00  0.3885781E-15  0.3885781E-15  0.3472222E-02
    1      -20.960152   1.000000
    2      -13.475198   1.000000
    3       -7.506483   1.000000
    4       -7.059815   1.000000
    5       -7.059815   1.000000
    6       -1.834466   1.000000
    7       -0.805311   1.000000
    8       -0.805311   1.000000
    9        5.706594   0.000000
   10        7.063171   0.000000
   11        7.523716   0.000000
   12        8.526751   0.000000
   13        8.942499   0.000000
   14        8.942499   0.000000
   15        9.898709   0.000000
   16       11.282746   0.000000

  0.5000000E+00  0.3885781E-15  0.3885781E-15  0.1736111E-02
    1      -20.956301   1.000000
    2      -13.476536   1.000000
    3       -7.528483   1.000000
    4       -7.052574   1.000000
    5       -7.052573   1.000000
    6       -1.903990   1.000000
    7       -0.819166   1.000000
    8       -0.819165   1.000000
    9        5.821169   0.000000
   10        7.279286   0.000000
   11        7.795368   0.000000
   12        8.308694   0.000000
   13        8.956296   0.000000
   14        8.956296   0.000000
   15        9.966872   0.000000
   16       11.118900   0.000000

  0.8333333E-01  0.8333333E-01  0.3885781E-15  0.6944444E-02
    1      -21.003524   1.000000
    2      -13.461163   1.000000
    3       -7.198518   1.000000
    4       -7.159834   1.000000
    5       -7.143182   1.000000
    6       -0.798262   1.000000
    7       -0.676050   1.000000
    8       -0.644051   1.000000
    9        4.917554   0.000000
   10        4.940419   0.000000
   11        5.056876   0.000000
   12        9.023662   0.000000
   13        9.113371   0.000000
   14        9.409675   0.000000
   15       11.608676   0.000000
   16       12.017316   0.000000

  0.1666667E+00  0.8333333E-01  0.3885781E-15  0.1388889E-01
    1      -20.993900   1.000000
    2      -13.462142   1.000000
    3       -7.267874   1.000000
    4       -7.153516   1.000000
    5       -7.125071   1.000000
    6       -1.034530   1.000000
    7       -0.719372   1.000000
    8       -0.674610   1.000000
    9        5.091501   0.000000
   10        5.339255   0.000000
   11        5.486098   0.000000
   12        8.844784   0.000000
   13        8.963335   0.000000
   14        9.557104   0.000000
   15       10.944460   0.000000
   16       12.260922   0.000000

  0.2500000E+00  0.8333333E-01  0.3885781E-15  0.1388889E-01
    1      -20.980415   1.000000
    2      -13.463849   1.000000
    3       -7.364406   1.000000
    4       -7.137414   1.000000
    5       -7.099902   1.000000
    6       -1.336191   1.000000
    7       -0.762441   1.000000
    8       -0.717391   1.000000
    9        5.297740   0.000000
   10        5.911198   0.000000
   11        6.146620   0.000000
   12        8.725546   0.000000
   13        8.809387   0.000000
   14        9.654647   0.000000
   15       10.174080   0.000000
   16       11.878493   0.000000

  0.3333333E+00  0.8333333E-01  0.3885781E-15  0.1388889E-01
    1      -20.966955   1.000000
    2      -13.466096   1.000000
    3       -7.455787   1.000000
    4       -7.120846   1.000000
    5       -7.074375   1.000000
    6       -1.606724   1.000000
    7       -0.805821   1.000000
    8       -0.761372   1.000000
    9        5.547849   0.000000
   10        6.501011   0.000000
   11        6.885798   0.000000
   12        8.650433   0.000000
   13        8.696759   0.000000
   14        9.588421   0.000000
   15        9.649024   0.000000
   16       11.350707   0.000000

  0.4166667E+00  0.8333333E-01  0.3885781E-15  0.1388889E-01
    1      -20.957009   1.000000
    2      -13.468084   1.000000
    3       -7.519174   1.000000
    4       -7.108795   1.000000
    5       -7.055429   1.000000
    6       -1.788925   1.000000
    7       -0.838697   1.000000
    8       -0.794318   1.000000
    9        5.781135   0.000000
   10        7.001531   0.000000
   11        7.406114   0.000000
   12        8.456808   0.000000
   13        8.748302   0.000000
   14        9.371685   0.000000
   15        9.531903   0.000000
   16       11.102245   0.000000

  0.5000000E+00  0.8333333E-01  0.3885781E-15  0.6944444E-02
    1      -20.953371   1.000000
    2      -13.468901   1.000000
    3       -7.541636   1.000000
    4       -7.104443   1.000000
    5       -7.048447   1.000000
    6       -1.852779   1.000000
    7       -0.850994   1.000000
    8       -0.806538   1.000000
    9        5.884549   0.000000
   10        7.259842   0.000000
   11        7.487167   0.000000
   12        8.367319   0.000000
   13        8.795793   0.000000
   14        9.399750   0.000000
   15        9.447394   0.000000
   16       11.058789   0.000000

  0.1666667E+00  0.1666667E+00  0.3885781E-15  0.6944444E-02
    1      -20.984385   1.000000
    2      -13.458863   1.000000
    3       -7.310615   1.000000
    4       -7.194373   1.000000
    5       -7.108168   1.000000
    6       -1.142797   1.000000
    7       -0.810089   1.000000
    8       -0.692160   1.000000
    9        5.328129   0.000000
   10        5.635782   0.000000
   11        5.797866   0.000000
   12        8.551358   0.000000
   13        8.778701   0.000000
   14        9.688557   0.000000
   15       11.133742   0.000000
   16       11.873729   0.000000

  0.2500000E+00  0.1666667E+00  0.3885781E-15  0.1388889E-01
    1      -20.971333   1.000000
    2      -13.454713   1.000000
    3       -7.396972   1.000000
    4       -7.217354   1.000000
    5       -7.084783   1.000000
    6       -1.336312   1.000000
    7       -0.866427   1.000000
    8       -0.717274   1.000000
    9        5.535228   0.000000
   10        6.019349   0.000000
   11        6.393429   0.000000
   12        8.344416   0.000000
   13        8.663348   0.000000
   14        9.586042   0.000000
   15       10.598152   0.000000
   16       11.447388   0.000000

  0.3333333E+00  0.1666667E+00  0.3885781E-15  0.1388889E-01
    1      -20.958288   1.000000
    2      -13.451020   1.000000
    3       -7.488976   1.000000
    4       -7.229740   1.000000
    5       -7.061127   1.000000
    6       -1.532536   1.000000
    7       -0.900915   1.000000
    8       -0.743723   1.000000
    9        5.726089   0.000000
   10        6.395631   0.000000
   11        7.046583   0.000000
   12        8.264362   0.000000
   13        8.662271   0.000000
   14        9.281626   0.000000
   15       10.073744   0.000000
   16       11.160447   0.000000

  0.4166667E+00  0.1666667E+00  0.3885781E-15  0.1388889E-01
    1      -20.948707   1.000000
    2      -13.448612   1.000000
    3       -7.554635   1.000000
    4       -7.237717   1.000000
    5       -7.043579   1.000000
    6       -1.668841   1.000000
    7       -0.923982   1.000000
    8       -0.763940   1.000000
    9        5.877863   0.000000
   10        6.718766   0.000000
   11        7.373429   0.000000
   12        8.317005   0.000000
   13        8.793120   0.000000
   14        8.927627   0.000000
   15        9.920580   0.000000
   16       11.077508   0.000000

  0.5000000E+00  0.1666667E+00  0.3885781E-15  0.6944444E-02
    1      -20.945016   1.000000
    2      -13.447746   1.000000
    3       -7.577972   1.000000
    4       -7.240649   1.000000
    5       -7.037018   1.000000
    6       -1.716885   1.000000
    7       -0.932533   1.000000
    8       -0.771518   1.000000
    9        5.938017   0.000000
   10        6.882183   0.000000
   11        7.379094   0.000000
   12        8.414209   0.000000
   13        8.719368   0.000000
   14        8.840879   0.000000
   15       10.090115   0.000000
   16       11.020360   0.000000

  0.2500000E+00  0.2500000E+00  0.3885781E-15  0.6944444E-02
    1      -20.958776   1.000000
    2      -13.442384   1.000000
    3       -7.457970   1.000000
    4       -7.304694   1.000000
    5       -7.063875   1.000000
    6       -1.372679   1.000000
    7       -0.961622   1.000000
    8       -0.717953   1.000000
    9        5.689445   0.000000
   10        6.156627   0.000000
   11        6.901144   0.000000
   12        8.042945   0.000000
   13        8.693797   0.000000
   14        9.224773   0.000000
   15       10.456998   0.000000
   16       11.895356   0.000000

  0.3333333E+00  0.2500000E+00  0.3885781E-15  0.1388889E-01
    1      -20.946308   1.000000
    2      -13.430305   1.000000
    3       -7.538944   1.000000
    4       -7.366963   1.000000
    5       -7.042790   1.000000
    6       -1.446641   1.000000
    7       -1.009776   1.000000
    8       -0.719651   1.000000
    9        5.740358   0.000000
   10        6.262470   0.000000
   11        7.518669   0.000000
   12        7.879735   0.000000
   13        8.766388   0.000000
   14        8.897303   0.000000
   15       10.298922   0.000000
   16       11.631706   0.000000

  0.4166667E+00  0.2500000E+00  0.3885781E-15  0.1388889E-01
    1      -20.937117   1.000000
    2      -13.421591   1.000000
    3       -7.604548   1.000000
    4       -7.403318   1.000000
    5       -7.027205   1.000000
    6       -1.513428   1.000000
    7       -1.027642   1.000000
    8       -0.721568   1.000000
    9        5.765115   0.000000
   10        6.310275   0.000000
   11        7.854908   0.000000
   12        7.874044   0.000000
   13        8.354109   0.000000
   14        9.372198   0.000000
   15       10.329991   0.000000
   16       11.496771   0.000000

  0.5000000E+00  0.2500000E+00  0.3885781E-15  0.6944444E-02
    1      -20.933832   1.000000
    2      -13.418460   1.000000
    3       -7.628953   1.000000
    4       -7.415751   1.000000
    5       -7.021518   1.000000
    6       -1.538847   1.000000
    7       -1.032365   1.000000
    8       -0.722419   1.000000
    9        5.777100   0.000000
   10        6.317889   0.000000
   11        7.924739   0.000000
   12        7.979085   0.000000
   13        8.103523   0.000000
   14        9.586814   0.000000
   15       10.781580   0.000000
   16       11.089857   0.000000

  0.3333333E+00  0.3333333E+00  0.3885781E-15  0.6944444E-02
    1      -20.934453   1.000000
    2      -13.409502   1.000000
    3       -7.599410   1.000000
    4       -7.487135   1.000000
    5       -7.024388   1.000000
    6       -1.385622   1.000000
    7       -1.088395   1.000000
    8       -0.695648   1.000000
    9        5.620248   0.000000
   10        6.108887   0.000000
   11        7.627423   0.000000
   12        8.248166   0.000000
   13        8.271122   0.000000
   14        9.190628   0.000000
   15       10.641067   0.000000
   16       12.193400   0.000000

  0.4166667E+00  0.3333333E+00  0.3885781E-15  0.1388889E-01
    1      -20.925487   1.000000
    2      -13.394141   1.000000
    3       -7.656802   1.000000
    4       -7.558121   1.000000
    5       -7.010711   1.000000
    6       -1.366710   1.000000
    7       -1.117301   1.000000
    8       -0.678137   1.000000
    9        5.532984   0.000000
   10        5.951133   0.000000
   11        7.539269   0.000000
   12        7.877897   0.000000
   13        8.739292   0.000000
   14        9.848282   0.000000
   15       10.912925   0.000000
   16       12.126403   0.000000

  0.5000000E+00  0.3333333E+00  0.3885781E-15  0.6944444E-02
    1      -20.922274   1.000000
    2      -13.388527   1.000000
    3       -7.681321   1.000000
    4       -7.579968   1.000000
    5       -7.005712   1.000000
    6       -1.366748   1.000000
    7       -1.120393   1.000000
    8       -0.671744   1.000000
    9        5.510283   0.000000
   10        5.878937   0.000000
   11        7.605283   0.000000
   12        7.646543   0.000000
   13        8.853480   0.000000
   14       10.409876   0.000000
   15       11.244363   0.000000
   16       11.521126   0.000000

  0.4166667E+00  0.4166667E+00  0.3885781E-15  0.6944444E-02
    1      -20.916925   1.000000
    2      -13.373769   1.000000
    3       -7.699244   1.000000
    4       -7.662706   1.000000
    5       -6.998523   1.000000
    6       -1.268603   1.000000
    7       -1.169998   1.000000
    8       -0.645634   1.000000
    9        5.357123   0.000000
   10        5.696698   0.000000
   11        7.362465   0.000000
   12        7.538580   0.000000
   13        9.726612   0.000000
   14       10.241915   0.000000
   15       11.552866   0.000000
   16       12.281524   0.000000

  0.5000000E+00  0.4166667E+00  0.3885781E-15  0.6944444E-02
    1      -20.913752   1.000000
    2      -13.366237   1.000000
    3       -7.720590   1.000000
    4       -7.694355   1.000000
    5       -6.994017   1.000000
    6       -1.243005   1.000000
    7       -1.178144   1.000000
    8       -0.633581   1.000000
    9        5.296928   0.000000
   10        5.602067   0.000000
   11        7.358045   0.000000
   12        7.366297   0.000000
   13       10.017283   0.000000
   14       11.014214   0.000000
   15       11.414220   0.000000
   16       12.234930   0.000000

  0.5000000E+00  0.5000000E+00  0.3885781E-15  0.1736111E-02
    1      -20.910851   1.000000
    2      -13.358061   1.000000
    3       -7.735237   1.000000
    4       -7.735237   1.000000
    5       -6.989800   1.000000
    6       -1.197986   1.000000
    7       -1.197986   1.000000
    8       -0.619377   1.000000
    9        5.217530   0.000000
   10        5.507493   0.000000
   11        7.271883   0.000000
   12        7.271883   0.000000
   13       11.191908   0.000000
   14       11.224193   0.000000
   15       11.224193   0.000000
   16       11.630808   0.000000

  0.8333333E-01  0.8333333E-01  0.8333333E-01  0.4629630E-02
    1      -20.999970   1.000000
    2      -13.460921   1.000000
    3       -7.191375   1.000000
    4       -7.191375   1.000000
    5       -7.138643   1.000000
    6       -0.847018   1.000000
    7       -0.690096   1.000000
    8       -0.690096   1.000000
    9        5.063618   0.000000
   10        5.099278   0.000000
   11        5.099278   0.000000
   12        8.956295   0.000000
   13        8.956295   0.000000
   14        9.524198   0.000000
   15       11.749656   0.000000
   16       11.749656   0.000000

  0.1666667E+00  0.8333333E-01  0.8333333E-01  0.1388889E-01
    1      -20.990411   1.000000
    2      -13.460506   1.000000
    3       -7.270012   1.000000
    4       -7.171827   1.000000
    5       -7.131544   1.000000
    6       -1.047757   1.000000
    7       -0.730628   1.000000
    8       -0.728914   1.000000
    9        5.223229   0.000000
   10        5.453310   0.000000
   11        5.547628   0.000000
   12        8.747932   0.000000
   13        8.796694   0.000000
   14        9.619328   0.000000
   15       11.114990   0.000000
   16       12.078654   0.000000

  0.2500000E+00  0.8333333E-01  0.8333333E-01  0.1388889E-01
    1      -20.977094   1.000000
    2      -13.460281   1.000000
    3       -7.370579   1.000000
    4       -7.144669   1.000000
    5       -7.123350   1.000000
    6       -1.324879   1.000000
    7       -0.782937   1.000000
    8       -0.750901   1.000000
    9        5.417247   0.000000
   10        5.970397   0.000000
   11        6.208428   0.000000
   12        8.612040   0.000000
   13        8.639174   0.000000
   14        9.558520   0.000000
   15       10.419602   0.000000
   16       11.756964   0.000000

  0.3333333E+00  0.8333333E-01  0.8333333E-01  0.1388889E-01
    1      -20.963792   1.000000
    2      -13.460567   1.000000
    3       -7.464791   1.000000
    4       -7.117093   1.000000
    5       -7.116201   1.000000
    6       -1.576947   1.000000
    7       -0.838105   1.000000
    8       -0.769131   1.000000
    9        5.653967   0.000000
   10        6.490886   0.000000
   11        6.922473   0.000000
   12        8.421397   0.000000
   13        8.685945   0.000000
   14        9.373445   0.000000
   15        9.862196   0.000000
   16       11.660431   0.000000

  0.4166667E+00  0.8333333E-01  0.8333333E-01  0.1388889E-01
    1      -20.954027   1.000000
    2      -13.461137   1.000000
    3       -7.529980   1.000000
    4       -7.111658   1.000000
    5       -7.096587   1.000000
    6       -1.747205   1.000000
    7       -0.879205   1.000000
    8       -0.783653   1.000000
    9        5.873052   0.000000
   10        6.934420   0.000000
   11        7.351087   0.000000
   12        8.227367   0.000000
   13        8.928191   0.000000
   14        9.249478   0.000000
   15        9.547954   0.000000
   16       11.413514   0.000000

  0.5000000E+00  0.8333333E-01  0.8333333E-01  0.6944444E-02
    1      -20.950381   1.000000
    2      -13.461382   1.000000
    3       -7.553056   1.000000
    4       -7.110119   1.000000
    5       -7.089002   1.000000
    6       -1.806860   1.000000
    7       -0.894395   1.000000
    8       -0.789290   1.000000
    9        5.969255   0.000000
   10        7.199187   0.000000
   11        7.348099   0.000000
   12        8.131045   0.000000
   13        9.169533   0.000000
   14        9.197107   0.000000
   15        9.459027   0.000000
   16       11.255637   0.000000

  0.1666667E+00  0.1666667E+00  0.8333333E-01  0.1388889E-01
    1      -20.980980   1.000000
    2      -13.456186   1.000000
    3       -7.302565   1.000000
    4       -7.211416   1.000000
    5       -7.130678   1.000000
    6       -1.128898   1.000000
    7       -0.828228   1.000000
    8       -0.754261   1.000000
    9        5.482760   0.000000
   10        5.754844   0.000000
   11        5.829366   0.000000
   12        8.486461   0.000000
   13        8.617573   0.000000
   14        9.524089   0.000000
   15       11.317659   0.000000
   16       11.902472   0.000000

  0.2500000E+00  0.1666667E+00  0.8333333E-01  0.2777778E-01
    1      -20.968111   1.000000
    2      -13.450617   1.000000
    3       -7.393878   1.000000
    4       -7.222166   1.000000
    5       -7.120725   1.000000
    6       -1.310310   1.000000
    7       -0.885804   1.000000
    8       -0.773255   1.000000
    9        5.680611   0.000000
   10        6.122221   0.000000
   11        6.428905   0.000000
   12        8.290523   0.000000
   13        8.515440   0.000000
   14        9.197298   0.000000
   15       10.896726   0.000000
   16       11.758029   0.000000

  0.3333333E+00  0.1666667E+00  0.8333333E-01  0.2777778E-01
    1      -20.955169   1.000000
    2      -13.445448   1.000000
    3       -7.491285   1.000000
    4       -7.227398   1.000000
    5       -7.104658   1.000000
    6       -1.503218   1.000000
    7       -0.931399   1.000000
    8       -0.774743   1.000000
    9        5.864875   0.000000
   10        6.452741   0.000000
   11        7.055193   0.000000
   12        8.188743   0.000000
   13        8.589208   0.000000
   14        8.888935   0.000000
   15       10.399453   0.000000
   16       11.518534   0.000000

  0.4166667E+00  0.1666667E+00  0.8333333E-01  0.2777778E-01
    1      -20.945648   1.000000
    2      -13.441923   1.000000
    3       -7.560235   1.000000
    4       -7.233403   1.000000
    5       -7.089950   1.000000
    6       -1.638201   1.000000
    7       -0.968230   1.000000
    8       -0.769755   1.000000
    9        6.013838   0.000000
   10        6.723409   0.000000
   11        7.276719   0.000000
   12        8.149332   0.000000
   13        8.737795   0.000000
   14        8.982685   0.000000
   15       10.112670   0.000000
   16       11.299962   0.000000

  0.5000000E+00  0.1666667E+00  0.8333333E-01  0.1388889E-01
    1      -20.942150   1.000000
    2      -13.440690   1.000000
    3       -7.584785   1.000000
    4       -7.236129   1.000000
    5       -7.084100   1.000000
    6       -1.685880   1.000000
    7       -0.982415   1.000000
    8       -0.767377   1.000000
    9        6.073351   0.000000
   10        6.875728   0.000000
   11        7.214431   0.000000
   12        8.138805   0.000000
   13        8.732010   0.000000
   14        9.206984   0.000000
   15       10.119551   0.000000
   16       11.201607   0.000000

  0.2500000E+00  0.2500000E+00  0.8333333E-01  0.1388889E-01
    1      -20.955717   1.000000
    2      -13.437553   1.000000
    3       -7.448773   1.000000
    4       -7.310749   1.000000
    5       -7.105384   1.000000
    6       -1.340660   1.000000
    7       -0.986290   1.000000
    8       -0.781913   1.000000
    9        5.846907   0.000000
   10        6.298109   0.000000
   11        6.910566   0.000000
   12        8.019423   0.000000
   13        8.535892   0.000000
   14        8.782832   0.000000
   15       10.978946   0.000000
   16       11.988379   0.000000

  0.3333333E+00  0.2500000E+00  0.8333333E-01  0.2777778E-01
    1      -20.943279   1.000000
    2      -13.424654   1.000000
    3       -7.533217   1.000000
    4       -7.366947   1.000000
    5       -7.087051   1.000000
    6       -1.424100   1.000000
    7       -1.040585   1.000000
    8       -0.773034   1.000000
    9        5.897750   0.000000
   10        6.386714   0.000000
   11        7.462544   0.000000
   12        7.897821   0.000000
   13        8.435436   0.000000
   14        8.832354   0.000000
   15       10.707216   0.000000
   16       11.727290   0.000000

  0.4166667E+00  0.2500000E+00  0.8333333E-01  0.2777778E-01
    1      -20.934104   1.000000
    2      -13.415325   1.000000
    3       -7.603429   1.000000
    4       -7.397721   1.000000
    5       -7.072314   1.000000
    6       -1.500484   1.000000
    7       -1.070704   1.000000
    8       -0.755371   1.000000
    9        5.916719   0.000000
   10        6.395277   0.000000
   11        7.584611   0.000000
   12        7.920590   0.000000
   13        8.422019   0.000000
   14        9.331691   0.000000
   15       10.596120   0.000000
   16       11.544530   0.000000

  0.5000000E+00  0.2500000E+00  0.8333333E-01  0.1388889E-01
    1      -20.930700   1.000000
    2      -13.411936   1.000000
    3       -7.629479   1.000000
    4       -7.408199   1.000000
    5       -7.066668   1.000000
    6       -1.529312   1.000000
    7       -1.081820   1.000000
    8       -0.746932   1.000000
    9        5.925627   0.000000
   10        6.382878   0.000000
   11        7.569566   0.000000
   12        7.943302   0.000000
   13        8.403727   0.000000
   14        9.657706   0.000000
   15       10.856523   0.000000
   16       11.204784   0.000000

  0.3333333E+00  0.3333333E+00  0.8333333E-01  0.1388889E-01
    1      -20.931292   1.000000
    2      -13.403719   1.000000
    3       -7.588988   1.000000
    4       -7.486712   1.000000
    5       -7.068318   1.000000
    6       -1.379850   1.000000
    7       -1.120200   1.000000
    8       -0.759969   1.000000
    9        5.785418   0.000000
   10        6.237051   0.000000
   11        7.606777   0.000000
   12        8.071836   0.000000
   13        8.274805   0.000000
   14        9.174636   0.000000
   15       10.882835   0.000000
   16       12.295107   0.000000

  0.4166667E+00  0.3333333E+00  0.8333333E-01  0.2777778E-01
    1      -20.922545   1.000000
    2      -13.388331   1.000000
    3       -7.649287   1.000000
    4       -7.551667   1.000000
    5       -7.054131   1.000000
    6       -1.376125   1.000000
    7       -1.156542   1.000000
    8       -0.740201   1.000000
    9        5.694248   0.000000
   10        6.074437   0.000000
   11        7.536473   0.000000
   12        7.800804   0.000000
   13        8.790877   0.000000
   14        9.797037   0.000000
   15       11.081438   0.000000
   16       12.148700   0.000000

  0.5000000E+00  0.3333333E+00  0.8333333E-01  0.1388889E-01
    1      -20.919339   1.000000
    2      -13.382684   1.000000
    3       -7.675849   1.000000
    4       -7.570331   1.000000
    5       -7.048833   1.000000
    6       -1.380482   1.000000
    7       -1.165955   1.000000
    8       -0.730432   1.000000
    9        5.665305   0.000000
   10        6.004128   0.000000
   11        7.585632   0.000000
   12        7.629707   0.000000
   13        8.910786   0.000000
   14       10.355942   0.000000
   15       11.315371   0.000000
   16       11.647620   0.000000

  0.4166667E+00  0.4166667E+00  0.8333333E-01  0.1388889E-01
    1      -20.914074   1.000000
    2      -13.368303   1.000000
    3       -7.688159   1.000000
    4       -7.654834   1.000000
    5       -7.040649   1.000000
    6       -1.297184   1.000000
    7       -1.207267   1.000000
    8       -0.726375   1.000000
    9        5.525538   0.000000
   10        5.851284   0.000000
   11        7.386048   0.000000
   12        7.547653   0.000000
   13        9.711724   0.000000
   14       10.207911   0.000000
   15       11.607936   0.000000
   16       12.258543   0.000000

  0.5000000E+00  0.4166667E+00  0.8333333E-01  0.1388889E-01
    1      -20.910898   1.000000
    2      -13.360896   1.000000
    3       -7.710713   1.000000
    4       -7.683410   1.000000
    5       -7.035650   1.000000
    6       -1.275200   1.000000
    7       -1.219343   1.000000
    8       -0.720291   1.000000
    9        5.465628   0.000000
   10        5.771982   0.000000
   11        7.386390   0.000000
   12        7.392926   0.000000
   13       10.001695   0.000000
   14       10.913835   0.000000
   15       11.449561   0.000000
   16       12.179381   0.000000

  0.5000000E+00  0.5000000E+00  0.8333333E-01  0.3472222E-02
    1      -20.907981   1.000000
    2      -13.352894   1.000000
    3       -7.723800   1.000000
    4       -7.723800   1.000000
    5       -7.030839   1.000000
    6       -1.237290   1.000000
    7       -1.237290   1.000000
    8       -0.716992   1.000000
    9        5.393070   0.000000
   10        5.694318   0.000000
   11        7.307044   0.000000
   12        7.307044   0.000000
   13       11.118193   0.000000
   14       11.118193   0.000000
   15       11.204584   0.000000
   16       11.657183   0.000000

  0.1666667E+00  0.1666667E+00  0.1666667E+00  0.4629630E-02
    1      -20.971946   1.000000
    2      -13.449064   1.000000
    3       -7.280435   1.000000
    4       -7.280435   1.000000
    5       -7.167514   1.000000
    6       -1.126023   1.000000
    7       -0.878233   1.000000
    8       -0.878233   1.000000
    9        5.919903   0.000000
   10        5.919903   0.000000
   11        6.054960   0.000000
   12        8.340614   0.000000
   13        8.340614   0.000000
   14        9.074662   0.000000
   15       11.757954   0.000000
   16       11.757954   0.000000

  0.2500000E+00  0.1666667E+00  0.1666667E+00  0.1388889E-01
    1      -20.959248   1.000000
    2      -13.439453   1.000000
    3       -7.391255   1.000000
    4       -7.249553   1.000000
    5       -7.195640   1.000000
    6       -1.253769   1.000000
    7       -0.947562   1.000000