       N       E                     dE             d eps       ncg     rms          rms(c)
DAV:   1     0.772399789057E+01    0.77240E+01   -0.49254E+03  2688   0.583E+02
DAV:   2    -0.602864755447E+02   -0.68010E+02   -0.63648E+02  3864   0.127E+02
DAV:   3    -0.646434754815E+02   -0.43570E+01   -0.43490E+01  3240   0.346E+01
DAV:   4    -0.646695219151E+02   -0.26046E-01   -0.26044E-01  3624   0.328E+00
DAV:   5    -0.646696610191E+02   -0.13910E-03   -0.13910E-03  3344   0.241E-01    0.172E+00
DAV:   6    -0.612285313655E+02    0.34411E+01   -0.43911E-01  3240   0.465E+00    0.125E+00
DAV:   7    -0.611689941837E+02    0.59537E-01   -0.34404E-01  3568   0.292E+00    0.749E-01
DAV:   8    -0.611698349958E+02   -0.84081E-03   -0.47830E-02  3216   0.119E+00    0.357E-01
DAV:   9    -0.611696716979E+02    0.16330E-03   -0.59691E-03  3248   0.551E-01    0.145E-01
DAV:  10    -0.611691959796E+02    0.47572E-03   -0.40061E-03  3600   0.299E-01    0.683E-02
DAV:  11    -0.611691719888E+02    0.23991E-04   -0.42772E-04  3392   0.121E-01    0.118E-02
DAV:  12    -0.611691684278E+02    0.35609E-05   -0.21066E-05  3136   0.251E-02    0.389E-03
DAV:  13    -0.611691651585E+02    0.32693E-05   -0.25492E-06  3200   0.869E-03    0.213E-03
DAV:  14    -0.611691656358E+02   -0.47720E-06   -0.36403E-07  2080   0.327E-03
   1 F= -.61169166E+02 E0= -.61169166E+02  d E =-.101335E-83
