 vasp.5.4.4.18Apr17-6-g9f103f2a35 (build Jun 22 2020 09:27:21) complex           
 executed on tx2_gcc-7.3_libsci-1 date 2021.09.09  19:53:04
 running on   64 total cores
 distrk:  each k-point on   64 cores,    1 groups
 distr:  one band on NCORES_PER_BAND=   8 cores,    8 groups


--------------------------------------------------------------------------------------------------------


 INCAR:
 POTCAR:    PAW_PBE Cs_sv 08Apr2002               
 POTCAR:    PAW_PBE Br 06Sep2000                  
 POTCAR:    PAW_PBE Cs_sv 08Apr2002               
   SHA256 =  c1463496f0f6037ed62c6012a8013a89ee9ad6ffb38599dcd6c079e7ed31779b Cs
   COPYR  = (c) Copyright 08Apr2002 Georg Kresse                                
   COPYR  = This file is part of the software VASP. Any use, copying, and all ot
   COPYR  = If you do not have a valid VASP license, you may not use, copy or di
   VRHFIN =Cs: 5s5p6s                                                           
   LEXCH  = PE                                                                  
   EATOM  =   555.6835 eV,   40.8416 Ry                                         
                                                                                
   TITEL  = PAW_PBE Cs_sv 08Apr2002                                             
   LULTRA =        F    use ultrasoft PP ?                                      
   IUNSCR =        1    unscreen: 0-lin 1-nonlin 2-no                           
   RPACOR =    2.200    partial core radius                                     
   POMASS =  132.900; ZVAL   =    9.000    mass and valenz                      
   RCORE  =    2.500    outmost cutoff radius                                   
   RWIGS  =    2.500; RWIGS  =    1.323    wigner-seitz radius (au A)           
   ENMAX  =  220.318; ENMIN  =  165.238 eV                                      
   RCLOC  =    2.207    cutoff for local pot                                    
   LCOR   =        T    correct aug charges                                     
   LPAW   =        T    paw PP                                                  
   EAUG   =  407.933                                                            
   DEXC   =    0.000                                                            
   RMAX   =    2.554    core radius for proj-oper                               
   RAUG   =    1.300    factor for augmentation sphere                          
   RDEP   =    2.590    radius for radial grids                                 
   RDEPT  =    2.117    core radius for aug-charge                              
                                                                                
   Atomic configuration                                                         
   13 entries                                                                   
     n  l   j            E        occ.                                          
     1  0  0.50    -35790.1377   2.0000                                         
     2  0  0.50     -5613.6201   2.0000                                         
     2  1  1.50     -5035.0101   6.0000                                         
     3  0  0.50     -1167.0767   2.0000                                         
     3  1  1.50      -980.9754   6.0000                                         
     3  2  2.50      -708.0703  10.0000                                         
     4  0  0.50      -220.2386   2.0000                                         
     4  1  1.50      -160.7596   6.0000                                         
     4  2  2.50       -74.2354  10.0000                                         
     5  0  0.50       -26.7287   2.0000                                         
     6  0  0.50        -2.0862   1.0000                                         
     5  1  1.50       -13.5159   6.0000                                         
     5  2  2.50        -0.4136   0.0000                                         
   Description                                                                  
     l       E           TYP  RCUT    TYP  RCUT                                 
     0    -26.7287425     23  1.900                                             
     0     -2.0862306     23  1.900                                             
     1    -13.5158719     23  2.500                                             
     1     -2.7211652     23  2.500                                             
     2     -0.4136171     23  2.500                                             
  local pseudopotential read in
  partial core-charges read in
  partial kinetic energy density read in
  atomic valenz-charges read in
  non local Contribution for L=           0  read in
    real space projection operators read in
  non local Contribution for L=           0  read in
    real space projection operators read in
  non local Contribution for L=           1  read in
    real space projection operators read in
  non local Contribution for L=           1  read in
    real space projection operators read in
  non local Contribution for L=           2  read in
    real space projection operators read in
    PAW grid and wavefunctions read in

   number of l-projection  operators is LMAX  =           5
   number of lm-projection operators is LMMAX =          13

 POTCAR:    PAW_PBE Br 06Sep2000                  
   SHA256 =  96a73d2954943bbee26f4990d676cc6c3bf44b8dd2c75cd4b3b825d8403f0103 Br
   COPYR  = (c) Copyright 06Sep2000 Georg Kresse                                
   COPYR  = This file is part of the software VASP. Any use, copying, and all ot
   COPYR  = If you do not have a valid VASP license, you may not use, copy or di
   VRHFIN =Br: s2p5                                                             
   LEXCH  = PE                                                                  
   EATOM  =   368.4488 eV,   27.0802 Ry                                         
                                                                                
   TITEL  = PAW_PBE Br 06Sep2000                                                
   LULTRA =        F    use ultrasoft PP ?                                      
   IUNSCR =        1    unscreen: 0-lin 1-nonlin 2-no                           
   RPACOR =    1.900    partial core radius                                     
   POMASS =   79.904; ZVAL   =    7.000    mass and valenz                      
   RCORE  =    2.100    outmost cutoff radius                                   
   RWIGS  =    2.200; RWIGS  =    1.164    wigner-seitz radius (au A)           
   ENMAX  =  216.285; ENMIN  =  162.214 eV                                      
   ICORE  =        3    local potential                                         
   LCOR   =        T    correct aug charges                                     
   LPAW   =        T    paw PP                                                  
   EAUG   =  503.852                                                            
   DEXC   =    0.000                                                            
   RMAX   =    2.139    core radius for proj-oper                               
   RAUG   =    1.300    factor for augmentation sphere                          
   RDEP   =    2.186    radius for radial grids                                 
   RDEPT  =    1.890    core radius for aug-charge                              
                                                                                
   Atomic configuration                                                         
   10 entries                                                                   
     n  l   j            E        occ.                                          
     1  0  0.50    -13316.2796   2.0000                                         
     2  0  0.50     -1732.8239   2.0000                                         
     2  1  1.50     -1528.2193   6.0000                                         
     3  0  0.50      -238.0460   2.0000                                         
     3  1  1.50      -173.4609   6.0000                                         
     3  2  2.50       -66.7132  10.0000                                         
     4  0  0.50       -20.1334   2.0000                                         
     4  1  0.50        -7.8591   5.0000                                         
     4  2  2.50        -8.1635   0.0000                                         
     4  3  2.50        -8.1635   0.0000                                         
   Description                                                                  
     l       E           TYP  RCUT    TYP  RCUT                                 
     0    -20.1333652     23  2.100                                             
     0    -21.4939478     23  2.100                                             
     1     -7.8591052     23  2.100                                             
     1     -3.1608434     23  2.100                                             
     2     -8.1634956     23  2.100                                             
     3     -1.3605826      7  2.100                                             
  local pseudopotential read in
  partial core-charges read in
  partial kinetic energy density read in
  atomic valenz-charges read in
  non local Contribution for L=           0  read in
    real space projection operators read in
  non local Contribution for L=           0  read in
    real space projection operators read in
  non local Contribution for L=           1  read in
    real space projection operators read in
  non local Contribution for L=           1  read in
    real space projection operators read in
  non local Contribution for L=           2  read in
    real space projection operators read in
    PAW grid and wavefunctions read in

   number of l-projection  operators is LMAX  =           5
   number of lm-projection operators is LMMAX =          13


 ----------------------------------------------------------------------------- 
|                                                                             |
|  ADVICE TO THIS USER RUNNING 'VASP/VAMP'   (HEAR YOUR MASTER'S VOICE ...):  |
|                                                                             |
|      You have a (more or less) 'small supercell' and for smaller cells      |
|      it is recommended  to use the reciprocal-space projection scheme!      |
|      The real space optimization is not  efficient for small cells and it   |
|      is also less accurate ...                                              |
|      Therefore set LREAL=.FALSE. in the  INCAR file                         |
|                                                                             |
 ----------------------------------------------------------------------------- 

 Optimization of the real space projectors (new method)

 maximal supplied QI-value         = 15.12
 optimisation between [QCUT,QGAM] = [  8.77, 17.69] = [ 21.53, 87.61] Ry 
 Optimized for a Real-space Cutoff    1.85 Angstroem

   l    n(q)    QCUT    max X(q) W(low)/X(q) W(high)/X(q)  e(spline) 
   0     10     8.768    25.322    0.81E-04    0.51E-04    0.48E-06
   0     10     8.768    99.187    0.78E-04    0.50E-04    0.47E-06
   1      9     8.768    11.761    0.21E-03    0.20E-03    0.37E-06
   1      9     8.768     8.275    0.24E-03    0.22E-03    0.41E-06
   2      9     8.768     3.829    0.23E-04    0.15E-03    0.18E-06
 Optimization of the real space projectors (new method)

 maximal supplied QI-value         = 17.95
 optimisation between [QCUT,QGAM] = [  8.80, 17.59] = [ 21.67, 86.68] Ry 
 Optimized for a Real-space Cutoff    1.59 Angstroem

   l    n(q)    QCUT    max X(q) W(low)/X(q) W(high)/X(q)  e(spline) 
   0      8     8.797   175.082    0.82E-04    0.14E-03    0.89E-07
   0      8     8.797   174.004    0.79E-04    0.14E-03    0.86E-07
   1      8     8.797    54.315    0.16E-03    0.14E-04    0.30E-06
   1      8     8.797    42.441    0.16E-03    0.14E-04    0.30E-06
   2      7     8.797     3.596    0.92E-04    0.15E-03    0.85E-07
  PAW_PBE Cs_sv 08Apr2002               :
 energy of atom  1       EATOM= -555.6835
 kinetic energy error for atom=    0.0069 (will be added to EATOM!!)
  PAW_PBE Br 06Sep2000                  :
 energy of atom  2       EATOM= -368.4488
 kinetic energy error for atom=    0.0072 (will be added to EATOM!!)


 POSCAR: Cs1 Br1                                 
  positions in direct lattice
  velocities in cartesian coordinates

 METAGGA = SCAN     LMAXTAU =  6    LMIXTAU =  F

 exchange correlation table for  LEXCH =        8
   RHO(1)=    0.500       N(1)  =     2000
   RHO(2)=  100.500       N(2)  =     4000

 VTST: version 3.2, (02/03/18)

 CHAIN: initializing optimizer
 
 OPT: Using VASP Conjugate-Gradient optimizer
 CHAIN: Read ICHAIN            0

 POSCAR: Cs1 Br1                                 
  positions in direct lattice
  velocities in cartesian coordinates



--------------------------------------------------------------------------------------------------------


 ion  position               nearest neighbor table
   1  0.000  0.000  0.000-
   2  0.500  0.500  0.500-

  LATTYP: Found a simple cubic cell.
 ALAT       =     4.3009740798
  
  Lattice vectors:
  
 A1 = (   4.3009740798,  -0.0000000000,   0.0000000000)
 A2 = (   0.0000000000,   4.3009740798,  -0.0000000000)
 A3 = (   0.0000000000,   0.0000000000,   4.3009740798)


Analysis of symmetry for initial positions (statically):
=====================================================================
 Subroutine PRICEL returns:
 Original cell was already a primitive cell.
 

 Routine SETGRP: Setting up the symmetry group for a 
 simple cubic supercell.


 Subroutine GETGRP returns: Found 48 space group operations
 (whereof 48 operations were pure point group operations)
 out of a pool of 48 trial point group operations.


The static configuration has the point symmetry O_h .


Analysis of symmetry for dynamics (positions and initial velocities):
=====================================================================
 Subroutine PRICEL returns:
 Original cell was already a primitive cell.
 

 Routine SETGRP: Setting up the symmetry group for a 
 simple cubic supercell.


 Subroutine GETGRP returns: Found 48 space group operations
 (whereof 48 operations were pure point group operations)
 out of a pool of 48 trial point group operations.


The dynamic configuration has the point symmetry O_h .


 Subroutine INISYM returns: Found 48 space group operations
 (whereof 48 operations are pure point group operations),
 and found     1 'primitive' translations



 KPOINTS: 1x1x1                                   

Automatic generation of k-mesh.
Space group operators:
 irot       det(A)        alpha          n_x          n_y          n_z        tau_x        tau_y        tau_z
    1     1.000000     0.000001     1.000000     0.000000     0.000000     0.000000     0.000000     0.000000
    2    -1.000000     0.000001     1.000000     0.000000     0.000000     0.000000     0.000000     0.000000
    3     1.000000   120.000000    -0.577350    -0.577350    -0.577350     0.000000     0.000000     0.000000
    4    -1.000000   120.000000    -0.577350    -0.577350    -0.577350     0.000000     0.000000     0.000000
    5     1.000000   120.000000     0.577350     0.577350     0.577350     0.000000     0.000000     0.000000
    6    -1.000000   120.000000     0.577350     0.577350     0.577350     0.000000     0.000000     0.000000
    7     1.000000    90.000000     0.000000     0.000000    -1.000000     0.000000     0.000000     0.000000
    8    -1.000000    90.000000     0.000000     0.000000    -1.000000     0.000000     0.000000     0.000000
    9     1.000000   180.000000     0.000000     0.707107     0.707107     0.000000     0.000000     0.000000
   10    -1.000000   180.000000     0.000000     0.707107     0.707107     0.000000     0.000000     0.000000
   11     1.000000    90.000000     0.000000     1.000000     0.000000     0.000000     0.000000     0.000000
   12    -1.000000    90.000000     0.000000     1.000000     0.000000     0.000000     0.000000     0.000000
   13     1.000000   180.000000     0.000000     0.000000     1.000000     0.000000     0.000000     0.000000
   14    -1.000000   180.000000     0.000000     0.000000     1.000000     0.000000     0.000000     0.000000
   15     1.000000   120.000000    -0.577350     0.577350     0.577350     0.000000     0.000000     0.000000
   16    -1.000000   120.000000    -0.577350     0.577350     0.577350     0.000000     0.000000     0.000000
   17     1.000000   120.000000    -0.577350     0.577350    -0.577350     0.000000     0.000000     0.000000
   18    -1.000000   120.000000    -0.577350     0.577350    -0.577350     0.000000     0.000000     0.000000
   19     1.000000    90.000000     0.000000     0.000000     1.000000     0.000000     0.000000     0.000000
   20    -1.000000    90.000000     0.000000     0.000000     1.000000     0.000000     0.000000     0.000000
   21     1.000000    90.000000    -1.000000     0.000000     0.000000     0.000000     0.000000     0.000000
   22    -1.000000    90.000000    -1.000000     0.000000     0.000000     0.000000     0.000000     0.000000
   23     1.000000   180.000000     0.707107     0.000000     0.707107     0.000000     0.000000     0.000000
   24    -1.000000   180.000000     0.707107     0.000000     0.707107     0.000000     0.000000     0.000000
   25     1.000000   120.000000     0.577350    -0.577350     0.577350     0.000000     0.000000     0.000000
   26    -1.000000   120.000000     0.577350    -0.577350     0.577350     0.000000     0.000000     0.000000
   27     1.000000   120.000000    -0.577350    -0.577350     0.577350     0.000000     0.000000     0.000000
   28    -1.000000   120.000000    -0.577350    -0.577350     0.577350     0.000000     0.000000     0.000000
   29     1.000000   180.000000     1.000000     0.000000     0.000000     0.000000     0.000000     0.000000
   30    -1.000000   180.000000     1.000000     0.000000     0.000000     0.000000     0.000000     0.000000
   31     1.000000    90.000000     0.000000    -1.000000     0.000000     0.000000     0.000000     0.000000
   32    -1.000000    90.000000     0.000000    -1.000000     0.000000     0.000000     0.000000     0.000000
   33     1.000000   180.000000     0.707107     0.707107     0.000000     0.000000     0.000000     0.000000
   34    -1.000000   180.000000     0.707107     0.707107     0.000000     0.000000     0.000000     0.000000
   35     1.000000    90.000000     1.000000     0.000000     0.000000     0.000000     0.000000     0.000000
   36    -1.000000    90.000000     1.000000     0.000000     0.000000     0.000000     0.000000     0.000000
   37     1.000000   120.000000     0.577350    -0.577350    -0.577350     0.000000     0.000000     0.000000
   38    -1.000000   120.000000     0.577350    -0.577350    -0.577350     0.000000     0.000000     0.000000
   39     1.000000   180.000000     0.000000     1.000000     0.000000     0.000000     0.000000     0.000000
   40    -1.000000   180.000000     0.000000     1.000000     0.000000     0.000000     0.000000     0.000000
   41     1.000000   120.000000     0.577350     0.577350    -0.577350     0.000000     0.000000     0.000000
   42    -1.000000   120.000000     0.577350     0.577350    -0.577350     0.000000     0.000000     0.000000
   43     1.000000   180.000000     0.000000    -0.707107     0.707107     0.000000     0.000000     0.000000
   44    -1.000000   180.000000     0.000000    -0.707107     0.707107     0.000000     0.000000     0.000000
   45     1.000000   180.000000     0.707107    -0.707107     0.000000     0.000000     0.000000     0.000000
   46    -1.000000   180.000000     0.707107    -0.707107     0.000000     0.000000     0.000000     0.000000
   47     1.000000   180.000000     0.707107     0.000000    -0.707107     0.000000     0.000000     0.000000
   48    -1.000000   180.000000     0.707107     0.000000    -0.707107     0.000000     0.000000     0.000000
 
 Subroutine IBZKPT returns following result:
 ===========================================
 
 Found     84 irreducible k-points:
 
 Following reciprocal coordinates:
            Coordinates               Weight
  0.000000  0.000000  0.000000      1.000000
  0.083333  0.000000  0.000000      6.000000
  0.166667  0.000000  0.000000      6.000000
  0.250000  0.000000  0.000000      6.000000
  0.333333  0.000000  0.000000      6.000000
  0.416667  0.000000  0.000000      6.000000
  0.500000  0.000000  0.000000      3.000000
  0.083333  0.083333  0.000000     12.000000
  0.166667  0.083333  0.000000     24.000000
  0.250000  0.083333  0.000000     24.000000
  0.333333  0.083333  0.000000     24.000000
  0.416667  0.083333  0.000000     24.000000
  0.500000  0.083333  0.000000     12.000000
  0.166667  0.166667  0.000000     12.000000
  0.250000  0.166667  0.000000     24.000000
  0.333333  0.166667  0.000000     24.000000
  0.416667  0.166667  0.000000     24.000000
  0.500000  0.166667  0.000000     12.000000
  0.250000  0.250000  0.000000     12.000000
  0.333333  0.250000  0.000000     24.000000
  0.416667  0.250000  0.000000     24.000000
  0.500000  0.250000  0.000000     12.000000
  0.333333  0.333333  0.000000     12.000000
  0.416667  0.333333  0.000000     24.000000
  0.500000  0.333333  0.000000     12.000000
  0.416667  0.416667  0.000000     12.000000
  0.500000  0.416667  0.000000     12.000000
  0.500000  0.500000  0.000000      3.000000
  0.083333  0.083333  0.083333      8.000000
  0.166667  0.083333  0.083333     24.000000
  0.250000  0.083333  0.083333     24.000000
  0.333333  0.083333  0.083333     24.000000
  0.416667  0.083333  0.083333     24.000000
  0.500000  0.083333  0.083333     12.000000
  0.166667  0.166667  0.083333     24.000000
  0.250000  0.166667  0.083333     48.000000
  0.333333  0.166667  0.083333     48.000000
  0.416667  0.166667  0.083333     48.000000
  0.500000  0.166667  0.083333     24.000000
  0.250000  0.250000  0.083333     24.000000
  0.333333  0.250000  0.083333     48.000000
  0.416667  0.250000  0.083333     48.000000
  0.500000  0.250000  0.083333     24.000000
  0.333333  0.333333  0.083333     24.000000
  0.416667  0.333333  0.083333     48.000000
  0.500000  0.333333  0.083333     24.000000
  0.416667  0.416667  0.083333     24.000000
  0.500000  0.416667  0.083333     24.000000
  0.500000  0.500000  0.083333      6.000000
  0.166667  0.166667  0.166667      8.000000
  0.250000  0.166667  0.166667     24.000000
  0.333333  0.166667  0.166667     24.000000
  0.416667  0.166667  0.166667     24.000000
  0.500000  0.166667  0.166667     12.000000
  0.250000  0.250000  0.166667     24.000000
  0.333333  0.250000  0.166667     48.000000
  0.416667  0.250000  0.166667     48.000000
  0.500000  0.250000  0.166667     24.000000
  0.333333  0.333333  0.166667     24.000000
  0.416667  0.333333  0.166667     48.000000
  0.500000  0.333333  0.166667     24.000000
  0.416667  0.416667  0.166667     24.000000
  0.500000  0.416667  0.166667     24.000000
  0.500000  0.500000  0.166667      6.000000
  0.250000  0.250000  0.250000      8.000000
  0.333333  0.250000  0.250000     24.000000
  0.416667  0.250000  0.250000     24.000000
  0.500000  0.250000  0.250000     12.000000
  0.333333  0.333333  0.250000     24.000000
  0.416667  0.333333  0.250000     48.000000
  0.500000  0.333333  0.250000     24.000000
  0.416667  0.416667  0.250000     24.000000
  0.500000  0.416667  0.250000     24.000000
  0.500000  0.500000  0.250000      6.000000
  0.333333  0.333333  0.333333      8.000000
  0.416667  0.333333  0.333333     24.000000
  0.500000  0.333333  0.333333     12.000000
  0.416667  0.416667  0.333333     24.000000
  0.500000  0.416667  0.333333     24.000000
  0.500000  0.500000  0.333333      6.000000
  0.416667  0.416667  0.416667      8.000000
  0.500000  0.416667  0.416667     12.000000
  0.500000  0.500000  0.416667      6.000000
  0.500000  0.500000  0.500000      1.000000
 
 Following cartesian coordinates:
            Coordinates               Weight
  0.000000  0.000000  0.000000      1.000000
  0.019375  0.000000  0.000000      6.000000
  0.038751  0.000000  0.000000      6.000000
  0.058126  0.000000  0.000000      6.000000
  0.077502  0.000000  0.000000      6.000000
  0.096877  0.000000  0.000000      6.000000
  0.116253  0.000000  0.000000      3.000000
  0.019375  0.019375  0.000000     12.000000
  0.038751  0.019375  0.000000     24.000000
  0.058126  0.019375  0.000000     24.000000
  0.077502  0.019375  0.000000     24.000000
  0.096877  0.019375  0.000000     24.000000
  0.116253  0.019375  0.000000     12.000000
  0.038751  0.038751  0.000000     12.000000
  0.058126  0.038751  0.000000     24.000000
  0.077502  0.038751  0.000000     24.000000
  0.096877  0.038751  0.000000     24.000000
  0.116253  0.038751  0.000000     12.000000
  0.058126  0.058126  0.000000     12.000000
  0.077502  0.058126  0.000000     24.000000
  0.096877  0.058126  0.000000     24.000000
  0.116253  0.058126  0.000000     12.000000
  0.077502  0.077502  0.000000     12.000000
  0.096877  0.077502  0.000000     24.000000
  0.116253  0.077502  0.000000     12.000000
  0.096877  0.096877  0.000000     12.000000
  0.116253  0.096877  0.000000     12.000000
  0.116253  0.116253  0.000000      3.000000
  0.019375  0.019375  0.019375      8.000000
  0.038751  0.019375  0.019375     24.000000
  0.058126  0.019375  0.019375     24.000000
  0.077502  0.019375  0.019375     24.000000
  0.096877  0.019375  0.019375     24.000000
  0.116253  0.019375  0.019375     12.000000
  0.038751  0.038751  0.019375     24.000000
  0.058126  0.038751  0.019375     48.000000
  0.077502  0.038751  0.019375     48.000000
  0.096877  0.038751  0.019375     48.000000
  0.116253  0.038751  0.019375     24.000000
  0.058126  0.058126  0.019375     24.000000
  0.077502  0.058126  0.019375     48.000000
  0.096877  0.058126  0.019375     48.000000
  0.116253  0.058126  0.019375     24.000000
  0.077502  0.077502  0.019375     24.000000
  0.096877  0.077502  0.019375     48.000000
  0.116253  0.077502  0.019375     24.000000
  0.096877  0.096877  0.019375     24.000000
  0.116253  0.096877  0.019375     24.000000
  0.116253  0.116253  0.019375      6.000000
  0.038751  0.038751  0.038751      8.000000
  0.058126  0.038751  0.038751     24.000000
  0.077502  0.038751  0.038751     24.000000
  0.096877  0.038751  0.038751     24.000000
  0.116253  0.038751  0.038751     12.000000
  0.058126  0.058126  0.038751     24.000000
  0.077502  0.058126  0.038751     48.000000
  0.096877  0.058126  0.038751     48.000000
  0.116253  0.058126  0.038751     24.000000
  0.077502  0.077502  0.038751     24.000000
  0.096877  0.077502  0.038751     48.000000
  0.116253  0.077502  0.038751     24.000000
  0.096877  0.096877  0.038751     24.000000
  0.116253  0.096877  0.038751     24.000000
  0.116253  0.116253  0.038751      6.000000
  0.058126  0.058126  0.058126      8.000000
  0.077502  0.058126  0.058126     24.000000
  0.096877  0.058126  0.058126     24.000000
  0.116253  0.058126  0.058126     12.000000
  0.077502  0.077502  0.058126     24.000000
  0.096877  0.077502  0.058126     48.000000
  0.116253  0.077502  0.058126     24.000000
  0.096877  0.096877  0.058126     24.000000
  0.116253  0.096877  0.058126     24.000000
  0.116253  0.116253  0.058126      6.000000
  0.077502  0.077502  0.077502      8.000000
  0.096877  0.077502  0.077502     24.000000
  0.116253  0.077502  0.077502     12.000000
  0.096877  0.096877  0.077502     24.000000
  0.116253  0.096877  0.077502     24.000000
  0.116253  0.116253  0.077502      6.000000
  0.096877  0.096877  0.096877      8.000000
  0.116253  0.096877  0.096877     12.000000
  0.116253  0.116253  0.096877      6.000000
  0.116253  0.116253  0.116253      1.000000
 


--------------------------------------------------------------------------------------------------------




 Dimension of arrays:
   k-points           NKPTS =     84   k-points in BZ     NKDIM =     84   number of bands    NBANDS=     16
   number of dos      NEDOS =    301   number of ions     NIONS =      2
   non local maximal  LDIM  =      5   non local SUM 2l+1 LMDIM =     13
   total plane-waves  NPLWV =  13824
   max r-space proj   IRMAX =   4643   max aug-charges    IRDMAX=  69687
   dimension x,y,z NGX =    24 NGY =   24 NGZ =   24
   dimension x,y,z NGXF=    48 NGYF=   48 NGZF=   48
   support grid    NGXF=    96 NGYF=   96 NGZF=   96
   ions per type =               1   1
   NGX,Y,Z   is equivalent  to a cutoff of   9.28,  9.28,  9.28 a.u.
   NGXF,Y,Z  is equivalent  to a cutoff of  18.55, 18.55, 18.55 a.u.

 SYSTEM =  CsPbBr3 cubic bulk                      
 POSCAR =  Cs1 Br1                                 

 Startparameter for this run:
   NWRITE =      2    write-flag & timer
   PREC   = accura    normal or accurate (medium, high low for compatibility)
   ISTART =      0    job   : 0-new  1-cont  2-samecut
   ICHARG =      2    charge: 1-file 2-atom 10-const
   ISPIN  =      1    spin polarized calculation?
   LNONCOLLINEAR =      F non collinear calculations
   LSORBIT =      F    spin-orbit coupling
   INIWAV =      1    electr: 0-lowe 1-rand  2-diag
   LASPH  =      T    aspherical Exc in radial PAW
   METAGGA=      F    non-selfconsistent MetaGGA calc.

 Electronic Relaxation 1
   ENCUT  =  300.0 eV  22.05 Ry    4.70 a.u.   6.07  6.07  6.07*2*pi/ulx,y,z
   ENINI  =  300.0     initial cutoff
   ENAUG  =  503.9 eV  augmentation charge cutoff
   NELM   =    200;   NELMIN=  2; NELMDL= -5     # of ELM steps 
   EDIFF  = 0.1E-05   stopping-criterion for ELM
   LREAL  =      T    real-space projection
   NLSPLINE    = F    spline interpolate recip. space projectors
   LCOMPAT=      F    compatible to vasp.4.4
   GGA_COMPAT  = T    GGA compatible to vasp.4.4-vasp.4.6
   LMAXPAW     = -100 max onsite density
   LMAXMIX     =    2 max onsite mixed and CHGCAR
   VOSKOWN=      0    Vosko Wilk Nusair interpolation
   ROPT   =   -0.00025  -0.00025
 Ionic relaxation
   EDIFFG = -.1E-01   stopping-criterion for IOM
   NSW    =      0    number of steps for IOM
   NBLOCK =      1;   KBLOCK =      1    inner block; outer block 
   IBRION =     -1    ionic relax: 0-MD 1-quasi-New 2-CG
   NFREE  =      1    steps in history (QN), initial steepest desc. (CG)
   ISIF   =      3    stress and relaxation
   IWAVPR =     10    prediction:  0-non 1-charg 2-wave 3-comb
   ISYM   =      2    0-nonsym 1-usesym 2-fastsym
   LCORR  =      T    Harris-Foulkes like correction to forces

   POTIM  = 0.5000    time-step for ionic-motion
   TEIN   =    0.0    initial temperature
   TEBEG  =    0.0;   TEEND  =   0.0 temperature during run
   SMASS  =  -3.00    Nose mass-parameter (am)
   estimated Nose-frequenzy (Omega)   =  0.10E-29 period in steps =****** mass=  -0.423E-27a.u.
   SCALEE = 1.0000    scale energy and forces
   NPACO  =    256;   APACO  = 16.0  distance and # of slots for P.C.
   PSTRESS=    0.0 pullay stress

  Mass of Ions in am
   POMASS = 132.90 79.90
  Ionic Valenz
   ZVAL   =   9.00  7.00
  Atomic Wigner-Seitz radii
   RWIGS  =  -1.00 -1.00
  virtual crystal weights 
   VCA    =   1.00  1.00
   NELECT =      16.0000    total number of electrons
   NUPDOWN=      -1.0000    fix difference up-down

 DOS related values:
   EMIN   =  10.00;   EMAX   =-10.00  energy-range for DOS
   EFERMI =   0.00
   ISMEAR =     0;   SIGMA  =   0.01  broadening in eV -4-tet -1-fermi 0-gaus

 Electronic relaxation 2 (details)
   IALGO  =     38    algorithm
   LDIAG  =      T    sub-space diagonalisation (order eigenvalues)
   LSUBROT=      F    optimize rotation matrix (better conditioning)
   TURBO    =      0    0=normal 1=particle mesh
   IRESTART =      0    0=no restart 2=restart with 2 vectors
   NREBOOT  =      0    no. of reboots
   NMIN     =      0    reboot dimension
   EREF     =   0.00    reference energy to select bands
   IMIX   =      4    mixing-type and parameters
     AMIX     =   0.40;   BMIX     =  1.00
     AMIX_MAG =   1.60;   BMIX_MAG =  1.00
     AMIN     =   0.10
     WC   =   100.;   INIMIX=   1;  MIXPRE=   1;  MAXMIX= -45

 Intra band minimization:
   WEIMIN = 0.0000     energy-eigenvalue tresh-hold
   EBREAK =  0.16E-07  absolut break condition
   DEPER  =   0.30     relativ break condition  

   TIME   =   0.40     timestep for ELM

  volume/ion in A,a.u.               =      39.78       268.45
  Fermi-wavevector in a.u.,A,eV,Ry     =   0.959139  1.812509 12.516635  0.919947
  Thomas-Fermi vector in A             =   2.088308

 Write flags
   LWAVE        =      F    write WAVECAR
   LDOWNSAMPLE  =      F    k-point downsampling of WAVECAR
   LCHARG       =      F    write CHGCAR
   LVTOT        =      F    write LOCPOT, total local potential
   LVHAR        =      T    write LOCPOT, Hartree potential only
   LELF         =      F    write electronic localiz. function (ELF)
   LORBIT       =     10    0 simple, 1 ext, 2 COOP (PROOUT), +10 PAW based schemes


 Dipole corrections
   LMONO  =      F    monopole corrections only (constant potential shift)
   LDIPOL =      F    correct potential (dipole corrections)
   IDIPOL =      0    1-x, 2-y, 3-z, 4-all directions 
   EPSILON=  1.0000000 bulk dielectric constant

 Exchange correlation treatment:
   GGA     =    --    GGA type
   LEXCH   =     8    internal setting for exchange type
   VOSKOWN=      0    Vosko Wilk Nusair interpolation
   LHFCALC =     F    Hartree Fock is set to
   LHFONE  =     F    Hartree Fock one center treatment
   AEXX    =    0.0000 exact exchange contribution

 Linear response parameters
   LEPSILON=     F    determine dielectric tensor
   LRPA    =     F    only Hartree local field effects (RPA)
   LNABLA  =     F    use nabla operator in PAW spheres
   LVEL    =     F    velocity operator in full k-point grid
   LINTERFAST=   F  fast interpolation
   KINTER  =     0    interpolate to denser k-point grid
   CSHIFT  =0.1000    complex shift for real part using Kramers Kronig
   OMEGAMAX=  -1.0    maximum frequency
   DEG_THRESHOLD= 0.2000000E-02 threshold for treating states as degnerate
   RTIME   =   -0.100 relaxation time in fs
  (WPLASMAI=    0.000 imaginary part of plasma frequency in eV, 0.658/RTIME)
   DFIELD  = 0.0000000 0.0000000 0.0000000 field for delta impulse in time

 Orbital magnetization related:
   ORBITALMAG=     F  switch on orbital magnetization
   LCHIMAG   =     F  perturbation theory with respect to B field
   DQ        =  0.001000  dq finite difference perturbation B field
   LLRAUG    =     F  two centre corrections for induced B field



--------------------------------------------------------------------------------------------------------


 Static calculation
 charge density and potential will be updated during run
 non-spin polarized calculation
 Variant of blocked Davidson
 Davidson routine will perform the subspace rotation
 perform sub-space diagonalisation
    after iterative eigenvector-optimisation
 modified Broyden-mixing scheme, WC =      100.0
 initial mixing is a Kerker type mixing with AMIX =  0.4000 and BMIX =      1.0000
 Hartree-type preconditioning will be used
 using additional bands            8
 real space projection scheme for non local part
 use partial core corrections
 calculate Harris-corrections to forces   (improved forces if not selfconsistent)
 use gradient corrections 
 use of overlap-Matrix (Vanderbilt PP)
 Gauss-broadening in eV      SIGMA  =   0.01


--------------------------------------------------------------------------------------------------------


  energy-cutoff  :      300.00
  volume of cell :       79.56
      direct lattice vectors                 reciprocal lattice vectors
     4.300974080 -0.000000000  0.000000000     0.232505470 -0.000000000  0.000000000
     0.000000000  4.300974080 -0.000000000     0.000000000  0.232505470 -0.000000000
     0.000000000  0.000000000  4.300974080     0.000000000  0.000000000  0.232505470

  length of vectors
     4.300974080  4.300974080  4.300974080     0.232505470  0.232505470  0.232505470



 k-points in units of 2pi/SCALE and weight: 1x1x1                                   
   0.00000000  0.00000000  0.00000000       0.001
   0.01937546  0.00000000  0.00000000       0.003
   0.03875091  0.00000000  0.00000000       0.003
   0.05812637  0.00000000  0.00000000       0.003
   0.07750182  0.00000000  0.00000000       0.003
   0.09687728  0.00000000  0.00000000       0.003
   0.11625274  0.00000000  0.00000000       0.002
   0.01937546  0.01937546  0.00000000       0.007
   0.03875091  0.01937546  0.00000000       0.014
   0.05812637  0.01937546  0.00000000       0.014
   0.07750182  0.01937546  0.00000000       0.014
   0.09687728  0.01937546  0.00000000       0.014
   0.11625274  0.01937546  0.00000000       0.007
   0.03875091  0.03875091  0.00000000       0.007
   0.05812637  0.03875091  0.00000000       0.014
   0.07750182  0.03875091  0.00000000       0.014
   0.09687728  0.03875091  0.00000000       0.014
   0.11625274  0.03875091  0.00000000       0.007
   0.05812637  0.05812637  0.00000000       0.007
   0.07750182  0.05812637  0.00000000       0.014
   0.09687728  0.05812637  0.00000000       0.014
   0.11625274  0.05812637  0.00000000       0.007
   0.07750182  0.07750182  0.00000000       0.007
   0.09687728  0.07750182  0.00000000       0.014
   0.11625274  0.07750182  0.00000000       0.007
   0.09687728  0.09687728  0.00000000       0.007
   0.11625274  0.09687728  0.00000000       0.007
   0.11625274  0.11625274  0.00000000       0.002
   0.01937546  0.01937546  0.01937546       0.005
   0.03875091  0.01937546  0.01937546       0.014
   0.05812637  0.01937546  0.01937546       0.014
   0.07750182  0.01937546  0.01937546       0.014
   0.09687728  0.01937546  0.01937546       0.014
   0.11625274  0.01937546  0.01937546       0.007
   0.03875091  0.03875091  0.01937546       0.014
   0.05812637  0.03875091  0.01937546       0.028
   0.07750182  0.03875091  0.01937546       0.028
   0.09687728  0.03875091  0.01937546       0.028
   0.11625274  0.03875091  0.01937546       0.014
   0.05812637  0.05812637  0.01937546       0.014
   0.07750182  0.05812637  0.01937546       0.028
   0.09687728  0.05812637  0.01937546       0.028
   0.11625274  0.05812637  0.01937546       0.014
   0.07750182  0.07750182  0.01937546       0.014
   0.09687728  0.07750182  0.01937546       0.028
   0.11625274  0.07750182  0.01937546       0.014
   0.09687728  0.09687728  0.01937546       0.014
   0.11625274  0.09687728  0.01937546       0.014
   0.11625274  0.11625274  0.01937546       0.003
   0.03875091  0.03875091  0.03875091       0.005
   0.05812637  0.03875091  0.03875091       0.014
   0.07750182  0.03875091  0.03875091       0.014
   0.09687728  0.03875091  0.03875091       0.014
   0.11625274  0.03875091  0.03875091       0.007
   0.05812637  0.05812637  0.03875091       0.014
   0.07750182  0.05812637  0.03875091       0.028
   0.09687728  0.05812637  0.03875091       0.028
   0.11625274  0.05812637  0.03875091       0.014
   0.07750182  0.07750182  0.03875091       0.014
   0.09687728  0.07750182  0.03875091       0.028
   0.11625274  0.07750182  0.03875091       0.014
   0.09687728  0.09687728  0.03875091       0.014
   0.11625274  0.09687728  0.03875091       0.014
   0.11625274  0.11625274  0.03875091       0.003
   0.05812637  0.05812637  0.05812637       0.005
   0.07750182  0.05812637  0.05812637       0.014
   0.09687728  0.05812637  0.05812637       0.014
   0.11625274  0.05812637  0.05812637       0.007
   0.07750182  0.07750182  0.05812637       0.014
   0.09687728  0.07750182  0.05812637       0.028
   0.11625274  0.07750182  0.05812637       0.014
   0.09687728  0.09687728  0.05812637       0.014
   0.11625274  0.09687728  0.05812637       0.014
   0.11625274  0.11625274  0.05812637       0.003
   0.07750182  0.07750182  0.07750182       0.005
   0.09687728  0.07750182  0.07750182       0.014
   0.11625274  0.07750182  0.07750182       0.007
   0.09687728  0.09687728  0.07750182       0.014
   0.11625274  0.09687728  0.07750182       0.014
   0.11625274  0.11625274  0.07750182       0.003
   0.09687728  0.09687728  0.09687728       0.005
   0.11625274  0.09687728  0.09687728       0.007
   0.11625274  0.11625274  0.09687728       0.003
   0.11625274  0.11625274  0.11625274       0.001

 k-points in reciprocal lattice and weights: 1x1x1                                   
   0.00000000  0.00000000  0.00000000       0.001
   0.08333333  0.00000000  0.00000000       0.003
   0.16666667  0.00000000  0.00000000       0.003
   0.25000000  0.00000000  0.00000000       0.003
   0.33333333  0.00000000  0.00000000       0.003
   0.41666667  0.00000000  0.00000000       0.003
   0.50000000  0.00000000  0.00000000       0.002
   0.08333333  0.08333333  0.00000000       0.007
   0.16666667  0.08333333  0.00000000       0.014
   0.25000000  0.08333333  0.00000000       0.014
   0.33333333  0.08333333  0.00000000       0.014
   0.41666667  0.08333333  0.00000000       0.014
   0.50000000  0.08333333  0.00000000       0.007
   0.16666667  0.16666667  0.00000000       0.007
   0.25000000  0.16666667  0.00000000       0.014
   0.33333333  0.16666667  0.00000000       0.014
   0.41666667  0.16666667  0.00000000       0.014
   0.50000000  0.16666667  0.00000000       0.007
   0.25000000  0.25000000  0.00000000       0.007
   0.33333333  0.25000000  0.00000000       0.014
   0.41666667  0.25000000  0.00000000       0.014
   0.50000000  0.25000000  0.00000000       0.007
   0.33333333  0.33333333  0.00000000       0.007
   0.41666667  0.33333333  0.00000000       0.014
   0.50000000  0.33333333  0.00000000       0.007
   0.41666667  0.41666667  0.00000000       0.007
   0.50000000  0.41666667  0.00000000       0.007
   0.50000000  0.50000000  0.00000000       0.002
   0.08333333  0.08333333  0.08333333       0.005
   0.16666667  0.08333333  0.08333333       0.014
   0.25000000  0.08333333  0.08333333       0.014
   0.33333333  0.08333333  0.08333333       0.014
   0.41666667  0.08333333  0.08333333       0.014
   0.50000000  0.08333333  0.08333333       0.007
   0.16666667  0.16666667  0.08333333       0.014
   0.25000000  0.16666667  0.08333333       0.028
   0.33333333  0.16666667  0.08333333       0.028
   0.41666667  0.16666667  0.08333333       0.028
   0.50000000  0.16666667  0.08333333       0.014
   0.25000000  0.25000000  0.08333333       0.014
   0.33333333  0.25000000  0.08333333       0.028
   0.41666667  0.25000000  0.08333333       0.028
   0.50000000  0.25000000  0.08333333       0.014
   0.33333333  0.33333333  0.08333333       0.014
   0.41666667  0.33333333  0.08333333       0.028
   0.50000000  0.33333333  0.08333333       0.014
   0.41666667  0.41666667  0.08333333       0.014
   0.50000000  0.41666667  0.08333333       0.014
   0.50000000  0.50000000  0.08333333       0.003
   0.16666667  0.16666667  0.16666667       0.005
   0.25000000  0.16666667  0.16666667       0.014
   0.33333333  0.16666667  0.16666667       0.014
   0.41666667  0.16666667  0.16666667       0.014
   0.50000000  0.16666667  0.16666667       0.007
   0.25000000  0.25000000  0.16666667       0.014
   0.33333333  0.25000000  0.16666667       0.028
   0.41666667  0.25000000  0.16666667       0.028
   0.50000000  0.25000000  0.16666667       0.014
   0.33333333  0.33333333  0.16666667       0.014
   0.41666667  0.33333333  0.16666667       0.028
   0.50000000  0.33333333  0.16666667       0.014
   0.41666667  0.41666667  0.16666667       0.014
   0.50000000  0.41666667  0.16666667       0.014
   0.50000000  0.50000000  0.16666667       0.003
   0.25000000  0.25000000  0.25000000       0.005
   0.33333333  0.25000000  0.25000000       0.014
   0.41666667  0.25000000  0.25000000       0.014
   0.50000000  0.25000000  0.25000000       0.007
   0.33333333  0.33333333  0.25000000       0.014
   0.41666667  0.33333333  0.25000000       0.028
   0.50000000  0.33333333  0.25000000       0.014
   0.41666667  0.41666667  0.25000000       0.014
   0.50000000  0.41666667  0.25000000       0.014
   0.50000000  0.50000000  0.25000000       0.003
   0.33333333  0.33333333  0.33333333       0.005
   0.41666667  0.33333333  0.33333333       0.014
   0.50000000  0.33333333  0.33333333       0.007
   0.41666667  0.41666667  0.33333333       0.014
   0.50000000  0.41666667  0.33333333       0.014
   0.50000000  0.50000000  0.33333333       0.003
   0.41666667  0.41666667  0.41666667       0.005
   0.50000000  0.41666667  0.41666667       0.007
   0.50000000  0.50000000  0.41666667       0.003
   0.50000000  0.50000000  0.50000000       0.001

 position of ions in fractional coordinates (direct lattice) 
   0.00000000  0.00000000  0.00000000
   0.50000000  0.50000000  0.50000000

 position of ions in cartesian coordinates  (Angst):
   0.00000000  0.00000000  0.00000000
   2.15048704  2.15048704  2.15048704



--------------------------------------------------------------------------------------------------------


 k-point  1 :   0.0000 0.0000 0.0000  plane waves:     925
 k-point  2 :   0.0833 0.0000 0.0000  plane waves:     932
 k-point  3 :   0.1667 0.0000 0.0000  plane waves:     936
 k-point  4 :   0.2500 0.0000 0.0000  plane waves:     932
 k-point  5 :   0.3333 0.0000 0.0000  plane waves:     932
 k-point  6 :   0.4167 0.0000 0.0000  plane waves:     932
 k-point  7 :   0.5000 0.0000 0.0000  plane waves:     916
 k-point  8 :   0.0833 0.0833 0.0000  plane waves:     941
 k-point  9 :   0.1667 0.0833 0.0000  plane waves:     947
 k-point 10 :   0.2500 0.0833 0.0000  plane waves:     935
 k-point 11 :   0.3333 0.0833 0.0000  plane waves:     932
 k-point 12 :   0.4167 0.0833 0.0000  plane waves:     926
 k-point 13 :   0.5000 0.0833 0.0000  plane waves:     926
 k-point 14 :   0.1667 0.1667 0.0000  plane waves:     941
 k-point 15 :   0.2500 0.1667 0.0000  plane waves:     934
 k-point 16 :   0.3333 0.1667 0.0000  plane waves:     934
 k-point 17 :   0.4167 0.1667 0.0000  plane waves:     937
 k-point 18 :   0.5000 0.1667 0.0000  plane waves:     924
 k-point 19 :   0.2500 0.2500 0.0000  plane waves:     927
 k-point 20 :   0.3333 0.2500 0.0000  plane waves:     933
 k-point 21 :   0.4167 0.2500 0.0000  plane waves:     936
 k-point 22 :   0.5000 0.2500 0.0000  plane waves:     944
 k-point 23 :   0.3333 0.3333 0.0000  plane waves:     946
 k-point 24 :   0.4167 0.3333 0.0000  plane waves:     937
 k-point 25 :   0.5000 0.3333 0.0000  plane waves:     940
 k-point 26 :   0.4167 0.4167 0.0000  plane waves:     938
 k-point 27 :   0.5000 0.4167 0.0000  plane waves:     936
 k-point 28 :   0.5000 0.5000 0.0000  plane waves:     952
 k-point 29 :   0.0833 0.0833 0.0833  plane waves:     937
 k-point 30 :   0.1667 0.0833 0.0833  plane waves:     941
 k-point 31 :   0.2500 0.0833 0.0833  plane waves:     932
 k-point 32 :   0.3333 0.0833 0.0833  plane waves:     931
 k-point 33 :   0.4167 0.0833 0.0833  plane waves:     933
 k-point 34 :   0.5000 0.0833 0.0833  plane waves:     928
 k-point 35 :   0.1667 0.1667 0.0833  plane waves:     935
 k-point 36 :   0.2500 0.1667 0.0833  plane waves:     934
 k-point 37 :   0.3333 0.1667 0.0833  plane waves:     934
 k-point 38 :   0.4167 0.1667 0.0833  plane waves:     934
 k-point 39 :   0.5000 0.1667 0.0833  plane waves:     934
 k-point 40 :   0.2500 0.2500 0.0833  plane waves:     933
 k-point 41 :   0.3333 0.2500 0.0833  plane waves:     934
 k-point 42 :   0.4167 0.2500 0.0833  plane waves:     933
 k-point 43 :   0.5000 0.2500 0.0833  plane waves:     930
 k-point 44 :   0.3333 0.3333 0.0833  plane waves:     932
 k-point 45 :   0.4167 0.3333 0.0833  plane waves:     936
 k-point 46 :   0.5000 0.3333 0.0833  plane waves:     938
 k-point 47 :   0.4167 0.4167 0.0833  plane waves:     941
 k-point 48 :   0.5000 0.4167 0.0833  plane waves:     938
 k-point 49 :   0.5000 0.5000 0.0833  plane waves:     952
 k-point 50 :   0.1667 0.1667 0.1667  plane waves:     943
 k-point 51 :   0.2500 0.1667 0.1667  plane waves:     932
 k-point 52 :   0.3333 0.1667 0.1667  plane waves:     943
 k-point 53 :   0.4167 0.1667 0.1667  plane waves:     929
 k-point 54 :   0.5000 0.1667 0.1667  plane waves:     926
 k-point 55 :   0.2500 0.2500 0.1667  plane waves:     936
 k-point 56 :   0.3333 0.2500 0.1667  plane waves:     940
 k-point 57 :   0.4167 0.2500 0.1667  plane waves:     937
 k-point 58 :   0.5000 0.2500 0.1667  plane waves:     942
 k-point 59 :   0.3333 0.3333 0.1667  plane waves:     934
 k-point 60 :   0.4167 0.3333 0.1667  plane waves:     946
 k-point 61 :   0.5000 0.3333 0.1667  plane waves:     946
 k-point 62 :   0.4167 0.4167 0.1667  plane waves:     950
 k-point 63 :   0.5000 0.4167 0.1667  plane waves:     948
 k-point 64 :   0.5000 0.5000 0.1667  plane waves:     944
 k-point 65 :   0.2500 0.2500 0.2500  plane waves:     946
 k-point 66 :   0.3333 0.2500 0.2500  plane waves:     944
 k-point 67 :   0.4167 0.2500 0.2500  plane waves:     945
 k-point 68 :   0.5000 0.2500 0.2500  plane waves:     956
 k-point 69 :   0.3333 0.3333 0.2500  plane waves:     945
 k-point 70 :   0.4167 0.3333 0.2500  plane waves:     948
 k-point 71 :   0.5000 0.3333 0.2500  plane waves:     946
 k-point 72 :   0.4167 0.4167 0.2500  plane waves:     950
 k-point 73 :   0.5000 0.4167 0.2500  plane waves:     950
 k-point 74 :   0.5000 0.5000 0.2500  plane waves:     944
 k-point 75 :   0.3333 0.3333 0.3333  plane waves:     943
 k-point 76 :   0.4167 0.3333 0.3333  plane waves:     944
 k-point 77 :   0.5000 0.3333 0.3333  plane waves:     954
 k-point 78 :   0.4167 0.4167 0.3333  plane waves:     950
 k-point 79 :   0.5000 0.4167 0.3333  plane waves:     952
 k-point 80 :   0.5000 0.5000 0.3333  plane waves:     940
 k-point 81 :   0.4167 0.4167 0.4167  plane waves:     940
 k-point 82 :   0.5000 0.4167 0.4167  plane waves:     942
 k-point 83 :   0.5000 0.5000 0.4167  plane waves:     948
 k-point 84 :   0.5000 0.5000 0.5000  plane waves:     968

 maximum and minimum number of plane-waves per node :       132      103

 maximum number of plane-waves:       968
 maximum index in each direction: 
   IXMAX=    6   IYMAX=    6   IZMAX=    6
   IXMIN=   -6   IYMIN=   -6   IZMIN=   -6


 real space projection operators:
  total allocation   :        746.89 KBytes
  max/ min on nodes  :         99.23         87.75


 parallel 3D FFT for wavefunctions:
    minimum data exchange during FFTs selected (reduces bandwidth)
 parallel 3D FFT for charge:
    minimum data exchange during FFTs selected (reduces bandwidth)


 total amount of memory used by VASP MPI-rank0    31359. kBytes
=======================================================================

   base      :      30000. kBytes
   nonlr-proj:        277. kBytes
   fftplans  :        389. kBytes
   grid      :        277. kBytes
   one-center:          8. kBytes
   wavefun   :        408. kBytes

     INWAV:  cpu time    0.0000: real time    0.0000
 Broyden mixing: mesh for mixing (old mesh)
   NGX = 13   NGY = 13   NGZ = 13
  (NGX  = 48   NGY  = 48   NGZ  = 48)
  gives a total of   2197 points

 initial charge density was supplied:
 charge density of overlapping atoms calculated
 number of electron      16.0000000 magnetization 
 keeping initial charge density in first step


--------------------------------------------------------------------------------------------------------


 Maximum index for non-local projection operator          591
 Maximum index for augmentation-charges         2009 (set IRDMAX)


--------------------------------------------------------------------------------------------------------


 First call to EWALD:  gamma=   0.412
 Maximum number of real-space cells 3x 3x 3
 Maximum number of reciprocal cells 3x 3x 3

    FEWALD:  cpu time    0.0013: real time    0.0013


--------------------------------------- Iteration      1(   1)  ---------------------------------------


    POTLOK:  cpu time    0.0353: real time    0.0449
    SETDIJ:  cpu time    1.1105: real time    1.1105
     EDDAV:  cpu time    1.4375: real time    1.4421
       DOS:  cpu time    0.0009: real time    0.0009
    --------------------------------------------
      LOOP:  cpu time    2.5842: real time    2.5983

 eigenvalue-minimisations  :  2688
 total energy-change (2. order) : 0.7723998E+01  (-0.4925378E+03)
 number of electron      16.0000000 magnetization 
 augmentation part       16.0000000 magnetization 

 Free energy of the ion-electron system (eV)
  ---------------------------------------------------
  alpha Z        PSCENC =        53.27869122
  Ewald energy   TEWEN  =      -786.60710445
  -Hartree energ DENC   =      -116.77085809
  -exchange      EXHF   =         0.00000000
  -V(xc)+E(xc)   XCENC  =        34.77053099
  PAW double counting   =       705.56938342     -752.39983350
  entropy T*S    EENTRO =        -0.00003372
  eigenvalues    EBANDS =       -54.23493566
  atomic energy  EATOM  =       924.11815769
  Solvation  Ediel_sol  =         0.00000000
  ---------------------------------------------------
  free energy    TOTEN  =         7.72399789 eV

  energy without entropy =        7.72403161  energy(sigma->0) =        7.72401475


--------------------------------------------------------------------------------------------------------




--------------------------------------- Iteration      1(   2)  ---------------------------------------


     EDDAV:  cpu time    1.8855: real time    1.9250
       DOS:  cpu time    0.0004: real time    0.0003
    --------------------------------------------
      LOOP:  cpu time    1.8858: real time    1.9253

 eigenvalue-minimisations  :  3864
 total energy-change (2. order) :-0.6801047E+02  (-0.6364781E+02)
 number of electron      16.0000000 magnetization 
 augmentation part       16.0000000 magnetization 

 Free energy of the ion-electron system (eV)
  ---------------------------------------------------
  alpha Z        PSCENC =        53.27869122
  Ewald energy   TEWEN  =      -786.60710445
  -Hartree energ DENC   =      -116.77085809
  -exchange      EXHF   =         0.00000000
  -V(xc)+E(xc)   XCENC  =        34.77053099
  PAW double counting   =       705.56938342     -752.39983350
  entropy T*S    EENTRO =        -0.00000000
  eigenvalues    EBANDS =      -122.24544281
  atomic energy  EATOM  =       924.11815769
  Solvation  Ediel_sol  =         0.00000000
  ---------------------------------------------------
  free energy    TOTEN  =       -60.28647554 eV

  energy without entropy =      -60.28647554  energy(sigma->0) =      -60.28647554


--------------------------------------------------------------------------------------------------------




--------------------------------------- Iteration      1(   3)  ---------------------------------------


     EDDAV:  cpu time    1.6456: real time    1.6762
       DOS:  cpu time    0.0004: real time    0.0004
    --------------------------------------------
      LOOP:  cpu time    1.6459: real time    1.6765

 eigenvalue-minimisations  :  3240
 total energy-change (2. order) :-0.4357000E+01  (-0.4349005E+01)
 number of electron      16.0000000 magnetization 
 augmentation part       16.0000000 magnetization 

 Free energy of the ion-electron system (eV)
  ---------------------------------------------------
  alpha Z        PSCENC =        53.27869122
  Ewald energy   TEWEN  =      -786.60710445
  -Hartree energ DENC   =      -116.77085809
  -exchange      EXHF   =         0.00000000
  -V(xc)+E(xc)   XCENC  =        34.77053099
  PAW double counting   =       705.56938342     -752.39983350
  entropy T*S    EENTRO =        -0.00000000
  eigenvalues    EBANDS =      -126.60244275
  atomic energy  EATOM  =       924.11815769
  Solvation  Ediel_sol  =         0.00000000
  ---------------------------------------------------
  free energy    TOTEN  =       -64.64347548 eV

  energy without entropy =      -64.64347548  energy(sigma->0) =      -64.64347548


--------------------------------------------------------------------------------------------------------




--------------------------------------- Iteration      1(   4)  ---------------------------------------


     EDDAV:  cpu time    1.7932: real time    1.8318
       DOS:  cpu time    0.0004: real time    0.0004
    --------------------------------------------
      LOOP:  cpu time    1.7935: real time    1.8322

 eigenvalue-minimisations  :  3624
 total energy-change (2. order) :-0.2604643E-01  (-0.2604434E-01)
 number of electron      16.0000000 magnetization 
 augmentation part       16.0000000 magnetization 

 Free energy of the ion-electron system (eV)
  ---------------------------------------------------
  alpha Z        PSCENC =        53.27869122
  Ewald energy   TEWEN  =      -786.60710445
  -Hartree energ DENC   =      -116.77085809
  -exchange      EXHF   =         0.00000000
  -V(xc)+E(xc)   XCENC  =        34.77053099
  PAW double counting   =       705.56938342     -752.39983350
  entropy T*S    EENTRO =        -0.00000000
  eigenvalues    EBANDS =      -126.62848919
  atomic energy  EATOM  =       924.11815769
  Solvation  Ediel_sol  =         0.00000000
  ---------------------------------------------------
  free energy    TOTEN  =       -64.66952192 eV

  energy without entropy =      -64.66952192  energy(sigma->0) =      -64.66952192


--------------------------------------------------------------------------------------------------------




--------------------------------------- Iteration      1(   5)  ---------------------------------------


     EDDAV:  cpu time    1.6859: real time    1.7128
       DOS:  cpu time    0.0004: real time    0.0004
    CHARGE:  cpu time    0.2069: real time    0.2069
    MIXING:  cpu time    0.0002: real time    0.0002
    --------------------------------------------
      LOOP:  cpu time    1.8933: real time    1.9203

 eigenvalue-minimisations  :  3344
 total energy-change (2. order) :-0.1391040E-03  (-0.1391029E-03)
 number of electron      16.0000000 magnetization 
 augmentation part       -3.3980318 magnetization 

 Broyden mixing:
  rms(total) = 0.17223E+00    rms(broyden)= 0.17216E+00
  rms(prec ) = 0.60152E+00
  weight for this iteration     100.00

 Free energy of the ion-electron system (eV)
  ---------------------------------------------------
  alpha Z        PSCENC =        53.27869122
  Ewald energy   TEWEN  =      -786.60710445
  -Hartree energ DENC   =      -116.77085809
  -exchange      EXHF   =         0.00000000
  -V(xc)+E(xc)   XCENC  =        34.77053099
  PAW double counting   =       705.56938342     -752.39983350
  entropy T*S    EENTRO =        -0.00000000
  eigenvalues    EBANDS =      -126.62862829
  atomic energy  EATOM  =       924.11815769
  Solvation  Ediel_sol  =         0.00000000
  ---------------------------------------------------
  free energy    TOTEN  =       -64.66966102 eV

  energy without entropy =      -64.66966102  energy(sigma->0) =      -64.66966102


--------------------------------------------------------------------------------------------------------




--------------------------------------- Iteration      1(   6)  ---------------------------------------


    POTLOK:  cpu time    0.0821: real time    0.1007
    SETDIJ:  cpu time    1.1139: real time    1.1139
     EDDAV:  cpu time    1.6169: real time    1.6169
       DOS:  cpu time    0.0004: real time    0.0004
    CHARGE:  cpu time    0.1974: real time    0.1975
    MIXING:  cpu time    0.0003: real time    0.0003
    --------------------------------------------
      LOOP:  cpu time    3.0110: real time    3.0296

 eigenvalue-minimisations  :  3240
 total energy-change (2. order) : 0.3441130E+01  (-0.4391076E-01)
 number of electron      16.0000000 magnetization 
 augmentation part       -3.3883420 magnetization 

 Broyden mixing:
  rms(total) = 0.12544E+00    rms(broyden)= 0.12544E+00
  rms(prec ) = 0.36630E+00
  weight for this iteration     100.00

 eigenvalues of (default mixing * dielectric matrix)
  average eigenvalue GAMMA=   1.3758
  1.3758

 Free energy of the ion-electron system (eV)
  ---------------------------------------------------
  alpha Z        PSCENC =        53.27869122
  Ewald energy   TEWEN  =      -786.60710445
  -Hartree energ DENC   =      -118.53214780
  -exchange      EXHF   =         0.00000000
  -V(xc)+E(xc)   XCENC  =        34.92322207
  PAW double counting   =       714.99205217     -761.94532438
  entropy T*S    EENTRO =        -0.00000000
  eigenvalues    EBANDS =      -121.45607787
  atomic energy  EATOM  =       924.11815769
  Solvation  Ediel_sol  =         0.00000000
  ---------------------------------------------------
  free energy    TOTEN  =       -61.22853137 eV

  energy without entropy =      -61.22853137  energy(sigma->0) =      -61.22853137


--------------------------------------------------------------------------------------------------------




--------------------------------------- Iteration      1(   7)  ---------------------------------------


    POTLOK:  cpu time    0.0516: real time    0.0914
    SETDIJ:  cpu time    1.1151: real time    1.1151
     EDDAV:  cpu time    1.7422: real time    1.7423
       DOS:  cpu time    0.0004: real time    0.0004
    CHARGE:  cpu time    0.1957: real time    0.1957
    MIXING:  cpu time    0.0003: real time    0.0003
    --------------------------------------------
      LOOP:  cpu time    3.1053: real time    3.1452

 eigenvalue-minimisations  :  3568
 total energy-change (2. order) : 0.5953718E-01  (-0.3440415E-01)
 number of electron      16.0000000 magnetization 
 augmentation part       -3.3720908 magnetization 

 Broyden mixing:
  rms(total) = 0.74903E-01    rms(broyden)= 0.74902E-01
  rms(prec ) = 0.14315E+00
  weight for this iteration     100.00

 eigenvalues of (default mixing * dielectric matrix)
  average eigenvalue GAMMA=   1.6933
  1.6933  1.6933

 Free energy of the ion-electron system (eV)
  ---------------------------------------------------
  alpha Z        PSCENC =        53.27869122
  Ewald energy   TEWEN  =      -786.60710445
  -Hartree energ DENC   =      -121.33845462
  -exchange      EXHF   =         0.00000000
  -V(xc)+E(xc)   XCENC  =        35.43347398
  PAW double counting   =       742.63367431     -789.82280091
  entropy T*S    EENTRO =        -0.00000000
  eigenvalues    EBANDS =      -118.86463139
  atomic energy  EATOM  =       924.11815769
  Solvation  Ediel_sol  =         0.00000000
  ---------------------------------------------------
  free energy    TOTEN  =       -61.16899418 eV

  energy without entropy =      -61.16899418  energy(sigma->0) =      -61.16899418


--------------------------------------------------------------------------------------------------------




--------------------------------------- Iteration      1(   8)  ---------------------------------------


    POTLOK:  cpu time    0.0535: real time    0.0825
    SETDIJ:  cpu time    1.1152: real time    1.1152
     EDDAV:  cpu time    1.6041: real time    1.6041
       DOS:  cpu time    0.0004: real time    0.0004
    CHARGE:  cpu time    0.1960: real time    0.1961
    MIXING:  cpu time    0.0004: real time    0.0004
    --------------------------------------------
      LOOP:  cpu time    2.9696: real time    2.9987

 eigenvalue-minimisations  :  3216
 total energy-change (2. order) :-0.8408122E-03  (-0.4782989E-02)
 number of electron      16.0000000 magnetization 
 augmentation part       -3.3828624 magnetization 

 Broyden mixing:
  rms(total) = 0.35724E-01    rms(broyden)= 0.35724E-01
  rms(prec ) = 0.90804E-01
  weight for this iteration     100.00

 eigenvalues of (default mixing * dielectric matrix)
  average eigenvalue GAMMA=   1.6770
  2.1080  2.1080  0.8150

 Free energy of the ion-electron system (eV)
  ---------------------------------------------------
  alpha Z        PSCENC =        53.27869122
  Ewald energy   TEWEN  =      -786.60710445
  -Hartree energ DENC   =      -120.03926428
  -exchange      EXHF   =         0.00000000
  -V(xc)+E(xc)   XCENC  =        35.25972301
  PAW double counting   =       741.02120031     -788.13460989
  entropy T*S    EENTRO =        -0.00000000
  eigenvalues    EBANDS =      -120.06662859
  atomic energy  EATOM  =       924.11815769
  Solvation  Ediel_sol  =         0.00000000
  ---------------------------------------------------
  free energy    TOTEN  =       -61.16983500 eV

  energy without entropy =      -61.16983500  energy(sigma->0) =      -61.16983500


--------------------------------------------------------------------------------------------------------




--------------------------------------- Iteration      1(   9)  ---------------------------------------


    POTLOK:  cpu time    0.0742: real time    0.0893
    SETDIJ:  cpu time    1.1179: real time    1.1180
     EDDAV:  cpu time    1.6190: real time    1.6190
       DOS:  cpu time    0.0003: real time    0.0003
    CHARGE:  cpu time    0.1963: real time    0.1963
    MIXING:  cpu time    0.0003: real time    0.0003
    --------------------------------------------
      LOOP:  cpu time    3.0080: real time    3.0231

 eigenvalue-minimisations  :  3248
 total energy-change (2. order) : 0.1632979E-03  (-0.5969105E-03)
 number of electron      16.0000000 magnetization 
 augmentation part       -3.3815809 magnetization 

 Broyden mixing:
  rms(total) = 0.14480E-01    rms(broyden)= 0.14480E-01
  rms(prec ) = 0.31860E-01
  weight for this iteration     100.00

 eigenvalues of (default mixing * dielectric matrix)
  average eigenvalue GAMMA=   1.6003
  2.4876  1.5076  1.5076  0.8985

 Free energy of the ion-electron system (eV)
  ---------------------------------------------------
  alpha Z        PSCENC =        53.27869122
  Ewald energy   TEWEN  =      -786.60710445
  -Hartree energ DENC   =      -120.32853278
  -exchange      EXHF   =         0.00000000
  -V(xc)+E(xc)   XCENC  =        35.40315673
  PAW double counting   =       750.36288509     -797.52808221
  entropy T*S    EENTRO =        -0.00000000
  eigenvalues    EBANDS =      -119.86884298
  atomic energy  EATOM  =       924.11815769
  Solvation  Ediel_sol  =         0.00000000
  ---------------------------------------------------
  free energy    TOTEN  =       -61.16967170 eV

  energy without entropy =      -61.16967170  energy(sigma->0) =      -61.16967170


--------------------------------------------------------------------------------------------------------




--------------------------------------- Iteration      1(  10)  ---------------------------------------


    POTLOK:  cpu time    0.0319: real time    0.0871
    SETDIJ:  cpu time    1.1142: real time    1.1142
     EDDAV:  cpu time    1.7579: real time    1.7579
       DOS:  cpu time    0.0004: real time    0.0004
    CHARGE:  cpu time    0.1972: real time    0.1972
    MIXING:  cpu time    0.0003: real time    0.0003
    --------------------------------------------
      LOOP:  cpu time    3.1018: real time    3.1571

 eigenvalue-minimisations  :  3600
 total energy-change (2. order) : 0.4757183E-03  (-0.4006126E-03)
 number of electron      16.0000000 magnetization 
 augmentation part       -3.3791983 magnetization 

 Broyden mixing:
  rms(total) = 0.68328E-02    rms(broyden)= 0.68326E-02
  rms(prec ) = 0.16431E-01
  weight for this iteration     100.00

 eigenvalues of (default mixing * dielectric matrix)
  average eigenvalue GAMMA=   1.8145
  2.8124  2.7911  1.5136  0.9777  0.9777

 Free energy of the ion-electron system (eV)
  ---------------------------------------------------
  alpha Z        PSCENC =        53.27869122
  Ewald energy   TEWEN  =      -786.60710445
  -Hartree energ DENC   =      -120.65889821
  -exchange      EXHF   =         0.00000000
  -V(xc)+E(xc)   XCENC  =        35.43894211
  PAW double counting   =       749.91357616     -797.10085009
  entropy T*S    EENTRO =        -0.00000000
  eigenvalues    EBANDS =      -119.55171040
  atomic energy  EATOM  =       924.11815769
  Solvation  Ediel_sol  =         0.00000000
  ---------------------------------------------------
  free energy    TOTEN  =       -61.16919598 eV

  energy without entropy =      -61.16919598  energy(sigma->0) =      -61.16919598


--------------------------------------------------------------------------------------------------------




--------------------------------------- Iteration      1(  11)  ---------------------------------------


    POTLOK:  cpu time    0.0918: real time    0.0948
    SETDIJ:  cpu time    1.1123: real time    1.1123
     EDDAV:  cpu time    1.6710: real time    1.6711
       DOS:  cpu time    0.0004: real time    0.0004
    CHARGE:  cpu time    0.1959: real time    0.1959
    MIXING:  cpu time    0.0003: real time    0.0003
    --------------------------------------------
      LOOP:  cpu time    3.0718: real time    3.0749

 eigenvalue-minimisations  :  3392
 total energy-change (2. order) : 0.2399086E-04  (-0.4277180E-04)
 number of electron      16.0000000 magnetization 
 augmentation part       -3.3799697 magnetization 

 Broyden mixing:
  rms(total) = 0.11759E-02    rms(broyden)= 0.11759E-02
  rms(prec ) = 0.12782E-02
  weight for this iteration     100.00

 eigenvalues of (default mixing * dielectric matrix)
  average eigenvalue GAMMA=   1.6422
  3.0244  2.4085  1.4689  0.9848  0.9833  0.9833

 Free energy of the ion-electron system (eV)
  ---------------------------------------------------
  alpha Z        PSCENC =        53.27869122
  Ewald energy   TEWEN  =      -786.60710445
  -Hartree energ DENC   =      -120.56230014
  -exchange      EXHF   =         0.00000000
  -V(xc)+E(xc)   XCENC  =        35.42957040
  PAW double counting   =       747.55739103     -794.73865303
  entropy T*S    EENTRO =        -0.00000000
  eigenvalues    EBANDS =      -119.64492470
  atomic energy  EATOM  =       924.11815769
  Solvation  Ediel_sol  =         0.00000000
  ---------------------------------------------------
  free energy    TOTEN  =       -61.16917199 eV

  energy without entropy =      -61.16917199  energy(sigma->0) =      -61.16917199


--------------------------------------------------------------------------------------------------------




--------------------------------------- Iteration      1(  12)  ---------------------------------------


    POTLOK:  cpu time    0.0469: real time    0.0917
    SETDIJ:  cpu time    1.1143: real time    1.1143
     EDDAV:  cpu time    1.5826: real time    1.5827
       DOS:  cpu time    0.0004: real time    0.0004
    CHARGE:  cpu time    0.1961: real time    0.1961
    MIXING:  cpu time    0.0004: real time    0.0004
    --------------------------------------------
      LOOP:  cpu time    2.9407: real time    2.9855

 eigenvalue-minimisations  :  3136
 total energy-change (2. order) : 0.3560934E-05  (-0.2106627E-05)
 number of electron      16.0000000 magnetization 
 augmentation part       -3.3800010 magnetization 

 Broyden mixing:
  rms(total) = 0.38939E-03    rms(broyden)= 0.38938E-03
  rms(prec ) = 0.70455E-03
  weight for this iteration     100.00

 eigenvalues of (default mixing * dielectric matrix)
  average eigenvalue GAMMA=   1.9485
  3.8138  2.7752  2.6283  1.3096  0.9821  0.9821  1.1484

 Free energy of the ion-electron system (eV)
  ---------------------------------------------------
  alpha Z        PSCENC =        53.27869122
  Ewald energy   TEWEN  =      -786.60710445
  -Hartree energ DENC   =      -120.55929777
  -exchange      EXHF   =         0.00000000
  -V(xc)+E(xc)   XCENC  =        35.43062649
  PAW double counting   =       747.91597981     -795.09711137
  entropy T*S    EENTRO =        -0.00000000
  eigenvalues    EBANDS =      -119.64911003
  atomic energy  EATOM  =       924.11815769
  Solvation  Ediel_sol  =         0.00000000
  ---------------------------------------------------
  free energy    TOTEN  =       -61.16916843 eV

  energy without entropy =      -61.16916843  energy(sigma->0) =      -61.16916843


--------------------------------------------------------------------------------------------------------




--------------------------------------- Iteration      1(  13)  ---------------------------------------


    POTLOK:  cpu time    0.0299: real time    0.0958
    SETDIJ:  cpu time    1.1186: real time    1.1186
     EDDAV:  cpu time    1.6051: real time    1.6052
       DOS:  cpu time    0.0004: real time    0.0004
    CHARGE:  cpu time    0.1962: real time    0.1962
    MIXING:  cpu time    0.0006: real time    0.0006
    --------------------------------------------
      LOOP:  cpu time    2.9508: real time    3.0168

 eigenvalue-minimisations  :  3200
 total energy-change (2. order) : 0.3269295E-05  (-0.2549232E-06)
 number of electron      16.0000000 magnetization 
 augmentation part       -3.3799121 magnetization 

 Broyden mixing:
  rms(total) = 0.21270E-03    rms(broyden)= 0.21270E-03
  rms(prec ) = 0.55930E-03
  weight for this iteration     100.00

 eigenvalues of (default mixing * dielectric matrix)
  average eigenvalue GAMMA=   1.6868
  3.0326  2.5885  2.5885  1.4460  0.9870  0.9870  0.9924  0.8723

 Free energy of the ion-electron system (eV)
  ---------------------------------------------------
  alpha Z        PSCENC =        53.27869122
  Ewald energy   TEWEN  =      -786.60710445
  -Hartree energ DENC   =      -120.57233232
  -exchange      EXHF   =         0.00000000
  -V(xc)+E(xc)   XCENC  =        35.43238155
  PAW double counting   =       748.23126781     -795.41300785
  entropy T*S    EENTRO =        -0.00000000
  eigenvalues    EBANDS =      -119.63721879
  atomic energy  EATOM  =       924.11815769
  Solvation  Ediel_sol  =         0.00000000
  ---------------------------------------------------
  free energy    TOTEN  =       -61.16916516 eV

  energy without entropy =      -61.16916516  energy(sigma->0) =      -61.16916516


--------------------------------------------------------------------------------------------------------




--------------------------------------- Iteration      1(  14)  ---------------------------------------


    POTLOK:  cpu time    0.0653: real time    0.0889
    SETDIJ:  cpu time    1.1183: real time    1.1183
     EDDAV:  cpu time    1.2644: real time    1.2644
       DOS:  cpu time    0.0004: real time    0.0004
    --------------------------------------------
      LOOP:  cpu time    2.4483: real time    2.4720

 eigenvalue-minimisations  :  2080
 total energy-change (2. order) :-0.4772037E-06  (-0.3640327E-07)
 number of electron      16.0000000 magnetization 
 augmentation part       -3.3799121 magnetization 

 Free energy of the ion-electron system (eV)
  ---------------------------------------------------
  alpha Z        PSCENC =        53.27869122
  Ewald energy   TEWEN  =      -786.60710445
  -Hartree energ DENC   =      -120.56793246
  -exchange      EXHF   =         0.00000000
  -V(xc)+E(xc)   XCENC  =        35.43182738
  PAW double counting   =       748.17846855     -795.35993355
  entropy T*S    EENTRO =        -0.00000000
  eigenvalues    EBANDS =      -119.64134000
  atomic energy  EATOM  =       924.11815769
  Solvation  Ediel_sol  =         0.00000000
  ---------------------------------------------------
  free energy    TOTEN  =       -61.16916564 eV

  energy without entropy =      -61.16916564  energy(sigma->0) =      -61.16916564


--------------------------------------------------------------------------------------------------------




 average (electrostatic) potential at core
  the test charge radii are     1.1312  1.0178
  (the norm of the test charge is              1.0000)
       1 -55.3844       2 -68.3646



 E-fermi :  -0.4845     XC(G=0):  -8.3206     alpha+bet : -7.8477


 k-point     1 :       0.0000    0.0000    0.0000
  band No.  band energies     occupation 
      1     -21.0104      2.00000
      2     -13.4600      2.00000
      3      -7.1565      2.00000
      4      -7.1565      2.00000
      5      -7.1565      2.00000
      6      -0.6202      2.00000
      7      -0.6202      2.00000
      8      -0.6202      2.00000
      9       4.5877      0.00000
     10       4.7922      0.00000
     11       4.7922      0.00000
     12       9.2317      0.00000
     13       9.2317      0.00000
     14       9.2317      0.00000
     15      12.1389      0.00000
     16      12.1389      0.00000

 k-point     2 :       0.0833    0.0000    0.0000
  band No.  band energies     occupation 
      1     -21.0069      2.00000
      2     -13.4609      2.00000
      3      -7.1845      2.00000
      4      -7.1497      2.00000
      5      -7.1497      2.00000
      6      -0.7313      2.00000
      7      -0.6330      2.00000
      8      -0.6330      2.00000
      9       4.7610      0.00000
     10       4.8383      0.00000
     11       4.9542      0.00000
     12       9.1818      0.00000
     13       9.1818      0.00000
     14       9.2689      0.00000
     15      11.6442      0.00000
     16      12.2410      0.00000

 k-point     3 :       0.1667    0.0000    0.0000
  band No.  band energies     occupation 
      1     -20.9972      2.00000
      2     -13.4633      2.00000
      3      -7.2587      2.00000
      4      -7.1311      2.00000
      5      -7.1311      2.00000
      6      -1.0084      2.00000
      7      -0.6684      2.00000
      8      -0.6684      2.00000
      9       4.9737      0.00000
     10       5.2274      0.00000
     11       5.4091      0.00000
     12       9.0717      0.00000
     13       9.0717      0.00000
     14       9.3768      0.00000
     15      10.7482      0.00000
     16      12.5244      0.00000

 k-point     4 :       0.2500    0.0000    0.0000
  band No.  band energies     occupation 
      1     -20.9837      2.00000
      2     -13.4672      2.00000
      3      -7.3543      2.00000
      4      -7.1054      2.00000
      5      -7.1054      2.00000
      6      -1.3409      2.00000
      7      -0.7176      2.00000
      8      -0.7176      2.00000
      9       5.1877      0.00000
     10       5.8688      0.00000
     11       6.0770      0.00000
     12       8.9742      0.00000
     13       8.9742      0.00000
     14       9.5413      0.00000
     15       9.8583      0.00000
     16      12.4107      0.00000

 k-point     5 :       0.3333    0.0000    0.0000
  band No.  band energies     occupation 
      1     -20.9701      2.00000
      2     -13.4716      2.00000
      3      -7.4442      2.00000
      4      -7.0792      2.00000
      5      -7.0792      2.00000
      6      -1.6361      2.00000
      7      -0.7678      2.00000
      8      -0.7678      2.00000
      9       5.4534      0.00000
     10       6.5323      0.00000
     11       6.8518      0.00000
     12       8.9331      0.00000
     13       8.9331      0.00000
     14       9.0882      0.00000
     15       9.7330      0.00000
     16      11.7364      0.00000

 k-point     6 :       0.4167    0.0000    0.0000
  band No.  band energies     occupation 
      1     -20.9602      2.00000
      2     -13.4752      2.00000
      3      -7.5065      2.00000
      4      -7.0598      2.00000
      5      -7.0598      2.00000
      6      -1.8345      2.00000
      7      -0.8053      2.00000
      8      -0.8053      2.00000
      9       5.7066      0.00000
     10       7.0632      0.00000
     11       7.5237      0.00000
     12       8.5268      0.00000
     13       8.9425      0.00000
     14       8.9425      0.00000
     15       9.8987      0.00000
     16      11.2827      0.00000

 k-point     7 :       0.5000    0.0000    0.0000
  band No.  band energies     occupation 
      1     -20.9563      2.00000
      2     -13.4765      2.00000
      3      -7.5285      2.00000
      4      -7.0526      2.00000
      5      -7.0526      2.00000
[...]
      9       6.6670      0.00000
     10       6.9175      0.00000
     11       7.0416      0.00000
     12       8.0397      0.00000
     13       8.5361      0.00000
     14       9.0791      0.00000
     15      11.9638      0.00000
     16      12.1733      0.00000

 k-point    68 :       0.5000    0.2500    0.2500
  band No.  band energies     occupation 
      1     -20.9118      2.00000
      2     -13.3696      2.00000
      3      -7.6356      2.00000
      4      -7.3879      2.00000
      5      -7.3140      2.00000
      6      -1.4911      2.00000
      7      -1.3359      2.00000
      8      -0.9427      2.00000
      9       6.5938      0.00000
     10       6.8319      0.00000
     11       7.0553      0.00000
     12       8.0589      0.00000
     13       8.6925      0.00000
     14       9.6427      0.00000
     15      11.6963      0.00000
     16      11.8759      0.00000

 k-point    69 :       0.3333    0.3333    0.2500
  band No.  band energies     occupation 
      1     -20.9121      2.00000
      2     -13.3663      2.00000
      3      -7.5202      2.00000
      4      -7.4863      2.00000
      5      -7.3377      2.00000
      6      -1.3843      2.00000
      7      -1.3255      2.00000
      8      -1.1021      2.00000
      9       6.7410      0.00000
     10       7.0060      0.00000
     11       7.5934      0.00000
     12       7.8918      0.00000
     13       8.3550      0.00000
     14       8.5107      0.00000
     15      12.2846      0.00000
     16      12.6134      0.00000

 k-point    70 :       0.4167    0.3333    0.2500
  band No.  band energies     occupation 
      1     -20.9037      2.00000
      2     -13.3504      2.00000
      3      -7.6055      2.00000
      4      -7.5050      2.00000
      5      -7.3201      2.00000
      6      -1.4596      2.00000
      7      -1.4018      2.00000
      8      -1.0923      2.00000
      9       6.6515      0.00000
     10       6.8686      0.00000
     11       7.5385      0.00000
     12       7.9733      0.00000
     13       8.7909      0.00000
     14       9.2891      0.00000
     15      11.9887      0.00000
     16      12.3340      0.00000

 k-point    71 :       0.5000    0.3333    0.2500
  band No.  band energies     occupation 
      1     -20.9005      2.00000
      2     -13.3445      2.00000
      3      -7.6408      2.00000
      4      -7.5079      2.00000
      5      -7.3127      2.00000
      6      -1.4848      2.00000
      7      -1.4363      2.00000
      8      -1.0836      2.00000
      9       6.6788      0.00000
     10       6.7378      0.00000
     11       7.5252      0.00000
     12       7.9787      0.00000
     13       8.9399      0.00000
     14       9.8704      0.00000
     15      11.6311      0.00000
     16      12.2284      0.00000

 k-point    72 :       0.4167    0.4167    0.2500
  band No.  band energies     occupation 
      1     -20.8954      2.00000
      2     -13.3326      2.00000
      3      -7.6140      2.00000
      4      -7.6033      2.00000
      5      -7.3002      2.00000
      6      -1.4918      2.00000
      7      -1.4459      2.00000
      8      -1.1789      2.00000
      9       6.6487      0.00000
     10       6.8484      0.00000
     11       7.6091      0.00000
     12       7.8445      0.00000
     13       9.5056      0.00000
     14       9.6700      0.00000
     15      11.9835      0.00000
     16      12.0114      0.00000

 k-point    73 :       0.5000    0.4167    0.2500
  band No.  band energies     occupation 
      1     -20.8924      2.00000
      2     -13.3260      2.00000
      3      -7.6457      2.00000
      4      -7.6105      2.00000
      5      -7.2924      2.00000
      6      -1.4864      2.00000
      7      -1.4817      2.00000
      8      -1.2078      2.00000
      9       6.6917      0.00000
     10       6.8004      0.00000
     11       7.6272      0.00000
     12       7.7398      0.00000
     13       9.7102      0.00000
     14      10.2271      0.00000
     15      11.5530      0.00000
     16      12.0208      0.00000

 k-point    74 :       0.5000    0.5000    0.2500
  band No.  band energies     occupation 
      1     -20.8893      2.00000
      2     -13.3191      2.00000
      3      -7.6476      2.00000
      4      -7.6476      2.00000
      5      -7.2843      2.00000
      6      -1.4881      2.00000
      7      -1.4881      2.00000
      8      -1.2622      2.00000
      9       6.6879      0.00000
     10       6.8807      0.00000
     11       7.6012      0.00000
     12       7.6012      0.00000
     13      10.3900      0.00000
     14      10.3900      0.00000
     15      11.2889      0.00000
     16      11.8075      0.00000

 k-point    75 :       0.3333    0.3333    0.3333
  band No.  band energies     occupation 
      1     -20.9008      2.00000
      2     -13.3443      2.00000
      3      -7.4909      2.00000
      4      -7.4790      2.00000
      5      -7.4790      2.00000
      6      -1.4439      2.00000
      7      -1.4439      2.00000
      8      -1.2245      2.00000
      9       6.7985      0.00000
     10       7.6713      0.00000
     11       7.6713      0.00000
     12       8.3007      0.00000
     13       8.3298      0.00000
     14       8.3298      0.00000
     15      12.4525      0.00000
     16      12.4525      0.00000

 k-point    76 :       0.4167    0.3333    0.3333
  band No.  band energies     occupation 
      1     -20.8926      2.00000
      2     -13.3281      2.00000
      3      -7.5848      2.00000
      4      -7.4884      2.00000
      5      -7.4481      2.00000
      6      -1.5306      2.00000
      7      -1.5223      2.00000
      8      -1.2735      2.00000
      9       6.8839      0.00000
     10       7.4544      0.00000
     11       7.7946      0.00000
     12       8.2470      0.00000
     13       8.7264      0.00000
     14       9.1276      0.00000
     15      12.0432      0.00000
     16      12.2754      0.00000

 k-point    77 :       0.5000    0.3333    0.3333
  band No.  band energies     occupation 
      1     -20.8897      2.00000
      2     -13.3221      2.00000
      3      -7.6212      2.00000
      4      -7.4893      2.00000
      5      -7.4366      2.00000
      6      -1.5623      2.00000
      7      -1.5550      2.00000
      8      -1.2865      2.00000
      9       7.0133      0.00000
     10       7.2183      0.00000
     11       7.8762      0.00000
     12       8.1800      0.00000
     13       8.8950      0.00000
     14       9.6994      0.00000
     15      11.6228      0.00000
     16      12.2110      0.00000

 k-point    78 :       0.4167    0.4167    0.3333
  band No.  band energies     occupation 
      1     -20.8845      2.00000
      2     -13.3116      2.00000
      3      -7.5734      2.00000
      4      -7.5694      2.00000
      5      -7.4407      2.00000
      6      -1.6059      2.00000
      7      -1.5821      2.00000
      8      -1.4042      2.00000
      9       7.1113      0.00000
     10       7.6767      0.00000
     11       7.8271      0.00000
     12       8.2758      0.00000
     13       9.2589      0.00000
     14       9.2695      0.00000
     15      11.8768      0.00000
     16      12.0481      0.00000

 k-point    79 :       0.5000    0.4167    0.3333
  band No.  band energies     occupation 
      1     -20.8815      2.00000
      2     -13.3055      2.00000
      3      -7.6070      2.00000
      4      -7.5669      2.00000
      5      -7.4315      2.00000
      6      -1.6256      2.00000
      7      -1.6100      2.00000
      8      -1.4526      2.00000
      9       7.3402      0.00000
     10       7.4761      0.00000
     11       8.0179      0.00000
     12       8.0748      0.00000
     13       9.3783      0.00000
     14       9.7989      0.00000
     15      11.5345      0.00000
     16      11.9897      0.00000

 k-point    80 :       0.5000    0.5000    0.3333
  band No.  band energies     occupation 
      1     -20.8784      2.00000
      2     -13.2993      2.00000
      3      -7.6018      2.00000
      4      -7.6018      2.00000
      5      -7.4221      2.00000
      6      -1.6309      2.00000
      7      -1.6309      2.00000
      8      -1.5293      2.00000
      9       7.5867      0.00000
     10       7.6658      0.00000
     11       7.8610      0.00000
     12       7.8610      0.00000
     13       9.8992      0.00000
     14       9.8992      0.00000
     15      11.3397      0.00000
     16      11.8175      0.00000

 k-point    81 :       0.4167    0.4167    0.4167
  band No.  band energies     occupation 
      1     -20.8764      2.00000
      2     -13.2960      2.00000
      3      -7.5552      2.00000
      4      -7.5359      2.00000
      5      -7.5359      2.00000
      6      -1.6813      2.00000
      7      -1.6813      2.00000
      8      -1.5656      2.00000
      9       7.4853      0.00000
     10       8.1011      0.00000
     11       8.1011      0.00000
     12       8.9446      0.00000
     13       8.9446      0.00000
     14       9.1102      0.00000
     15      11.8011      0.00000
     16      11.8011      0.00000

 k-point    82 :       0.5000    0.4167    0.4167
  band No.  band energies     occupation 
      1     -20.8734      2.00000
      2     -13.2903      2.00000
      3      -7.5781      2.00000
      4      -7.5405      2.00000
      5      -7.5234      2.00000
      6      -1.7175      2.00000
      7      -1.7011      2.00000
      8      -1.6303      2.00000
      9       7.7848      0.00000
     10       7.9346      0.00000
     11       8.2990      0.00000
     12       8.7278      0.00000
     13       9.0990      0.00000
     14       9.5022      0.00000
     15      11.4984      0.00000
     16      11.7788      0.00000

 k-point    83 :       0.5000    0.5000    0.4167
  band No.  band energies     occupation 
      1     -20.8706      2.00000
      2     -13.2848      2.00000
      3      -7.5675      2.00000
      4      -7.5675      2.00000
      5      -7.5196      2.00000
      6      -1.7346      2.00000
      7      -1.7346      2.00000
      8      -1.7093      2.00000
      9       8.1359      0.00000
     10       8.1633      0.00000
     11       8.1633      0.00000
     12       8.6638      0.00000
     13       9.4365      0.00000
     14       9.4365      0.00000
     15      11.3779      0.00000
     16      11.6253      0.00000

 k-point    84 :       0.5000    0.5000    0.5000
  band No.  band energies     occupation 
      1     -20.8679      2.00000
      2     -13.2795      2.00000
      3      -7.5548      2.00000
      4      -7.5548      2.00000
      5      -7.5548      2.00000
      6      -1.7724      2.00000
      7      -1.7724      2.00000
      8      -1.7724      2.00000
      9       8.3479      0.00000
     10       8.3479      0.00000
     11       8.3479      0.00000
     12       9.1948      0.00000
     13       9.1948      0.00000
     14       9.1948      0.00000
     15      11.3921      0.00000
     16      11.3921      0.00000


--------------------------------------------------------------------------------------------------------


 soft charge-density along one line, spin component           1
         0         1         2         3         4         5         6         7         8         9
 total charge-density along one line

 pseudopotential strength for first ion, spin component:           1
 18.022  -4.718   0.000   0.000   0.000  -0.000  -0.000  -0.000
 -4.718   1.244  -0.000  -0.000  -0.000   0.000   0.000   0.000
  0.000  -0.000   2.287  -0.000  -0.000  -2.740   0.000   0.000
  0.000  -0.000  -0.000   2.287  -0.000   0.000  -2.740   0.000
  0.000  -0.000  -0.000  -0.000   2.287   0.000   0.000  -2.740
 -0.000   0.000  -2.740   0.000   0.000   3.252  -0.000  -0.000
 -0.000   0.000   0.000  -2.740   0.000  -0.000   3.252  -0.000
 -0.000   0.000   0.000   0.000  -2.740  -0.000  -0.000   3.252
 -0.000   0.000   0.000   0.000   0.000  -0.000  -0.000  -0.000
 -0.000   0.000   0.000   0.000   0.000  -0.000  -0.000  -0.000
 -0.000   0.000  -0.000   0.000  -0.000   0.000  -0.000   0.000
 -0.000   0.000   0.000   0.000   0.000  -0.000  -0.000  -0.000
  0.000  -0.000  -0.000  -0.000   0.000   0.000   0.000  -0.000
 total augmentation occupancy for first ion, spin component:           1
  1.920  -0.125   0.000   0.000   0.000   0.000   0.000   0.000   0.000   0.000   0.000   0.000   0.000
 -0.125   0.162   0.000   0.000   0.000   0.000   0.000   0.000   0.000  -0.000  -0.000   0.000  -0.000
  0.000   0.000   2.018   0.000   0.000   0.007  -0.000   0.000   0.000   0.000   0.000   0.000   0.000
  0.000   0.000   0.000   2.018   0.000   0.000   0.007  -0.000   0.000   0.000   0.000   0.000   0.000
  0.000   0.000   0.000   0.000   2.018   0.000   0.000   0.007   0.000   0.000   0.000   0.000   0.000
  0.000   0.000   0.007   0.000   0.000   0.011  -0.000   0.000   0.000   0.000   0.000   0.000   0.000
  0.000   0.000   0.000   0.007  -0.000   0.000   0.011  -0.000   0.000   0.000   0.000   0.000   0.000
  0.000   0.000   0.000  -0.000   0.007  -0.000   0.000   0.011   0.000   0.000   0.000   0.000   0.000
  0.000   0.000   0.000   0.000   0.000   0.000   0.000   0.000   0.011   0.000   0.000   0.000  -0.000
 -0.000  -0.000   0.000   0.000   0.000   0.000   0.000   0.000   0.000   0.011   0.000   0.000  -0.000
  0.000   0.000   0.000   0.000   0.000   0.000   0.000   0.000   0.000  -0.000   0.002  -0.000   0.000
  0.000   0.000   0.000   0.000   0.000   0.000   0.000   0.000   0.000   0.000   0.000   0.011  -0.000
 -0.000   0.000   0.000   0.000   0.000   0.000   0.000   0.000   0.000  -0.000   0.000   0.000   0.002


------------------------ aborting loop because EDIFF is reached ----------------------------------------





 total charge     

# of ion       s       p       d       tot
------------------------------------------
    1        1.791   4.715   0.027   6.533
    2        1.605   3.316   0.002   4.922
--------------------------------------------------
tot          3.396   8.030   0.029  11.455

    CHARGE:  cpu time    0.0190: real time    0.0190
    FORLOC:  cpu time    0.0001: real time    0.0001
    FORNL :  cpu time    0.1329: real time    0.1329
    STRESS:  cpu time    3.5330: real time    3.5330
    FORCOR:  cpu time    0.0117: real time    0.0117
    FORHAR:  cpu time    0.0014: real time    0.0014
    MIXING:  cpu time    0.0004: real time    0.0004
    OFIELD:  cpu time    0.0000: real time    0.0000

  FORCE on cell =-STRESS in cart. coord.  units (eV):
  Direction    XX          YY          ZZ          XY          YZ          ZX
  --------------------------------------------------------------------------------------
  Alpha Z    53.27869    53.27869    53.27869
  Ewald    -262.20235  -262.20235  -262.20235    -0.00000     0.00000     0.00000
  Hartree    40.18880    40.18880    40.18880    -0.00000    -0.00000    -0.00000
  E(xc)     -59.97203   -59.81908   -59.64827    -0.02112     0.03399     0.00469
  Local     -34.51038   -34.51038   -34.51038    -0.00000    -0.00000     0.00000
  n-local    56.44091    57.10187    57.57226    -0.15003     0.11812    -0.01835
  augment   -16.31914   -16.31914   -16.31914    -0.00000    -0.00000    -0.00000
  Kinetic   216.99775   222.36106   227.60382    -0.84278     1.09933     0.08278
  Fock        0.00000     0.00000     0.00000     0.00000     0.00000     0.00000
  -------------------------------------------------------------------------------------
  Total      -0.01828    -0.01828    -0.01828    -0.00000    -0.00000     0.00000
  in kB      -0.36815    -0.36815    -0.36815    -0.00000    -0.00000     0.00000
  external pressure =       -0.37 kB  Pullay stress =        0.00 kB


 VOLUME and BASIS-vectors are now :
 -----------------------------------------------------------------------------
  energy-cutoff  :      300.00
  volume of cell :       79.56
      direct lattice vectors                 reciprocal lattice vectors
     4.300974080 -0.000000000  0.000000000     0.232505470 -0.000000000  0.000000000
     0.000000000  4.300974080 -0.000000000     0.000000000  0.232505470 -0.000000000
     0.000000000  0.000000000  4.300974080     0.000000000  0.000000000  0.232505470

  length of vectors
     4.300974080  4.300974080  4.300974080     0.232505470  0.232505470  0.232505470


 FORCES acting on ions
    electron-ion (+dipol)            ewald-force                    non-local-force                 convergence-correction
 -----------------------------------------------------------------------------------------------
   0.169E-09 -.371E-10 -.647E-10   0.129E-14 -.164E-14 -.111E-14   0.000E+00 0.000E+00 0.240E-24   -.166E-14 -.636E-15 0.350E-14
   0.138E-13 0.559E-13 -.667E-12   -.929E-15 0.155E-14 0.114E-14   0.000E+00 0.000E+00 -.419E-24   -.350E-14 0.409E-14 0.317E-14
 -----------------------------------------------------------------------------------------------
   0.169E-09 -.371E-10 -.653E-10   0.359E-15 -.875E-16 0.279E-16   0.000E+00 0.000E+00 -.179E-24   -.516E-14 0.346E-14 0.668E-14


 POSITION                                       TOTAL-FORCE (eV/Angst)
 -----------------------------------------------------------------------------------
      0.00000      0.00000      0.00000         0.000000      0.000000      0.000000
      2.15049      2.15049      2.15049         0.000000      0.000000     -0.000000
 -----------------------------------------------------------------------------------
    total drift:                                0.000000     -0.000000     -0.000000


--------------------------------------------------------------------------------------------------------



  FREE ENERGIE OF THE ION-ELECTRON SYSTEM (eV)
  ---------------------------------------------------
  free  energy   TOTEN  =       -61.16916564 eV

  energy  without entropy=      -61.16916564  energy(sigma->0) =      -61.16916564



--------------------------------------------------------------------------------------------------------


    POTLOK:  cpu time    1.1311: real time    1.1314


--------------------------------------------------------------------------------------------------------


 stress matrix after NEB project (eV)
     -0.01828     -0.00000      0.00000
     -0.00000     -0.01828      0.00000
      0.00000     -0.00000     -0.01828
  FORCES: max atom, RMS     0.000000    0.000000
  FORCE total and by dimension    0.000000    0.000000
  Stress total and by dimension    0.031665    0.018282
     LOOP+:  cpu time   42.4187: real time   42.9725
    4ORBIT:  cpu time    0.0000: real time    0.0000



 total charge     

# of ion       s       p       d       tot
------------------------------------------
    1        1.791   4.715   0.027   6.533
    2        1.605   3.316   0.002   4.922
--------------------------------------------------
tot          3.396   8.030   0.029  11.455


 total amount of memory used by VASP MPI-rank0    31359. kBytes
=======================================================================

   base      :      30000. kBytes
   nonlr-proj:        277. kBytes
   fftplans  :        389. kBytes
   grid      :        277. kBytes
   one-center:          8. kBytes
   wavefun   :        408. kBytes

  
  
 General timing and accounting informations for this job:
 ========================================================
  
                  Total CPU time used (sec):       45.347
                            User time (sec):       44.915
                          System time (sec):        0.432
                         Elapsed time (sec):       46.056
  
                   Maximum memory used (kb):       32780.
                   Average memory used (kb):           0.
  
                          Minor page faults:         6687
                          Major page faults:            0
                 Voluntary context switches:         1473
