PROCAR new format
# of k-points:   84         # of bands:   16         # of ions:    2

 k-point     1 :    0.00000000 0.00000000 0.00000000     weight = 0.00057870

band     1 # energy  -21.01042006 # occ.  2.00000000

ion      s      p      d    tot
    1  0.879  0.000  0.000  0.879
    2  0.001  0.000  0.000  0.001
tot    0.880  0.000  0.000  0.880

band     2 # energy  -13.46000722 # occ.  2.00000000

ion      s      p      d    tot
    1  0.006  0.000  0.000  0.006
    2  0.786  0.000  0.000  0.786
tot    0.792  0.000  0.000  0.792

band     3 # energy   -7.15647345 # occ.  2.00000000

ion      s      p      d    tot
    1  0.000  0.784  0.000  0.784
    2  0.000  0.006  0.000  0.006
tot    0.000  0.790  0.000  0.790

band     4 # energy   -7.15647291 # occ.  2.00000000

ion      s      p      d    tot
    1  0.000  0.784  0.000  0.784
    2  0.000  0.006  0.000  0.006
tot    0.000  0.790  0.000  0.790

band     5 # energy   -7.15647284 # occ.  2.00000000

ion      s      p      d    tot
    1  0.000  0.784  0.000  0.784
    2  0.000  0.006  0.000  0.006
tot    0.000  0.790  0.000  0.790

band     6 # energy   -0.62024537 # occ.  2.00000000

ion      s      p      d    tot
    1  0.000  0.027  0.000  0.027
    2  0.000  0.604  0.000  0.604
tot    0.000  0.631  0.000  0.631

band     7 # energy   -0.62024534 # occ.  2.00000000

ion      s      p      d    tot
    1  0.000  0.027  0.000  0.027
    2  0.000  0.604  0.000  0.604
tot    0.000  0.631  0.000  0.631

band     8 # energy   -0.62024485 # occ.  2.00000000

ion      s      p      d    tot
    1  0.000  0.027  0.000  0.027
    2  0.000  0.604  0.000  0.604
tot    0.000  0.631  0.000  0.631

band     9 # energy    4.58769946 # occ.  0.00000000

ion      s      p      d    tot
    1  0.089  0.000  0.000  0.089
    2  0.089  0.000  0.000  0.089
tot    0.177  0.000  0.000  0.177

band    10 # energy    4.79222714 # occ.  0.00000000

ion      s      p      d    tot
    1  0.000  0.000  0.189  0.189
    2  0.000  0.000  0.024  0.024
tot    0.000  0.000  0.213  0.213

band    11 # energy    4.79222724 # occ.  0.00000000

ion      s      p      d    tot
    1  0.000  0.000  0.189  0.189
    2  0.000  0.000  0.024  0.024
tot    0.000  0.000  0.213  0.213

band    12 # energy    9.23166535 # occ.  0.00000000

ion      s      p      d    tot
    1  0.000  0.000  0.363  0.363
    2  0.000  0.000  0.042  0.042
tot    0.000  0.000  0.405  0.405

band    13 # energy    9.23166535 # occ.  0.00000000

ion      s      p      d    tot
    1  0.000  0.000  0.363  0.363
    2  0.000  0.000  0.042  0.042
tot    0.000  0.000  0.405  0.405

band    14 # energy    9.23166537 # occ.  0.00000000

ion      s      p      d    tot
    1  0.000  0.000  0.363  0.363
    2  0.000  0.000  0.042  0.042
tot    0.000  0.000  0.405  0.405

band    15 # energy   12.13888206 # occ.  0.00000000

ion      s      p      d    tot
    1  0.000  0.000  0.147  0.147
    2  0.000  0.000  0.135  0.135
tot    0.000  0.000  0.282  0.282

band    16 # energy   12.13888207 # occ.  0.00000000

ion      s      p      d    tot
    1  0.000  0.000  0.147  0.147
    2  0.000  0.000  0.135  0.135
tot    0.000  0.000  0.282  0.282


 k-point     2 :    0.08333333 0.00000000 0.00000000     weight = 0.00347222

band     1 # energy  -21.00693897 # occ.  2.00000000

ion      s      p      d    tot
    1  0.879  0.000  0.000  0.879
    2  0.001  0.000  0.000  0.001
tot    0.881  0.000  0.000  0.881

band     2 # energy  -13.46085873 # occ.  2.00000000

ion      s      p      d    tot
    1  0.006  0.000  0.000  0.006
    2  0.786  0.000  0.000  0.786
tot    0.792  0.000  0.000  0.792

band     3 # energy   -7.18451659 # occ.  2.00000000

ion      s      p      d    tot
    1  0.000  0.780  0.000  0.780
    2  0.001  0.005  0.000  0.007
tot    0.001  0.786  0.000  0.787

band     4 # energy   -7.14974703 # occ.  2.00000000

ion      s      p      d    tot
    1  0.000  0.785  0.000  0.785
    2  0.000  0.005  0.000  0.006
tot    0.000  0.791  0.000  0.791

band     5 # energy   -7.14974649 # occ.  2.00000000

ion      s      p      d    tot
    1  0.000  0.785  0.000  0.785
    2  0.000  0.005  0.000  0.006
tot    0.000  0.791  0.000  0.791

band     6 # energy   -0.73131229 # occ.  2.00000000

ion      s      p      d    tot
    1  0.002  0.024  0.000  0.026
    2  0.001  0.588  0.000  0.589
tot    0.003  0.612  0.000  0.615

band     7 # energy   -0.63303003 # occ.  2.00000000

ion      s      p      d    tot
    1  0.000  0.025  0.001  0.026
    2  0.000  0.603  0.000  0.603
tot    0.000  0.629  0.001  0.629

band     8 # energy   -0.63302954 # occ.  2.00000000

ion      s      p      d    tot
    1  0.000  0.025  0.001  0.026
    2  0.000  0.603  0.000  0.603
tot    0.000  0.629  0.001  0.629

band     9 # energy    4.76102425 # occ.  0.00000000

ion      s      p      d    tot
    1  0.086  0.006  0.000  0.091
    2  0.086  0.012  0.000  0.098
tot    0.172  0.018  0.000  0.189

band    10 # energy    4.83833441 # occ.  0.00000000

ion      s      p      d    tot
    1  0.000  0.000  0.191  0.191
    2  0.000  0.000  0.023  0.023
tot    0.000  0.000  0.214  0.214

band    11 # energy    4.95418883 # occ.  0.00000000

ion      s      p      d    tot
    1  0.000  0.002  0.190  0.192
    2  0.000  0.007  0.023  0.030
tot    0.000  0.009  0.213  0.222

band    12 # energy    9.18181835 # occ.  0.00000000

ion      s      p      d    tot
    1  0.000  0.000  0.356  0.356
    2  0.000  0.004  0.040  0.044
tot    0.000  0.004  0.396  0.400

band    13 # energy    9.18181836 # occ.  0.00000000

ion      s      p      d    tot
    1  0.000  0.000  0.356  0.356
    2  0.000  0.004  0.040  0.044
tot    0.000  0.004  0.396  0.400

band    14 # energy    9.26894787 # occ.  0.00000000

ion      s      p      d    tot
    1  0.000  0.000  0.366  0.366
    2  0.000  0.000  0.041  0.041
tot    0.000  0.000  0.407  0.407

band    15 # energy   11.64420257 # occ.  0.00000000

ion      s      p      d    tot
    1  0.000  0.000  0.118  0.118
    2  0.000  0.000  0.113  0.113
tot    0.000  0.000  0.231  0.231

band    16 # energy   12.24096248 # occ.  0.00000000

ion      s      p      d    tot
    1  0.000  0.000  0.150  0.150
    2  0.000  0.003  0.135  0.138
tot    0.000  0.003  0.285  0.288


 k-point     3 :    0.16666667 0.00000000 0.00000000     weight = 0.00347222

band     1 # energy  -20.99719524 # occ.  2.00000000

ion      s      p      d    tot
    1  0.881  0.000  0.000  0.881
    2  0.001  0.000  0.000  0.001
tot    0.882  0.000  0.000  0.882

band     2 # energy  -13.46334771 # occ.  2.00000000

ion      s      p      d    tot
    1  0.005  0.002  0.000  0.007
    2  0.785  0.000  0.000  0.785
tot    0.789  0.002  0.000  0.791

band     3 # energy   -7.25868371 # occ.  2.00000000

ion      s      p      d    tot
    1  0.000  0.771  0.000  0.771
    2  0.006  0.004  0.000  0.010
tot    0.006  0.775  0.000  0.781

band     4 # energy   -7.13113138 # occ.  2.00000000

ion      s      p      d    tot
    1  0.000  0.789  0.000  0.789
    2  0.000  0.004  0.000  0.005
tot    0.000  0.793  0.000  0.793

band     5 # energy   -7.13113084 # occ.  2.00000000

ion      s      p      d    tot
    1  0.000  0.789  0.000  0.789
    2  0.000  0.004  0.000  0.005
tot    0.000  0.793  0.000  0.793

band     6 # energy   -1.00841178 # occ.  2.00000000

ion      s      p      d    tot
    1  0.006  0.018  0.001  0.025
    2  0.002  0.552  0.000  0.554
tot    0.008  0.570  0.001  0.580

band     7 # energy   -0.66835659 # occ.  2.00000000

ion      s      p      d    tot
    1  0.000  0.020  0.002  0.022
    2  0.000  0.601  0.000  0.601
tot    0.000  0.622  0.002  0.624

band     8 # energy   -0.66835610 # occ.  2.00000000

ion      s      p      d    tot
    1  0.000  0.020  0.002  0.022
    2  0.000  0.601  0.000  0.601
tot    0.000  0.622  0.002  0.624

band     9 # energy    4.97373904 # occ.  0.00000000

ion      s      p      d    tot
    1  0.000  0.000  0.196  0.196
    2  0.000  0.000  0.021  0.021
tot    0.000  0.000  0.218  0.218

band    10 # energy    5.22743406 # occ.  0.00000000

ion      s      p      d    tot
    1  0.079  0.020  0.000  0.099
    2  0.079  0.037  0.000  0.117
tot    0.158  0.057  0.000  0.215

band    11 # energy    5.40906953 # occ.  0.00000000

ion      s      p      d    tot
    1  0.000  0.008  0.191  0.199
    2  0.000  0.023  0.022  0.046
tot    0.000  0.031  0.214  0.245

band    12 # energy    9.07172876 # occ.  0.00000000

ion      s      p      d    tot
    1  0.000  0.001  0.342  0.343
    2  0.000  0.015  0.034  0.049
tot    0.000  0.015  0.376  0.392

band    13 # energy    9.07172876 # occ.  0.00000000

ion      s      p      d    tot
    1  0.000  0.001  0.342  0.343
    2  0.000  0.015  0.034  0.049
tot    0.000  0.015  0.376  0.392

band    14 # energy    9.37676117 # occ.  0.00000000

ion      s      p      d    tot
    1  0.000  0.000  0.375  0.375
    2  0.000  0.000  0.037  0.037
tot    0.000  0.000  0.412  0.412

band    15 # energy   10.74822168 # occ.  0.00000000

ion      s      p      d    tot
    1  0.000  0.000  0.089  0.089
    2  0.000  0.000  0.096  0.096
tot    0.000  0.000  0.185  0.185

band    16 # energy   12.52440576 # occ.  0.00000000

ion      s      p      d    tot
    1  0.001  0.001  0.159  0.162
    2  0.000  0.015  0.131  0.146
tot    0.002  0.016  0.290  0.308


 k-point     4 :    0.25000000 0.00000000 0.00000000     weight = 0.00347222

band     1 # energy  -20.98368214 # occ.  2.00000000

ion      s      p      d    tot
    1  0.883  0.000  0.000  0.883
    2  0.001  0.000  0.000  0.001
tot    0.883  0.000  0.000  0.883

band     2 # energy  -13.46720043 # occ.  2.00000000

ion      s      p      d    tot
    1  0.003  0.003  0.000  0.007
    2  0.783  0.000  0.000  0.783
tot    0.786  0.003  0.000  0.790

band     3 # energy   -7.35430954 # occ.  2.00000000

ion      s      p      d    tot
    1  0.000  0.760  0.000  0.760
    2  0.011  0.003  0.000  0.014
tot    0.011  0.763  0.000  0.774

band     4 # energy   -7.10538144 # occ.  2.00000000

ion      s      p      d    tot
    1  0.000  0.794  0.000  0.794
    2  0.000  0.003  0.000  0.003
tot    0.000  0.797  0.000  0.797

band     5 # energy   -7.10538090 # occ.  2.00000000

ion      s      p      d    tot
    1  0.000  0.794  0.000  0.794
    2  0.000  0.003  0.000  0.003
tot    0.000  0.797  0.000  0.797

band     6 # energy   -1.34093493 # occ.  2.00000000

ion      s      p      d    tot
    1  0.010  0.011  0.002  0.023
    2  0.003  0.518  0.000  0.520
tot    0.012  0.529  0.002  0.543

band     7 # energy   -0.71755803 # occ.  2.00000000

ion      s      p      d    tot
    1  0.000  0.014  0.004  0.018
    2  0.000  0.598  0.000  0.598
tot    0.000  0.612  0.004  0.616

band     8 # energy   -0.71755753 # occ.  2.00000000

ion      s      p      d    tot
    1  0.000  0.014  0.004  0.018
    2  0.000  0.598  0.000  0.598
tot    0.000  0.612  0.004  0.616

band     9 # energy    5.18769386 # occ.  0.00000000

ion      s      p      d    tot
    1  0.000  0.000  0.207  0.207
    2  0.000  0.000  0.018  0.018
tot    0.000  0.000  0.225  0.225

band    10 # energy    5.86876286 # occ.  0.00000000

ion      s      p      d    tot
    1  0.070  0.028  0.009  0.108
    2  0.067  0.078  0.000  0.145
tot    0.137  0.106  0.010  0.253

band    11 # energy    6.07704896 # occ.  0.00000000

ion      s      p      d    tot
    1  0.000  0.027  0.183  0.210
    2  0.005  0.027  0.022  0.054
tot    0.005  0.054  0.205  0.264

band    12 # energy    8.97419587 # occ.  0.00000000

ion      s      p      d    tot
    1  0.000  0.001  0.333  0.334
    2  0.000  0.031  0.026  0.056
tot    0.000  0.031  0.358  0.390

band    13 # energy    8.97419588 # occ.  0.00000000

ion      s      p      d    tot
    1  0.000  0.001  0.333  0.334
    2  0.000  0.031  0.026  0.056
tot    0.000  0.031  0.358  0.390

band    14 # energy    9.54125946 # occ.  0.00000000

ion      s      p      d    tot
    1  0.000  0.000  0.391  0.391
    2  0.000  0.000  0.029  0.029
tot    0.000  0.000  0.420  0.420

band    15 # energy    9.85829491 # occ.  0.00000000

ion      s      p      d    tot
    1  0.000  0.000  0.067  0.067
    2  0.000  0.000  0.090  0.090
tot    0.000  0.000  0.157  0.157

band    16 # energy   12.41071321 # occ.  0.00000000

ion      s      p      d    tot
    1  0.000  0.051  0.038  0.089
    2  0.000  0.040  0.120  0.160
tot    0.000  0.091  0.158  0.249


 k-point     5 :    0.33333333 0.00000000 0.00000000     weight = 0.00347222

band     1 # energy  -20.97012375 # occ.  2.00000000

ion      s      p      d    tot
    1  0.885  0.000  0.000  0.885
    2  0.000  0.000  0.000  0.000
tot    0.885  0.000  0.000  0.885

band     2 # energy  -13.47160904 # occ.  2.00000000

ion      s      p      d    tot
    1  0.002  0.005  0.000  0.007
    2  0.781  0.000  0.000  0.781
tot    0.783  0.005  0.000  0.788

band     3 # energy   -7.44415692 # occ.  2.00000000

ion      s      p      d    tot
    1  0.000  0.749  0.000  0.750
    2  0.017  0.001  0.000  0.019
tot    0.017  0.751  0.000  0.768

band     4 # energy   -7.07923521 # occ.  2.00000000

ion      s      p      d    tot
    1  0.000  0.799  0.000  0.799
    2  0.000  0.002  0.000  0.002
tot    0.000  0.800  0.000  0.801

band     5 # energy   -7.07923466 # occ.  2.00000000

ion      s      p      d    tot
    1  0.000  0.799  0.000  0.799
    2  0.000  0.002  0.000  0.002
tot    0.000  0.800  0.000  0.801

band     6 # energy   -1.63605473 # occ.  2.00000000

ion      s      p      d    tot
    1  0.013  0.005  0.002  0.021
    2  0.002  0.493  0.000  0.495
tot    0.014  0.498  0.003  0.515

band     7 # energy   -0.76783648 # occ.  2.00000000

ion      s      p      d    tot
    1  0.000  0.007  0.006  0.013
    2  0.000  0.595  0.000  0.595
tot    0.000  0.602  0.006  0.608

band     8 # energy   -0.76783598 # occ.  2.00000000

ion      s      p      d    tot
    1  0.000  0.007  0.006  0.013
    2  0.000  0.595  0.000  0.595
tot    0.000  0.602  0.006  0.608

band     9 # energy    5.45343388 # occ.  0.00000000

ion      s      p      d    tot
    1  0.000  0.000  0.225  0.225
    2  0.000  0.000  0.013  0.013
tot    0.000  0.000  0.237  0.237

band    10 # energy    6.53232321 # occ.  0.00000000

ion      s      p      d    tot
    1  0.058  0.021  0.053  0.132
    2  0.042  0.128  0.000  0.170
tot    0.100  0.149  0.053  0.303

band    11 # energy    6.85179966 # occ.  0.00000000

ion      s      p      d    tot
    1  0.002  0.067  0.133  0.203
    2  0.024  0.016  0.023  0.063
tot    0.026  0.083  0.156  0.265

band    12 # energy    8.93305932 # occ.  0.00000000

ion      s      p      d    tot
    1  0.000  0.001  0.333  0.334
    2  0.000  0.049  0.016  0.065
tot    0.000  0.050  0.349  0.399

band    13 # energy    8.93305935 # occ.  0.00000000

ion      s      p      d    tot
    1  0.000  0.001  0.333  0.334
    2  0.000  0.049  0.016  0.065
tot    0.000  0.050  0.349  0.399

band    14 # energy    9.08819468 # occ.  0.00000000

ion      s      p      d    tot
    1  0.000  0.000  0.043  0.043
    2  0.000  0.000  0.091  0.091
tot    0.000  0.000  0.134  0.134

band    15 # energy    9.73301389 # occ.  0.00000000

ion      s      p      d    tot
    1  0.000  0.000  0.415  0.415
    2  0.000  0.000  0.018  0.018
tot    0.000  0.000  0.433  0.433

band    16 # energy   11.73643837 # occ.  0.00000000

ion      s      p      d    tot
    1  0.000  0.051  0.025  0.076
    2  0.000  0.023  0.130  0.153
tot    0.000  0.074  0.155  0.229


 k-point     6 :    0.41666667 0.00000000 0.00000000     weight = 0.00347222

band     1 # energy  -20.96015153 # occ.  2.00000000

ion      s      p      d    tot
    1  0.886  0.000  0.000  0.886
    2  0.000  0.000  0.000  0.000
tot    0.886  0.000  0.000  0.886

band     2 # energy  -13.47519817 # occ.  2.00000000

ion      s      p      d    tot
    1  0.000  0.007  0.000  0.007
    2  0.780  0.000  0.000  0.780
tot    0.780  0.007  0.000  0.787

band     3 # energy   -7.50648298 # occ.  2.00000000

ion      s      p      d    tot
    1  0.000  0.742  0.000  0.742
    2  0.022  0.000  0.000  0.023
tot    0.022  0.743  0.000  0.765

band     4 # energy   -7.05981532 # occ.  2.00000000

ion      s      p      d    tot
    1  0.000  0.803  0.000  0.803
    2  0.000  0.000  0.000  0.001
tot    0.000  0.803  0.000  0.803

band     5 # energy   -7.05981476 # occ.  2.00000000

ion      s      p      d    tot
    1  0.000  0.803  0.000  0.803
    2  0.000  0.000  0.000  0.001
tot    0.000  0.803  0.000  0.803

band     6 # energy   -1.83446623 # occ.  2.00000000

ion      s      p      d    tot
    1  0.014  0.001  0.003  0.019
    2  0.000  0.479  0.000  0.479
tot    0.015  0.480  0.003  0.498

band     7 # energy   -0.80531132 # occ.  2.00000000

ion      s      p      d    tot
    1  0.000  0.002  0.007  0.009
    2  0.000  0.593  0.000  0.593
tot    0.000  0.595  0.007  0.602

band     8 # energy   -0.80531082 # occ.  2.00000000

ion      s      p      d    tot
    1  0.000  0.002  0.007  0.009
    2  0.000  0.593  0.000  0.593
tot    0.000  0.595  0.007  0.602

band     9 # energy    5.70659380 # occ.  0.00000000

ion      s      p      d    tot
    1  0.000  0.000  0.249  0.249
    2  0.000  0.000  0.005  0.005
tot    0.000  0.000  0.254  0.254

band    10 # energy    7.06317131 # occ.  0.00000000

ion      s      p      d    tot
    1  0.049  0.008  0.110  0.167
    2  0.015  0.169  0.000  0.184
tot    0.064  0.177  0.110  0.351

band    11 # energy    7.52371637 # occ.  0.00000000

ion      s      p      d    tot
    1  0.001  0.114  0.053  0.168
    2  0.052  0.006  0.024  0.081
tot    0.053  0.119  0.077  0.249

band    12 # energy    8.52675094 # occ.  0.00000000

ion      s      p      d    tot
    1  0.000  0.000  0.016  0.016
    2  0.000  0.000  0.096  0.096
tot    0.000  0.000  0.112  0.112

band    13 # energy    8.94249928 # occ.  0.00000000

ion      s      p      d    tot
    1  0.000  0.000  0.342  0.342
    2  0.000  0.067  0.005  0.072
tot    0.000  0.068  0.347  0.414

band    14 # energy    8.94249933 # occ.  0.00000000

ion      s      p      d    tot
    1  0.000  0.000  0.342  0.342
    2  0.000  0.067  0.005  0.072
tot    0.000  0.068  0.347  0.414

band    15 # energy    9.89870881 # occ.  0.00000000

ion      s      p      d    tot
    1  0.000  0.000  0.440  0.440
    2  0.000  0.000  0.006  0.006
tot    0.000  0.000  0.446  0.446

band    16 # energy   11.28274646 # occ.  0.00000000

ion      s      p      d    tot
    1  0.000  0.051  0.009  0.060
    2  0.000  0.007  0.140  0.147
tot    0.000  0.059  0.149  0.207


 k-point     7 :    0.50000000 0.00000000 0.00000000     weight = 0.00173611

band     1 # energy  -20.95630148 # occ.  2.00000000

ion      s      p      d    tot
    1  0.887  0.000  0.000  0.887
    2  0.000  0.000  0.000  0.000
tot    0.887  0.000  0.000  0.887

band     2 # energy  -13.47653579 # occ.  2.00000000

ion      s      p      d    tot
    1  0.000  0.007  0.000  0.007
    2  0.779  0.000  0.000  0.779
tot    0.779  0.007  0.000  0.786

band     3 # energy   -7.52848337 # occ.  2.00000000

ion      s      p      d    tot
    1  0.000  0.740  0.000  0.740
    2  0.024  0.000  0.000  0.024
tot    0.024  0.740  0.000  0.764

band     4 # energy   -7.05257406 # occ.  2.00000000

ion      s      p      d    tot
    1  0.000  0.804  0.000  0.804
    2  0.000  0.000  0.000  0.000
tot    0.000  0.804  0.000  0.805

band     5 # energy   -7.05257350 # occ.  2.00000000

ion      s      p      d    tot
    1  0.000  0.804  0.000  0.804
    2  0.000  0.000  0.000  0.000
tot    0.000  0.804  0.000  0.805

band     6 # energy   -1.90398996 # occ.  2.00000000

ion      s      p      d    tot
    1  0.015  0.000  0.003  0.018
    2  0.000  0.474  0.000  0.474
tot    0.015  0.474  0.003  0.492

band     7 # energy   -0.81916584 # occ.  2.00000000

ion      s      p      d    tot
    1  0.000  0.000  0.008  0.008
    2  0.000  0.592  0.000  0.592
tot    0.000  0.592  0.008  0.600

band     8 # energy   -0.81916534 # occ.  2.00000000

ion      s      p      d    tot
    1  0.000  0.000  0.008  0.008
    2  0.000  0.592  0.000  0.592
tot    0.000  0.592  0.008  0.600

band     9 # energy    5.82116940 # occ.  0.00000000

ion      s      p      d    tot
    1  0.000  0.000  0.264  0.264
    2  0.000  0.000  0.000  0.000
tot    0.000  0.000  0.264  0.264

band    10 # energy    7.27928558 # occ.  0.00000000

ion      s      p      d    tot
    1  0.046  0.000  0.143  0.188
    2  0.000  0.189  0.000  0.189
tot    0.046  0.189  0.143  0.377

band    11 # energy    7.79536788 # occ.  0.00000000

ion      s      p      d    tot
    1  0.000  0.139  0.000  0.139
    2  0.069  0.000  0.024  0.093
tot    0.069  0.139  0.024  0.232

band    12 # energy    8.30869428 # occ.  0.00000000

ion      s      p      d    tot
    1  0.000  0.000  0.000  0.000
    2  0.000  0.000  0.100  0.100
tot    0.000  0.000  0.100  0.100

band    13 # energy    8.95629578 # occ.  0.00000000

ion      s      p      d    tot
    1  0.000  0.000  0.348  0.348
    2  0.000  0.076  0.000  0.076
tot    0.000  0.076  0.348  0.423

band    14 # energy    8.95629584 # occ.  0.00000000

ion      s      p      d    tot
    1  0.000  0.000  0.348  0.348
    2  0.000  0.076  0.000  0.076
tot    0.000  0.076  0.348  0.423

band    15 # energy    9.96687212 # occ.  0.00000000

ion      s      p      d    tot
    1  0.000  0.000  0.453  0.453
    2  0.000  0.000  0.000  0.000
tot    0.000  0.000  0.453  0.453

band    16 # energy   11.11889987 # occ.  0.00000000

ion      s      p      d    tot
    1  0.000  0.052  0.000  0.052
    2  0.000  0.000  0.145  0.145
tot    0.000  0.052  0.145  0.197


 k-point     8 :    0.08333333 0.08333333 0.00000000     weight = 0.00694444

band     1 # energy  -21.00352374 # occ.  2.00000000

ion      s      p      d    tot
    1  0.880  0.000  0.000  0.880
    2  0.001  0.000  0.000  0.001
tot    0.881  0.000  0.000  0.881

band     2 # energy  -13.46116284 # occ.  2.00000000

ion      s      p      d    tot
    1  0.006  0.001  0.000  0.006
    2  0.785  0.000  0.000  0.785
tot    0.791  0.001  0.000  0.792

band     3 # energy   -7.19851774 # occ.  2.00000000

ion      s      p      d    tot
    1  0.000  0.778  0.000  0.778
    2  0.000  0.006  0.000  0.006
tot    0.000  0.785  0.000  0.785

band     4 # energy   -7.15983396 # occ.  2.00000000

ion      s      p      d    tot
    1  0.000  0.784  0.000  0.784
    2  0.003  0.004  0.000  0.007
tot    0.003  0.789  0.000  0.791

band     5 # energy   -7.14318154 # occ.  2.00000000

ion      s      p      d    tot
    1  0.000  0.786  0.000  0.786
    2  0.000  0.005  0.000  0.005
tot    0.000  0.792  0.000  0.792

band     6 # energy   -0.79826225 # occ.  2.00000000

ion      s      p      d    tot
    1  0.003  0.017  0.001  0.021
    2  0.001  0.581  0.000  0.583
tot    0.005  0.598  0.001  0.604

band     7 # energy   -0.67604964 # occ.  2.00000000

ion      s      p      d    tot
    1  0.000  0.030  0.000  0.030
    2  0.000  0.595  0.000  0.595
tot    0.000  0.625  0.001  0.625

band     8 # energy   -0.64405079 # occ.  2.00000000

ion      s      p      d    tot
    1  0.000  0.024  0.001  0.025
    2  0.000  0.603  0.000  0.603
tot    0.000  0.626  0.001  0.627

band     9 # energy    4.91755358 # occ.  0.00000000

ion      s      p      d    tot
    1  0.082  0.010  0.003  0.096
    2  0.082  0.020  0.001  0.103
tot    0.164  0.030  0.004  0.198

band    10 # energy    4.94041854 # occ.  0.00000000

ion      s      p      d    tot
    1  0.001  0.001  0.190  0.191
    2  0.001  0.005  0.022  0.028
tot    0.002  0.006  0.212  0.220

band    11 # energy    5.05687576 # occ.  0.00000000

ion      s      p      d    tot
    1  0.000  0.003  0.191  0.194
    2  0.000  0.009  0.023  0.032
tot    0.000  0.012  0.214  0.226

band    12 # energy    9.02366193 # occ.  0.00000000

ion      s      p      d    tot
    1  0.000  0.000  0.343  0.343
    2  0.000  0.000  0.042  0.042
tot    0.000  0.000  0.385  0.385

band    13 # energy    9.11337149 # occ.  0.00000000

ion      s      p      d    tot
    1  0.000  0.000  0.343  0.343
    2  0.000  0.009  0.038  0.047
tot    0.000  0.010  0.381  0.391

band    14 # energy    9.40967462 # occ.  0.00000000

ion      s      p      d    tot
    1  0.000  0.000  0.378  0.378
    2  0.000  0.008  0.034  0.042
tot    0.000  0.008  0.411  0.420

band    15 # energy   11.60867573 # occ.  0.00000000

ion      s      p      d    tot
    1  0.000  0.000  0.129  0.129
    2  0.000  0.000  0.111  0.111
tot    0.000  0.000  0.239  0.240

band    16 # energy   12.01731619 # occ.  0.00000000

ion      s      p      d    tot
    1  0.000  0.000  0.132  0.132
    2  0.000  0.003  0.121  0.125
tot    0.000  0.003  0.253  0.256


 k-point     9 :    0.16666667 0.08333333 0.00000000     weight = 0.01388889

band     1 # energy  -20.99389967 # occ.  2.00000000

ion      s      p      d    tot
    1  0.881  0.000  0.000  0.881
    2  0.001  0.000  0.000  0.001
tot    0.882  0.000  0.000  0.882

band     2 # energy  -13.46214199 # occ.  2.00000000

ion      s      p      d    tot
    1  0.005  0.002  0.000  0.006
    2  0.785  0.000  0.000  0.785
tot    0.789  0.002  0.000  0.791

band     3 # energy   -7.26787383 # occ.  2.00000000

ion      s      p      d    tot
    1  0.000  0.770  0.000  0.770
    2  0.003  0.005  0.000  0.009
tot    0.003  0.775  0.000  0.779

band     4 # energy   -7.15351594 # occ.  2.00000000

ion      s      p      d    tot
    1  0.000  0.786  0.000  0.786
    2  0.003  0.003  0.000  0.006
tot    0.003  0.789  0.000  0.793

band     5 # energy   -7.12507117 # occ.  2.00000000

ion      s      p      d    tot
    1  0.000  0.790  0.000  0.790
    2  0.000  0.004  0.000  0.004
tot    0.000  0.794  0.000  0.794

band     6 # energy   -1.03453048 # occ.  2.00000000

ion      s      p      d    tot
    1  0.006  0.012  0.002  0.020
    2  0.002  0.552  0.000  0.555
tot    0.009  0.564  0.002  0.575

band     7 # energy   -0.71937248 # occ.  2.00000000

ion      s      p      d    tot
    1  0.000  0.027  0.002  0.029
    2  0.000  0.591  0.000  0.591
tot    0.000  0.618  0.002  0.620

band     8 # energy   -0.67460975 # occ.  2.00000000

ion      s      p      d    tot
    1  0.000  0.019  0.002  0.021
    2  0.000  0.601  0.000  0.601
tot    0.000  0.620  0.002  0.623

band     9 # energy    5.09150072 # occ.  0.00000000

ion      s      p      d    tot
    1  0.000  0.002  0.197  0.199
    2  0.000  0.004  0.021  0.025
tot    0.000  0.006  0.218  0.224

band    10 # energy    5.33925460 # occ.  0.00000000

ion      s      p      d    tot
    1  0.077  0.020  0.003  0.101
    2  0.077  0.042  0.001  0.120
tot    0.154  0.062  0.004  0.221

band    11 # energy    5.48609810 # occ.  0.00000000

ion      s      p      d    tot
    1  0.000  0.009  0.193  0.202
    2  0.000  0.022  0.022  0.044
tot    0.000  0.031  0.215  0.246

band    12 # energy    8.84478424 # occ.  0.00000000

ion      s      p      d    tot
    1  0.000  0.000  0.327  0.327
    2  0.000  0.004  0.041  0.044
tot    0.000  0.004  0.368  0.372

band    13 # energy    8.96333472 # occ.  0.00000000

ion      s      p      d    tot
    1  0.001  0.001  0.314  0.316
    2  0.000  0.024  0.033  0.057
tot    0.001  0.025  0.347  0.373

band    14 # energy    9.55710365 # occ.  0.00000000

ion      s      p      d    tot
    1  0.000  0.000  0.394  0.394
    2  0.000  0.017  0.023  0.040
tot    0.000  0.017  0.417  0.434

band    15 # energy   10.94445962 # occ.  0.00000000

ion      s      p      d    tot
    1  0.000  0.000  0.118  0.119
    2  0.000  0.000  0.095  0.095
tot    0.000  0.001  0.213  0.214

band    16 # energy   12.26092157 # occ.  0.00000000

ion      s      p      d    tot
    1  0.000  0.001  0.142  0.143
    2  0.000  0.010  0.118  0.129
tot    0.000  0.012  0.260  0.272


 k-point    10 :    0.25000000 0.08333333 0.00000000     weight = 0.01388889

band     1 # energy  -20.98041470 # occ.  2.00000000

ion      s      p      d    tot
    1  0.883  0.000  0.000  0.883
    2  0.001  0.000  0.000  0.001
tot    0.884  0.000  0.000  0.884

band     2 # energy  -13.46384909 # occ.  2.00000000

ion      s      p      d    tot
    1  0.003  0.003  0.000  0.006
    2  0.783  0.000  0.000  0.783
tot    0.787  0.003  0.000  0.790

band     3 # energy   -7.36440650 # occ.  2.00000000

ion      s      p      d    tot
    1  0.000  0.758  0.000  0.758
    2  0.009  0.004  0.000  0.013
tot    0.009  0.762  0.000  0.772

band     4 # energy   -7.13741432 # occ.  2.00000000

ion      s      p      d    tot
    1  0.000  0.789  0.000  0.790
    2  0.002  0.003  0.000  0.005
tot    0.002  0.792  0.000  0.794

band     5 # energy   -7.09990158 # occ.  2.00000000

ion      s      p      d    tot
    1  0.000  0.795  0.000  0.795
    2  0.000  0.003  0.000  0.003
tot    0.000  0.797  0.000  0.798

band     6 # energy   -1.33619060 # occ.  2.00000000

ion      s      p      d    tot
    1  0.010  0.009  0.002  0.021
    2  0.002  0.520  0.000  0.523
tot    0.012  0.530  0.002  0.544

band     7 # energy   -0.76244083 # occ.  2.00000000

ion      s      p      d    tot
    1  0.000  0.020  0.003  0.023
    2  0.000  0.590  0.000  0.590
tot    0.000  0.609  0.003  0.613

band     8 # energy   -0.71739108 # occ.  2.00000000

ion      s      p      d    tot
    1  0.000  0.013  0.004  0.017
    2  0.000  0.599  0.000  0.599
tot    0.000  0.612  0.004  0.616

band     9 # energy    5.29774041 # occ.  0.00000000

ion      s      p      d    tot
    1  0.000  0.002  0.208  0.210
    2  0.000  0.004  0.018  0.022
tot    0.000  0.006  0.226  0.231

band    10 # energy    5.91119802 # occ.  0.00000000

ion      s      p      d    tot
    1  0.067  0.026  0.019  0.113
    2  0.065  0.073  0.001  0.139
tot    0.132  0.099  0.020  0.251
