<?xml version="1.0" encoding="ISO-8859-1"?>
<modeling>
 <generator>
  <i name="program" type="string">vasp </i>
  <i name="version" type="string">5.4.4.18Apr17-6-g9f103f2a35  </i>
  <i name="subversion" type="string">(build Jun 22 2020 09:27:21) complex            parallel </i>
  <i name="platform" type="string">tx2_gcc-7.3_libsci-18.07_cray-fftw-3.3.8 </i>
  <i name="date" type="string">2021 09 09 </i>
  <i name="time" type="string">19:53:04 </i>
 </generator>
 <incar>
  <i type="string" name="SYSTEM"> CsPbBr3 cubic bulk</i>
  <i type="string" name="PREC">accurate</i>
  <i type="string" name="ALGO"> Normal   ! Electronic minimisation algo</i>
  <i type="logical" name="ADDGRID"> T  </i>
  <i type="int" name="NELM">   200</i>
  <i type="int" name="IBRION">     2</i>
  <i name="EDIFF">      0.00000100</i>
  <i name="EDIFFG">     -0.01000000</i>
  <i type="int" name="NSW">     0</i>
  <i type="int" name="ISIF">     3</i>
  <i type="int" name="ISYM">     2</i>
  <i name="ENCUT">    300.00000000</i>
  <i name="POTIM">      0.50000000</i>
  <i type="string" name="LREAL"> AUTO</i>
  <i type="int" name="ISMEAR">     0</i>
  <i name="SIGMA">      0.01000000</i>
  <i name="PSTRESS">      0.00000000</i>
  <i type="logical" name="LWAVE"> F  </i>
  <i type="logical" name="LCHARG"> F  </i>
  <i type="logical" name="LVHAR"> T  </i>
  <i type="int" name="LORBIT">    10</i>
  <i type="logical" name="LASPH"> T  </i>
  <v type="int" name="KPOINT_BSE">    -1     0     0     0</v>
  <i type="int" name="NELM">   200</i>
  <i type="string" name="METAGGA"> SCAN       ! PBE exchange-correlation</i>
  <i type="logical" name="LASPH"> T  </i>
 </incar>
 <structure name="primitive_cell" >
  <crystal>
   <varray name="basis" >
    <v>       4.30097408      -0.00000000       0.00000000 </v>
    <v>       0.00000000       4.30097408      -0.00000000 </v>
    <v>       0.00000000       0.00000000       4.30097408 </v>
   </varray>
   <i name="volume">     79.56104445 </i>
   <varray name="rec_basis" >
    <v>       0.23250547      -0.00000000       0.00000000 </v>
    <v>       0.00000000       0.23250547      -0.00000000 </v>
    <v>       0.00000000       0.00000000       0.23250547 </v>
   </varray>
  </crystal>
  <varray name="positions" >
   <v>       0.00000000       0.00000000       0.00000000 </v>
   <v>      -0.50000000      -0.50000000      -0.50000000 </v>
  </varray>
 </structure>
 <varray name="primitive_index" >
  <v type="int" >        1 </v>
  <v type="int" >        2 </v>
 </varray>
 <kpoints>
  <generation param="Gamma">
   <v type="int" name="divisions">      12       12       12 </v>
   <v name="usershift">      0.00000000       0.00000000       0.00000000 </v>
   <v name="genvec1">      0.08333333       0.00000000       0.00000000 </v>
   <v name="genvec2">      0.00000000       0.08333333       0.00000000 </v>
   <v name="genvec3">      0.00000000       0.00000000       0.08333333 </v>
   <v name="shift">      0.00000000       0.00000000       0.00000000 </v>
  </generation>
  <varray name="kpointlist" >
   <v>       0.00000000       0.00000000       0.00000000 </v>
   <v>       0.08333333       0.00000000       0.00000000 </v>
   <v>       0.16666667       0.00000000       0.00000000 </v>
   <v>       0.25000000       0.00000000       0.00000000 </v>
   <v>       0.33333333       0.00000000       0.00000000 </v>
   <v>       0.41666667       0.00000000       0.00000000 </v>
   <v>       0.50000000       0.00000000       0.00000000 </v>
   <v>       0.08333333       0.08333333       0.00000000 </v>
   <v>       0.16666667       0.08333333       0.00000000 </v>
   <v>       0.25000000       0.08333333       0.00000000 </v>
   <v>       0.33333333       0.08333333       0.00000000 </v>
   <v>       0.41666667       0.08333333       0.00000000 </v>
   <v>       0.50000000       0.08333333       0.00000000 </v>
   <v>       0.16666667       0.16666667       0.00000000 </v>
   <v>       0.25000000       0.16666667       0.00000000 </v>
   <v>       0.33333333       0.16666667       0.00000000 </v>
   <v>       0.41666667       0.16666667       0.00000000 </v>
   <v>       0.50000000       0.16666667       0.00000000 </v>
   <v>       0.25000000       0.25000000       0.00000000 </v>
   <v>       0.33333333       0.25000000       0.00000000 </v>
   <v>       0.41666667       0.25000000       0.00000000 </v>
   <v>       0.50000000       0.25000000       0.00000000 </v>
   <v>       0.33333333       0.33333333       0.00000000 </v>
   <v>       0.41666667       0.33333333       0.00000000 </v>
   <v>       0.50000000       0.33333333       0.00000000 </v>
   <v>       0.41666667       0.41666667       0.00000000 </v>
   <v>       0.50000000       0.41666667       0.00000000 </v>
   <v>       0.50000000       0.50000000       0.00000000 </v>
   <v>       0.08333333       0.08333333       0.08333333 </v>
   <v>       0.16666667       0.08333333       0.08333333 </v>
   <v>       0.25000000       0.08333333       0.08333333 </v>
   <v>       0.33333333       0.08333333       0.08333333 </v>
   <v>       0.41666667       0.08333333       0.08333333 </v>
   <v>       0.50000000       0.08333333       0.08333333 </v>
   <v>       0.16666667       0.16666667       0.08333333 </v>
   <v>       0.25000000       0.16666667       0.08333333 </v>
   <v>       0.33333333       0.16666667       0.08333333 </v>
   <v>       0.41666667       0.16666667       0.08333333 </v>
   <v>       0.50000000       0.16666667       0.08333333 </v>
   <v>       0.25000000       0.25000000       0.08333333 </v>
   <v>       0.33333333       0.25000000       0.08333333 </v>
   <v>       0.41666667       0.25000000       0.08333333 </v>
   <v>       0.50000000       0.25000000       0.08333333 </v>
   <v>       0.33333333       0.33333333       0.08333333 </v>
   <v>       0.41666667       0.33333333       0.08333333 </v>
   <v>       0.50000000       0.33333333       0.08333333 </v>
   <v>       0.41666667       0.41666667       0.08333333 </v>
   <v>       0.50000000       0.41666667       0.08333333 </v>
   <v>       0.50000000       0.50000000       0.08333333 </v>
   <v>       0.16666667       0.16666667       0.16666667 </v>
   <v>       0.25000000       0.16666667       0.16666667 </v>
   <v>       0.33333333       0.16666667       0.16666667 </v>
   <v>       0.41666667       0.16666667       0.16666667 </v>
   <v>       0.50000000       0.16666667       0.16666667 </v>
   <v>       0.25000000       0.25000000       0.16666667 </v>
   <v>       0.33333333       0.25000000       0.16666667 </v>
   <v>       0.41666667       0.25000000       0.16666667 </v>
   <v>       0.50000000       0.25000000       0.16666667 </v>
   <v>       0.33333333       0.33333333       0.16666667 </v>
   <v>       0.41666667       0.33333333       0.16666667 </v>
   <v>       0.50000000       0.33333333       0.16666667 </v>
   <v>       0.41666667       0.41666667       0.16666667 </v>
   <v>       0.50000000       0.41666667       0.16666667 </v>
   <v>       0.50000000       0.50000000       0.16666667 </v>
   <v>       0.25000000       0.25000000       0.25000000 </v>
   <v>       0.33333333       0.25000000       0.25000000 </v>
   <v>       0.41666667       0.25000000       0.25000000 </v>
   <v>       0.50000000       0.25000000       0.25000000 </v>
   <v>       0.33333333       0.33333333       0.25000000 </v>
   <v>       0.41666667       0.33333333       0.25000000 </v>
   <v>       0.50000000       0.33333333       0.25000000 </v>
   <v>       0.41666667       0.41666667       0.25000000 </v>
   <v>       0.50000000       0.41666667       0.25000000 </v>
   <v>       0.50000000       0.50000000       0.25000000 </v>
   <v>       0.33333333       0.33333333       0.33333333 </v>
   <v>       0.41666667       0.33333333       0.33333333 </v>
   <v>       0.50000000       0.33333333       0.33333333 </v>
   <v>       0.41666667       0.41666667       0.33333333 </v>
   <v>       0.50000000       0.41666667       0.33333333 </v>
   <v>       0.50000000       0.50000000       0.33333333 </v>
   <v>       0.41666667       0.41666667       0.41666667 </v>
   <v>       0.50000000       0.41666667       0.41666667 </v>
   <v>       0.50000000       0.50000000       0.41666667 </v>
   <v>       0.50000000       0.50000000       0.50000000 </v>
  </varray>
  <varray name="weights" >
   <v>       0.00057870 </v>
   <v>       0.00347222 </v>
   <v>       0.00347222 </v>
   <v>       0.00347222 </v>
   <v>       0.00347222 </v>
   <v>       0.00347222 </v>
   <v>       0.00173611 </v>
   <v>       0.00694444 </v>
   <v>       0.01388889 </v>
   <v>       0.01388889 </v>
   <v>       0.01388889 </v>
   <v>       0.01388889 </v>
   <v>       0.00694444 </v>
   <v>       0.00694444 </v>
   <v>       0.01388889 </v>
   <v>       0.01388889 </v>
   <v>       0.01388889 </v>
   <v>       0.00694444 </v>
   <v>       0.00694444 </v>
   <v>       0.01388889 </v>
   <v>       0.01388889 </v>
   <v>       0.00694444 </v>
   <v>       0.00694444 </v>
   <v>       0.01388889 </v>
   <v>       0.00694444 </v>
   <v>       0.00694444 </v>
   <v>       0.00694444 </v>
   <v>       0.00173611 </v>
   <v>       0.00462963 </v>
   <v>       0.01388889 </v>
   <v>       0.01388889 </v>
   <v>       0.01388889 </v>
   <v>       0.01388889 </v>
   <v>       0.00694444 </v>
   <v>       0.01388889 </v>
   <v>       0.02777778 </v>
   <v>       0.02777778 </v>
   <v>       0.02777778 </v>
   <v>       0.01388889 </v>
   <v>       0.01388889 </v>
   <v>       0.02777778 </v>
   <v>       0.02777778 </v>
   <v>       0.01388889 </v>
   <v>       0.01388889 </v>
   <v>       0.02777778 </v>
   <v>       0.01388889 </v>
   <v>       0.01388889 </v>
   <v>       0.01388889 </v>
   <v>       0.00347222 </v>
   <v>       0.00462963 </v>
   <v>       0.01388889 </v>
   <v>       0.01388889 </v>
   <v>       0.01388889 </v>
   <v>       0.00694444 </v>
   <v>       0.01388889 </v>
   <v>       0.02777778 </v>
   <v>       0.02777778 </v>
   <v>       0.01388889 </v>
   <v>       0.01388889 </v>
   <v>       0.02777778 </v>
   <v>       0.01388889 </v>
   <v>       0.01388889 </v>
   <v>       0.01388889 </v>
   <v>       0.00347222 </v>
   <v>       0.00462963 </v>
   <v>       0.01388889 </v>
   <v>       0.01388889 </v>
   <v>       0.00694444 </v>
   <v>       0.01388889 </v>
   <v>       0.02777778 </v>
   <v>       0.01388889 </v>
   <v>       0.01388889 </v>
   <v>       0.01388889 </v>
   <v>       0.00347222 </v>
   <v>       0.00462963 </v>
   <v>       0.01388889 </v>
   <v>       0.00694444 </v>
   <v>       0.01388889 </v>
   <v>       0.01388889 </v>
   <v>       0.00347222 </v>
   <v>       0.00462963 </v>
   <v>       0.00694444 </v>
   <v>       0.00347222 </v>
   <v>       0.00057870 </v>
  </varray>
 </kpoints>
 <parameters>
  <separator name="general" >
   <i type="string" name="SYSTEM">CsPbBr3 cubic bulk</i>
   <i type="logical" name="LCOMPAT"> F  </i>
  </separator>
  <separator name="electronic" >
   <i type="string" name="PREC">accura</i>
   <i name="ENMAX">    300.00000000</i>
   <i name="ENAUG">    503.85200000</i>
   <i name="EDIFF">      0.00000100</i>
   <i type="int" name="IALGO">    38</i>
   <i type="int" name="IWAVPR">    10</i>
   <i type="int" name="NBANDS">    16</i>
   <i name="NELECT">     16.00000000</i>
   <i type="int" name="TURBO">     0</i>
   <i type="int" name="IRESTART">     0</i>
   <i type="int" name="NREBOOT">     0</i>
   <i type="int" name="NMIN">     0</i>
   <i name="EREF">      0.00000000</i>
   <separator name="electronic smearing" >
    <i type="int" name="ISMEAR">     0</i>
    <i name="SIGMA">      0.01000000</i>
    <i name="KSPACING">      0.50000000</i>
    <i type="logical" name="KGAMMA"> T  </i>
   </separator>
   <separator name="electronic projectors" >
    <i type="logical" name="LREAL"> T  </i>
    <v name="ROPT">     -0.00025000     -0.00025000</v>
    <i type="int" name="LMAXPAW">  -100</i>
    <i type="int" name="LMAXMIX">     2</i>
    <i type="logical" name="NLSPLINE"> F  </i>
   </separator>
   <separator name="electronic startup" >
    <i type="int" name="ISTART">     0</i>
    <i type="int" name="ICHARG">     2</i>
    <i type="int" name="INIWAV">     1</i>
   </separator>
   <separator name="electronic spin" >
    <i type="int" name="ISPIN">     1</i>
    <i type="logical" name="LNONCOLLINEAR"> F  </i>
    <v name="MAGMOM">      1.00000000      1.00000000</v>
    <i name="NUPDOWN">     -1.00000000</i>
    <i type="logical" name="LSORBIT"> F  </i>
    <v name="SAXIS">      0.00000000      0.00000000      1.00000000</v>
    <i type="logical" name="LSPIRAL"> F  </i>
    <v name="QSPIRAL">      0.00000000      0.00000000      0.00000000</v>
    <i type="logical" name="LZEROZ"> F  </i>
   </separator>
   <separator name="electronic exchange-correlation" >
    <i type="logical" name="LASPH"> T  </i>
    <i type="logical" name="LMETAGGA"> F  </i>
   </separator>
   <separator name="electronic convergence" >
    <i type="int" name="NELM">   200</i>
    <i type="int" name="NELMDL">    -5</i>
    <i type="int" name="NELMIN">     2</i>
    <i name="ENINI">    300.00000000</i>
    <separator name="electronic convergence detail" >
     <i type="logical" name="LDIAG"> T  </i>
     <i type="logical" name="LSUBROT"> F  </i>
     <i name="WEIMIN">      0.00000000</i>
     <i name="EBREAK">      0.00000002</i>
     <i name="DEPER">      0.30000000</i>
     <i type="int" name="NRMM">     4</i>
     <i name="TIME">      0.40000000</i>
    </separator>
   </separator>
   <separator name="electronic mixer" >
    <i name="AMIX">      0.40000000</i>
    <i name="BMIX">      1.00000000</i>
    <i name="AMIN">      0.10000000</i>
    <i name="AMIX_MAG">      1.60000000</i>
    <i name="BMIX_MAG">      1.00000000</i>
    <separator name="electronic mixer details" >
     <i type="int" name="IMIX">     4</i>
     <i type="logical" name="MIXFIRST"> F  </i>
     <i type="int" name="MAXMIX">   -45</i>
     <i name="WC">    100.00000000</i>
     <i type="int" name="INIMIX">     1</i>
     <i type="int" name="MIXPRE">     1</i>
     <i type="int" name="MREMOVE">     5</i>
    </separator>
   </separator>
   <separator name="electronic dipolcorrection" >
    <i type="logical" name="LDIPOL"> F  </i>
    <i type="logical" name="LMONO"> F  </i>
    <i type="int" name="IDIPOL">     0</i>
    <i name="EPSILON">      1.00000000</i>
    <v name="DIPOL">   -100.00000000   -100.00000000   -100.00000000</v>
    <i name="EFIELD">      0.00000000</i>
   </separator>
  </separator>
  <separator name="grids" >
   <i type="int" name="NGX">    24</i>
   <i type="int" name="NGY">    24</i>
   <i type="int" name="NGZ">    24</i>
   <i type="int" name="NGXF">    48</i>
   <i type="int" name="NGYF">    48</i>
   <i type="int" name="NGZF">    48</i>
   <i type="logical" name="ADDGRID"> T  </i>
  </separator>
  <separator name="ionic" >
   <i type="int" name="NSW">     0</i>
   <i type="int" name="IBRION">    -1</i>
   <i type="int" name="MDALGO">     0</i>
   <i type="int" name="ISIF">     3</i>
   <i name="PSTRESS">      0.00000000</i>
   <i name="EDIFFG">     -0.01000000</i>
   <i type="int" name="NFREE">     1</i>
   <i name="POTIM">      0.50000000</i>
   <i name="SMASS">     -3.00000000</i>
   <i name="SCALEE">      1.00000000</i>
  </separator>
  <separator name="ionic md" >
   <i name="TEBEG">      0.00010000</i>
   <i name="TEEND">      0.00010000</i>
   <i type="int" name="NBLOCK">     1</i>
   <i type="int" name="KBLOCK">     1</i>
   <i type="int" name="NPACO">   256</i>
   <i name="APACO">     16.00000000</i>
  </separator>
  <separator name="symmetry" >
   <i type="int" name="ISYM">     2</i>
   <i name="SYMPREC">      0.00001000</i>
  </separator>
  <separator name="dos" >
   <i type="int" name="LORBIT">    10</i>
   <v name="RWIGS">     -1.00000000     -1.00000000</v>
   <i type="int" name="NEDOS">   301</i>
   <i name="EMIN">     10.00000000</i>
   <i name="EMAX">    -10.00000000</i>
   <i name="EFERMI">      0.00000000</i>
  </separator>
  <separator name="writing" >
   <i type="int" name="NWRITE">     2</i>
   <i type="logical" name="LWAVE"> F  </i>
   <i type="logical" name="LDOWNSAMPLE"> F  </i>
   <i type="logical" name="LCHARG"> F  </i>
   <i type="logical" name="LPARD"> F  </i>
   <i type="logical" name="LVTOT"> F  </i>
   <i type="logical" name="LVHAR"> T  </i>
   <i type="logical" name="LELF"> F  </i>
   <i type="logical" name="LOPTICS"> F  </i>
   <v name="STM">      0.00000000      0.00000000      0.00000000      0.00000000      0.00000000      0.00000000      0.00000000</v>
  </separator>
  <separator name="performance" >
   <i type="int" name="NPAR">     8</i>
   <i type="int" name="NSIM">     4</i>
   <i type="int" name="NBLK">    -1</i>
   <i type="logical" name="LPLANE"> T  </i>
   <i type="logical" name="LSCALAPACK"> T  </i>
   <i type="logical" name="LSCAAWARE"> F  </i>
   <i type="logical" name="LSCALU"> F  </i>
   <i type="logical" name="LASYNC"> F  </i>
   <i type="logical" name="LORBITALREAL"> F  </i>
  </separator>
  <separator name="miscellaneous" >
   <i type="int" name="IDIOT">     3</i>
   <i type="int" name="ISPECIAL">     0</i>
   <i type="logical" name="LMUSIC"> F  </i>
   <v name="POMASS">    132.90000000     79.90400000</v>
   <v name="DARWINR">      0.00000000      0.00000000</v>
   <v name="DARWINV">      1.00000000      1.00000000</v>
   <i type="logical" name="LCORR"> T  </i>
  </separator>
  <i type="logical" name="GGA_COMPAT"> T  </i>
  <i type="logical" name="LBERRY"> F  </i>
  <i type="int" name="ICORELEVEL">     0</i>
  <i type="logical" name="LDAU"> F  </i>
  <i type="int" name="I_CONSTRAINED_M">     0</i>
  <separator name="electronic exchange-correlation" >
   <i type="string" name="GGA">--</i>
   <i type="int" name="VOSKOWN">     0</i>
   <i type="logical" name="LHFCALC"> F  </i>
   <i type="string" name="PRECFOCK"></i>
   <i type="logical" name="LSYMGRAD"> F  </i>
   <i type="logical" name="LHFONE"> F  </i>
   <i type="logical" name="LRHFCALC"> F  </i>
   <i type="logical" name="LTHOMAS"> F  </i>
   <i type="logical" name="LMODELHF"> F  </i>
   <i name="ENCUT4O">     -1.00000000</i>
   <i type="int" name="EXXOEP">     0</i>
   <i type="int" name="FOURORBIT">     0</i>
   <i name="AEXX">      0.00000000</i>
   <i name="HFALPHA">      0.00000000</i>
   <i name="MCALPHA">      0.00000000</i>
   <i name="ALDAX">      1.00000000</i>
   <i name="AGGAX">      1.00000000</i>
   <i name="ALDAC">      1.00000000</i>
   <i name="AGGAC">      1.00000000</i>
   <i type="int" name="NKREDX">     1</i>
   <i type="int" name="NKREDY">     1</i>
   <i type="int" name="NKREDZ">     1</i>
   <i type="logical" name="SHIFTRED"> F  </i>
   <i type="logical" name="ODDONLY"> F  </i>
   <i type="logical" name="EVENONLY"> F  </i>
   <i type="int" name="LMAXFOCK">     0</i>
   <i type="int" name="NMAXFOCKAE">     0</i>
   <i type="logical" name="LFOCKAEDFT"> F  </i>
   <i name="HFSCREEN">      0.00000000</i>
   <i name="HFSCREENC">      0.00000000</i>
   <i type="int" name="NBANDSGWLOW">     0</i>
  </separator>
  <separator name="vdW DFT" >
   <i type="logical" name="LUSE_VDW"> F  </i>
   <i name="Zab_VDW">     -0.84910000</i>
   <i name="PARAM1">      0.12340000</i>
   <i name="PARAM2">      1.00000000</i>
   <i name="PARAM3">      0.00000000</i>
  </separator>
  <separator name="model GW" >
   <i type="int" name="MODEL_GW">     0</i>
   <i name="MODEL_EPS0">     23.86831333</i>
   <i name="MODEL_ALPHA">      1.00000000</i>
  </separator>
  <separator name="linear response parameters" >
   <i type="logical" name="LEPSILON"> F  </i>
   <i type="logical" name="LRPA"> F  </i>
   <i type="logical" name="LNABLA"> F  </i>
   <i type="logical" name="LVEL"> F  </i>
   <i type="int" name="KINTER">     0</i>
   <i name="CSHIFT">      0.10000000</i>
   <i name="OMEGAMAX">     -1.00000000</i>
   <i name="DEG_THRESHOLD">      0.00200000</i>
   <i name="RTIME">     -0.10000000</i>
   <i name="WPLASMAI">      0.00000000</i>
   <v name="DFIELD">      0.00000000      0.00000000      0.00000000</v>
   <v name="WPLASMA">      0.00000000      0.00000000      0.00000000      0.00000000      0.00000000      0.00000000      0.00000000      0.00000000      0.00000000</v>
  </separator>
  <separator name="orbital magnetization" >
   <i type="logical" name="NUCIND"> F  </i>
   <v name="MAGPOS">      0.00000000      0.00000000      0.00000000</v>
   <i type="logical" name="LNICSALL"> T  </i>
   <i type="logical" name="ORBITALMAG"> F  </i>
   <i type="logical" name="LMAGBLOCH"> F  </i>
   <i type="logical" name="LCHIMAG"> F  </i>
   <i type="logical" name="LGAUGE"> T  </i>
   <i type="int" name="MAGATOM">     0</i>
   <v name="MAGDIPOL">      0.00000000      0.00000000      0.00000000</v>
   <v name="AVECCONST">      0.00000000      0.00000000      0.00000000</v>
  </separator>
  <separator name="response functions" >
   <i type="logical" name="LADDER"> F  </i>
   <i type="logical" name="LRPAFORCE"> F  </i>
   <i type="logical" name="LFXC"> F  </i>
   <i type="logical" name="LHARTREE"> T  </i>
   <i type="int" name="IBSE">     0</i>
   <v type="int" name="KPOINT">    -1     0     0     0</v>
   <i type="logical" name="LTCTE"> F  </i>
   <i type="logical" name="LTETE"> F  </i>
   <i type="logical" name="LTRIPLET"> F  </i>
   <i type="logical" name="LFXCEPS"> F  </i>
   <i type="logical" name="LFXHEG"> F  </i>
   <i type="int" name="NATURALO">     2</i>
   <i type="logical" name="L2ORDER"> F  </i>
   <i type="logical" name="LMP2LT"> F  </i>
   <i type="logical" name="LUSEW"> F  </i>
   <i name="ENCUTGW">     -2.00000000</i>
   <i name="ENCUTGWSOFT">     -2.00000000</i>
   <i name="ENCUTLF">     -1.00000000</i>
   <i type="int" name="LMAXMP2">    -1</i>
   <i name="SCISSOR">      0.00000000</i>
   <i type="int" name="NOMEGA">     0</i>
   <i type="int" name="NOMEGAR">     0</i>
   <i type="int" name="NBANDSGW">    -1</i>
   <i type="int" name="NBANDSO">    -1</i>
   <i type="int" name="NBANDSV">    -1</i>
   <i type="int" name="NELM">   200</i>
   <i type="int" name="NELMHF">     1</i>
   <i type="int" name="DIM">     3</i>
   <i type="int" name="ANTIRES">     0</i>
   <i name="OMEGAMAX">    -30.00000000</i>
   <i name="OMEGAMIN">    -30.00000000</i>
   <i name="OMEGATL">   -200.00000000</i>
   <i type="int" name="OMEGAGRID">   140</i>
   <i name="CSHIFT">     -0.10000000</i>
   <i type="logical" name="SELFENERGY"> F  </i>
   <i type="logical" name="LSPECTRAL"> F  </i>
   <i type="logical" name="LSPECTRALGW"> F  </i>
   <i type="logical" name="LSINGLES"> F  </i>
   <i type="logical" name="LFERMIGW"> F  </i>
   <i type="logical" name="ODDONLYGW"> F  </i>
   <i type="logical" name="EVENONLYGW"> F  </i>
   <i type="int" name="NKREDLFX">     1</i>
   <i type="int" name="NKREDLFY">     1</i>
   <i type="int" name="NKREDLFZ">     1</i>
   <i type="int" name="MAXMEM">  2800</i>
   <i type="int" name="TELESCOPE">     0</i>
   <i type="int" name="TAUPAR">     1</i>
   <i type="int" name="OMEGAPAR">    -1</i>
   <i name="LAMBDA">      1.00000000</i>
  </separator>
  <separator name="External order field" >
   <i name="OFIELD_KAPPA">      0.00000000</i>
   <v name="OFIELD_K">      0.00000000      0.00000000      0.00000000</v>
   <i name="OFIELD_Q6_NEAR">      0.00000000</i>
   <i name="OFIELD_Q6_FAR">      0.00000000</i>
   <i name="OFIELD_A">      0.00000000</i>
  </separator>
 </parameters>
 <atominfo>
  <atoms>       2 </atoms>
  <types>       2 </types>
  <array name="atoms" >
   <dimension dim="1">ion</dimension>
   <field type="string">element</field>
   <field type="int">atomtype</field>
   <set>
    <rc><c>Cs</c><c>   1</c></rc>
    <rc><c>Br</c><c>   2</c></rc>
   </set>
  </array>
  <array name="atomtypes" >
   <dimension dim="1">type</dimension>
   <field type="int">atomspertype</field>
   <field type="string">element</field>
   <field>mass</field>
   <field>valence</field>
   <field type="string">pseudopotential</field>
   <set>
    <rc><c>   1</c><c>Cs</c><c>    132.90000000</c><c>      9.00000000</c><c>  PAW_PBE Cs_sv 08Apr2002               </c></rc>
    <rc><c>   1</c><c>Br</c><c>     79.90400000</c><c>      7.00000000</c><c>  PAW_PBE Br 06Sep2000                  </c></rc>
   </set>
  </array>
 </atominfo>
 <structure name="initialpos" >
  <crystal>
   <varray name="basis" >
    <v>       4.30097408      -0.00000000       0.00000000 </v>
    <v>       0.00000000       4.30097408      -0.00000000 </v>
    <v>       0.00000000       0.00000000       4.30097408 </v>
   </varray>
   <i name="volume">     79.56104445 </i>
   <varray name="rec_basis" >
    <v>       0.23250547      -0.00000000       0.00000000 </v>
    <v>       0.00000000       0.23250547      -0.00000000 </v>
    <v>       0.00000000       0.00000000       0.23250547 </v>
   </varray>
  </crystal>
  <varray name="positions" >
   <v>       0.00000000       0.00000000       0.00000000 </v>
   <v>       0.50000000       0.50000000       0.50000000 </v>
  </varray>
 </structure>
 <calculation>
  <scstep>
   <time name="dav">    1.44    1.44</time>
   <time name="total">    2.58    2.60</time>
   <energy>
    <i name="alphaZ">     53.27869122 </i>
    <i name="ewald">   -786.60710445 </i>
    <i name="hartreedc">   -116.77085809 </i>
    <i name="XCdc">     34.77053099 </i>
    <i name="pawpsdc">    705.56938342 </i>
    <i name="pawaedc">   -752.39983350 </i>
    <i name="eentropy">     -0.00003372 </i>
    <i name="bandstr">    -54.23493566 </i>
    <i name="atom">    924.11815769 </i>
    <i name="e_fr_energy">      7.72399789 </i>
    <i name="e_wo_entrp">      7.72403161 </i>
    <i name="e_0_energy">      7.72401475 </i>
   </energy>
  </scstep>
  <scstep>
   <time name="dav">    1.89    1.92</time>
   <time name="total">    1.89    1.93</time>
   <energy>
    <i name="e_fr_energy">    -60.28647554 </i>
    <i name="e_wo_entrp">    -60.28647554 </i>
    <i name="e_0_energy">    -60.28647554 </i>
   </energy>
  </scstep>
  <scstep>
   <time name="dav">    1.65    1.68</time>
   <time name="total">    1.65    1.68</time>
   <energy>
    <i name="e_fr_energy">    -64.64347548 </i>
    <i name="e_wo_entrp">    -64.64347548 </i>
    <i name="e_0_energy">    -64.64347548 </i>
   </energy>
  </scstep>
  <scstep>
   <time name="dav">    1.79    1.83</time>
   <time name="total">    1.79    1.83</time>
   <energy>
    <i name="e_fr_energy">    -64.66952192 </i>
    <i name="e_wo_entrp">    -64.66952192 </i>
    <i name="e_0_energy">    -64.66952192 </i>
   </energy>
  </scstep>
  <scstep>
   <time name="dav">    1.69    1.71</time>
   <time name="total">    1.89    1.92</time>
   <energy>
    <i name="e_fr_energy">    -64.66966102 </i>
    <i name="e_wo_entrp">    -64.66966102 </i>
    <i name="e_0_energy">    -64.66966102 </i>
   </energy>
  </scstep>
  <scstep>
   <time name="dav">    1.62    1.62</time>
   <time name="total">    3.01    3.03</time>
   <energy>
    <i name="e_fr_energy">    -61.22853137 </i>
    <i name="e_wo_entrp">    -61.22853137 </i>
    <i name="e_0_energy">    -61.22853137 </i>
   </energy>
  </scstep>
  <scstep>
   <time name="dav">    1.74    1.74</time>
   <time name="total">    3.11    3.15</time>
   <energy>
    <i name="e_fr_energy">    -61.16899418 </i>
    <i name="e_wo_entrp">    -61.16899418 </i>
    <i name="e_0_energy">    -61.16899418 </i>
   </energy>
  </scstep>
  <scstep>
   <time name="dav">    1.60    1.60</time>
   <time name="total">    2.97    3.00</time>
   <energy>
    <i name="e_fr_energy">    -61.16983500 </i>
    <i name="e_wo_entrp">    -61.16983500 </i>
    <i name="e_0_energy">    -61.16983500 </i>
   </energy>
  </scstep>
  <scstep>
   <time name="dav">    1.62    1.62</time>
   <time name="total">    3.01    3.02</time>
   <energy>
    <i name="e_fr_energy">    -61.16967170 </i>
    <i name="e_wo_entrp">    -61.16967170 </i>
    <i name="e_0_energy">    -61.16967170 </i>
   </energy>
  </scstep>
  <scstep>
   <time name="dav">    1.76    1.76</time>
   <time name="total">    3.10    3.16</time>
   <energy>
    <i name="e_fr_energy">    -61.16919598 </i>
    <i name="e_wo_entrp">    -61.16919598 </i>
    <i name="e_0_energy">    -61.16919598 </i>
   </energy>
  </scstep>
  <scstep>
   <time name="dav">    1.67    1.67</time>
   <time name="total">    3.07    3.07</time>
   <energy>
    <i name="e_fr_energy">    -61.16917199 </i>
    <i name="e_wo_entrp">    -61.16917199 </i>
    <i name="e_0_energy">    -61.16917199 </i>
   </energy>
  </scstep>
  <scstep>
   <time name="dav">    1.58    1.58</time>
   <time name="total">    2.94    2.99</time>
   <energy>
    <i name="e_fr_energy">    -61.16916843 </i>
    <i name="e_wo_entrp">    -61.16916843 </i>
    <i name="e_0_energy">    -61.16916843 </i>
   </energy>
  </scstep>
  <scstep>
   <time name="dav">    1.61    1.61</time>
   <time name="total">    2.95    3.02</time>
   <energy>
    <i name="e_fr_energy">    -61.16916516 </i>
    <i name="e_wo_entrp">    -61.16916516 </i>
    <i name="e_0_energy">    -61.16916516 </i>
   </energy>
  </scstep>
  <scstep>
   <time name="dav">    1.26    1.26</time>
   <time name="total">    2.45    2.47</time>
   <energy>
    <i name="alphaZ">     53.27869122 </i>
    <i name="ewald">   -786.60710445 </i>
    <i name="hartreedc">   -120.56793246 </i>
    <i name="XCdc">     35.43182738 </i>
    <i name="pawpsdc">    748.17846855 </i>
    <i name="pawaedc">   -795.35993355 </i>
    <i name="eentropy">     -0.00000000 </i>
    <i name="bandstr">   -119.64134000 </i>
    <i name="atom">    924.11815769 </i>
    <i name="e_fr_energy">    -61.16916564 </i>
    <i name="e_wo_entrp">    -61.16916564 </i>
    <i name="e_0_energy">    -61.16916564 </i>
   </energy>
  </scstep>
  <structure>
   <crystal>
    <varray name="basis" >
     <v>       4.30097408      -0.00000000       0.00000000 </v>
     <v>       0.00000000       4.30097408      -0.00000000 </v>
     <v>       0.00000000       0.00000000       4.30097408 </v>
    </varray>
    <i name="volume">     79.56104445 </i>
    <varray name="rec_basis" >
     <v>       0.23250547      -0.00000000       0.00000000 </v>
     <v>       0.00000000       0.23250547      -0.00000000 </v>
     <v>       0.00000000       0.00000000       0.23250547 </v>
    </varray>
   </crystal>
   <varray name="positions" >
    <v>       0.00000000       0.00000000       0.00000000 </v>
    <v>       0.50000000       0.50000000       0.50000000 </v>
   </varray>
  </structure>
  <varray name="forces" >
   <v>       0.00000000       0.00000000       0.00000000 </v>
   <v>       0.00000000       0.00000000      -0.00000000 </v>
  </varray>
  <varray name="stress" >
   <v>      -0.36815298      -0.00000000       0.00000000 </v>
   <v>      -0.00000000      -0.36815298       0.00000000 </v>
   <v>       0.00000000      -0.00000000      -0.36815298 </v>
  </varray>
  <energy>
   <i name="e_fr_energy">    -61.16916564 </i>
   <i name="e_wo_entrp">    -61.16916564 </i>
   <i name="e_0_energy">     -0.00000000 </i>
  </energy>
  <time name="totalsc">   42.42   42.97</time>
  <eigenvalues>
   <array>
    <dimension dim="1">band</dimension>
    <dimension dim="2">kpoint</dimension>
    <dimension dim="3">spin</dimension>
    <field>eigene</field>
    <field>occ</field>
    <set>
     <set comment="spin 1">
      <set comment="kpoint 1">
       <r>  -21.0104    1.0000 </r>
       <r>  -13.4600    1.0000 </r>
       <r>   -7.1565    1.0000 </r>
       <r>   -7.1565    1.0000 </r>
       <r>   -7.1565    1.0000 </r>
       <r>   -0.6202    1.0000 </r>
       <r>   -0.6202    1.0000 </r>
       <r>   -0.6202    1.0000 </r>
       <r>    4.5877    0.0000 </r>
       <r>    4.7922    0.0000 </r>
       <r>    4.7922    0.0000 </r>
       <r>    9.2317    0.0000 </r>
       <r>    9.2317    0.0000 </r>
       <r>    9.2317    0.0000 </r>
       <r>   12.1389    0.0000 </r>
       <r>   12.1389    0.0000 </r>
      </set>
      <set comment="kpoint 2">
       <r>  -21.0069    1.0000 </r>
       <r>  -13.4609    1.0000 </r>
       <r>   -7.1845    1.0000 </r>
       <r>   -7.1497    1.0000 </r>
       <r>   -7.1497    1.0000 </r>
       <r>   -0.7313    1.0000 </r>
       <r>   -0.6330    1.0000 </r>
       <r>   -0.6330    1.0000 </r>
       <r>    4.7610    0.0000 </r>
       <r>    4.8383    0.0000 </r>
       <r>    4.9542    0.0000 </r>
       <r>    9.1818    0.0000 </r>
       <r>    9.1818    0.0000 </r>
       <r>    9.2689    0.0000 </r>
       <r>   11.6442    0.0000 </r>
       <r>   12.2410    0.0000 </r>
      </set>
      <set comment="kpoint 3">
       <r>  -20.9972    1.0000 </r>
       <r>  -13.4633    1.0000 </r>
       <r>   -7.2587    1.0000 </r>
       <r>   -7.1311    1.0000 </r>
       <r>   -7.1311    1.0000 </r>
       <r>   -1.0084    1.0000 </r>
       <r>   -0.6684    1.0000 </r>
       <r>   -0.6684    1.0000 </r>
       <r>    4.9737    0.0000 </r>
       <r>    5.2274    0.0000 </r>
       <r>    5.4091    0.0000 </r>
       <r>    9.0717    0.0000 </r>
       <r>    9.0717    0.0000 </r>
       <r>    9.3768    0.0000 </r>
       <r>   10.7482    0.0000 </r>
       <r>   12.5244    0.0000 </r>
      </set>
      <set comment="kpoint 4">
       <r>  -20.9837    1.0000 </r>
       <r>  -13.4672    1.0000 </r>
       <r>   -7.3543    1.0000 </r>
       <r>   -7.1054    1.0000 </r>
       <r>   -7.1054    1.0000 </r>
       <r>   -1.3409    1.0000 </r>
       <r>   -0.7176    1.0000 </r>
       <r>   -0.7176    1.0000 </r>
       <r>    5.1877    0.0000 </r>
       <r>    5.8688    0.0000 </r>
       <r>    6.0770    0.0000 </r>
       <r>    8.9742    0.0000 </r>
       <r>    8.9742    0.0000 </r>
       <r>    9.5413    0.0000 </r>
       <r>    9.8583    0.0000 </r>
       <r>   12.4107    0.0000 </r>
      </set>
      <set comment="kpoint 5">
       <r>  -20.9701    1.0000 </r>
       <r>  -13.4716    1.0000 </r>
       <r>   -7.4442    1.0000 </r>
       <r>   -7.0792    1.0000 </r>
       <r>   -7.0792    1.0000 </r>
       <r>   -1.6361    1.0000 </r>
       <r>   -0.7678    1.0000 </r>
       <r>   -0.7678    1.0000 </r>
       <r>    5.4534    0.0000 </r>
       <r>    6.5323    0.0000 </r>
       <r>    6.8518    0.0000 </r>
       <r>    8.9331    0.0000 </r>
       <r>    8.9331    0.0000 </r>
       <r>    9.0882    0.0000 </r>
       <r>    9.7330    0.0000 </r>
       <r>   11.7364    0.0000 </r>
      </set>
      <set comment="kpoint 6">
       <r>  -20.9602    1.0000 </r>
       <r>  -13.4752    1.0000 </r>
       <r>   -7.5065    1.0000 </r>
       <r>   -7.0598    1.0000 </r>
       <r>   -7.0598    1.0000 </r>
       <r>   -1.8345    1.0000 </r>
       <r>   -0.8053    1.0000 </r>
       <r>   -0.8053    1.0000 </r>
       <r>    5.7066    0.0000 </r>
       <r>    7.0632    0.0000 </r>
       <r>    7.5237    0.0000 </r>
       <r>    8.5268    0.0000 </r>
       <r>    8.9425    0.0000 </r>
       <r>    8.9425    0.0000 </r>
       <r>    9.8987    0.0000 </r>
       <r>   11.2827    0.0000 </r>
      </set>
      <set comment="kpoint 7">
       <r>  -20.9563    1.0000 </r>
       <r>  -13.4765    1.0000 </r>
       <r>   -7.5285    1.0000 </r>
       <r>   -7.0526    1.0000 </r>
       <r>   -7.0526    1.0000 </r>
       <r>   -1.9040    1.0000 </r>
       <r>   -0.8192    1.0000 </r>
       <r>   -0.8192    1.0000 </r>
       <r>    5.8212    0.0000 </r>
       <r>    7.2793    0.0000 </r>
       <r>    7.7954    0.0000 </r>
       <r>    8.3087    0.0000 </r>
       <r>    8.9563    0.0000 </r>
       <r>    8.9563    0.0000 </r>
       <r>    9.9669    0.0000 </r>
       <r>   11.1189    0.0000 </r>
      </set>
      <set comment="kpoint 8">
       <r>  -21.0035    1.0000 </r>
       <r>  -13.4612    1.0000 </r>
       <r>   -7.1985    1.0000 </r>
       <r>   -7.1598    1.0000 </r>
       <r>   -7.1432    1.0000 </r>
       <r>   -0.7983    1.0000 </r>
       <r>   -0.6760    1.0000 </r>
       <r>   -0.6441    1.0000 </r>
       <r>    4.9176    0.0000 </r>
       <r>    4.9404    0.0000 </r>
       <r>    5.0569    0.0000 </r>
       <r>    9.0237    0.0000 </r>
       <r>    9.1134    0.0000 </r>
       <r>    9.4097    0.0000 </r>
       <r>   11.6087    0.0000 </r>
       <r>   12.0173    0.0000 </r>
      </set>
      <set comment="kpoint 9">
       <r>  -20.9939    1.0000 </r>
       <r>  -13.4621    1.0000 </r>
       <r>   -7.2679    1.0000 </r>
       <r>   -7.1535    1.0000 </r>
       <r>   -7.1251    1.0000 </r>
       <r>   -1.0345    1.0000 </r>
       <r>   -0.7194    1.0000 </r>
       <r>   -0.6746    1.0000 </r>
       <r>    5.0915    0.0000 </r>
       <r>    5.3393    0.0000 </r>
       <r>    5.4861    0.0000 </r>
       <r>    8.8448    0.0000 </r>
       <r>    8.9633    0.0000 </r>
       <r>    9.5571    0.0000 </r>
       <r>   10.9445    0.0000 </r>
       <r>   12.2609    0.0000 </r>
      </set>
      <set comment="kpoint 10">
       <r>  -20.9804    1.0000 </r>
       <r>  -13.4638    1.0000 </r>
       <r>   -7.3644    1.0000 </r>
       <r>   -7.1374    1.0000 </r>
       <r>   -7.0999    1.0000 </r>
       <r>   -1.3362    1.0000 </r>
       <r>   -0.7624    1.0000 </r>
       <r>   -0.7174    1.0000 </r>
       <r>    5.2977    0.0000 </r>
       <r>    5.9112    0.0000 </r>
       <r>    6.1466    0.0000 </r>
       <r>    8.7255    0.0000 </r>
       <r>    8.8094    0.0000 </r>
       <r>    9.6546    0.0000 </r>
       <r>   10.1741    0.0000 </r>
       <r>   11.8785    0.0000 </r>
      </set>
      <set comment="kpoint 11">
       <r>  -20.9670    1.0000 </r>
       <r>  -13.4661    1.0000 </r>
       <r>   -7.4558    1.0000 </r>
       <r>   -7.1208    1.0000 </r>
       <r>   -7.0744    1.0000 </r>
       <r>   -1.6067    1.0000 </r>
       <r>   -0.8058    1.0000 </r>
       <r>   -0.7614    1.0000 </r>
       <r>    5.5478    0.0000 </r>
       <r>    6.5010    0.0000 </r>
       <r>    6.8858    0.0000 </r>
       <r>    8.6504    0.0000 </r>
       <r>    8.6968    0.0000 </r>
       <r>    9.5884    0.0000 </r>
       <r>    9.6490    0.0000 </r>
       <r>   11.3507    0.0000 </r>
      </set>
      <set comment="kpoint 12">
       <r>  -20.9570    1.0000 </r>
       <r>  -13.4681    1.0000 </r>
       <r>   -7.5192    1.0000 </r>
       <r>   -7.1088    1.0000 </r>
       <r>   -7.0554    1.0000 </r>
       <r>   -1.7889    1.0000 </r>
       <r>   -0.8387    1.0000 </r>
       <r>   -0.7943    1.0000 </r>
       <r>    5.7811    0.0000 </r>
       <r>    7.0015    0.0000 </r>
       <r>    7.4061    0.0000 </r>
       <r>    8.4568    0.0000 </r>
       <r>    8.7483    0.0000 </r>
       <r>    9.3717    0.0000 </r>
       <r>    9.5319    0.0000 </r>
       <r>   11.1022    0.0000 </r>
      </set>
      <set comment="kpoint 13">
       <r>  -20.9534    1.0000 </r>
       <r>  -13.4689    1.0000 </r>
       <r>   -7.5416    1.0000 </r>
       <r>   -7.1044    1.0000 </r>
       <r>   -7.0484    1.0000 </r>
       <r>   -1.8528    1.0000 </r>
       <r>   -0.8510    1.0000 </r>
       <r>   -0.8065    1.0000 </r>
       <r>    5.8845    0.0000 </r>
       <r>    7.2598    0.0000 </r>
       <r>    7.4872    0.0000 </r>
       <r>    8.3673    0.0000 </r>
       <r>    8.7958    0.0000 </r>
       <r>    9.3998    0.0000 </r>
       <r>    9.4474    0.0000 </r>
       <r>   11.0588    0.0000 </r>
      </set>
      <set comment="kpoint 14">
       <r>  -20.9844    1.0000 </r>
       <r>  -13.4589    1.0000 </r>
       <r>   -7.3106    1.0000 </r>
       <r>   -7.1944    1.0000 </r>
       <r>   -7.1082    1.0000 </r>
       <r>   -1.1428    1.0000 </r>
       <r>   -0.8101    1.0000 </r>
       <r>   -0.6922    1.0000 </r>
       <r>    5.3281    0.0000 </r>
       <r>    5.6358    0.0000 </r>
       <r>    5.7979    0.0000 </r>
       <r>    8.5514    0.0000 </r>
       <r>    8.7787    0.0000 </r>
       <r>    9.6886    0.0000 </r>
       <r>   11.1337    0.0000 </r>
       <r>   11.8737    0.0000 </r>
      </set>
      <set comment="kpoint 15">
       <r>  -20.9713    1.0000 </r>
       <r>  -13.4547    1.0000 </r>
       <r>   -7.3970    1.0000 </r>
       <r>   -7.2174    1.0000 </r>
       <r>   -7.0848    1.0000 </r>
       <r>   -1.3363    1.0000 </r>
       <r>   -0.8664    1.0000 </r>
       <r>   -0.7173    1.0000 </r>
       <r>    5.5352    0.0000 </r>
       <r>    6.0193    0.0000 </r>
       <r>    6.3934    0.0000 </r>
       <r>    8.3444    0.0000 </r>
       <r>    8.6633    0.0000 </r>
       <r>    9.5860    0.0000 </r>
       <r>   10.5982    0.0000 </r>
       <r>   11.4474    0.0000 </r>
      </set>
      <set comment="kpoint 16">
       <r>  -20.9583    1.0000 </r>
       <r>  -13.4510    1.0000 </r>
       <r>   -7.4890    1.0000 </r>
       <r>   -7.2297    1.0000 </r>
       <r>   -7.0611    1.0000 </r>
       <r>   -1.5325    1.0000 </r>
       <r>   -0.9009    1.0000 </r>
       <r>   -0.7437    1.0000 </r>
       <r>    5.7261    0.0000 </r>
       <r>    6.3956    0.0000 </r>
       <r>    7.0466    0.0000 </r>
       <r>    8.2644    0.0000 </r>
       <r>    8.6623    0.0000 </r>
       <r>    9.2816    0.0000 </r>
       <r>   10.0737    0.0000 </r>
       <r>   11.1604    0.0000 </r>
      </set>
      <set comment="kpoint 17">
       <r>  -20.9487    1.0000 </r>
       <r>  -13.4486    1.0000 </r>
       <r>   -7.5546    1.0000 </r>
       <r>   -7.2377    1.0000 </r>
       <r>   -7.0436    1.0000 </r>
       <r>   -1.6688    1.0000 </r>
       <r>   -0.9240    1.0000 </r>
       <r>   -0.7639    1.0000 </r>
       <r>    5.8779    0.0000 </r>
       <r>    6.7188    0.0000 </r>
       <r>    7.3734    0.0000 </r>
       <r>    8.3170    0.0000 </r>
       <r>    8.7931    0.0000 </r>
       <r>    8.9276    0.0000 </r>
       <r>    9.9206    0.0000 </r>
       <r>   11.0775    0.0000 </r>
      </set>
      <set comment="kpoint 18">
       <r>  -20.9450    1.0000 </r>
       <r>  -13.4477    1.0000 </r>
       <r>   -7.5780    1.0000 </r>
       <r>   -7.2406    1.0000 </r>
       <r>   -7.0370    1.0000 </r>
       <r>   -1.7169    1.0000 </r>
       <r>   -0.9325    1.0000 </r>
       <r>   -0.7715    1.0000 </r>
       <r>    5.9380    0.0000 </r>
       <r>    6.8822    0.0000 </r>
       <r>    7.3791    0.0000 </r>
       <r>    8.4142    0.0000 </r>
       <r>    8.7194    0.0000 </r>
       <r>    8.8409    0.0000 </r>
       <r>   10.0901    0.0000 </r>
       <r>   11.0204    0.0000 </r>
      </set>
      <set comment="kpoint 19">
       <r>  -20.9588    1.0000 </r>
       <r>  -13.4424    1.0000 </r>
       <r>   -7.4580    1.0000 </r>
       <r>   -7.3047    1.0000 </r>
       <r>   -7.0639    1.0000 </r>
       <r>   -1.3727    1.0000 </r>
       <r>   -0.9616    1.0000 </r>
       <r>   -0.7180    1.0000 </r>
       <r>    5.6894    0.0000 </r>
       <r>    6.1566    0.0000 </r>
       <r>    6.9011    0.0000 </r>
       <r>    8.0429    0.0000 </r>
       <r>    8.6938    0.0000 </r>
       <r>    9.2248    0.0000 </r>
       <r>   10.4570    0.0000 </r>
       <r>   11.8954    0.0000 </r>
      </set>
      <set comment="kpoint 20">
       <r>  -20.9463    1.0000 </r>
       <r>  -13.4303    1.0000 </r>
       <r>   -7.5389    1.0000 </r>
       <r>   -7.3670    1.0000 </r>
       <r>   -7.0428    1.0000 </r>
       <r>   -1.4466    1.0000 </r>
       <r>   -1.0098    1.0000 </r>
       <r>   -0.7197    1.0000 </r>
       <r>    5.7404    0.0000 </r>
       <r>    6.2625    0.0000 </r>
       <r>    7.5187    0.0000 </r>
       <r>    7.8797    0.0000 </r>
       <r>    8.7664    0.0000 </r>
       <r>    8.8973    0.0000 </r>
       <r>   10.2989    0.0000 </r>
       <r>   11.6317    0.0000 </r>
      </set>
      <set comment="kpoint 21">
       <r>  -20.9371    1.0000 </r>
       <r>  -13.4216    1.0000 </r>
       <r>   -7.6045    1.0000 </r>
       <r>   -7.4033    1.0000 </r>
       <r>   -7.0272    1.0000 </r>
       <r>   -1.5134    1.0000 </r>
       <r>   -1.0276    1.0000 </r>
       <r>   -0.7216    1.0000 </r>
       <r>    5.7651    0.0000 </r>
       <r>    6.3103    0.0000 </r>
       <r>    7.8549    0.0000 </r>
       <r>    7.8740    0.0000 </r>
       <r>    8.3541    0.0000 </r>
       <r>    9.3722    0.0000 </r>
       <r>   10.3300    0.0000 </r>
       <r>   11.4968    0.0000 </r>
      </set>
      <set comment="kpoint 22">
       <r>  -20.9338    1.0000 </r>
       <r>  -13.4185    1.0000 </r>
       <r>   -7.6290    1.0000 </r>
       <r>   -7.4158    1.0000 </r>
       <r>   -7.0215    1.0000 </r>
       <r>   -1.5388    1.0000 </r>
       <r>   -1.0324    1.0000 </r>
       <r>   -0.7224    1.0000 </r>
       <r>    5.7771    0.0000 </r>
       <r>    6.3179    0.0000 </r>
       <r>    7.9247    0.0000 </r>
       <r>    7.9791    0.0000 </r>
       <r>    8.1035    0.0000 </r>
       <r>    9.5868    0.0000 </r>
       <r>   10.7816    0.0000 </r>
       <r>   11.0899    0.0000 </r>
      </set>
      <set comment="kpoint 23">
       <r>  -20.9345    1.0000 </r>
       <r>  -13.4095    1.0000 </r>
       <r>   -7.5994    1.0000 </r>
       <r>   -7.4871    1.0000 </r>
       <r>   -7.0244    1.0000 </r>
       <r>   -1.3856    1.0000 </r>
       <r>   -1.0884    1.0000 </r>
       <r>   -0.6956    1.0000 </r>
       <r>    5.6202    0.0000 </r>
       <r>    6.1089    0.0000 </r>
       <r>    7.6274    0.0000 </r>
       <r>    8.2482    0.0000 </r>
       <r>    8.2711    0.0000 </r>
       <r>    9.1906    0.0000 </r>
       <r>   10.6411    0.0000 </r>
       <r>   12.1934    0.0000 </r>
      </set>
      <set comment="kpoint 24">
       <r>  -20.9255    1.0000 </r>
       <r>  -13.3941    1.0000 </r>
       <r>   -7.6568    1.0000 </r>
       <r>   -7.5581    1.0000 </r>
       <r>   -7.0107    1.0000 </r>
       <r>   -1.3667    1.0000 </r>
       <r>   -1.1173    1.0000 </r>
       <r>   -0.6781    1.0000 </r>
       <r>    5.5330    0.0000 </r>
       <r>    5.9511    0.0000 </r>
       <r>    7.5393    0.0000 </r>
       <r>    7.8779    0.0000 </r>
       <r>    8.7393    0.0000 </r>
       <r>    9.8483    0.0000 </r>
       <r>   10.9129    0.0000 </r>
       <r>   12.1264    0.0000 </r>
      </set>
      <set comment="kpoint 25">
       <r>  -20.9223    1.0000 </r>
       <r>  -13.3885    1.0000 </r>
       <r>   -7.6813    1.0000 </r>
       <r>   -7.5800    1.0000 </r>
       <r>   -7.0057    1.0000 </r>
       <r>   -1.3667    1.0000 </r>
       <r>   -1.1204    1.0000 </r>
       <r>   -0.6717    1.0000 </r>
       <r>    5.5103    0.0000 </r>
       <r>    5.8789    0.0000 </r>
       <r>    7.6053    0.0000 </r>
       <r>    7.6465    0.0000 </r>
       <r>    8.8535    0.0000 </r>
       <r>   10.4099    0.0000 </r>
       <r>   11.2444    0.0000 </r>
       <r>   11.5211    0.0000 </r>
      </set>
      <set comment="kpoint 26">
       <r>  -20.9169    1.0000 </r>
       <r>  -13.3738    1.0000 </r>
       <r>   -7.6992    1.0000 </r>
       <r>   -7.6627    1.0000 </r>
       <r>   -6.9985    1.0000 </r>
       <r>   -1.2686    1.0000 </r>
       <r>   -1.1700    1.0000 </r>
       <r>   -0.6456    1.0000 </r>
       <r>    5.3571    0.0000 </r>
       <r>    5.6967    0.0000 </r>
       <r>    7.3625    0.0000 </r>
       <r>    7.5386    0.0000 </r>
       <r>    9.7266    0.0000 </r>
       <r>   10.2419    0.0000 </r>
       <r>   11.5529    0.0000 </r>
       <r>   12.2815    0.0000 </r>
      </set>
      <set comment="kpoint 27">
       <r>  -20.9138    1.0000 </r>
       <r>  -13.3662    1.0000 </r>
       <r>   -7.7206    1.0000 </r>
       <r>   -7.6944    1.0000 </r>
       <r>   -6.9940    1.0000 </r>
       <r>   -1.2430    1.0000 </r>
       <r>   -1.1781    1.0000 </r>
       <r>   -0.6336    1.0000 </r>
       <r>    5.2969    0.0000 </r>
       <r>    5.6021    0.0000 </r>
       <r>    7.3580    0.0000 </r>
       <r>    7.3663    0.0000 </r>
       <r>   10.0173    0.0000 </r>
       <r>   11.0142    0.0000 </r>
       <r>   11.4142    0.0000 </r>
       <r>   12.2349    0.0000 </r>
      </set>
      <set comment="kpoint 28">
       <r>  -20.9109    1.0000 </r>
       <r>  -13.3581    1.0000 </r>
       <r>   -7.7352    1.0000 </r>
       <r>   -7.7352    1.0000 </r>
       <r>   -6.9898    1.0000 </r>
       <r>   -1.1980    1.0000 </r>
       <r>   -1.1980    1.0000 </r>
       <r>   -0.6194    1.0000 </r>
       <r>    5.2175    0.0000 </r>
       <r>    5.5075    0.0000 </r>
       <r>    7.2719    0.0000 </r>
       <r>    7.2719    0.0000 </r>
       <r>   11.1919    0.0000 </r>
       <r>   11.2242    0.0000 </r>
       <r>   11.2242    0.0000 </r>
       <r>   11.6308    0.0000 </r>
      </set>
      <set comment="kpoint 29">
       <r>  -21.0000    1.0000 </r>
       <r>  -13.4609    1.0000 </r>
       <r>   -7.1914    1.0000 </r>
       <r>   -7.1914    1.0000 </r>
       <r>   -7.1386    1.0000 </r>
       <r>   -0.8470    1.0000 </r>
       <r>   -0.6901    1.0000 </r>
       <r>   -0.6901    1.0000 </r>
       <r>    5.0636    0.0000 </r>
       <r>    5.0993    0.0000 </r>
       <r>    5.0993    0.0000 </r>
       <r>    8.9563    0.0000 </r>
       <r>    8.9563    0.0000 </r>
       <r>    9.5242    0.0000 </r>
       <r>   11.7497    0.0000 </r>
       <r>   11.7497    0.0000 </r>
      </set>
      <set comment="kpoint 30">
       <r>  -20.9904    1.0000 </r>
       <r>  -13.4605    1.0000 </r>
       <r>   -7.2700    1.0000 </r>
       <r>   -7.1718    1.0000 </r>
       <r>   -7.1315    1.0000 </r>
       <r>   -1.0478    1.0000 </r>
       <r>   -0.7306    1.0000 </r>
       <r>   -0.7289    1.0000 </r>
       <r>    5.2232    0.0000 </r>
       <r>    5.4533    0.0000 </r>
       <r>    5.5476    0.0000 </r>
       <r>    8.7479    0.0000 </r>
       <r>    8.7967    0.0000 </r>
       <r>    9.6193    0.0000 </r>
       <r>   11.1150    0.0000 </r>
       <r>   12.0787    0.0000 </r>
      </set>
      <set comment="kpoint 31">
       <r>  -20.9771    1.0000 </r>
       <r>  -13.4603    1.0000 </r>
       <r>   -7.3706    1.0000 </r>
       <r>   -7.1447    1.0000 </r>
       <r>   -7.1234    1.0000 </r>
       <r>   -1.3249    1.0000 </r>
       <r>   -0.7829    1.0000 </r>
       <r>   -0.7509    1.0000 </r>
       <r>    5.4172    0.0000 </r>
       <r>    5.9704    0.0000 </r>
       <r>    6.2084    0.0000 </r>
       <r>    8.6120    0.0000 </r>
       <r>    8.6392    0.0000 </r>
       <r>    9.5585    0.0000 </r>
       <r>   10.4196    0.0000 </r>
       <r>   11.7570    0.0000 </r>
      </set>
      <set comment="kpoint 32">
       <r>  -20.9638    1.0000 </r>
       <r>  -13.4606    1.0000 </r>
       <r>   -7.4648    1.0000 </r>
       <r>   -7.1171    1.0000 </r>
       <r>   -7.1162    1.0000 </r>
       <r>   -1.5769    1.0000 </r>
       <r>   -0.8381    1.0000 </r>
       <r>   -0.7691    1.0000 </r>
       <r>    5.6540    0.0000 </r>
       <r>    6.4909    0.0000 </r>
       <r>    6.9225    0.0000 </r>
       <r>    8.4214    0.0000 </r>
       <r>    8.6859    0.0000 </r>
       <r>    9.3734    0.0000 </r>
       <r>    9.8622    0.0000 </r>
       <r>   11.6604    0.0000 </r>
      </set>
      <set comment="kpoint 33">
       <r>  -20.9540    1.0000 </r>
       <r>  -13.4611    1.0000 </r>
       <r>   -7.5300    1.0000 </r>
       <r>   -7.1117    1.0000 </r>
       <r>   -7.0966    1.0000 </r>
       <r>   -1.7472    1.0000 </r>
       <r>   -0.8792    1.0000 </r>
       <r>   -0.7837    1.0000 </r>
       <r>    5.8731    0.0000 </r>
       <r>    6.9344    0.0000 </r>
       <r>    7.3511    0.0000 </r>
       <r>    8.2274    0.0000 </r>
       <r>    8.9282    0.0000 </r>
       <r>    9.2495    0.0000 </r>
       <r>    9.5480    0.0000 </r>
       <r>   11.4135    0.0000 </r>
      </set>
      <set comment="kpoint 34">
       <r>  -20.9504    1.0000 </r>
       <r>  -13.4614    1.0000 </r>
       <r>   -7.5531    1.0000 </r>
       <r>   -7.1101    1.0000 </r>
       <r>   -7.0890    1.0000 </r>
       <r>   -1.8069    1.0000 </r>
       <r>   -0.8944    1.0000 </r>
       <r>   -0.7893    1.0000 </r>
       <r>    5.9693    0.0000 </r>
       <r>    7.1992    0.0000 </r>
       <r>    7.3481    0.0000 </r>
       <r>    8.1310    0.0000 </r>
       <r>    9.1695    0.0000 </r>
       <r>    9.1971    0.0000 </r>
       <r>    9.4590    0.0000 </r>
       <r>   11.2556    0.0000 </r>
      </set>
      <set comment="kpoint 35">
       <r>  -20.9810    1.0000 </r>
       <r>  -13.4562    1.0000 </r>
       <r>   -7.3026    1.0000 </r>
       <r>   -7.2114    1.0000 </r>
       <r>   -7.1307    1.0000 </r>
       <r>   -1.1289    1.0000 </r>
       <r>   -0.8282    1.0000 </r>
       <r>   -0.7543    1.0000 </r>
       <r>    5.4828    0.0000 </r>
       <r>    5.7548    0.0000 </r>
       <r>    5.8294    0.0000 </r>
       <r>    8.4865    0.0000 </r>
       <r>    8.6176    0.0000 </r>
       <r>    9.5241    0.0000 </r>
       <r>   11.3177    0.0000 </r>
       <r>   11.9025    0.0000 </r>
      </set>
      <set comment="kpoint 36">
       <r>  -20.9681    1.0000 </r>
       <r>  -13.4506    1.0000 </r>
       <r>   -7.3939    1.0000 </r>
       <r>   -7.2222    1.0000 </r>
       <r>   -7.1207    1.0000 </r>
       <r>   -1.3103    1.0000 </r>
       <r>   -0.8858    1.0000 </r>
       <r>   -0.7733    1.0000 </r>
       <r>    5.6806    0.0000 </r>
       <r>    6.1222    0.0000 </r>
       <r>    6.4289    0.0000 </r>
       <r>    8.2905    0.0000 </r>
       <r>    8.5154    0.0000 </r>
       <r>    9.1973    0.0000 </r>
       <r>   10.8967    0.0000 </r>
       <r>   11.7580    0.0000 </r>
      </set>
      <set comment="kpoint 37">
       <r>  -20.9552    1.0000 </r>
       <r>  -13.4454    1.0000 </r>
       <r>   -7.4913    1.0000 </r>
       <r>   -7.2274    1.0000 </r>
       <r>   -7.1047    1.0000 </r>
       <r>   -1.5032    1.0000 </r>
       <r>   -0.9314    1.0000 </r>
       <r>   -0.7747    1.0000 </r>
       <r>    5.8649    0.0000 </r>
       <r>    6.4527    0.0000 </r>
       <r>    7.0552    0.0000 </r>
       <r>    8.1887    0.0000 </r>
       <r>    8.5892    0.0000 </r>
       <r>    8.8889    0.0000 </r>
       <r>   10.3995    0.0000 </r>
       <r>   11.5185    0.0000 </r>
      </set>
      <set comment="kpoint 38">
       <r>  -20.9456    1.0000 </r>
       <r>  -13.4419    1.0000 </r>
       <r>   -7.5602    1.0000 </r>
       <r>   -7.2334    1.0000 </r>
       <r>   -7.0900    1.0000 </r>
       <r>   -1.6382    1.0000 </r>
       <r>   -0.9682    1.0000 </r>
       <r>   -0.7698    1.0000 </r>
       <r>    6.0138    0.0000 </r>
       <r>    6.7234    0.0000 </r>
       <r>    7.2767    0.0000 </r>
       <r>    8.1493    0.0000 </r>
       <r>    8.7378    0.0000 </r>
       <r>    8.9827    0.0000 </r>
       <r>   10.1127    0.0000 </r>
       <r>   11.3000    0.0000 </r>
      </set>
      <set comment="kpoint 39">
       <r>  -20.9422    1.0000 </r>
       <r>  -13.4407    1.0000 </r>
       <r>   -7.5848    1.0000 </r>
       <r>   -7.2361    1.0000 </r>
       <r>   -7.0841    1.0000 </r>
       <r>   -1.6859    1.0000 </r>
       <r>   -0.9824    1.0000 </r>
       <r>   -0.7674    1.0000 </r>
       <r>    6.0734    0.0000 </r>
       <r>    6.8757    0.0000 </r>
       <r>    7.2144    0.0000 </r>
       <r>    8.1388    0.0000 </r>
       <r>    8.7320    0.0000 </r>
       <r>    9.2070    0.0000 </r>
       <r>   10.1196    0.0000 </r>
       <r>   11.2016    0.0000 </r>
      </set>
      <set comment="kpoint 40">
       <r>  -20.9557    1.0000 </r>
       <r>  -13.4376    1.0000 </r>
       <r>   -7.4488    1.0000 </r>
       <r>   -7.3107    1.0000 </r>
       <r>   -7.1054    1.0000 </r>
       <r>   -1.3407    1.0000 </r>
       <r>   -0.9863    1.0000 </r>
       <r>   -0.7819    1.0000 </r>
       <r>    5.8469    0.0000 </r>
       <r>    6.2981    0.0000 </r>
       <r>    6.9106    0.0000 </r>
       <r>    8.0194    0.0000 </r>
       <r>    8.5359    0.0000 </r>
       <r>    8.7828    0.0000 </r>
       <r>   10.9789    0.0000 </r>
       <r>   11.9884    0.0000 </r>
      </set>
      <set comment="kpoint 41">
       <r>  -20.9433    1.0000 </r>
       <r>  -13.4247    1.0000 </r>
       <r>   -7.5332    1.0000 </r>
       <r>   -7.3669    1.0000 </r>
       <r>   -7.0871    1.0000 </r>
       <r>   -1.4241    1.0000 </r>
       <r>   -1.0406    1.0000 </r>
       <r>   -0.7730    1.0000 </r>
       <r>    5.8978    0.0000 </r>
       <r>    6.3867    0.0000 </r>
       <r>    7.4625    0.0000 </r>
       <r>    7.8978    0.0000 </r>
       <r>    8.4354    0.0000 </r>
       <r>    8.8324    0.0000 </r>
       <r>   10.7072    0.0000 </r>
       <r>   11.7273    0.0000 </r>
      </set>
      <set comment="kpoint 42">
       <r>  -20.9341    1.0000 </r>
       <r>  -13.4153    1.0000 </r>
       <r>   -7.6034    1.0000 </r>
       <r>   -7.3977    1.0000 </r>
       <r>   -7.0723    1.0000 </r>
       <r>   -1.5005    1.0000 </r>
       <r>   -1.0707    1.0000 </r>
       <r>   -0.7554    1.0000 </r>
       <r>    5.9167    0.0000 </r>
       <r>    6.3953    0.0000 </r>
       <r>    7.5846    0.0000 </r>
       <r>    7.9206    0.0000 </r>
       <r>    8.4220    0.0000 </r>
       <r>    9.3317    0.0000 </r>
       <r>   10.5961    0.0000 </r>
       <r>   11.5445    0.0000 </r>
      </set>
      <set comment="kpoint 43">
       <r>  -20.9307    1.0000 </r>
       <r>  -13.4119    1.0000 </r>
       <r>   -7.6295    1.0000 </r>
       <r>   -7.4082    1.0000 </r>
       <r>   -7.0667    1.0000 </r>
       <r>   -1.5293    1.0000 </r>
       <r>   -1.0818    1.0000 </r>
       <r>   -0.7469    1.0000 </r>
       <r>    5.9256    0.0000 </r>
       <r>    6.3829    0.0000 </r>
       <r>    7.5696    0.0000 </r>
       <r>    7.9433    0.0000 </r>
       <r>    8.4037    0.0000 </r>
       <r>    9.6577    0.0000 </r>
       <r>   10.8565    0.0000 </r>
       <r>   11.2048    0.0000 </r>
      </set>
      <set comment="kpoint 44">
       <r>  -20.9313    1.0000 </r>
       <r>  -13.4037    1.0000 </r>
       <r>   -7.5890    1.0000 </r>
       <r>   -7.4867    1.0000 </r>
       <r>   -7.0683    1.0000 </r>
       <r>   -1.3799    1.0000 </r>
       <r>   -1.1202    1.0000 </r>
       <r>   -0.7600    1.0000 </r>
       <r>    5.7854    0.0000 </r>
       <r>    6.2371    0.0000 </r>
       <r>    7.6068    0.0000 </r>
       <r>    8.0718    0.0000 </r>
       <r>    8.2748    0.0000 </r>
       <r>    9.1746    0.0000 </r>
       <r>   10.8828    0.0000 </r>
       <r>   12.2951    0.0000 </r>
      </set>
      <set comment="kpoint 45">
       <r>  -20.9225    1.0000 </r>
       <r>  -13.3883    1.0000 </r>
       <r>   -7.6493    1.0000 </r>
       <r>   -7.5517    1.0000 </r>
       <r>   -7.0541    1.0000 </r>
       <r>   -1.3761    1.0000 </r>
       <r>   -1.1565    1.0000 </r>
       <r>   -0.7402    1.0000 </r>
       <r>    5.6942    0.0000 </r>
       <r>    6.0744    0.0000 </r>
       <r>    7.5365    0.0000 </r>
       <r>    7.8008    0.0000 </r>
       <r>    8.7909    0.0000 </r>
       <r>    9.7970    0.0000 </r>
       <r>   11.0814    0.0000 </r>
       <r>   12.1487    0.0000 </r>
      </set>
      <set comment="kpoint 46">
       <r>  -20.9193    1.0000 </r>
       <r>  -13.3827    1.0000 </r>
       <r>   -7.6758    1.0000 </r>
       <r>   -7.5703    1.0000 </r>
       <r>   -7.0488    1.0000 </r>
       <r>   -1.3805    1.0000 </r>
       <r>   -1.1660    1.0000 </r>
       <r>   -0.7304    1.0000 </r>
       <r>    5.6653    0.0000 </r>
       <r>    6.0041    0.0000 </r>
       <r>    7.5856    0.0000 </r>
       <r>    7.6297    0.0000 </r>
       <r>    8.9108    0.0000 </r>
       <r>   10.3559    0.0000 </r>
       <r>   11.3154    0.0000 </r>
       <r>   11.6476    0.0000 </r>
      </set>
      <set comment="kpoint 47">
       <r>  -20.9141    1.0000 </r>
       <r>  -13.3683    1.0000 </r>
       <r>   -7.6882    1.0000 </r>
       <r>   -7.6548    1.0000 </r>
       <r>   -7.0406    1.0000 </r>
       <r>   -1.2972    1.0000 </r>
       <r>   -1.2073    1.0000 </r>
       <r>   -0.7264    1.0000 </r>
       <r>    5.5255    0.0000 </r>
       <r>    5.8513    0.0000 </r>
       <r>    7.3860    0.0000 </r>
       <r>    7.5477    0.0000 </r>
       <r>    9.7117    0.0000 </r>
       <r>   10.2079    0.0000 </r>
       <r>   11.6079    0.0000 </r>
       <r>   12.2585    0.0000 </r>
      </set>
      <set comment="kpoint 48">
       <r>  -20.9109    1.0000 </r>
       <r>  -13.3609    1.0000 </r>
       <r>   -7.7107    1.0000 </r>
       <r>   -7.6834    1.0000 </r>
       <r>   -7.0356    1.0000 </r>
       <r>   -1.2752    1.0000 </r>
       <r>   -1.2193    1.0000 </r>
       <r>   -0.7203    1.0000 </r>
       <r>    5.4656    0.0000 </r>
       <r>    5.7720    0.0000 </r>
       <r>    7.3864    0.0000 </r>
       <r>    7.3929    0.0000 </r>
       <r>   10.0017    0.0000 </r>
       <r>   10.9138    0.0000 </r>
       <r>   11.4496    0.0000 </r>
       <r>   12.1794    0.0000 </r>
      </set>
      <set comment="kpoint 49">
       <r>  -20.9080    1.0000 </r>
       <r>  -13.3529    1.0000 </r>
       <r>   -7.7238    1.0000 </r>
       <r>   -7.7238    1.0000 </r>
       <r>   -7.0308    1.0000 </r>
       <r>   -1.2373    1.0000 </r>
       <r>   -1.2373    1.0000 </r>
       <r>   -0.7170    1.0000 </r>
       <r>    5.3931    0.0000 </r>
       <r>    5.6943    0.0000 </r>
       <r>    7.3070    0.0000 </r>
       <r>    7.3070    0.0000 </r>
       <r>   11.1182    0.0000 </r>
       <r>   11.1182    0.0000 </r>
       <r>   11.2046    0.0000 </r>
       <r>   11.6572    0.0000 </r>
      </set>
      <set comment="kpoint 50">
       <r>  -20.9719    1.0000 </r>
       <r>  -13.4491    1.0000 </r>
       <r>   -7.2804    1.0000 </r>
       <r>   -7.2804    1.0000 </r>
       <r>   -7.1675    1.0000 </r>
       <r>   -1.1260    1.0000 </r>
       <r>   -0.8782    1.0000 </r>
       <r>   -0.8782    1.0000 </r>
       <r>    5.9199    0.0000 </r>
       <r>    5.9199    0.0000 </r>
       <r>    6.0550    0.0000 </r>
       <r>    8.3406    0.0000 </r>
       <r>    8.3406    0.0000 </r>
       <r>    9.0747    0.0000 </r>
       <r>   11.7580    0.0000 </r>
       <r>   11.7580    0.0000 </r>
      </set>
      <set comment="kpoint 51">
       <r>  -20.9592    1.0000 </r>
       <r>  -13.4395    1.0000 </r>
       <r>   -7.3913    1.0000 </r>
       <r>   -7.2496    1.0000 </r>
       <r>   -7.1956    1.0000 </r>
       <r>   -1.2538    1.0000 </r>
       <r>   -0.9476    1.0000 </r>
       <r>   -0.8954    1.0000 </r>
       <r>    6.0563    0.0000 </r>
       <r>    6.3568    0.0000 </r>
       <r>    6.5722    0.0000 </r>
       <r>    8.1953    0.0000 </r>
       <r>    8.2179    0.0000 </r>
       <r>    8.5837    0.0000 </r>
       <r>   11.3811    0.0000 </r>
       <r>   12.2937    0.0000 </r>
      </set>
      <set comment="kpoint 52">
       <r>  -20.9468    1.0000 </r>
       <r>  -13.4302    1.0000 </r>
       <r>   -7.5003    1.0000 </r>
       <r>   -7.2203    1.0000 </r>
       <r>   -7.2182    1.0000 </r>
       <r>   -1.4326    1.0000 </r>
       <r>   -1.0181    1.0000 </r>
       <r>   -0.8427    1.0000 </r>
       <r>    6.2121    0.0000 </r>
       <r>    6.5523    0.0000 </r>
       <r>    7.0957    0.0000 </r>
       <r>    8.0930    0.0000 </r>
       <r>    8.3839    0.0000 </r>
       <r>    8.4047    0.0000 </r>
       <r>   10.9411    0.0000 </r>
       <r>   12.1675    0.0000 </r>
      </set>
      <set comment="kpoint 53">
       <r>  -20.9373    1.0000 </r>
       <r>  -13.4235    1.0000 </r>
       <r>   -7.5767    1.0000 </r>
       <r>   -7.2385    1.0000 </r>
       <r>   -7.1948    1.0000 </r>
       <r>   -1.5608    1.0000 </r>
       <r>   -1.0704    1.0000 </r>
       <r>   -0.7972    1.0000 </r>
       <r>    6.3433    0.0000 </r>
       <r>    6.6614    0.0000 </r>
       <r>    7.0748    0.0000 </r>
       <r>    8.0368    0.0000 </r>
       <r>    8.5697    0.0000 </r>
       <r>    9.0086    0.0000 </r>
       <r>   10.6179    0.0000 </r>
       <r>   11.7691    0.0000 </r>
      </set>
      <set comment="kpoint 54">
       <r>  -20.9338    1.0000 </r>
       <r>  -13.4211    1.0000 </r>
       <r>   -7.6039    1.0000 </r>
       <r>   -7.2454    1.0000 </r>
       <r>   -7.1861    1.0000 </r>
       <r>   -1.6063    1.0000 </r>
       <r>   -1.0897    1.0000 </r>
       <r>   -0.7802    1.0000 </r>
       <r>    6.3962    0.0000 </r>
       <r>    6.7438    0.0000 </r>
       <r>    6.9402    0.0000 </r>
       <r>    8.0188    0.0000 </r>
       <r>    8.6808    0.0000 </r>
       <r>    9.4426    0.0000 </r>
       <r>   10.5012    0.0000 </r>
       <r>   11.6283    0.0000 </r>
      </set>
      <set comment="kpoint 55">
       <r>  -20.9472    1.0000 </r>
       <r>  -13.4243    1.0000 </r>
       <r>   -7.4232    1.0000 </r>
       <r>   -7.3299    1.0000 </r>
       <r>   -7.2129    1.0000 </r>
       <r>   -1.2561    1.0000 </r>
       <r>   -1.0540    1.0000 </r>
       <r>   -0.9455    1.0000 </r>
       <r>    6.3032    0.0000 </r>
       <r>    6.6600    0.0000 </r>
       <r>    6.9356    0.0000 </r>
       <r>    7.9787    0.0000 </r>
       <r>    8.0764    0.0000 </r>
       <r>    8.2471    0.0000 </r>
       <r>   11.7440    0.0000 </r>
       <r>   12.2625    0.0000 </r>
      </set>
      <set comment="kpoint 56">
       <r>  -20.9350    1.0000 </r>
       <r>  -13.4092    1.0000 </r>
       <r>   -7.5200    1.0000 </r>
       <r>   -7.3648    1.0000 </r>
       <r>   -7.2041    1.0000 </r>
       <r>   -1.3701    1.0000 </r>
       <r>   -1.1261    1.0000 </r>
       <r>   -0.9040    1.0000 </r>
       <r>    6.3529    0.0000 </r>
       <r>    6.6790    0.0000 </r>
       <r>    7.3051    0.0000 </r>
       <r>    7.9140    0.0000 </r>
       <r>    8.1083    0.0000 </r>
       <r>    8.5212    0.0000 </r>
       <r>   11.4743    0.0000 </r>
       <r>   12.0697    0.0000 </r>
      </set>
      <set comment="kpoint 57">
       <r>  -20.9260    1.0000 </r>
       <r>  -13.3982    1.0000 </r>
       <r>   -7.6016    1.0000 </r>
       <r>   -7.3823    1.0000 </r>
       <r>   -7.1911    1.0000 </r>
       <r>   -1.4715    1.0000 </r>
       <r>   -1.1809    1.0000 </r>
       <r>   -0.8461    1.0000 </r>
       <r>    6.3502    0.0000 </r>
       <r>    6.5698    0.0000 </r>
       <r>    7.2312    0.0000 </r>
       <r>    7.9407    0.0000 </r>
       <r>    8.5021    0.0000 </r>
       <r>    9.1827    0.0000 </r>
       <r>   11.2199    0.0000 </r>
       <r>   11.7845    0.0000 </r>
      </set>
      <set comment="kpoint 58">
       <r>  -20.9228    1.0000 </r>
       <r>  -13.3942    1.0000 </r>
       <r>   -7.6316    1.0000 </r>
       <r>   -7.3890    1.0000 </r>
       <r>   -7.1854    1.0000 </r>
       <r>   -1.5085    1.0000 </r>
       <r>   -1.2018    1.0000 </r>
       <r>   -0.8226    1.0000 </r>
       <r>    6.3484    0.0000 </r>
       <r>    6.5060    0.0000 </r>
       <r>    7.1928    0.0000 </r>
       <r>    7.9615    0.0000 </r>
       <r>    8.6175    0.0000 </r>
       <r>    9.6694    0.0000 </r>
       <r>   11.2170    0.0000 </r>
       <r>   11.5051    0.0000 </r>
      </set>
      <set comment="kpoint 59">
       <r>  -20.9232    1.0000 </r>
       <r>  -13.3880    1.0000 </r>
       <r>   -7.5602    1.0000 </r>
       <r>   -7.4861    1.0000 </r>
       <r>   -7.1854    1.0000 </r>
       <r>   -1.3717    1.0000 </r>
       <r>   -1.2070    1.0000 </r>
       <r>   -0.9205    1.0000 </r>
       <r>    6.2589    0.0000 </r>
       <r>    6.5422    0.0000 </r>
       <r>    7.5785    0.0000 </r>
       <r>    7.8127    0.0000 </r>
       <r>    8.3260    0.0000 </r>
       <r>    8.9269    0.0000 </r>
       <r>   11.5422    0.0000 </r>
       <r>   12.4343    0.0000 </r>
      </set>
      <set comment="kpoint 60">
       <r>  -20.9147    1.0000 </r>
       <r>  -13.3724    1.0000 </r>
       <r>   -7.6296    1.0000 </r>
       <r>   -7.5330    1.0000 </r>
       <r>   -7.1698    1.0000 </r>
       <r>   -1.4068    1.0000 </r>
       <r>   -1.2626    1.0000 </r>
       <r>   -0.8978    1.0000 </r>
       <r>    6.1525    0.0000 </r>
       <r>    6.3785    0.0000 </r>
       <r>    7.5127    0.0000 </r>
       <r>    7.7716    0.0000 </r>
       <r>    8.8408    0.0000 </r>
       <r>    9.5921    0.0000 </r>
       <r>   11.5358    0.0000 </r>
       <r>   12.2922    0.0000 </r>
      </set>
      <set comment="kpoint 61">
       <r>  -20.9115    1.0000 </r>
       <r>  -13.3667    1.0000 </r>
       <r>   -7.6609    1.0000 </r>
       <r>   -7.5438    1.0000 </r>
       <r>   -7.1637    1.0000 </r>
       <r>   -1.4215    1.0000 </r>
       <r>   -1.2862    1.0000 </r>
       <r>   -0.8835    1.0000 </r>
       <r>    6.1082    0.0000 </r>
       <r>    6.3169    0.0000 </r>
       <r>    7.4935    0.0000 </r>
       <r>    7.7412    0.0000 </r>
       <r>    8.9787    0.0000 </r>
       <r>   10.1585    0.0000 </r>
       <r>   11.4926    0.0000 </r>
       <r>   12.0504    0.0000 </r>
      </set>
      <set comment="kpoint 62">
       <r>  -20.9063    1.0000 </r>
       <r>  -13.3533    1.0000 </r>
       <r>   -7.6573    1.0000 </r>
       <r>   -7.6332    1.0000 </r>
       <r>   -7.1531    1.0000 </r>
       <r>   -1.3777    1.0000 </r>
       <r>   -1.3086    1.0000 </r>
       <r>   -0.9305    1.0000 </r>
       <r>    6.0043    0.0000 </r>
       <r>    6.2597    0.0000 </r>
       <r>    7.4639    0.0000 </r>
       <r>    7.6178    0.0000 </r>
       <r>    9.6501    0.0000 </r>
       <r>   10.0270    0.0000 </r>
       <r>   11.7802    0.0000 </r>
       <r>   12.1637    0.0000 </r>
      </set>
      <set comment="kpoint 63">
       <r>  -20.9032    1.0000 </r>
       <r>  -13.3462    1.0000 </r>
       <r>   -7.6835    1.0000 </r>
       <r>   -7.6530    1.0000 </r>
       <r>   -7.1468    1.0000 </r>
       <r>   -1.3639    1.0000 </r>
       <r>   -1.3313    1.0000 </r>
       <r>   -0.9397    1.0000 </r>
       <r>    5.9524    0.0000 </r>
       <r>    6.2214    0.0000 </r>
       <r>    7.4606    0.0000 </r>
       <r>    7.5102    0.0000 </r>
       <r>    9.9193    0.0000 </r>
       <r>   10.6315    0.0000 </r>
       <r>   11.5231    0.0000 </r>
       <r>   12.0685    0.0000 </r>
      </set>
      <set comment="kpoint 64">
       <r>  -20.9000    1.0000 </r>
       <r>  -13.3387    1.0000 </r>
       <r>   -7.6920    1.0000 </r>
       <r>   -7.6920    1.0000 </r>
       <r>   -7.1404    1.0000 </r>
       <r>   -1.3439    1.0000 </r>
       <r>   -1.3439    1.0000 </r>
       <r>   -0.9632    1.0000 </r>
       <r>    5.9010    0.0000 </r>
       <r>    6.1967    0.0000 </r>
       <r>    7.4154    0.0000 </r>
       <r>    7.4154    0.0000 </r>
       <r>   10.8212    0.0000 </r>
       <r>   10.8212    0.0000 </r>
       <r>   11.2397    0.0000 </r>
       <r>   11.7273    0.0000 </r>
      </set>
      <set comment="kpoint 65">
       <r>  -20.9355    1.0000 </r>
       <r>  -13.4061    1.0000 </r>
       <r>   -7.3877    1.0000 </r>
       <r>   -7.3877    1.0000 </r>
       <r>   -7.3216    1.0000 </r>
       <r>   -1.1471    1.0000 </r>
       <r>   -1.1471    1.0000 </r>
       <r>   -1.1463    1.0000 </r>
       <r>    6.9700    0.0000 </r>
       <r>    6.9700    0.0000 </r>
       <r>    6.9885    0.0000 </r>
       <r>    7.6424    0.0000 </r>
       <r>    7.9679    0.0000 </r>
       <r>    7.9679    0.0000 </r>
       <r>   12.3504    0.0000 </r>
       <r>   12.3504    0.0000 </r>
      </set>
      <set comment="kpoint 66">
       <r>  -20.9236    1.0000 </r>
       <r>  -13.3878    1.0000 </r>
       <r>   -7.5093    1.0000 </r>
       <r>   -7.3599    1.0000 </r>
       <r>   -7.3512    1.0000 </r>
       <r>   -1.3275    1.0000 </r>
       <r>   -1.2411    1.0000 </r>
       <r>   -1.0425    1.0000 </r>
       <r>    6.8687    0.0000 </r>
       <r>    7.0083    0.0000 </r>
       <r>    7.1250    0.0000 </r>
       <r>    7.9975    0.0000 </r>
       <r>    8.0730    0.0000 </r>
       <r>    8.2083    0.0000 </r>
       <r>   12.1881    0.0000 </r>
       <r>   12.4981    0.0000 </r>
      </set>
      <set comment="kpoint 67">
       <r>  -20.9149    1.0000 </r>
       <r>  -13.3744    1.0000 </r>
       <r>   -7.6021    1.0000 </r>
       <r>   -7.3804    1.0000 </r>
       <r>   -7.3240    1.0000 </r>
       <r>   -1.4487    1.0000 </r>
       <r>   -1.3104    1.0000 </r>
       <r>   -0.9691    1.0000 </r>
       <r>    6.6670    0.0000 </r>
       <r>    6.9175    0.0000 </r>
       <r>    7.0416    0.0000 </r>
       <r>    8.0397    0.0000 </r>
       <r>    8.5361    0.0000 </r>
       <r>    9.0791    0.0000 </r>
       <r>   11.9638    0.0000 </r>
       <r>   12.1733    0.0000 </r>
      </set>
      <set comment="kpoint 68">
       <r>  -20.9118    1.0000 </r>
       <r>  -13.3696    1.0000 </r>
       <r>   -7.6356    1.0000 </r>
       <r>   -7.3879    1.0000 </r>
       <r>   -7.3140    1.0000 </r>
       <r>   -1.4911    1.0000 </r>
       <r>   -1.3359    1.0000 </r>
       <r>   -0.9427    1.0000 </r>
       <r>    6.5938    0.0000 </r>
       <r>    6.8319    0.0000 </r>
       <r>    7.0553    0.0000 </r>
       <r>    8.0589    0.0000 </r>
       <r>    8.6925    0.0000 </r>
       <r>    9.6427    0.0000 </r>
       <r>   11.6963    0.0000 </r>
       <r>   11.8759    0.0000 </r>
      </set>
      <set comment="kpoint 69">
       <r>  -20.9121    1.0000 </r>
       <r>  -13.3663    1.0000 </r>
       <r>   -7.5202    1.0000 </r>
       <r>   -7.4863    1.0000 </r>
       <r>   -7.3377    1.0000 </r>
       <r>   -1.3843    1.0000 </r>
       <r>   -1.3255    1.0000 </r>
       <r>   -1.1021    1.0000 </r>
       <r>    6.7410    0.0000 </r>
       <r>    7.0060    0.0000 </r>
       <r>    7.5934    0.0000 </r>
       <r>    7.8918    0.0000 </r>
       <r>    8.3550    0.0000 </r>
       <r>    8.5107    0.0000 </r>
       <r>   12.2846    0.0000 </r>
       <r>   12.6134    0.0000 </r>
      </set>
      <set comment="kpoint 70">
       <r>  -20.9037    1.0000 </r>
       <r>  -13.3504    1.0000 </r>
       <r>   -7.6055    1.0000 </r>
       <r>   -7.5050    1.0000 </r>
       <r>   -7.3201    1.0000 </r>
       <r>   -1.4596    1.0000 </r>
       <r>   -1.4018    1.0000 </r>
       <r>   -1.0923    1.0000 </r>
       <r>    6.6515    0.0000 </r>
       <r>    6.8686    0.0000 </r>
       <r>    7.5385    0.0000 </r>
       <r>    7.9733    0.0000 </r>
       <r>    8.7909    0.0000 </r>
       <r>    9.2891    0.0000 </r>
       <r>   11.9887    0.0000 </r>
       <r>   12.3340    0.0000 </r>
      </set>
      <set comment="kpoint 71">
       <r>  -20.9005    1.0000 </r>
       <r>  -13.3445    1.0000 </r>
       <r>   -7.6408    1.0000 </r>
       <r>   -7.5079    1.0000 </r>
       <r>   -7.3127    1.0000 </r>
       <r>   -1.4848    1.0000 </r>
       <r>   -1.4363    1.0000 </r>
       <r>   -1.0836    1.0000 </r>
       <r>    6.6788    0.0000 </r>
       <r>    6.7378    0.0000 </r>
       <r>    7.5252    0.0000 </r>
       <r>    7.9787    0.0000 </r>
       <r>    8.9399    0.0000 </r>
       <r>    9.8704    0.0000 </r>
       <r>   11.6311    0.0000 </r>
       <r>   12.2284    0.0000 </r>
      </set>
      <set comment="kpoint 72">
       <r>  -20.8954    1.0000 </r>
       <r>  -13.3326    1.0000 </r>
       <r>   -7.6140    1.0000 </r>
       <r>   -7.6033    1.0000 </r>
       <r>   -7.3002    1.0000 </r>
       <r>   -1.4918    1.0000 </r>
       <r>   -1.4459    1.0000 </r>
       <r>   -1.1789    1.0000 </r>
       <r>    6.6487    0.0000 </r>
       <r>    6.8484    0.0000 </r>
       <r>    7.6091    0.0000 </r>
       <r>    7.8445    0.0000 </r>
       <r>    9.5056    0.0000 </r>
       <r>    9.6700    0.0000 </r>
       <r>   11.9835    0.0000 </r>
       <r>   12.0114    0.0000 </r>
      </set>
      <set comment="kpoint 73">
       <r>  -20.8924    1.0000 </r>
       <r>  -13.3260    1.0000 </r>
       <r>   -7.6457    1.0000 </r>
       <r>   -7.6105    1.0000 </r>
       <r>   -7.2924    1.0000 </r>
       <r>   -1.4864    1.0000 </r>
       <r>   -1.4817    1.0000 </r>
       <r>   -1.2078    1.0000 </r>
       <r>    6.6917    0.0000 </r>
       <r>    6.8004    0.0000 </r>
       <r>    7.6272    0.0000 </r>
       <r>    7.7398    0.0000 </r>
       <r>    9.7102    0.0000 </r>
       <r>   10.2271    0.0000 </r>
       <r>   11.5530    0.0000 </r>
       <r>   12.0208    0.0000 </r>
      </set>
      <set comment="kpoint 74">
       <r>  -20.8893    1.0000 </r>
       <r>  -13.3191    1.0000 </r>
       <r>   -7.6476    1.0000 </r>
       <r>   -7.6476    1.0000 </r>
       <r>   -7.2843    1.0000 </r>
       <r>   -1.4881    1.0000 </r>
       <r>   -1.4881    1.0000 </r>
       <r>   -1.2622    1.0000 </r>
       <r>    6.6879    0.0000 </r>
       <r>    6.8807    0.0000 </r>
       <r>    7.6012    0.0000 </r>
       <r>    7.6012    0.0000 </r>
       <r>   10.3900    0.0000 </r>
       <r>   10.3900    0.0000 </r>
       <r>   11.2889    0.0000 </r>
       <r>   11.8075    0.0000 </r>
      </set>
      <set comment="kpoint 75">
       <r>  -20.9008    1.0000 </r>
       <r>  -13.3443    1.0000 </r>
       <r>   -7.4909    1.0000 </r>
       <r>   -7.4790    1.0000 </r>
       <r>   -7.4790    1.0000 </r>
       <r>   -1.4439    1.0000 </r>
       <r>   -1.4439    1.0000 </r>
       <r>   -1.2245    1.0000 </r>
       <r>    6.7985    0.0000 </r>
       <r>    7.6713    0.0000 </r>
       <r>    7.6713    0.0000 </r>
       <r>    8.3007    0.0000 </r>
       <r>    8.3298    0.0000 </r>
       <r>    8.3298    0.0000 </r>
       <r>   12.4525    0.0000 </r>
       <r>   12.4525    0.0000 </r>
      </set>
      <set comment="kpoint 76">
       <r>  -20.8926    1.0000 </r>
       <r>  -13.3281    1.0000 </r>
       <r>   -7.5848    1.0000 </r>
       <r>   -7.4884    1.0000 </r>
       <r>   -7.4481    1.0000 </r>
       <r>   -1.5306    1.0000 </r>
       <r>   -1.5223    1.0000 </r>
       <r>   -1.2735    1.0000 </r>
       <r>    6.8839    0.0000 </r>
       <r>    7.4544    0.0000 </r>
       <r>    7.7946    0.0000 </r>
       <r>    8.2470    0.0000 </r>
       <r>    8.7264    0.0000 </r>
       <r>    9.1276    0.0000 </r>
       <r>   12.0432    0.0000 </r>
       <r>   12.2754    0.0000 </r>
      </set>
      <set comment="kpoint 77">
       <r>  -20.8897    1.0000 </r>
       <r>  -13.3221    1.0000 </r>
       <r>   -7.6212    1.0000 </r>
       <r>   -7.4893    1.0000 </r>
       <r>   -7.4366    1.0000 </r>
       <r>   -1.5623    1.0000 </r>
       <r>   -1.5550    1.0000 </r>
       <r>   -1.2865    1.0000 </r>
       <r>    7.0133    0.0000 </r>
       <r>    7.2183    0.0000 </r>
       <r>    7.8762    0.0000 </r>
       <r>    8.1800    0.0000 </r>
       <r>    8.8950    0.0000 </r>
       <r>    9.6994    0.0000 </r>
       <r>   11.6228    0.0000 </r>
       <r>   12.2110    0.0000 </r>
      </set>
      <set comment="kpoint 78">
       <r>  -20.8845    1.0000 </r>
       <r>  -13.3116    1.0000 </r>
       <r>   -7.5734    1.0000 </r>
       <r>   -7.5694    1.0000 </r>
       <r>   -7.4407    1.0000 </r>
       <r>   -1.6059    1.0000 </r>
       <r>   -1.5821    1.0000 </r>
       <r>   -1.4042    1.0000 </r>
       <r>    7.1113    0.0000 </r>
       <r>    7.6767    0.0000 </r>
       <r>    7.8271    0.0000 </r>
       <r>    8.2758    0.0000 </r>
       <r>    9.2589    0.0000 </r>
       <r>    9.2695    0.0000 </r>
       <r>   11.8768    0.0000 </r>
       <r>   12.0481    0.0000 </r>
      </set>
      <set comment="kpoint 79">
       <r>  -20.8815    1.0000 </r>
       <r>  -13.3055    1.0000 </r>
       <r>   -7.6070    1.0000 </r>
       <r>   -7.5669    1.0000 </r>
       <r>   -7.4315    1.0000 </r>
[...]
       </set>
       <set comment="band 13">
        <r>  0.0000  0.0250  0.2290 </r>
        <r>  0.0000  0.1221  0.0121 </r>
       </set>
       <set comment="band 14">
        <r>  0.0000  0.0250  0.2290 </r>
        <r>  0.0000  0.1221  0.0121 </r>
       </set>
       <set comment="band 15">
        <r>  0.0000  0.0520  0.2370 </r>
        <r>  0.0000  0.0212  0.0942 </r>
       </set>
       <set comment="band 16">
        <r>  0.0000  0.0520  0.2370 </r>
        <r>  0.0000  0.0212  0.0942 </r>
       </set>
      </set>
      <set comment="kpoint 76">
       <set comment="band 1">
        <r>  0.8932  0.0000  0.0000 </r>
        <r>  0.0000  0.0000  0.0000 </r>
       </set>
       <set comment="band 2">
        <r>  0.0000  0.0007  0.0002 </r>
        <r>  0.8038  0.0000  0.0000 </r>
       </set>
       <set comment="band 3">
        <r>  0.0001  0.7410  0.0001 </r>
        <r>  0.0017  0.0044  0.0003 </r>
       </set>
       <set comment="band 4">
        <r>  0.0004  0.7492  0.0001 </r>
        <r>  0.0007  0.0051  0.0002 </r>
       </set>
       <set comment="band 5">
        <r>  0.0000  0.7619  0.0002 </r>
        <r>  0.0000  0.0008  0.0005 </r>
       </set>
       <set comment="band 6">
        <r>  0.0000  0.0040  0.0121 </r>
        <r>  0.0000  0.5129  0.0002 </r>
       </set>
       <set comment="band 7">
        <r>  0.0004  0.0234  0.0091 </r>
        <r>  0.0000  0.5082  0.0001 </r>
       </set>
       <set comment="band 8">
        <r>  0.0005  0.0287  0.0050 </r>
        <r>  0.0012  0.5310  0.0001 </r>
       </set>
       <set comment="band 9">
        <r>  0.0071  0.0057  0.2054 </r>
        <r>  0.0178  0.0375  0.0269 </r>
       </set>
       <set comment="band 10">
        <r>  0.0126  0.0315  0.1757 </r>
        <r>  0.0044  0.0440  0.0351 </r>
       </set>
       <set comment="band 11">
        <r>  0.0000  0.0637  0.1935 </r>
        <r>  0.0000  0.0215  0.0295 </r>
       </set>
       <set comment="band 12">
        <r>  0.0000  0.0152  0.2339 </r>
        <r>  0.0000  0.1480  0.0118 </r>
       </set>
       <set comment="band 13">
        <r>  0.0203  0.0315  0.1796 </r>
        <r>  0.0038  0.1420  0.0073 </r>
       </set>
       <set comment="band 14">
        <r>  0.0111  0.0978  0.0809 </r>
        <r>  0.0097  0.0485  0.0363 </r>
       </set>
       <set comment="band 15">
        <r>  0.0092  0.0372  0.3324 </r>
        <r>  0.0010  0.0184  0.0482 </r>
       </set>
       <set comment="band 16">
        <r>  0.0000  0.0491  0.2470 </r>
        <r>  0.0000  0.0052  0.0988 </r>
       </set>
      </set>
      <set comment="kpoint 77">
       <set comment="band 1">
        <r>  0.8934  0.0000  0.0000 </r>
        <r>  0.0000  0.0000  0.0000 </r>
       </set>
       <set comment="band 2">
        <r>  0.0000  0.0005  0.0002 </r>
        <r>  0.8048  0.0000  0.0000 </r>
       </set>
       <set comment="band 3">
        <r>  0.0000  0.7374  0.0000 </r>
        <r>  0.0018  0.0046  0.0003 </r>
       </set>
       <set comment="band 4">
        <r>  0.0004  0.7491  0.0001 </r>
        <r>  0.0000  0.0052  0.0002 </r>
       </set>
       <set comment="band 5">
        <r>  0.0000  0.7645  0.0002 </r>
        <r>  0.0000  0.0000  0.0005 </r>
       </set>
       <set comment="band 6">
        <r>  0.0000  0.0000  0.0129 </r>
        <r>  0.0000  0.5113  0.0002 </r>
       </set>
       <set comment="band 7">
        <r>  0.0006  0.0278  0.0085 </r>
        <r>  0.0000  0.5042  0.0000 </r>
       </set>
       <set comment="band 8">
        <r>  0.0000  0.0251  0.0062 </r>
        <r>  0.0011  0.5304  0.0001 </r>
       </set>
       <set comment="band 9">
        <r>  0.0000  0.0030  0.2242 </r>
        <r>  0.0225  0.0709  0.0183 </r>
       </set>
       <set comment="band 10">
        <r>  0.0223  0.0337  0.1474 </r>
        <r>  0.0000  0.0133  0.0449 </r>
       </set>
       <set comment="band 11">
        <r>  0.0000  0.0820  0.1790 </r>
        <r>  0.0000  0.0000  0.0299 </r>
       </set>
       <set comment="band 12">
        <r>  0.0000  0.0000  0.2444 </r>
        <r>  0.0000  0.1768  0.0107 </r>
       </set>
       <set comment="band 13">
        <r>  0.0179  0.0296  0.2036 </r>
        <r>  0.0000  0.1523  0.0026 </r>
       </set>
       <set comment="band 14">
        <r>  0.0000  0.1369  0.0014 </r>
        <r>  0.0118  0.0476  0.0556 </r>
       </set>
       <set comment="band 15">
        <r>  0.0228  0.0066  0.4251 </r>
        <r>  0.0000  0.0103  0.0160 </r>
       </set>
       <set comment="band 16">
        <r>  0.0000  0.0472  0.2518 </r>
        <r>  0.0000  0.0000  0.1001 </r>
       </set>
      </set>
      <set comment="kpoint 78">
       <set comment="band 1">
        <r>  0.8940  0.0000  0.0000 </r>
        <r>  0.0000  0.0000  0.0000 </r>
       </set>
       <set comment="band 2">
        <r>  0.0000  0.0003  0.0001 </r>
        <r>  0.8063  0.0000  0.0000 </r>
       </set>
       <set comment="band 3">
        <r>  0.0002  0.7430  0.0000 </r>
        <r>  0.0010  0.0041  0.0003 </r>
       </set>
       <set comment="band 4">
        <r>  0.0000  0.7459  0.0001 </r>
        <r>  0.0000  0.0031  0.0004 </r>
       </set>
       <set comment="band 5">
        <r>  0.0001  0.7623  0.0001 </r>
        <r>  0.0000  0.0009  0.0005 </r>
       </set>
       <set comment="band 6">
        <r>  0.0001  0.0070  0.0121 </r>
        <r>  0.0000  0.5055  0.0001 </r>
       </set>
       <set comment="band 7">
        <r>  0.0000  0.0160  0.0109 </r>
        <r>  0.0000  0.5048  0.0001 </r>
       </set>
       <set comment="band 8">
        <r>  0.0002  0.0203  0.0080 </r>
        <r>  0.0010  0.5201  0.0001 </r>
       </set>
       <set comment="band 9">
        <r>  0.0069  0.0128  0.2011 </r>
        <r>  0.0138  0.0578  0.0270 </r>
       </set>
       <set comment="band 10">
        <r>  0.0115  0.0496  0.1620 </r>
        <r>  0.0049  0.0524  0.0297 </r>
       </set>
       <set comment="band 11">
        <r>  0.0000  0.0264  0.2208 </r>
        <r>  0.0000  0.0852  0.0304 </r>
       </set>
       <set comment="band 12">
        <r>  0.0008  0.0327  0.2187 </r>
        <r>  0.0004  0.1217  0.0163 </r>
       </set>
       <set comment="band 13">
        <r>  0.0000  0.0790  0.1691 </r>
        <r>  0.0000  0.0849  0.0219 </r>
       </set>
       <set comment="band 14">
        <r>  0.0221  0.0918  0.0559 </r>
        <r>  0.0081  0.0837  0.0335 </r>
       </set>
       <set comment="band 15">
        <r>  0.0000  0.0368  0.3798 </r>
        <r>  0.0000  0.0154  0.0386 </r>
       </set>
       <set comment="band 16">
        <r>  0.0090  0.0363  0.3150 </r>
        <r>  0.0005  0.0015  0.0698 </r>
       </set>
      </set>
      <set comment="kpoint 79">
       <set comment="band 1">
        <r>  0.8943  0.0000  0.0000 </r>
        <r>  0.0000  0.0000  0.0000 </r>
       </set>
       <set comment="band 2">
        <r>  0.0000  0.0001  0.0001 </r>
        <r>  0.8072  0.0000  0.0000 </r>
       </set>
       <set comment="band 3">
        <r>  0.0000  0.7414  0.0000 </r>
        <r>  0.0005  0.0036  0.0004 </r>
       </set>
       <set comment="band 4">
        <r>  0.0001  0.7456  0.0001 </r>
        <r>  0.0000  0.0034  0.0004 </r>
       </set>
       <set comment="band 5">
        <r>  0.0001  0.7642  0.0001 </r>
        <r>  0.0000  0.0004  0.0005 </r>
       </set>
       <set comment="band 6">
        <r>  0.0000  0.0056  0.0125 </r>
        <r>  0.0000  0.5041  0.0001 </r>
       </set>
       <set comment="band 7">
        <r>  0.0002  0.0197  0.0104 </r>
        <r>  0.0000  0.5015  0.0000 </r>
       </set>
       <set comment="band 8">
        <r>  0.0000  0.0132  0.0097 </r>
        <r>  0.0010  0.5173  0.0001 </r>
       </set>
       <set comment="band 9">
        <r>  0.0000  0.0061  0.2240 </r>
        <r>  0.0175  0.1041  0.0163 </r>
       </set>
       <set comment="band 10">
        <r>  0.0176  0.0494  0.1463 </r>
        <r>  0.0000  0.0249  0.0415 </r>
       </set>
       <set comment="band 11">
        <r>  0.0029  0.0608  0.1831 </r>
        <r>  0.0000  0.0488  0.0318 </r>
       </set>
       <set comment="band 12">
        <r>  0.0000  0.0094  0.2375 </r>
        <r>  0.0017  0.1522  0.0153 </r>
       </set>
       <set comment="band 13">
        <r>  0.0104  0.0779  0.1378 </r>
        <r>  0.0000  0.1043  0.0214 </r>
       </set>
       <set comment="band 14">
        <r>  0.0000  0.1303  0.0260 </r>
        <r>  0.0047  0.0733  0.0495 </r>
       </set>
       <set comment="band 15">
        <r>  0.0095  0.0095  0.4617 </r>
        <r>  0.0000  0.0068  0.0129 </r>
       </set>
       <set comment="band 16">
        <r>  0.0092  0.0337  0.3339 </r>
        <r>  0.0000  0.0015  0.0636 </r>
       </set>
      </set>
      <set comment="kpoint 80">
       <set comment="band 1">
        <r>  0.8948  0.0000  0.0000 </r>
        <r>  0.0000  0.0000  0.0000 </r>
       </set>
       <set comment="band 2">
        <r>  0.0000  0.0000  0.0001 </r>
        <r>  0.8081  0.0000  0.0000 </r>
       </set>
       <set comment="band 3">
        <r>  0.0000  0.7428  0.0000 </r>
        <r>  0.0000  0.0032  0.0005 </r>
       </set>
       <set comment="band 4">
        <r>  0.0000  0.7428  0.0000 </r>
        <r>  0.0000  0.0032  0.0005 </r>
       </set>
       <set comment="band 5">
        <r>  0.0002  0.7660  0.0001 </r>
        <r>  0.0000  0.0000  0.0005 </r>
       </set>
       <set comment="band 6">
        <r>  0.0000  0.0165  0.0111 </r>
        <r>  0.0000  0.5005  0.0000 </r>
       </set>
       <set comment="band 7">
        <r>  0.0000  0.0165  0.0111 </r>
        <r>  0.0000  0.5005  0.0000 </r>
       </set>
       <set comment="band 8">
        <r>  0.0000  0.0000  0.0122 </r>
        <r>  0.0009  0.5138  0.0002 </r>
       </set>
       <set comment="band 9">
        <r>  0.0000  0.0000  0.2265 </r>
        <r>  0.0189  0.1525  0.0062 </r>
       </set>
       <set comment="band 10">
        <r>  0.0215  0.0810  0.1069 </r>
        <r>  0.0000  0.0000  0.0422 </r>
       </set>
       <set comment="band 11">
        <r>  0.0000  0.0232  0.2251 </r>
        <r>  0.0000  0.0982  0.0289 </r>
       </set>
       <set comment="band 12">
        <r>  0.0000  0.0232  0.2251 </r>
        <r>  0.0000  0.0982  0.0289 </r>
       </set>
       <set comment="band 13">
        <r>  0.0000  0.1252  0.0442 </r>
        <r>  0.0000  0.0921  0.0442 </r>
       </set>
       <set comment="band 14">
        <r>  0.0000  0.1252  0.0442 </r>
        <r>  0.0000  0.0921  0.0442 </r>
       </set>
       <set comment="band 15">
        <r>  0.0000  0.0000  0.5315 </r>
        <r>  0.0000  0.0000  0.0000 </r>
       </set>
       <set comment="band 16">
        <r>  0.0254  0.0137  0.3744 </r>
        <r>  0.0000  0.0000  0.0430 </r>
       </set>
      </set>
      <set comment="kpoint 81">
       <set comment="band 1">
        <r>  0.8950  0.0000  0.0000 </r>
        <r>  0.0000  0.0000  0.0000 </r>
       </set>
       <set comment="band 2">
        <r>  0.0000  0.0001  0.0001 </r>
        <r>  0.8084  0.0000  0.0000 </r>
       </set>
       <set comment="band 3">
        <r>  0.0002  0.7475  0.0000 </r>
        <r>  0.0004  0.0029  0.0004 </r>
       </set>
       <set comment="band 4">
        <r>  0.0000  0.7535  0.0001 </r>
        <r>  0.0000  0.0009  0.0006 </r>
       </set>
       <set comment="band 5">
        <r>  0.0000  0.7535  0.0001 </r>
        <r>  0.0000  0.0009  0.0006 </r>
       </set>
       <set comment="band 6">
        <r>  0.0000  0.0043  0.0131 </r>
        <r>  0.0000  0.4996  0.0001 </r>
       </set>
       <set comment="band 7">
        <r>  0.0000  0.0043  0.0131 </r>
        <r>  0.0000  0.4996  0.0001 </r>
       </set>
       <set comment="band 8">
        <r>  0.0001  0.0154  0.0104 </r>
        <r>  0.0007  0.5064  0.0000 </r>
       </set>
       <set comment="band 9">
        <r>  0.0043  0.0181  0.2082 </r>
        <r>  0.0092  0.0865  0.0255 </r>
       </set>
       <set comment="band 10">
        <r>  0.0000  0.0235  0.2270 </r>
        <r>  0.0000  0.1294  0.0203 </r>
       </set>
       <set comment="band 11">
        <r>  0.0000  0.0235  0.2270 </r>
        <r>  0.0000  0.1294  0.0203 </r>
       </set>
       <set comment="band 12">
        <r>  0.0000  0.0928  0.1384 </r>
        <r>  0.0000  0.0589  0.0356 </r>
       </set>
       <set comment="band 13">
        <r>  0.0000  0.0928  0.1384 </r>
        <r>  0.0000  0.0589  0.0356 </r>
       </set>
       <set comment="band 14">
        <r>  0.0249  0.0947  0.0393 </r>
        <r>  0.0074  0.0762  0.0401 </r>
       </set>
       <set comment="band 15">
        <r>  0.0000  0.0300  0.4093 </r>
        <r>  0.0000  0.0034  0.0387 </r>
       </set>
       <set comment="band 16">
        <r>  0.0000  0.0300  0.4093 </r>
        <r>  0.0000  0.0034  0.0387 </r>
       </set>
      </set>
      <set comment="kpoint 82">
       <set comment="band 1">
        <r>  0.8953  0.0000  0.0000 </r>
        <r>  0.0000  0.0000  0.0000 </r>
       </set>
       <set comment="band 2">
        <r>  0.0000  0.0000  0.0001 </r>
        <r>  0.8092  0.0000  0.0000 </r>
       </set>
       <set comment="band 3">
        <r>  0.0000  0.7481  0.0000 </r>
        <r>  0.0001  0.0016  0.0005 </r>
       </set>
       <set comment="band 4">
        <r>  0.0001  0.7515  0.0000 </r>
        <r>  0.0000  0.0017  0.0005 </r>
       </set>
       <set comment="band 5">
        <r>  0.0000  0.7564  0.0001 </r>
        <r>  0.0000  0.0000  0.0006 </r>
       </set>
       <set comment="band 6">
        <r>  0.0000  0.0000  0.0139 </r>
        <r>  0.0000  0.4978  0.0001 </r>
       </set>
       <set comment="band 7">
        <r>  0.0000  0.0086  0.0127 </r>
        <r>  0.0000  0.4967  0.0000 </r>
       </set>
       <set comment="band 8">
        <r>  0.0000  0.0083  0.0120 </r>
        <r>  0.0005  0.5026  0.0000 </r>
       </set>
       <set comment="band 9">
        <r>  0.0000  0.0122  0.2315 </r>
        <r>  0.0085  0.1299  0.0157 </r>
       </set>
       <set comment="band 10">
        <r>  0.0051  0.0344  0.1960 </r>
        <r>  0.0000  0.0943  0.0308 </r>
       </set>
       <set comment="band 11">
        <r>  0.0000  0.0000  0.2629 </r>
        <r>  0.0000  0.1941  0.0029 </r>
       </set>
       <set comment="band 12">
        <r>  0.0000  0.1199  0.0944 </r>
        <r>  0.0000  0.0000  0.0544 </r>
       </set>
       <set comment="band 13">
        <r>  0.0139  0.0809  0.1106 </r>
        <r>  0.0000  0.0976  0.0313 </r>
       </set>
       <set comment="band 14">
        <r>  0.0000  0.1378  0.0189 </r>
        <r>  0.0032  0.0447  0.0614 </r>
       </set>
       <set comment="band 15">
        <r>  0.0044  0.0074  0.4904 </r>
        <r>  0.0000  0.0022  0.0104 </r>
       </set>
       <set comment="band 16">
        <r>  0.0000  0.0276  0.4192 </r>
        <r>  0.0000  0.0000  0.0384 </r>
       </set>
      </set>
      <set comment="kpoint 83">
       <set comment="band 1">
        <r>  0.8955  0.0000  0.0000 </r>
        <r>  0.0000  0.0000  0.0000 </r>
       </set>
       <set comment="band 2">
        <r>  0.0000  0.0000  0.0000 </r>
        <r>  0.8099  0.0000  0.0000 </r>
       </set>
       <set comment="band 3">
        <r>  0.0000  0.7506  0.0000 </r>
        <r>  0.0000  0.0009  0.0006 </r>
       </set>
       <set comment="band 4">
        <r>  0.0000  0.7506  0.0000 </r>
        <r>  0.0000  0.0009  0.0006 </r>
       </set>
       <set comment="band 5">
        <r>  0.0001  0.7568  0.0000 </r>
        <r>  0.0000  0.0000  0.0006 </r>
       </set>
       <set comment="band 6">
        <r>  0.0000  0.0045  0.0135 </r>
        <r>  0.0000  0.4951  0.0000 </r>
       </set>
       <set comment="band 7">
        <r>  0.0000  0.0045  0.0135 </r>
        <r>  0.0000  0.4951  0.0000 </r>
       </set>
       <set comment="band 8">
        <r>  0.0000  0.0000  0.0137 </r>
        <r>  0.0003  0.4983  0.0000 </r>
       </set>
       <set comment="band 9">
        <r>  0.0000  0.0000  0.2558 </r>
        <r>  0.0060  0.1865  0.0019 </r>
       </set>
       <set comment="band 10">
        <r>  0.0000  0.0172  0.2383 </r>
        <r>  0.0000  0.1495  0.0158 </r>
       </set>
       <set comment="band 11">
        <r>  0.0000  0.0172  0.2383 </r>
        <r>  0.0000  0.1495  0.0158 </r>
       </set>
       <set comment="band 12">
        <r>  0.0094  0.1202  0.0606 </r>
        <r>  0.0000  0.0000  0.0599 </r>
       </set>
       <set comment="band 13">
        <r>  0.0000  0.1345  0.0314 </r>
        <r>  0.0000  0.0480  0.0616 </r>
       </set>
       <set comment="band 14">
        <r>  0.0000  0.1345  0.0314 </r>
        <r>  0.0000  0.0480  0.0616 </r>
       </set>
       <set comment="band 15">
        <r>  0.0000  0.0000  0.5355 </r>
        <r>  0.0000  0.0000  0.0000 </r>
       </set>
       <set comment="band 16">
        <r>  0.0047  0.0145  0.4611 </r>
        <r>  0.0000  0.0000  0.0222 </r>
       </set>
      </set>
      <set comment="kpoint 84">
       <set comment="band 1">
        <r>  0.8956  0.0000  0.0000 </r>
        <r>  0.0000  0.0000  0.0000 </r>
       </set>
       <set comment="band 2">
        <r>  0.0000  0.0000  0.0000 </r>
        <r>  0.8106  0.0000  0.0000 </r>
       </set>
       <set comment="band 3">
        <r>  0.0000  0.7535  0.0000 </r>
        <r>  0.0000  0.0000  0.0006 </r>
       </set>
       <set comment="band 4">
        <r>  0.0000  0.7535  0.0000 </r>
        <r>  0.0000  0.0000  0.0006 </r>
       </set>
       <set comment="band 5">
        <r>  0.0000  0.7535  0.0000 </r>
        <r>  0.0000  0.0000  0.0006 </r>
       </set>
       <set comment="band 6">
        <r>  0.0000  0.0000  0.0143 </r>
        <r>  0.0000  0.4933  0.0000 </r>
       </set>
       <set comment="band 7">
        <r>  0.0000  0.0000  0.0143 </r>
        <r>  0.0000  0.4933  0.0000 </r>
       </set>
       <set comment="band 8">
        <r>  0.0000  0.0000  0.0143 </r>
        <r>  0.0000  0.4933  0.0000 </r>
       </set>
       <set comment="band 9">
        <r>  0.0000  0.0000  0.2697 </r>
        <r>  0.0000  0.2000  0.0000 </r>
       </set>
       <set comment="band 10">
        <r>  0.0000  0.0000  0.2697 </r>
        <r>  0.0000  0.2000  0.0000 </r>
       </set>
       <set comment="band 11">
        <r>  0.0000  0.0000  0.2697 </r>
        <r>  0.0000  0.2000  0.0000 </r>
       </set>
       <set comment="band 12">
        <r>  0.0000  0.1528  0.0000 </r>
        <r>  0.0000  0.0000  0.0787 </r>
       </set>
       <set comment="band 13">
        <r>  0.0000  0.1528  0.0000 </r>
        <r>  0.0000  0.0000  0.0787 </r>
       </set>
       <set comment="band 14">
        <r>  0.0000  0.1528  0.0000 </r>
        <r>  0.0000  0.0000  0.0787 </r>
       </set>
       <set comment="band 15">
        <r>  0.0000  0.0000  0.5370 </r>
        <r>  0.0000  0.0000  0.0000 </r>
       </set>
       <set comment="band 16">
        <r>  0.0000  0.0000  0.5370 </r>
        <r>  0.0000  0.0000  0.0000 </r>
       </set>
      </set>
     </set>
    </set>
   </array>
  </projected>
 </calculation>
 <structure name="finalpos" >
  <crystal>
   <varray name="basis" >
    <v>       4.30097408      -0.00000000       0.00000000 </v>
    <v>       0.00000000       4.30097408      -0.00000000 </v>
    <v>       0.00000000       0.00000000       4.30097408 </v>
   </varray>
   <i name="volume">     79.56104445 </i>
   <varray name="rec_basis" >
    <v>       0.23250547      -0.00000000       0.00000000 </v>
    <v>       0.00000000       0.23250547      -0.00000000 </v>
    <v>       0.00000000       0.00000000       0.23250547 </v>
   </varray>
  </crystal>
  <varray name="positions" >
   <v>       0.00000000       0.00000000       0.00000000 </v>
   <v>       0.50000000       0.50000000       0.50000000 </v>
  </varray>
 </structure>
</modeling>
