CsPbBr3 cubic bulk                      
           1
     4.300974   -0.000000    0.000000
     0.000000    4.300974   -0.000000
     0.000000    0.000000    4.300974
   Cs   Br
   1   1
Direct configuration=     1
   0.00000000  0.00000000  0.00000000
   0.50000000  0.50000000  0.50000000
