  20  20   1   0
  0.4064901E+02  0.1018360E-08  0.1018360E-08  0.1018360E-08  0.5000000E-15
   1.0000000000000000E-004
  CAR 
 CsPbBr3 cubic bulk                      
      8.69020593    -22.53455961  301      0.38962242      1.00000000
    -22.535  0.0000E+00  0.0000E+00
    -22.430  0.0000E+00  0.0000E+00
    -22.326  0.0000E+00  0.0000E+00
    -22.222  0.0000E+00  0.0000E+00
    -22.118  0.0000E+00  0.0000E+00
    -22.014  0.0000E+00  0.0000E+00
    -21.910  0.0000E+00  0.0000E+00
    -21.806  0.0000E+00  0.0000E+00
    -21.702  0.0000E+00  0.0000E+00
    -21.598  0.0000E+00  0.0000E+00
    -21.494  0.0000E+00  0.0000E+00
    -21.390  0.0000E+00  0.0000E+00
    -21.286  0.0000E+00  0.0000E+00
    -21.181  0.0000E+00  0.0000E+00
    -21.077  0.1922E+02  0.2000E+01
    -20.973  0.1307E+00  0.2014E+01
    -20.869  0.3843E+02  0.8000E+01
    -20.765  0.0000E+00  0.8000E+01
    -20.661  0.0000E+00  0.8000E+01
    -20.557  0.0000E+00  0.8000E+01
    -20.453  0.0000E+00  0.8000E+01
    -20.349  0.0000E+00  0.8000E+01
    -20.245  0.0000E+00  0.8000E+01
    -20.141  0.0000E+00  0.8000E+01
    -20.037  0.0000E+00  0.8000E+01
    -19.932  0.0000E+00  0.8000E+01
    -19.828  0.0000E+00  0.8000E+01
    -19.724  0.0000E+00  0.8000E+01
    -19.620  0.0000E+00  0.8000E+01
    -19.516  0.0000E+00  0.8000E+01
    -19.412  0.0000E+00  0.8000E+01
    -19.308  0.0000E+00  0.8000E+01
    -19.204  0.0000E+00  0.8000E+01
    -19.100  0.0000E+00  0.8000E+01
    -18.996  0.0000E+00  0.8000E+01
    -18.892  0.0000E+00  0.8000E+01
    -18.788  0.0000E+00  0.8000E+01
    -18.684  0.0000E+00  0.8000E+01
    -18.579  0.0000E+00  0.8000E+01
    -18.475  0.0000E+00  0.8000E+01
    -18.371  0.0000E+00  0.8000E+01
    -18.267  0.0000E+00  0.8000E+01
    -18.163  0.0000E+00  0.8000E+01
    -18.059  0.0000E+00  0.8000E+01
    -17.955  0.0000E+00  0.8000E+01
    -17.851  0.0000E+00  0.8000E+01
    -17.747  0.0000E+00  0.8000E+01
    -17.643  0.0000E+00  0.8000E+01
    -17.539  0.0000E+00  0.8000E+01
    -17.435  0.0000E+00  0.8000E+01
    -17.330  0.0000E+00  0.8000E+01
    -17.226  0.0000E+00  0.8000E+01
    -17.122  0.0000E+00  0.8000E+01
    -17.018  0.0000E+00  0.8000E+01
    -16.914  0.0000E+00  0.8000E+01
    -16.810  0.0000E+00  0.8000E+01
    -16.706  0.0000E+00  0.8000E+01
    -16.602  0.0000E+00  0.8000E+01
    -16.498  0.0000E+00  0.8000E+01
    -16.394  0.5652E+02  0.1388E+02
    -16.290  0.5622E+02  0.2400E+02
    -16.186  0.2306E+03  0.4800E+02
    -16.081  0.0000E+00  0.4800E+02
    -15.977  0.0000E+00  0.4800E+02
    -15.873  0.0000E+00  0.4800E+02
    -15.769  0.0000E+00  0.4800E+02
    -15.665  0.0000E+00  0.4800E+02
    -15.561  0.0000E+00  0.4800E+02
    -15.457  0.0000E+00  0.4800E+02
    -15.353  0.0000E+00  0.4800E+02
    -15.249  0.0000E+00  0.4800E+02
    -15.145  0.0000E+00  0.4800E+02
    -15.041  0.0000E+00  0.4800E+02
    -14.937  0.0000E+00  0.4800E+02
    -14.832  0.0000E+00  0.4800E+02
    -14.728  0.0000E+00  0.4800E+02
    -14.624  0.0000E+00  0.4800E+02
    -14.520  0.0000E+00  0.4800E+02
    -14.416  0.2124E-04  0.4800E+02
    -14.312  0.9243E+01  0.4896E+02
    -14.208  0.2139E+02  0.5119E+02
    -14.104  0.2112E+02  0.5427E+02
    -14.000  0.4256E+02  0.5976E+02
    -13.896  0.5249E+02  0.6524E+02
    -13.792  0.3387E+02  0.6960E+02
    -13.688  0.1423E+02  0.7200E+02
    -13.583  0.0000E+00  0.7200E+02
    -13.479  0.0000E+00  0.7200E+02
    -13.375  0.0000E+00  0.7200E+02
    -13.271  0.0000E+00  0.7200E+02
    -13.167  0.0000E+00  0.7200E+02
    -13.063  0.0000E+00  0.7200E+02
    -12.959  0.0000E+00  0.7200E+02
    -12.855  0.0000E+00  0.7200E+02
    -12.751  0.0000E+00  0.7200E+02
    -12.647  0.0000E+00  0.7200E+02
    -12.543  0.0000E+00  0.7200E+02
    -12.439  0.0000E+00  0.7200E+02
    -12.334  0.0000E+00  0.7200E+02
    -12.230  0.0000E+00  0.7200E+02
    -12.126  0.0000E+00  0.7200E+02
    -12.022  0.0000E+00  0.7200E+02
    -11.918  0.0000E+00  0.7200E+02
    -11.814  0.0000E+00  0.7200E+02
    -11.710  0.0000E+00  0.7200E+02
    -11.606  0.0000E+00  0.7200E+02
    -11.502  0.0000E+00  0.7200E+02
    -11.398  0.0000E+00  0.7200E+02
    -11.294  0.0000E+00  0.7200E+02
    -11.190  0.0000E+00  0.7200E+02
    -11.085  0.0000E+00  0.7200E+02
    -10.981  0.0000E+00  0.7200E+02
    -10.877  0.0000E+00  0.7200E+02
    -10.773  0.0000E+00  0.7200E+02
    -10.669  0.0000E+00  0.7200E+02
    -10.565  0.0000E+00  0.7200E+02
    -10.461  0.0000E+00  0.7200E+02
    -10.357  0.0000E+00  0.7200E+02
    -10.253  0.0000E+00  0.7200E+02
    -10.149  0.0000E+00  0.7200E+02
    -10.045  0.0000E+00  0.7200E+02
     -9.941  0.0000E+00  0.7200E+02
     -9.836  0.0000E+00  0.7200E+02
     -9.732  0.0000E+00  0.7200E+02
     -9.628  0.0000E+00  0.7200E+02
     -9.524  0.0000E+00  0.7200E+02
     -9.420  0.0000E+00  0.7200E+02
     -9.316  0.0000E+00  0.7200E+02
     -9.212  0.0000E+00  0.7200E+02
     -9.108  0.0000E+00  0.7200E+02
     -9.004  0.0000E+00  0.7200E+02
     -8.900  0.0000E+00  0.7200E+02
     -8.796  0.0000E+00  0.7200E+02
     -8.692  0.0000E+00  0.7200E+02
     -8.587  0.0000E+00  0.7200E+02
     -8.483  0.0000E+00  0.7200E+02
     -8.379  0.0000E+00  0.7200E+02
     -8.275  0.0000E+00  0.7200E+02
     -8.171  0.7901E-16  0.7200E+02
     -8.067  0.4270E+01  0.7244E+02
     -7.963  0.0000E+00  0.7244E+02
     -7.859  0.5671E+01  0.7303E+02
     -7.755  0.3389E-02  0.7304E+02
     -7.651  0.1352E+02  0.7504E+02
     -7.547  0.0000E+00  0.7504E+02
     -7.443  0.6585E+02  0.8189E+02
     -7.339  0.4448E+02  0.8656E+02
     -7.234  0.9163E+02  0.1017E+03
     -7.130  0.0000E+00  0.1026E+03
     -7.026  0.7901E-16  0.1026E+03
     -6.922  0.4270E+01  0.1030E+03
     -6.818  0.8539E+01  0.1039E+03
     -6.714  0.0000E+00  0.1039E+03
     -6.610  0.0000E+00  0.1039E+03
     -6.506  0.0000E+00  0.1039E+03
     -6.402  0.7117E+00  0.1040E+03
     -6.298  0.0000E+00  0.1040E+03
     -6.194  0.0000E+00  0.1040E+03
     -6.090  0.0000E+00  0.1040E+03
     -5.985  0.0000E+00  0.1040E+03
     -5.881  0.0000E+00  0.1040E+03
     -5.777  0.0000E+00  0.1040E+03
     -5.673  0.0000E+00  0.1040E+03
     -5.569  0.0000E+00  0.1040E+03
     -5.465  0.0000E+00  0.1040E+03
     -5.361  0.0000E+00  0.1040E+03
     -5.257  0.0000E+00  0.1040E+03
     -5.153  0.0000E+00  0.1040E+03
     -5.049  0.0000E+00  0.1040E+03
     -4.945  0.0000E+00  0.1040E+03
     -4.841  0.0000E+00  0.1040E+03
     -4.736  0.0000E+00  0.1040E+03
     -4.632  0.0000E+00  0.1040E+03
     -4.528  0.0000E+00  0.1040E+03
     -4.424  0.0000E+00  0.1040E+03
     -4.320  0.0000E+00  0.1040E+03
     -4.216  0.0000E+00  0.1040E+03
     -4.112  0.0000E+00  0.1040E+03
     -4.008  0.0000E+00  0.1040E+03
     -3.904  0.0000E+00  0.1040E+03
     -3.800  0.0000E+00  0.1040E+03
     -3.696  0.0000E+00  0.1040E+03
     -3.592  0.0000E+00  0.1040E+03
     -3.487  0.0000E+00  0.1040E+03
     -3.383  0.3551E-02  0.1040E+03
     -3.279  0.1730E+02  0.1059E+03
     -3.175  0.1559E+02  0.1078E+03
     -3.071  0.2135E+01  0.1080E+03
     -2.967  0.9134E+01  0.1090E+03
     -2.863  0.5593E+01  0.1112E+03
     -2.759  0.4169E+02  0.1159E+03
     -2.655  0.0000E+00  0.1160E+03
     -2.551  0.0000E+00  0.1160E+03
     -2.447  0.0000E+00  0.1160E+03
     -2.343  0.0000E+00  0.1160E+03
     -2.238  0.5443E+01  0.1166E+03
     -2.134  0.2113E+02  0.1192E+03
     -2.030  0.4348E+02  0.1250E+03
     -1.926  0.8605E+01  0.1269E+03
     -1.822  0.8540E+01  0.1282E+03
     -1.718  0.3081E+02  0.1314E+03
     -1.614  0.2348E+02  0.1345E+03
     -1.510  0.3198E+02  0.1378E+03
     -1.406  0.4071E+02  0.1428E+03
     -1.302  0.6992E+02  0.1504E+03
     -1.198  0.4771E+02  0.1568E+03
     -1.094  0.3357E+02  0.1631E+03
     -0.989  0.2482E+02  0.1669E+03
     -0.885  0.1001E+02  0.1689E+03
     -0.781  0.1554E+02  0.1712E+03
     -0.677  0.6176E+01  0.1718E+03
     -0.573  0.6286E+01  0.1727E+03
     -0.469  0.2208E-04  0.1730E+03
     -0.365  0.5693E+01  0.1736E+03
     -0.261  0.1708E+02  0.1753E+03
     -0.157  0.0000E+00  0.1753E+03
     -0.053  0.2267E-01  0.1753E+03
      0.051  0.0000E+00  0.1756E+03
      0.155  0.0000E+00  0.1756E+03
      0.260  0.6034E-01  0.1756E+03
      0.364  0.0000E+00  0.1760E+03
      0.468  0.0000E+00  0.1760E+03
      0.572  0.0000E+00  0.1760E+03
      0.676  0.0000E+00  0.1760E+03
      0.780  0.0000E+00  0.1760E+03
      0.884  0.0000E+00  0.1760E+03
      0.988  0.0000E+00  0.1760E+03
      1.092  0.0000E+00  0.1760E+03
      1.196  0.0000E+00  0.1760E+03
      1.300  0.0000E+00  0.1760E+03
      1.404  0.0000E+00  0.1760E+03
      1.509  0.0000E+00  0.1760E+03
      1.613  0.0000E+00  0.1760E+03
      1.717  0.0000E+00  0.1760E+03
      1.821  0.0000E+00  0.1760E+03
      1.925  0.0000E+00  0.1760E+03
      2.029  0.0000E+00  0.1760E+03
      2.133  0.0000E+00  0.1760E+03
      2.237  0.0000E+00  0.1760E+03
      2.341  0.0000E+00  0.1760E+03
      2.445  0.0000E+00  0.1760E+03
      2.549  0.0000E+00  0.1760E+03
      2.653  0.0000E+00  0.1760E+03
      2.758  0.0000E+00  0.1760E+03
      2.862  0.2943E+01  0.1763E+03
      2.966  0.0000E+00  0.1769E+03
      3.070  0.0000E+00  0.1769E+03
      3.174  0.5533E+00  0.1769E+03
      3.278  0.2135E+01  0.1791E+03
      3.382  0.0000E+00  0.1791E+03
      3.486  0.4264E+01  0.1796E+03
      3.590  0.4270E+01  0.1800E+03
      3.694  0.4270E+01  0.1804E+03
      3.798  0.1139E+02  0.1816E+03
      3.902  0.5470E+01  0.1822E+03
      4.006  0.5693E+01  0.1840E+03
      4.111  0.8540E+01  0.1849E+03
      4.215  0.2421E+02  0.1874E+03
      4.319  0.7944E-11  0.1876E+03
      4.423  0.4270E+01  0.1880E+03
      4.527  0.0000E+00  0.1880E+03
      4.631  0.2477E-01  0.1880E+03
      4.735  0.0000E+00  0.1881E+03
      4.839  0.0000E+00  0.1881E+03
      4.943  0.0000E+00  0.1881E+03
      5.047  0.9723E-08  0.1881E+03
      5.151  0.2507E+02  0.1907E+03
      5.255  0.2987E-10  0.1907E+03
      5.360  0.1706E+02  0.1925E+03
      5.464  0.1410E+02  0.1952E+03
      5.568  0.2607E-13  0.1952E+03
      5.672  0.5521E+01  0.1958E+03
      5.776  0.3547E+01  0.1967E+03
      5.880  0.9055E+01  0.1978E+03
      5.984  0.1031E+02  0.1989E+03
      6.088  0.2799E+02  0.2022E+03
      6.192  0.1274E+02  0.2046E+03
      6.296  0.1905E+02  0.2069E+03
      6.400  0.4270E+01  0.2083E+03
      6.504  0.2560E+02  0.2110E+03
      6.609  0.2843E+02  0.2144E+03
      6.713  0.2262E+02  0.2172E+03
      6.817  0.2501E+02  0.2206E+03
      6.921  0.1419E+02  0.2224E+03
      7.025  0.1222E+02  0.2237E+03
      7.129  0.0000E+00  0.2239E+03
      7.233  0.3086E-07  0.2239E+03
      7.337  0.7117E+00  0.2240E+03
      7.441  0.0000E+00  0.2240E+03
      7.545  0.0000E+00  0.2240E+03
      7.649  0.0000E+00  0.2240E+03
      7.753  0.0000E+00  0.2240E+03
      7.858  0.0000E+00  0.2240E+03
      7.962  0.0000E+00  0.2240E+03
      8.066  0.0000E+00  0.2240E+03
      8.170  0.0000E+00  0.2240E+03
      8.274  0.0000E+00  0.2240E+03
      8.378  0.0000E+00  0.2240E+03
      8.482  0.0000E+00  0.2240E+03
      8.586  0.0000E+00  0.2240E+03
      8.690  0.0000E+00  0.2240E+03
      8.69020593    -22.53455961  301      0.38962242      1.00000000
    -22.535  0.0000E+00  0.0000E+00  0.0000E+00
    -22.430  0.0000E+00  0.0000E+00  0.0000E+00
    -22.326  0.0000E+00  0.0000E+00  0.0000E+00
    -22.222  0.0000E+00  0.0000E+00  0.0000E+00
    -22.118  0.0000E+00  0.0000E+00  0.0000E+00
    -22.014  0.0000E+00  0.0000E+00  0.0000E+00
    -21.910  0.0000E+00  0.0000E+00  0.0000E+00
    -21.806  0.0000E+00  0.0000E+00  0.0000E+00
    -21.702  0.0000E+00  0.0000E+00  0.0000E+00
    -21.598  0.0000E+00  0.0000E+00  0.0000E+00
    -21.494  0.0000E+00  0.0000E+00  0.0000E+00
    -21.390  0.0000E+00  0.0000E+00  0.0000E+00
    -21.286  0.0000E+00  0.0000E+00  0.0000E+00
    -21.181  0.0000E+00  0.0000E+00  0.0000E+00
    -21.077  0.1705E+02  0.2391E-08  0.7660E-06
    -20.973  0.7592E-06  0.1955E-09  0.1807E-10
    -20.869  0.1869E-03  0.6938E-07  0.7251E-08
    -20.765  0.0000E+00  0.0000E+00  0.0000E+00
    -20.661  0.0000E+00  0.0000E+00  0.0000E+00
    -20.557  0.0000E+00  0.0000E+00  0.0000E+00
    -20.453  0.0000E+00  0.0000E+00  0.0000E+00
    -20.349  0.0000E+00  0.0000E+00  0.0000E+00
    -20.245  0.0000E+00  0.0000E+00  0.0000E+00
    -20.141  0.0000E+00  0.0000E+00  0.0000E+00
    -20.037  0.0000E+00  0.0000E+00  0.0000E+00
    -19.932  0.0000E+00  0.0000E+00  0.0000E+00
    -19.828  0.0000E+00  0.0000E+00  0.0000E+00
    -19.724  0.0000E+00  0.0000E+00  0.0000E+00
    -19.620  0.0000E+00  0.0000E+00  0.0000E+00
    -19.516  0.0000E+00  0.0000E+00  0.0000E+00
    -19.412  0.0000E+00  0.0000E+00  0.0000E+00
    -19.308  0.0000E+00  0.0000E+00  0.0000E+00
    -19.204  0.0000E+00  0.0000E+00  0.0000E+00
    -19.100  0.0000E+00  0.0000E+00  0.0000E+00
    -18.996  0.0000E+00  0.0000E+00  0.0000E+00
    -18.892  0.0000E+00  0.0000E+00  0.0000E+00
    -18.788  0.0000E+00  0.0000E+00  0.0000E+00
    -18.684  0.0000E+00  0.0000E+00  0.0000E+00
    -18.579  0.0000E+00  0.0000E+00  0.0000E+00
    -18.475  0.0000E+00  0.0000E+00  0.0000E+00
    -18.371  0.0000E+00  0.0000E+00  0.0000E+00
    -18.267  0.0000E+00  0.0000E+00  0.0000E+00
    -18.163  0.0000E+00  0.0000E+00  0.0000E+00
    -18.059  0.0000E+00  0.0000E+00  0.0000E+00
    -17.955  0.0000E+00  0.0000E+00  0.0000E+00
    -17.851  0.0000E+00  0.0000E+00  0.0000E+00
    -17.747  0.0000E+00  0.0000E+00  0.0000E+00
    -17.643  0.0000E+00  0.0000E+00  0.0000E+00
    -17.539  0.0000E+00  0.0000E+00  0.0000E+00
    -17.435  0.0000E+00  0.0000E+00  0.0000E+00
    -17.330  0.0000E+00  0.0000E+00  0.0000E+00
    -17.226  0.0000E+00  0.0000E+00  0.0000E+00
    -17.122  0.0000E+00  0.0000E+00  0.0000E+00
    -17.018  0.0000E+00  0.0000E+00  0.0000E+00
    -16.914  0.0000E+00  0.0000E+00  0.0000E+00
    -16.810  0.0000E+00  0.0000E+00  0.0000E+00
    -16.706  0.0000E+00  0.0000E+00  0.0000E+00
    -16.602  0.0000E+00  0.0000E+00  0.0000E+00
    -16.498  0.0000E+00  0.0000E+00  0.0000E+00
    -16.394  0.1942E-05  0.6132E-05  0.3874E-05
    -16.290  0.1197E-06  0.1337E-04  0.9186E-06
    -16.186  0.2565E-04  0.1776E-04  0.1831E-05
    -16.081  0.0000E+00  0.0000E+00  0.0000E+00
    -15.977  0.0000E+00  0.0000E+00  0.0000E+00
    -15.873  0.0000E+00  0.0000E+00  0.0000E+00
    -15.769  0.0000E+00  0.0000E+00  0.0000E+00
    -15.665  0.0000E+00  0.0000E+00  0.0000E+00
    -15.561  0.0000E+00  0.0000E+00  0.0000E+00
    -15.457  0.0000E+00  0.0000E+00  0.0000E+00
    -15.353  0.0000E+00  0.0000E+00  0.0000E+00
    -15.249  0.0000E+00  0.0000E+00  0.0000E+00
    -15.145  0.0000E+00  0.0000E+00  0.0000E+00
    -15.041  0.0000E+00  0.0000E+00  0.0000E+00
    -14.937  0.0000E+00  0.0000E+00  0.0000E+00
    -14.832  0.0000E+00  0.0000E+00  0.0000E+00
    -14.728  0.0000E+00  0.0000E+00  0.0000E+00
    -14.624  0.0000E+00  0.0000E+00  0.0000E+00
    -14.520  0.0000E+00  0.0000E+00  0.0000E+00
    -14.416  0.3798E-08  0.4747E-23  0.1233E-11
    -14.312  0.1191E-02  0.2981E-03  0.1787E-05
    -14.208  0.1212E-02  0.1527E-02  0.2032E-04
    -14.104  0.5869E-04  0.1854E-02  0.5114E-04
    -14.000  0.6121E-03  0.1506E-02  0.1349E-03
    -13.896  0.1897E-03  0.1465E-02  0.1810E-03
    -13.792  0.4275E-04  0.3257E-03  0.9970E-04
    -13.688  0.1966E-04  0.5910E-04  0.3877E-04
    -13.583  0.0000E+00  0.0000E+00  0.0000E+00
    -13.479  0.0000E+00  0.0000E+00  0.0000E+00
    -13.375  0.0000E+00  0.0000E+00  0.0000E+00
    -13.271  0.0000E+00  0.0000E+00  0.0000E+00
    -13.167  0.0000E+00  0.0000E+00  0.0000E+00
    -13.063  0.0000E+00  0.0000E+00  0.0000E+00
    -12.959  0.0000E+00  0.0000E+00  0.0000E+00
    -12.855  0.0000E+00  0.0000E+00  0.0000E+00
    -12.751  0.0000E+00  0.0000E+00  0.0000E+00
    -12.647  0.0000E+00  0.0000E+00  0.0000E+00
    -12.543  0.0000E+00  0.0000E+00  0.0000E+00
    -12.439  0.0000E+00  0.0000E+00  0.0000E+00
    -12.334  0.0000E+00  0.0000E+00  0.0000E+00
    -12.230  0.0000E+00  0.0000E+00  0.0000E+00
    -12.126  0.0000E+00  0.0000E+00  0.0000E+00
    -12.022  0.0000E+00  0.0000E+00  0.0000E+00
    -11.918  0.0000E+00  0.0000E+00  0.0000E+00
    -11.814  0.0000E+00  0.0000E+00  0.0000E+00
    -11.710  0.0000E+00  0.0000E+00  0.0000E+00
    -11.606  0.0000E+00  0.0000E+00  0.0000E+00
    -11.502  0.0000E+00  0.0000E+00  0.0000E+00
    -11.398  0.0000E+00  0.0000E+00  0.0000E+00
    -11.294  0.0000E+00  0.0000E+00  0.0000E+00
    -11.190  0.0000E+00  0.0000E+00  0.0000E+00
    -11.085  0.0000E+00  0.0000E+00  0.0000E+00
    -10.981  0.0000E+00  0.0000E+00  0.0000E+00
    -10.877  0.0000E+00  0.0000E+00  0.0000E+00
    -10.773  0.0000E+00  0.0000E+00  0.0000E+00
    -10.669  0.0000E+00  0.0000E+00  0.0000E+00
    -10.565  0.0000E+00  0.0000E+00  0.0000E+00
    -10.461  0.0000E+00  0.0000E+00  0.0000E+00
    -10.357  0.0000E+00  0.0000E+00  0.0000E+00
    -10.253  0.0000E+00  0.0000E+00  0.0000E+00
    -10.149  0.0000E+00  0.0000E+00  0.0000E+00
    -10.045  0.0000E+00  0.0000E+00  0.0000E+00
     -9.941  0.0000E+00  0.0000E+00  0.0000E+00
     -9.836  0.0000E+00  0.0000E+00  0.0000E+00
     -9.732  0.0000E+00  0.0000E+00  0.0000E+00
     -9.628  0.0000E+00  0.0000E+00  0.0000E+00
     -9.524  0.0000E+00  0.0000E+00  0.0000E+00
     -9.420  0.0000E+00  0.0000E+00  0.0000E+00
     -9.316  0.0000E+00  0.0000E+00  0.0000E+00
     -9.212  0.0000E+00  0.0000E+00  0.0000E+00
     -9.108  0.0000E+00  0.0000E+00  0.0000E+00
     -9.004  0.0000E+00  0.0000E+00  0.0000E+00
     -8.900  0.0000E+00  0.0000E+00  0.0000E+00
     -8.796  0.0000E+00  0.0000E+00  0.0000E+00
     -8.692  0.0000E+00  0.0000E+00  0.0000E+00
     -8.587  0.0000E+00  0.0000E+00  0.0000E+00
     -8.483  0.0000E+00  0.0000E+00  0.0000E+00
     -8.379  0.0000E+00  0.0000E+00  0.0000E+00
     -8.275  0.0000E+00  0.0000E+00  0.0000E+00
     -8.171  0.1289E-30  0.1450E-28  0.1747E-22
     -8.067  0.6078E-14  0.7731E-12  0.1338E-05
     -7.963  0.0000E+00  0.0000E+00  0.0000E+00
     -7.859  0.7590E-06  0.2222E-03  0.4972E-05
     -7.755  0.3839E-17  0.3379E-06  0.4678E-08
     -7.651  0.2997E-13  0.1388E-02  0.1939E-04
     -7.547  0.0000E+00  0.0000E+00  0.0000E+00
     -7.443  0.3502E-05  0.4422E+02  0.1451E-04
     -7.339  0.1301E-04  0.8398E-01  0.2368E-04
     -7.234  0.8820E-05  0.1152E+00  0.1625E-04
     -7.130  0.0000E+00  0.0000E+00  0.0000E+00
     -7.026  0.7279E-22  0.1955E-19  0.2659E-23
     -6.922  0.4067E-05  0.8299E-03  0.1190E-06
     -6.818  0.1588E-04  0.1761E-02  0.4936E-05
     -6.714  0.0000E+00  0.0000E+00  0.0000E+00
     -6.610  0.0000E+00  0.0000E+00  0.0000E+00
     -6.506  0.0000E+00  0.0000E+00  0.0000E+00
     -6.402  0.1219E-05  0.4408E-17  0.9932E-07
     -6.298  0.0000E+00  0.0000E+00  0.0000E+00
     -6.194  0.0000E+00  0.0000E+00  0.0000E+00
     -6.090  0.0000E+00  0.0000E+00  0.0000E+00
     -5.985  0.0000E+00  0.0000E+00  0.0000E+00
     -5.881  0.0000E+00  0.0000E+00  0.0000E+00
     -5.777  0.0000E+00  0.0000E+00  0.0000E+00
     -5.673  0.0000E+00  0.0000E+00  0.0000E+00
     -5.569  0.0000E+00  0.0000E+00  0.0000E+00
     -5.465  0.0000E+00  0.0000E+00  0.0000E+00
     -5.361  0.0000E+00  0.0000E+00  0.0000E+00
     -5.257  0.0000E+00  0.0000E+00  0.0000E+00
     -5.153  0.0000E+00  0.0000E+00  0.0000E+00
     -5.049  0.0000E+00  0.0000E+00  0.0000E+00
     -4.945  0.0000E+00  0.0000E+00  0.0000E+00
     -4.841  0.0000E+00  0.0000E+00  0.0000E+00
     -4.736  0.0000E+00  0.0000E+00  0.0000E+00
     -4.632  0.0000E+00  0.0000E+00  0.0000E+00
     -4.528  0.0000E+00  0.0000E+00  0.0000E+00
     -4.424  0.0000E+00  0.0000E+00  0.0000E+00
     -4.320  0.0000E+00  0.0000E+00  0.0000E+00
     -4.216  0.0000E+00  0.0000E+00  0.0000E+00
     -4.112  0.0000E+00  0.0000E+00  0.0000E+00
     -4.008  0.0000E+00  0.0000E+00  0.0000E+00
     -3.904  0.0000E+00  0.0000E+00  0.0000E+00
     -3.800  0.0000E+00  0.0000E+00  0.0000E+00
     -3.696  0.0000E+00  0.0000E+00  0.0000E+00
     -3.592  0.0000E+00  0.0000E+00  0.0000E+00
     -3.487  0.0000E+00  0.0000E+00  0.0000E+00
     -3.383  0.5833E-21  0.5939E-05  0.2783E-19
     -3.279  0.2378E-12  0.1283E-01  0.8580E-03
     -3.175  0.4297E-12  0.1015E-02  0.1023E-02
     -3.071  0.6415E-12  0.1859E-08  0.5817E-11
     -2.967  0.3476E-05  0.1258E-01  0.9199E-04
     -2.863  0.4345E-12  0.1277E-02  0.5614E-03
     -2.759  0.9549E-03  0.1910E-01  0.1980E-02
     -2.655  0.0000E+00  0.0000E+00  0.0000E+00
     -2.551  0.0000E+00  0.0000E+00  0.0000E+00
     -2.447  0.0000E+00  0.0000E+00  0.0000E+00
     -2.343  0.0000E+00  0.0000E+00  0.0000E+00
     -2.238  0.1134E-04  0.7406E-02  0.9166E-04
     -2.134  0.1214E-01  0.7970E-02  0.1679E-02
     -2.030  0.1181E-01  0.6706E-01  0.4553E-02
     -1.926  0.1713E-02  0.1183E-01  0.5783E-03
     -1.822  0.4866E-12  0.4906E-01  0.4045E-03
     -1.718  0.5907E-03  0.1198E+00  0.5332E-02
     -1.614  0.1592E-02  0.5521E-01  0.6295E-02
     -1.510  0.5717E-03  0.2990E-01  0.9338E-02
     -1.406  0.6629E-03  0.1827E-01  0.1252E-01
     -1.302  0.1848E-02  0.4809E-01  0.9501E-02
     -1.198  0.2697E-02  0.4040E-01  0.9855E-02
     -1.094  0.7910E-03  0.3840E-01  0.4121E-02
     -0.989  0.6007E-03  0.3598E-02  0.3215E-02
     -0.885  0.1001E-03  0.7314E-04  0.7339E-03
     -0.781  0.8653E-03  0.6320E-03  0.6268E-03
     -0.677  0.3126E-03  0.1302E-02  0.1252E-03
     -0.573  0.3554E-12  0.8769E-03  0.4958E-04
     -0.469  0.3738E-09  0.1436E-08  0.1149E-09
     -0.365  0.9640E-04  0.3702E-03  0.2962E-04
     -0.261  0.1980E-11  0.1896E-02  0.5122E-03
     -0.157  0.0000E+00  0.0000E+00  0.0000E+00
     -0.053  0.4248E-14  0.3366E-18  0.2860E-05
      0.051  0.0000E+00  0.0000E+00  0.0000E+00
      0.155  0.0000E+00  0.0000E+00  0.0000E+00
      0.260  0.2501E-14  0.5047E-13  0.8353E-06
      0.364  0.0000E+00  0.0000E+00  0.0000E+00
      0.468  0.0000E+00  0.0000E+00  0.0000E+00
      0.572  0.0000E+00  0.0000E+00  0.0000E+00
      0.676  0.0000E+00  0.0000E+00  0.0000E+00
      0.780  0.0000E+00  0.0000E+00  0.0000E+00
      0.884  0.0000E+00  0.0000E+00  0.0000E+00
      0.988  0.0000E+00  0.0000E+00  0.0000E+00
      1.092  0.0000E+00  0.0000E+00  0.0000E+00
      1.196  0.0000E+00  0.0000E+00  0.0000E+00
      1.300  0.0000E+00  0.0000E+00  0.0000E+00
      1.404  0.0000E+00  0.0000E+00  0.0000E+00
      1.509  0.0000E+00  0.0000E+00  0.0000E+00
      1.613  0.0000E+00  0.0000E+00  0.0000E+00
      1.717  0.0000E+00  0.0000E+00  0.0000E+00
      1.821  0.0000E+00  0.0000E+00  0.0000E+00
      1.925  0.0000E+00  0.0000E+00  0.0000E+00
      2.029  0.0000E+00  0.0000E+00  0.0000E+00
      2.133  0.0000E+00  0.0000E+00  0.0000E+00
      2.237  0.0000E+00  0.0000E+00  0.0000E+00
      2.341  0.0000E+00  0.0000E+00  0.0000E+00
      2.445  0.0000E+00  0.0000E+00  0.0000E+00
      2.549  0.0000E+00  0.0000E+00  0.0000E+00
      2.653  0.0000E+00  0.0000E+00  0.0000E+00
      2.758  0.0000E+00  0.0000E+00  0.0000E+00
      2.862  0.8429E-12  0.9504E-04  0.1399E-02
      2.966  0.0000E+00  0.0000E+00  0.0000E+00
      3.070  0.0000E+00  0.0000E+00  0.0000E+00
      3.174  0.6080E-06  0.2920E-04  0.3452E-04
      3.278  0.6539E-16  0.1551E-03  0.3131E-15
      3.382  0.0000E+00  0.0000E+00  0.0000E+00
      3.486  0.4178E-04  0.1823E-03  0.1117E-02
      3.590  0.3671E-04  0.9182E-04  0.5274E-03
      3.694  0.4981E-11  0.8951E-11  0.4890E-02
      3.798  0.9299E-05  0.5519E-03  0.6375E-02
      3.902  0.1688E-04  0.4146E-03  0.2725E-02
      4.006  0.1663E-10  0.1404E-02  0.1043E-02
      4.111  0.2546E-03  0.7086E-03  0.9926E-03
      4.215  0.8713E-03  0.4132E-02  0.4546E-02
      4.319  0.7534E-15  0.4200E-15  0.3019E-14
      4.423  0.3355E-03  0.1951E-03  0.1055E-02
      4.527  0.0000E+00  0.0000E+00  0.0000E+00
      4.631  0.3349E-03  0.8125E-17  0.1249E-05
      4.735  0.0000E+00  0.0000E+00  0.0000E+00
      4.839  0.0000E+00  0.0000E+00  0.0000E+00
      4.943  0.0000E+00  0.0000E+00  0.0000E+00
      5.047  0.3096E-14  0.1001E-12  0.2226E-10
      5.151  0.9280E-01  0.1895E-01  0.3695E-01
      5.255  0.6551E-13  0.5728E-14  0.3140E-13
      5.360  0.1579E-01  0.1432E-01  0.1786E-01
      5.464  0.3644E-02  0.6567E-02  0.1077E-01
      5.568  0.3282E-15  0.6026E-16  0.9088E-16
      5.672  0.5440E-01  0.1156E-01  0.1680E-01
      5.776  0.2082E-04  0.6417E-03  0.2613E-01
      5.880  0.1577E-01  0.1087E-02  0.6413E-01
      5.984  0.1608E-01  0.1716E-02  0.9700E-02
      6.088  0.1718E+00  0.1767E-01  0.2942E+00
      6.192  0.7854E-02  0.5274E-02  0.1568E+00
      6.296  0.1812E-01  0.1416E-01  0.2390E+00
      6.400  0.3185E-01  0.7681E-02  0.3000E-01
      6.504  0.7767E-01  0.3775E-01  0.9259E+00
      6.609  0.4578E-01  0.2314E-01  0.8459E+00
      6.713  0.1726E-01  0.3278E-01  0.4945E+00
      6.817  0.8125E-04  0.1159E-01  0.1112E+01
      6.921  0.1912E-02  0.3571E-01  0.6811E+00
      7.025  0.1198E-01  0.1538E-01  0.4598E+00
      7.129  0.0000E+00  0.0000E+00  0.0000E+00
      7.233  0.8895E-09  0.2597E-14  0.3936E-10
      7.337  0.2051E-01  0.5990E-07  0.9077E-03
      7.441  0.0000E+00  0.0000E+00  0.0000E+00
      7.545  0.0000E+00  0.0000E+00  0.0000E+00
      7.649  0.0000E+00  0.0000E+00  0.0000E+00
      7.753  0.0000E+00  0.0000E+00  0.0000E+00
      7.858  0.0000E+00  0.0000E+00  0.0000E+00
      7.962  0.0000E+00  0.0000E+00  0.0000E+00
      8.066  0.0000E+00  0.0000E+00  0.0000E+00
      8.170  0.0000E+00  0.0000E+00  0.0000E+00
      8.274  0.0000E+00  0.0000E+00  0.0000E+00
      8.378  0.0000E+00  0.0000E+00  0.0000E+00
      8.482  0.0000E+00  0.0000E+00  0.0000E+00
      8.586  0.0000E+00  0.0000E+00  0.0000E+00
      8.690  0.0000E+00  0.0000E+00  0.0000E+00
      8.69020593    -22.53455961  301      0.38962242      1.00000000
    -22.535  0.0000E+00  0.0000E+00  0.0000E+00
    -22.430  0.0000E+00  0.0000E+00  0.0000E+00
    -22.326  0.0000E+00  0.0000E+00  0.0000E+00
    -22.222  0.0000E+00  0.0000E+00  0.0000E+00
    -22.118  0.0000E+00  0.0000E+00  0.0000E+00
    -22.014  0.0000E+00  0.0000E+00  0.0000E+00
    -21.910  0.0000E+00  0.0000E+00  0.0000E+00
    -21.806  0.0000E+00  0.0000E+00  0.0000E+00
    -21.702  0.0000E+00  0.0000E+00  0.0000E+00
    -21.598  0.0000E+00  0.0000E+00  0.0000E+00
    -21.494  0.0000E+00  0.0000E+00  0.0000E+00
    -21.390  0.0000E+00  0.0000E+00  0.0000E+00
    -21.286  0.0000E+00  0.0000E+00  0.0000E+00
    -21.181  0.0000E+00  0.0000E+00  0.0000E+00
    -21.077  0.8578E-04  0.2982E-07  0.2240E-08
    -20.973  0.1357E-04  0.1700E-09  0.8480E-11
    -20.869  0.1705E+02  0.2820E-07  0.1801E-04
    -20.765  0.0000E+00  0.0000E+00  0.0000E+00
    -20.661  0.0000E+00  0.0000E+00  0.0000E+00
    -20.557  0.0000E+00  0.0000E+00  0.0000E+00
    -20.453  0.0000E+00  0.0000E+00  0.0000E+00
    -20.349  0.0000E+00  0.0000E+00  0.0000E+00
    -20.245  0.0000E+00  0.0000E+00  0.0000E+00
    -20.141  0.0000E+00  0.0000E+00  0.0000E+00
    -20.037  0.0000E+00  0.0000E+00  0.0000E+00
    -19.932  0.0000E+00  0.0000E+00  0.0000E+00
    -19.828  0.0000E+00  0.0000E+00  0.0000E+00
    -19.724  0.0000E+00  0.0000E+00  0.0000E+00
    -19.620  0.0000E+00  0.0000E+00  0.0000E+00
    -19.516  0.0000E+00  0.0000E+00  0.0000E+00
    -19.412  0.0000E+00  0.0000E+00  0.0000E+00
    -19.308  0.0000E+00  0.0000E+00  0.0000E+00
    -19.204  0.0000E+00  0.0000E+00  0.0000E+00
    -19.100  0.0000E+00  0.0000E+00  0.0000E+00
    -18.996  0.0000E+00  0.0000E+00  0.0000E+00
    -18.892  0.0000E+00  0.0000E+00  0.0000E+00
    -18.788  0.0000E+00  0.0000E+00  0.0000E+00
    -18.684  0.0000E+00  0.0000E+00  0.0000E+00
    -18.579  0.0000E+00  0.0000E+00  0.0000E+00
    -18.475  0.0000E+00  0.0000E+00  0.0000E+00
    -18.371  0.0000E+00  0.0000E+00  0.0000E+00
    -18.267  0.0000E+00  0.0000E+00  0.0000E+00
    -18.163  0.0000E+00  0.0000E+00  0.0000E+00
    -18.059  0.0000E+00  0.0000E+00  0.0000E+00
    -17.955  0.0000E+00  0.0000E+00  0.0000E+00
    -17.851  0.0000E+00  0.0000E+00  0.0000E+00
    -17.747  0.0000E+00  0.0000E+00  0.0000E+00
    -17.643  0.0000E+00  0.0000E+00  0.0000E+00
    -17.539  0.0000E+00  0.0000E+00  0.0000E+00
    -17.435  0.0000E+00  0.0000E+00  0.0000E+00
    -17.330  0.0000E+00  0.0000E+00  0.0000E+00
    -17.226  0.0000E+00  0.0000E+00  0.0000E+00
    -17.122  0.0000E+00  0.0000E+00  0.0000E+00
    -17.018  0.0000E+00  0.0000E+00  0.0000E+00
    -16.914  0.0000E+00  0.0000E+00  0.0000E+00
    -16.810  0.0000E+00  0.0000E+00  0.0000E+00
    -16.706  0.0000E+00  0.0000E+00  0.0000E+00
    -16.602  0.0000E+00  0.0000E+00  0.0000E+00
    -16.498  0.0000E+00  0.0000E+00  0.0000E+00
    -16.394  0.1255E-03  0.6569E-04  0.1048E-04
    -16.290  0.7070E-05  0.3466E-04  0.3100E-05
    -16.186  0.2695E-04  0.1663E-04  0.1790E-05
    -16.081  0.0000E+00  0.0000E+00  0.0000E+00
    -15.977  0.0000E+00  0.0000E+00  0.0000E+00
    -15.873  0.0000E+00  0.0000E+00  0.0000E+00
    -15.769  0.0000E+00  0.0000E+00  0.0000E+00
    -15.665  0.0000E+00  0.0000E+00  0.0000E+00
    -15.561  0.0000E+00  0.0000E+00  0.0000E+00
    -15.457  0.0000E+00  0.0000E+00  0.0000E+00
    -15.353  0.0000E+00  0.0000E+00  0.0000E+00
    -15.249  0.0000E+00  0.0000E+00  0.0000E+00
    -15.145  0.0000E+00  0.0000E+00  0.0000E+00
    -15.041  0.0000E+00  0.0000E+00  0.0000E+00
    -14.937  0.0000E+00  0.0000E+00  0.0000E+00
    -14.832  0.0000E+00  0.0000E+00  0.0000E+00
    -14.728  0.0000E+00  0.0000E+00  0.0000E+00
    -14.624  0.0000E+00  0.0000E+00  0.0000E+00
    -14.520  0.0000E+00  0.0000E+00  0.0000E+00
    -14.416  0.7150E-08  0.1097E-23  0.7719E-10
    -14.312  0.2199E-02  0.6208E-03  0.2829E-04
    -14.208  0.2265E-02  0.3049E-02  0.8793E-04
    -14.104  0.1315E-03  0.3440E-02  0.1751E-03
    -14.000  0.1921E-02  0.4256E-02  0.4296E-03
    -13.896  0.1974E-02  0.5015E-02  0.5332E-03
    -13.792  0.1268E-02  0.2941E-02  0.2931E-03
    -13.688  0.9461E-03  0.1007E-02  0.9997E-04
    -13.583  0.0000E+00  0.0000E+00  0.0000E+00
    -13.479  0.0000E+00  0.0000E+00  0.0000E+00
    -13.375  0.0000E+00  0.0000E+00  0.0000E+00
    -13.271  0.0000E+00  0.0000E+00  0.0000E+00