Automatically generated mesh
       8
Reciprocal lattice
    0.00000000000000    0.00000000000000    0.00000000000000             1
    0.33333333333333    0.00000000000000    0.00000000000000             4
    0.00000000000000    0.33333333333333    0.00000000000000             4
    0.33333333333333    0.33333333333333    0.00000000000000             8
   -0.33333333333333    0.33333333333333    0.00000000000000             4
   -0.33333333333333    0.33333333333333    0.33333333333333             2
    0.33333333333333   -0.33333333333333    0.33333333333333             2
   -0.33333333333333   -0.33333333333333    0.33333333333333             2
