 vasp.5.4.4.18Apr17-6-g9f103f2a35 (build Jun 22 2020 09:27:21) complex           
 executed on tx2_gcc-7.3_libsci-1 date 2021.09.20  15:14:56
 running on   64 total cores
 distrk:  each k-point on   64 cores,    1 groups
 distr:  one band on NCORES_PER_BAND=   8 cores,    8 groups


--------------------------------------------------------------------------------------------------------


 INCAR:
 POTCAR:    PAW_PBE Cs_sv 08Apr2002               
 POTCAR:    PAW_PBE Pb_d 06Sep2000                
 POTCAR:    PAW_PBE Br 06Sep2000                  
 POTCAR:    PAW_PBE Cs_sv 08Apr2002               
   VRHFIN =Cs: 5s5p6s                                                           
   LEXCH  = PE                                                                  
   EATOM  =   555.6835 eV,   40.8416 Ry                                         
                                                                                
   TITEL  = PAW_PBE Cs_sv 08Apr2002                                             
   LULTRA =        F    use ultrasoft PP ?                                      
   IUNSCR =        1    unscreen: 0-lin 1-nonlin 2-no                           
   RPACOR =    2.200    partial core radius                                     
   POMASS =  132.900; ZVAL   =    9.000    mass and valenz                      
   RCORE  =    2.500    outmost cutoff radius                                   
   RWIGS  =    2.500; RWIGS  =    1.323    wigner-seitz radius (au A)           
   ENMAX  =  220.318; ENMIN  =  165.238 eV                                      
   RCLOC  =    2.207    cutoff for local pot                                    
   LCOR   =        T    correct aug charges                                     
   LPAW   =        T    paw PP                                                  
   EAUG   =  407.933                                                            
   DEXC   =    0.000                                                            
   RMAX   =    2.554    core radius for proj-oper                               
   RAUG   =    1.300    factor for augmentation sphere                          
   RDEP   =    2.590    radius for radial grids                                 
   RDEPT  =    2.117    core radius for aug-charge                              
                                                                                
   Atomic configuration                                                         
   13 entries                                                                   
     n  l   j            E        occ.                                          
     1  0  0.50    -35790.1377   2.0000                                         
     2  0  0.50     -5613.6201   2.0000                                         
     2  1  1.50     -5035.0101   6.0000                                         
     3  0  0.50     -1167.0767   2.0000                                         
     3  1  1.50      -980.9754   6.0000                                         
     3  2  2.50      -708.0703  10.0000                                         
     4  0  0.50      -220.2386   2.0000                                         
     4  1  1.50      -160.7596   6.0000                                         
     4  2  2.50       -74.2354  10.0000                                         
     5  0  0.50       -26.7287   2.0000                                         
     6  0  0.50        -2.0862   1.0000                                         
     5  1  1.50       -13.5159   6.0000                                         
     5  2  2.50        -0.4136   0.0000                                         
   Description                                                                  
     l       E           TYP  RCUT    TYP  RCUT                                 
     0    -26.7287425     23  1.900                                             
     0     -2.0862306     23  1.900                                             
     1    -13.5158719     23  2.500                                             
     1     -2.7211652     23  2.500                                             
     2     -0.4136171     23  2.500                                             
  local pseudopotential read in
  partial core-charges read in
  partial kinetic energy density read in
  atomic valenz-charges read in
  non local Contribution for L=           0  read in
    real space projection operators read in
  non local Contribution for L=           0  read in
    real space projection operators read in
  non local Contribution for L=           1  read in
    real space projection operators read in
  non local Contribution for L=           1  read in
    real space projection operators read in
  non local Contribution for L=           2  read in
    real space projection operators read in
    PAW grid and wavefunctions read in

   number of l-projection  operators is LMAX  =           5
   number of lm-projection operators is LMMAX =          13

 POTCAR:    PAW_PBE Pb_d 06Sep2000                
   VRHFIN =Pb:                                                                  
   LEXCH  = PE                                                                  
   EATOM  =  1661.6185 eV,  122.1255 Ry                                         
                                                                                
   TITEL  = PAW_PBE Pb_d 06Sep2000                                              
   LULTRA =        F    use ultrasoft PP ?                                      
   IUNSCR =        1    unscreen: 0-lin 1-nonlin 2-no                           
   RPACOR =    2.200    partial core radius                                     
   POMASS =  207.200; ZVAL   =   14.000    mass and valenz                      
   RCORE  =    2.500    outmost cutoff radius                                   
   RWIGS  =    3.260; RWIGS  =    1.725    wigner-seitz radius (au A)           
   ENMAX  =  237.835; ENMIN  =  178.376 eV                                      
   ICORE  =        3    local potential                                         
   LCOR   =        T    correct aug charges                                     
   LPAW   =        T    paw PP                                                  
   EAUG   =  391.914                                                            
   DEXC   =    0.000                                                            
   RMAX   =    2.565    core radius for proj-oper                               
   RAUG   =    1.300    factor for augmentation sphere                          
   RDEP   =    2.643    radius for radial grids                                 
   RDEPT  =    2.092    core radius for aug-charge                              
                                                                                
   Atomic configuration                                                         
   16 entries                                                                   
     n  l   j            E        occ.                                          
     1  0  0.50    -88091.8466   2.0000                                         
     2  0  0.50    -15753.4197   2.0000                                         
     2  1  1.50    -13508.1797   6.0000                                         
     3  0  0.50     -3781.7194   2.0000                                         
     3  1  1.50     -3138.2529   6.0000                                         
     3  2  2.50     -2483.2977  10.0000                                         
     4  0  0.50      -856.2895   2.0000                                         
     4  1  1.50      -645.4942   6.0000                                         
     4  2  2.50      -401.8768  10.0000                                         
     4  3  3.50      -132.9059  14.0000                                         
     5  0  0.50      -144.0950   2.0000                                         
     5  1  1.50       -85.7879   6.0000                                         
     5  2  2.50       -21.1769  10.0000                                         
     6  0  0.50       -12.0372   2.0000                                         
     6  1  1.50        -3.4971   2.0000                                         
     5  3  2.50        -2.7212   0.0000                                         
   Description                                                                  
     l       E           TYP  RCUT    TYP  RCUT                                 
     2    -21.1768523     23  2.500                                             
     2      1.3605826     23  2.500                                             
     0    -12.0371562     23  2.500                                             
     0     13.6058260     23  2.500                                             
     1     -3.4971339     23  2.500                                             
     1     13.6058260     23  2.500                                             
     3     -1.3605826      7  2.500                                             
  local pseudopotential read in
  partial core-charges read in
  partial kinetic energy density read in
  atomic valenz-charges read in
  non local Contribution for L=           2  read in
    real space projection operators read in
  non local Contribution for L=           2  read in
    real space projection operators read in
  non local Contribution for L=           0  read in
    real space projection operators read in
  non local Contribution for L=           0  read in
    real space projection operators read in
  non local Contribution for L=           1  read in
    real space projection operators read in
  non local Contribution for L=           1  read in
    real space projection operators read in
    PAW grid and wavefunctions read in

   number of l-projection  operators is LMAX  =           6
   number of lm-projection operators is LMMAX =          18

 POTCAR:    PAW_PBE Br 06Sep2000                  
   VRHFIN =Br: s2p5                                                             
   LEXCH  = PE                                                                  
   EATOM  =   368.4488 eV,   27.0802 Ry                                         
                                                                                
   TITEL  = PAW_PBE Br 06Sep2000                                                
   LULTRA =        F    use ultrasoft PP ?                                      
   IUNSCR =        1    unscreen: 0-lin 1-nonlin 2-no                           
   RPACOR =    1.900    partial core radius                                     
   POMASS =   79.904; ZVAL   =    7.000    mass and valenz                      
   RCORE  =    2.100    outmost cutoff radius                                   
   RWIGS  =    2.200; RWIGS  =    1.164    wigner-seitz radius (au A)           
   ENMAX  =  216.285; ENMIN  =  162.214 eV                                      
   ICORE  =        3    local potential                                         
   LCOR   =        T    correct aug charges                                     
   LPAW   =        T    paw PP                                                  
   EAUG   =  503.852                                                            
   DEXC   =    0.000                                                            
   RMAX   =    2.139    core radius for proj-oper                               
   RAUG   =    1.300    factor for augmentation sphere                          
   RDEP   =    2.186    radius for radial grids                                 
   RDEPT  =    1.890    core radius for aug-charge                              
                                                                                
   Atomic configuration                                                         
   10 entries                                                                   
     n  l   j            E        occ.                                          
     1  0  0.50    -13316.2796   2.0000                                         
     2  0  0.50     -1732.8239   2.0000                                         
     2  1  1.50     -1528.2193   6.0000                                         
     3  0  0.50      -238.0460   2.0000                                         
     3  1  1.50      -173.4609   6.0000                                         
     3  2  2.50       -66.7132  10.0000                                         
     4  0  0.50       -20.1334   2.0000                                         
     4  1  0.50        -7.8591   5.0000                                         
     4  2  2.50        -8.1635   0.0000                                         
     4  3  2.50        -8.1635   0.0000                                         
   Description                                                                  
     l       E           TYP  RCUT    TYP  RCUT                                 
     0    -20.1333652     23  2.100                                             
     0    -21.4939478     23  2.100                                             
     1     -7.8591052     23  2.100                                             
     1     -3.1608434     23  2.100                                             
     2     -8.1634956     23  2.100                                             
     3     -1.3605826      7  2.100                                             
  local pseudopotential read in
  partial core-charges read in
  partial kinetic energy density read in
  atomic valenz-charges read in
  non local Contribution for L=           0  read in
    real space projection operators read in
  non local Contribution for L=           0  read in
    real space projection operators read in
  non local Contribution for L=           1  read in
    real space projection operators read in
  non local Contribution for L=           1  read in
    real space projection operators read in
  non local Contribution for L=           2  read in
    real space projection operators read in
    PAW grid and wavefunctions read in

   number of l-projection  operators is LMAX  =           5
   number of lm-projection operators is LMMAX =          13

 Optimization of the real space projectors (new method)

 maximal supplied QI-value         = 15.12
 optimisation between [QCUT,QGAM] = [  8.77, 17.69] = [ 21.53, 87.61] Ry 
 Optimized for a Real-space Cutoff    1.85 Angstroem

   l    n(q)    QCUT    max X(q) W(low)/X(q) W(high)/X(q)  e(spline) 
   0     10     8.768    25.322    0.81E-04    0.51E-04    0.48E-06
   0     10     8.768    99.187    0.78E-04    0.50E-04    0.47E-06
   1      9     8.768    11.761    0.21E-03    0.20E-03    0.37E-06
   1      9     8.768     8.275    0.24E-03    0.22E-03    0.41E-06
   2      9     8.768     3.829    0.23E-04    0.15E-03    0.18E-06
 Optimization of the real space projectors (new method)

 maximal supplied QI-value         = 15.12
 optimisation between [QCUT,QGAM] = [  8.77, 17.69] = [ 21.53, 87.61] Ry 
 Optimized for a Real-space Cutoff    1.59 Angstroem

   l    n(q)    QCUT    max X(q) W(low)/X(q) W(high)/X(q)  e(spline) 
   2      7     8.768     3.846    0.48E-04    0.11E-03    0.11E-06
   2      7     8.768     8.593    0.20E-03    0.22E-04    0.24E-06
   0      8     8.768    20.082    0.68E-04    0.88E-04    0.41E-07
   0      8     8.768     8.597    0.89E-04    0.13E-03    0.59E-07
   1      8     8.768    33.223    0.15E-03    0.53E-04    0.87E-07
   1      8     8.768    15.899    0.14E-03    0.44E-04    0.78E-07
 Optimization of the real space projectors (new method)

 maximal supplied QI-value         = 17.95
 optimisation between [QCUT,QGAM] = [  8.80, 17.59] = [ 21.67, 86.68] Ry 
 Optimized for a Real-space Cutoff    1.59 Angstroem

   l    n(q)    QCUT    max X(q) W(low)/X(q) W(high)/X(q)  e(spline) 
   0      8     8.797   175.082    0.82E-04    0.14E-03    0.89E-07
   0      8     8.797   174.004    0.79E-04    0.14E-03    0.86E-07
   1      8     8.797    54.315    0.16E-03    0.14E-04    0.30E-06
   1      8     8.797    42.441    0.16E-03    0.14E-04    0.30E-06
   2      7     8.797     3.596    0.92E-04    0.15E-03    0.85E-07
  PAW_PBE Cs_sv 08Apr2002               :
 energy of atom  1       EATOM= -555.6835
 kinetic energy error for atom=    0.0069 (will be added to EATOM!!)
  PAW_PBE Pb_d 06Sep2000                :
 energy of atom  2       EATOM=-1661.6185
 kinetic energy error for atom=    0.0498 (will be added to EATOM!!)
  PAW_PBE Br 06Sep2000                  :
 energy of atom  3       EATOM= -368.4488
 kinetic energy error for atom=    0.0072 (will be added to EATOM!!)


 POSCAR: Cs4 Pb4 Br12                            
  positions in direct lattice
  velocities in cartesian coordinates

 METAGGA = SCAN     LMAXTAU =  6    LMIXTAU =  F

 exchange correlation table for  LEXCH =        8
   RHO(1)=    0.500       N(1)  =     2000
   RHO(2)=  100.500       N(2)  =     4000

 VTST: version 3.2, (02/03/18)

 CHAIN: initializing optimizer
 
 OPT: Using VASP Conjugate-Gradient optimizer
 CHAIN: Read ICHAIN            0

 POSCAR: Cs4 Pb4 Br12                            
  positions in direct lattice
  velocities in cartesian coordinates



--------------------------------------------------------------------------------------------------------


 ion  position               nearest neighbor table
   1  0.500  0.000  0.000-
   2  0.500  0.500  0.500-
   3  0.000  0.000  0.500-
   4  0.000  0.500  0.000-
   5  0.000  0.000  0.000-   9 2.98  11 2.98  13 2.98  14 2.98  17 2.98  20 2.98
   6  0.000  0.500  0.500-  10 2.98  12 2.98  13 2.98  14 2.98  18 2.98  19 2.98
   7  0.500  0.000  0.500-   9 2.98  11 2.98  15 2.98  16 2.98  18 2.98  19 2.98
   8  0.500  0.500  0.000-  10 2.98  12 2.98  15 2.98  16 2.98  17 2.98  20 2.98
   9  0.218  0.943  0.225-   5 2.98   7 2.98
  10  0.218  0.492  0.775-   6 2.98   8 2.98
  11  0.782  0.057  0.775-   5 2.98   7 2.98
  12  0.782  0.508  0.225-   6 2.98   8 2.98
  13  0.010  0.781  0.729-   6 2.98   5 2.98
  14  0.990  0.219  0.271-   6 2.98   5 2.98
  15  0.552  0.781  0.271-   7 2.98   8 2.98
  16  0.448  0.219  0.729-   7 2.98   8 2.98
  17  0.286  0.275  0.060-   8 2.98   5 2.98
  18  0.286  0.725  0.511-   6 2.98   7 2.98
  19  0.714  0.275  0.489-   6 2.98   7 2.98
  20  0.714  0.725  0.940-   8 2.98   5 2.98

  LATTYP: Found a body centered orthorhombic cell.
 ALAT       =    11.7431296685
 B/A-ratio  =     1.0009199485
 C/A-ratio  =     1.0031342845
  
  Lattice vectors:
  
 A1 = (  -5.8715648343,  -5.8769663714,  -5.8899679888)
 A2 = (   5.8715648343,   5.8769663714,  -5.8899679888)
 A3 = (   5.8715648343,  -5.8769663714,   5.8899679888)


Analysis of symmetry for initial positions (statically):
=====================================================================
 Subroutine PRICEL returns:
 Original cell was already a primitive cell.
 

 Routine SETGRP: Setting up the symmetry group for a 
 body centered orthorhombic supercell.


 Subroutine GETGRP returns: Found  8 space group operations
 (whereof  2 operations were pure point group operations)
 out of a pool of  8 trial point group operations.


The static configuration has the point symmetry S_2 .
 The point group associated with its full space group is D_2h.


Analysis of symmetry for dynamics (positions and initial velocities):
=====================================================================
 Subroutine PRICEL returns:
 Original cell was already a primitive cell.
 

 Routine SETGRP: Setting up the symmetry group for a 
 body centered orthorhombic supercell.


 Subroutine GETGRP returns: Found  8 space group operations
 (whereof  2 operations were pure point group operations)
 out of a pool of  8 trial point group operations.


The dynamic configuration has the point symmetry S_2 .
 The point group associated with its full space group is D_2h.


 Subroutine INISYM returns: Found  8 space group operations
 (whereof  2 operations are pure point group operations),
 and found     1 'primitive' translations



 KPOINTS: 1x1x1                                   

Automatic generation of k-mesh.
Space group operators:
 irot       det(A)        alpha          n_x          n_y          n_z        tau_x        tau_y        tau_z
    1     1.000000     0.000000     1.000000     0.000000     0.000000     0.000000     0.000000     0.000000
    2    -1.000000     0.000000     1.000000     0.000000     0.000000     0.000000     0.000000     0.000000
    3     1.000000   180.000000     0.000000    -0.000000    -1.000000     0.000000     0.500000     0.500000
    4    -1.000000   180.000000     0.000000    -0.000000    -1.000000     0.000000     0.500000     0.500000
    5     1.000000   180.000000    -0.000000    -1.000000    -0.000000    -0.500000     0.000000    -0.500000
    6    -1.000000   180.000000    -0.000000    -1.000000    -0.000000    -0.500000     0.000000    -0.500000
    7     1.000000   180.000000     1.000000     0.000000     0.000000     0.500000     0.500000     0.000000
    8    -1.000000   180.000000     1.000000     0.000000     0.000000     0.500000     0.500000     0.000000
 
 Subroutine IBZKPT returns following result:
 ===========================================
 
 Found      8 irreducible k-points:
 
 Following reciprocal coordinates:
            Coordinates               Weight
  0.000000  0.000000  0.000000      1.000000
  0.333333  0.000000  0.000000      4.000000
  0.000000  0.333333  0.000000      4.000000
  0.333333  0.333333  0.000000      8.000000
 -0.333333  0.333333  0.000000      4.000000
 -0.333333  0.333333  0.333333      2.000000
  0.333333 -0.333333  0.333333      2.000000
 -0.333333 -0.333333  0.333333      2.000000
 
 Following cartesian coordinates:
            Coordinates               Weight
  0.000000  0.000000 -0.000000      1.000000
  0.028385  0.028359 -0.000000      4.000000
  0.028385  0.000000 -0.028297      4.000000
  0.056771  0.028359 -0.028297      8.000000
  0.000000 -0.028359 -0.028297      4.000000
  0.000000  0.000000 -0.056593      2.000000
  0.000000  0.056719 -0.000000      2.000000
 -0.056771  0.000000 -0.000000      2.000000
 


--------------------------------------------------------------------------------------------------------




 Dimension of arrays:
   k-points           NKPTS =      8   k-points in BZ     NKDIM =      8   number of bands    NBANDS=    112
   number of dos      NEDOS =    301   number of ions     NIONS =     20
   non local maximal  LDIM  =      6   non local SUM 2l+1 LMDIM =     18
   total plane-waves  NPLWV = 216000
   max r-space proj   IRMAX =   7073   max aug-charges    IRDMAX= 113035
   dimension x,y,z NGX =    60 NGY =   60 NGZ =   60
   dimension x,y,z NGXF=   120 NGYF=  120 NGZF=  120
   support grid    NGXF=   240 NGYF=  240 NGZF=  240
   ions per type =               4   4  12
   NGX,Y,Z   is equivalent  to a cutoff of   9.79,  9.79,  9.79 a.u.
   NGXF,Y,Z  is equivalent  to a cutoff of  19.59, 19.59, 19.59 a.u.

 SYSTEM =  CsPbBr3 cubic bulk                      
 POSCAR =  Cs4 Pb4 Br12                            

 Startparameter for this run:
   NWRITE =      2    write-flag & timer
   PREC   = accura    normal or accurate (medium, high low for compatibility)
   ISTART =      0    job   : 0-new  1-cont  2-samecut
   ICHARG =      2    charge: 1-file 2-atom 10-const
   ISPIN  =      1    spin polarized calculation?
   LNONCOLLINEAR =      F non collinear calculations
   LSORBIT =      F    spin-orbit coupling
   INIWAV =      1    electr: 0-lowe 1-rand  2-diag
   LASPH  =      T    aspherical Exc in radial PAW
   METAGGA=      F    non-selfconsistent MetaGGA calc.

 Electronic Relaxation 1
   ENCUT  =  300.0 eV  22.05 Ry    4.70 a.u.  14.38 14.38 14.38*2*pi/ulx,y,z
   ENINI  =  300.0     initial cutoff
   ENAUG  =  503.9 eV  augmentation charge cutoff
   NELM   =    200;   NELMIN=  2; NELMDL=  0     # of ELM steps 
   EDIFF  = 0.1E-05   stopping-criterion for ELM
   LREAL  =      T    real-space projection
   NLSPLINE    = F    spline interpolate recip. space projectors
   LCOMPAT=      F    compatible to vasp.4.4
   GGA_COMPAT  = T    GGA compatible to vasp.4.4-vasp.4.6
   LMAXPAW     = -100 max onsite density
   LMAXMIX     =    2 max onsite mixed and CHGCAR
   VOSKOWN=      0    Vosko Wilk Nusair interpolation
   ROPT   =   -0.00025  -0.00025  -0.00025
 Ionic relaxation
   EDIFFG = -.1E-01   stopping-criterion for IOM
   NSW    =      0    number of steps for IOM
   NBLOCK =      1;   KBLOCK =      1    inner block; outer block 
   IBRION =     -1    ionic relax: 0-MD 1-quasi-New 2-CG
   NFREE  =      1    steps in history (QN), initial steepest desc. (CG)
   ISIF   =      3    stress and relaxation
   IWAVPR =     10    prediction:  0-non 1-charg 2-wave 3-comb
   ISYM   =      2    0-nonsym 1-usesym 2-fastsym
   LCORR  =      T    Harris-Foulkes like correction to forces

   POTIM  = 0.5000    time-step for ionic-motion
   TEIN   =    0.0    initial temperature
   TEBEG  =    0.0;   TEEND  =   0.0 temperature during run
   SMASS  =  -3.00    Nose mass-parameter (am)
   estimated Nose-frequenzy (Omega)   =  0.10E-29 period in steps =****** mass=  -0.237E-26a.u.
   SCALEE = 1.0000    scale energy and forces
   NPACO  =    256;   APACO  = 16.0  distance and # of slots for P.C.
   PSTRESS=    0.0 pullay stress

  Mass of Ions in am
   POMASS = 132.90207.20 79.90
  Ionic Valenz
   ZVAL   =   9.00 14.00  7.00
  Atomic Wigner-Seitz radii
   RWIGS  =  -1.00 -1.00 -1.00
  virtual crystal weights 
   VCA    =   1.00  1.00  1.00
   NELECT =     176.0000    total number of electrons
   NUPDOWN=      -1.0000    fix difference up-down

 DOS related values:
   EMIN   =  10.00;   EMAX   =-10.00  energy-range for DOS
   EFERMI =   0.00
   ISMEAR =     0;   SIGMA  =   0.01  broadening in eV -4-tet -1-fermi 0-gaus

 Electronic relaxation 2 (details)
   IALGO  =     38    algorithm
   LDIAG  =      T    sub-space diagonalisation (order eigenvalues)
   LSUBROT=      F    optimize rotation matrix (better conditioning)
   TURBO    =      0    0=normal 1=particle mesh
   IRESTART =      0    0=no restart 2=restart with 2 vectors
   NREBOOT  =      0    no. of reboots
   NMIN     =      0    reboot dimension
   EREF     =   0.00    reference energy to select bands
   IMIX   =      4    mixing-type and parameters
     AMIX     =   0.40;   BMIX     =  1.00
     AMIX_MAG =   1.60;   BMIX_MAG =  1.00
     AMIN     =   0.10
     WC   =   100.;   INIMIX=   1;  MIXPRE=   1;  MAXMIX= -45

 Intra band minimization:
   WEIMIN = 0.0000     energy-eigenvalue tresh-hold
   EBREAK =  0.22E-08  absolut break condition
   DEPER  =   0.30     relativ break condition  

   TIME   =   0.40     timestep for ELM

  volume/ion in A,a.u.               =      40.65       274.31
  Fermi-wavevector in a.u.,A,eV,Ry     =   0.982997  1.857596 13.147092  0.966284
  Thomas-Fermi vector in A             =   2.114122

 Write flags
   LWAVE        =      F    write WAVECAR
   LDOWNSAMPLE  =      F    k-point downsampling of WAVECAR
   LCHARG       =      F    write CHGCAR
   LVTOT        =      F    write LOCPOT, total local potential
   LVHAR        =      T    write LOCPOT, Hartree potential only
   LELF         =      F    write electronic localiz. function (ELF)
   LORBIT       =     10    0 simple, 1 ext, 2 COOP (PROOUT), +10 PAW based schemes


 Dipole corrections
   LMONO  =      F    monopole corrections only (constant potential shift)
   LDIPOL =      F    correct potential (dipole corrections)
   IDIPOL =      0    1-x, 2-y, 3-z, 4-all directions 
   EPSILON=  1.0000000 bulk dielectric constant

 Exchange correlation treatment:
   GGA     =    --    GGA type
   LEXCH   =     8    internal setting for exchange type
   VOSKOWN=      0    Vosko Wilk Nusair interpolation
   LHFCALC =     F    Hartree Fock is set to
   LHFONE  =     F    Hartree Fock one center treatment
   AEXX    =    0.0000 exact exchange contribution

 Linear response parameters
   LEPSILON=     F    determine dielectric tensor
   LRPA    =     F    only Hartree local field effects (RPA)
   LNABLA  =     F    use nabla operator in PAW spheres
   LVEL    =     F    velocity operator in full k-point grid
   LINTERFAST=   F  fast interpolation
   KINTER  =     0    interpolate to denser k-point grid
   CSHIFT  =0.1000    complex shift for real part using Kramers Kronig
   OMEGAMAX=  -1.0    maximum frequency
   DEG_THRESHOLD= 0.2000000E-02 threshold for treating states as degnerate
   RTIME   =   -0.100 relaxation time in fs
  (WPLASMAI=    0.000 imaginary part of plasma frequency in eV, 0.658/RTIME)
   DFIELD  = 0.0000000 0.0000000 0.0000000 field for delta impulse in time

 Orbital magnetization related:
   ORBITALMAG=     F  switch on orbital magnetization
   LCHIMAG   =     F  perturbation theory with respect to B field
   DQ        =  0.001000  dq finite difference perturbation B field
   LLRAUG    =     F  two centre corrections for induced B field



--------------------------------------------------------------------------------------------------------


 Static calculation
 charge density and potential will be updated during run
 non-spin polarized calculation
 Variant of blocked Davidson
 Davidson routine will perform the subspace rotation
 perform sub-space diagonalisation
    after iterative eigenvector-optimisation
 modified Broyden-mixing scheme, WC =      100.0
 initial mixing is a Kerker type mixing with AMIX =  0.4000 and BMIX =      1.0000
 Hartree-type preconditioning will be used
 using additional bands           24
 real space projection scheme for non local part
 use partial core corrections
 calculate Harris-corrections to forces   (improved forces if not selfconsistent)
 use gradient corrections 
 use of overlap-Matrix (Vanderbilt PP)
 Gauss-broadening in eV      SIGMA  =   0.01


--------------------------------------------------------------------------------------------------------


  energy-cutoff  :      300.00
  volume of cell :      812.98
      direct lattice vectors                 reciprocal lattice vectors
     5.871564834  5.876966371  5.889967989     0.085156175  0.085077907 -0.000000000
     5.871564834 -5.876966371 -5.889967989     0.085156175 -0.000000000 -0.084890105
    -5.871564834  5.876966371 -5.889967989     0.000000000  0.085077907 -0.084890105

  length of vectors
    10.183601045 10.183601045 10.183601045     0.120373686  0.120241024  0.120185607



 k-points in units of 2pi/SCALE and weight: 1x1x1                                   
   0.00000000  0.00000000 -0.00000000       0.037
   0.02838539  0.02835930 -0.00000000       0.148
   0.02838539  0.00000000 -0.02829670       0.148
   0.05677078  0.02835930 -0.02829670       0.296
   0.00000000 -0.02835930 -0.02829670       0.148
   0.00000000  0.00000000 -0.05659340       0.074
   0.00000000  0.05671860 -0.00000000       0.074
  -0.05677078  0.00000000 -0.00000000       0.074

 k-points in reciprocal lattice and weights: 1x1x1                                   
   0.00000000  0.00000000  0.00000000       0.037
   0.33333333  0.00000000  0.00000000       0.148
   0.00000000  0.33333333  0.00000000       0.148
   0.33333333  0.33333333  0.00000000       0.296
  -0.33333333  0.33333333  0.00000000       0.148
  -0.33333333  0.33333333  0.33333333       0.074
   0.33333333 -0.33333333  0.33333333       0.074
  -0.33333333 -0.33333333  0.33333333       0.074

 position of ions in fractional coordinates (direct lattice) 
   0.50000000  0.00000000  0.00000000
   0.50000000  0.50000000  0.50000000
   0.00000000  0.00000000  0.50000000
   0.00000000  0.50000000  0.00000000
   0.00000000  0.00000000  0.00000000
   0.00000000  0.50000000  0.50000000
   0.50000000  0.00000000  0.50000000
   0.50000000  0.50000000  0.00000000
   0.21769582  0.94289535  0.22519952
   0.21769582  0.49249630  0.77480048
   0.78230418  0.05710465  0.77480048
   0.78230418  0.50750370  0.22519952
   0.00964196  0.78079965  0.72884231
   0.99035804  0.21920035  0.27115769
   0.55195735  0.78079965  0.27115769
   0.44804265  0.21920035  0.72884231
   0.28559516  0.27484541  0.06044057
   0.28559516  0.72515459  0.51074975
   0.71440484  0.27484541  0.48925025
   0.71440484  0.72515459  0.93955943

 position of ions in cartesian coordinates  (Angst):
   2.93578242  2.93848319  2.94498399
   2.93578242  2.93848319 -2.94498399
  -2.93578242  2.93848319 -2.94498399
   2.93578242 -2.93848319 -2.94498399
   0.00000000  0.00000000  0.00000000
   0.00000000  0.00000000 -5.88996799
   0.00000000  5.87696637  0.00000000
   5.87156483  0.00000000  0.00000000
   5.49221271 -2.93848319 -5.59781997
  -0.37935213  2.93848319 -6.18211601
   0.37935213  8.81544956 -0.29214802
   6.25091696  2.93848319  0.29214802
   0.36168431 -0.24868611 -8.83495198
   5.50988053  6.12565248  2.94498399
   6.23324914  0.24868611 -2.94498399
  -0.36168431  5.62828026 -2.94498399
   2.93578242  0.41838310 -0.29267736
   2.93578242  0.41838310 -5.59729063
   2.93578242  5.45858327 -0.29267736
   2.93578242  5.45858327 -5.59729063



--------------------------------------------------------------------------------------------------------


 k-point  1 :   0.0000 0.0000 0.0000  plane waves:    9629
 k-point  2 :   0.3333 0.0000 0.0000  plane waves:    9600
 k-point  3 :   0.0000 0.3333 0.0000  plane waves:    9604
 k-point  4 :   0.3333 0.3333 0.0000  plane waves:    9595
 k-point  5 :  -0.3333 0.3333 0.0000  plane waves:    9606
 k-point  6 :  -0.3333 0.3333 0.3333  plane waves:    9590
 k-point  7 :   0.3333-0.3333 0.3333  plane waves:    9582
 k-point  8 :  -0.3333-0.3333 0.3333  plane waves:    9578

 maximum and minimum number of plane-waves per node :      1226     1169

 maximum number of plane-waves:      9629
 maximum index in each direction: 
   IXMAX=   14   IYMAX=   14   IZMAX=   14
   IXMIN=  -14   IYMIN=  -14   IZMIN=  -14


 real space projection operators:
  total allocation   :      10557.94 KBytes
  max/ min on nodes  :       1427.41       1208.45


 parallel 3D FFT for wavefunctions:
    minimum data exchange during FFTs selected (reduces bandwidth)
 parallel 3D FFT for charge:
    minimum data exchange during FFTs selected (reduces bandwidth)


 total amount of memory used by VASP MPI-rank0    45684. kBytes
=======================================================================

   base      :      30000. kBytes
   nonlr-proj:       4165. kBytes
   fftplans  :       5014. kBytes
   grid      :       4180. kBytes
   one-center:         46. kBytes
   wavefun   :       2279. kBytes

     INWAV:  cpu time    0.0000: real time    0.0000
 Broyden mixing: mesh for mixing (old mesh)
   NGX = 29   NGY = 29   NGZ = 29
  (NGX  =120   NGY  =120   NGZ  =120)
  gives a total of  24389 points

 initial charge density was supplied:
 charge density of overlapping atoms calculated
 number of electron     176.0000000 magnetization 
 keeping initial charge density in first step


--------------------------------------------------------------------------------------------------------


 Maximum index for non-local projection operator         1052
 Maximum index for augmentation-charges         2463 (set IRDMAX)


--------------------------------------------------------------------------------------------------------


 First call to EWALD:  gamma=   0.190
 Maximum number of real-space cells 3x 3x 3
 Maximum number of reciprocal cells 3x 3x 3

    FEWALD:  cpu time    0.0024: real time    0.0024


--------------------------------------- Iteration      1(   1)  ---------------------------------------


    POTLOK:  cpu time    0.1434: real time    0.1584
    SETDIJ:  cpu time    1.1710: real time    1.1710
     EDDAV:  cpu time    4.7264: real time    4.7321
       DOS:  cpu time    0.0006: real time    0.0006
    --------------------------------------------
      LOOP:  cpu time    6.0413: real time    6.0621

 eigenvalue-minimisations  :  1840
 total energy-change (2. order) : 0.6580633E+03  (-0.5624110E+04)
 number of electron     176.0000000 magnetization 
 augmentation part      176.0000000 magnetization 

 Free energy of the ion-electron system (eV)
  ---------------------------------------------------
  alpha Z        PSCENC =       443.81021102
  Ewald energy   TEWEN  =     -9149.85740183
  -Hartree energ DENC   =     -3716.02388798
  -exchange      EXHF   =         0.00000000
  -V(xc)+E(xc)   XCENC  =       461.83829645
  PAW double counting   =     10816.98087266   -11353.96092700
  entropy T*S    EENTRO =        -0.00019753
  eigenvalues    EBANDS =      -135.00375062
  atomic energy  EATOM  =     13290.28009929
  Solvation  Ediel_sol  =         0.00000000
  ---------------------------------------------------
  free energy    TOTEN  =       658.06331446 eV

  energy without entropy =      658.06351198  energy(sigma->0) =      658.06341322


--------------------------------------------------------------------------------------------------------




--------------------------------------- Iteration      1(   2)  ---------------------------------------


     EDDAV:  cpu time    5.3031: real time    5.3229
       DOS:  cpu time    0.0003: real time    0.0003
    --------------------------------------------
      LOOP:  cpu time    5.3034: real time    5.3232

 eigenvalue-minimisations  :  2192
 total energy-change (2. order) :-0.1234412E+04  (-0.1186332E+04)
 number of electron     176.0000000 magnetization 
 augmentation part      176.0000000 magnetization 

 Free energy of the ion-electron system (eV)
  ---------------------------------------------------
  alpha Z        PSCENC =       443.81021102
  Ewald energy   TEWEN  =     -9149.85740183
  -Hartree energ DENC   =     -3716.02388798
  -exchange      EXHF   =         0.00000000
  -V(xc)+E(xc)   XCENC  =       461.83829645
  PAW double counting   =     10816.98087266   -11353.96092700
  entropy T*S    EENTRO =        -0.00000000
  eigenvalues    EBANDS =     -1369.41589826
  atomic energy  EATOM  =     13290.28009929
  Solvation  Ediel_sol  =         0.00000000
  ---------------------------------------------------
  free energy    TOTEN  =      -576.34863566 eV

  energy without entropy =     -576.34863566  energy(sigma->0) =     -576.34863566


--------------------------------------------------------------------------------------------------------




--------------------------------------- Iteration      1(   3)  ---------------------------------------


     EDDAV:  cpu time    5.6759: real time    5.6998
       DOS:  cpu time    0.0003: real time    0.0003
    --------------------------------------------
      LOOP:  cpu time    5.6762: real time    5.7001

 eigenvalue-minimisations  :  2432
 total energy-change (2. order) :-0.1723934E+03  (-0.1713610E+03)
 number of electron     176.0000000 magnetization 
 augmentation part      176.0000000 magnetization 

 Free energy of the ion-electron system (eV)
  ---------------------------------------------------
  alpha Z        PSCENC =       443.81021102
  Ewald energy   TEWEN  =     -9149.85740183
  -Hartree energ DENC   =     -3716.02388798
  -exchange      EXHF   =         0.00000000
  -V(xc)+E(xc)   XCENC  =       461.83829645
  PAW double counting   =     10816.98087266   -11353.96092700
  entropy T*S    EENTRO =        -0.00000000
  eigenvalues    EBANDS =     -1541.80929796
  atomic energy  EATOM  =     13290.28009929
  Solvation  Ediel_sol  =         0.00000000
  ---------------------------------------------------
  free energy    TOTEN  =      -748.74203536 eV

  energy without entropy =     -748.74203536  energy(sigma->0) =     -748.74203536


--------------------------------------------------------------------------------------------------------




--------------------------------------- Iteration      1(   4)  ---------------------------------------


     EDDAV:  cpu time    5.2194: real time    5.2481
       DOS:  cpu time    0.0003: real time    0.0003
    --------------------------------------------
      LOOP:  cpu time    5.2197: real time    5.2484

 eigenvalue-minimisations  :  2144
 total energy-change (2. order) :-0.5486709E+01  (-0.5467791E+01)
 number of electron     176.0000000 magnetization 
 augmentation part      176.0000000 magnetization 

 Free energy of the ion-electron system (eV)
  ---------------------------------------------------
  alpha Z        PSCENC =       443.81021102
  Ewald energy   TEWEN  =     -9149.85740183
  -Hartree energ DENC   =     -3716.02388798
  -exchange      EXHF   =         0.00000000
  -V(xc)+E(xc)   XCENC  =       461.83829645
  PAW double counting   =     10816.98087266   -11353.96092700
  entropy T*S    EENTRO =        -0.00000000
  eigenvalues    EBANDS =     -1547.29600673
  atomic energy  EATOM  =     13290.28009929
  Solvation  Ediel_sol  =         0.00000000
  ---------------------------------------------------
  free energy    TOTEN  =      -754.22874413 eV

  energy without entropy =     -754.22874413  energy(sigma->0) =     -754.22874413


--------------------------------------------------------------------------------------------------------




--------------------------------------- Iteration      1(   5)  ---------------------------------------


     EDDAV:  cpu time    5.6527: real time    5.6750
       DOS:  cpu time    0.0005: real time    0.0005
    CHARGE:  cpu time    1.1161: real time    1.1162
    MIXING:  cpu time    0.0008: real time    0.0008
    --------------------------------------------
      LOOP:  cpu time    6.7701: real time    6.7925

 eigenvalue-minimisations  :  2424
 total energy-change (2. order) :-0.2631890E+00  (-0.2630264E+00)
 number of electron     176.0000003 magnetization 
 augmentation part       -3.2516219 magnetization 

 Broyden mixing:
  rms(total) = 0.72174E+00    rms(broyden)= 0.72151E+00
  rms(prec ) = 0.11807E+01
  weight for this iteration     100.00

 Free energy of the ion-electron system (eV)
  ---------------------------------------------------
  alpha Z        PSCENC =       443.81021102
  Ewald energy   TEWEN  =     -9149.85740183
  -Hartree energ DENC   =     -3716.02388798
  -exchange      EXHF   =         0.00000000
  -V(xc)+E(xc)   XCENC  =       461.83829645
  PAW double counting   =     10816.98087266   -11353.96092700
  entropy T*S    EENTRO =        -0.00000000
  eigenvalues    EBANDS =     -1547.55919572
  atomic energy  EATOM  =     13290.28009929
  Solvation  Ediel_sol  =         0.00000000
  ---------------------------------------------------
  free energy    TOTEN  =      -754.49193312 eV

  energy without entropy =     -754.49193312  energy(sigma->0) =     -754.49193312


--------------------------------------------------------------------------------------------------------




--------------------------------------- Iteration      1(   6)  ---------------------------------------


    POTLOK:  cpu time    0.1515: real time    0.1863
    SETDIJ:  cpu time    1.1745: real time    1.1746
     EDDAV:  cpu time    5.6015: real time    5.6017
       DOS:  cpu time    0.0005: real time    0.0005
    CHARGE:  cpu time    1.0834: real time    1.0834
    MIXING:  cpu time    0.0009: real time    0.0009
    --------------------------------------------
      LOOP:  cpu time    8.0123: real time    8.0473

 eigenvalue-minimisations  :  2416
 total energy-change (2. order) : 0.3961339E+02  (-0.1155429E+01)
 number of electron     176.0000003 magnetization 
 augmentation part       -2.5371143 magnetization 

 Broyden mixing:
  rms(total) = 0.51233E+00    rms(broyden)= 0.51227E+00
  rms(prec ) = 0.72628E+00
  weight for this iteration     100.00

 eigenvalues of (default mixing * dielectric matrix)
  average eigenvalue GAMMA=   1.2070
  1.2070

 Free energy of the ion-electron system (eV)
  ---------------------------------------------------
  alpha Z        PSCENC =       443.81021102
  Ewald energy   TEWEN  =     -9149.85740183
  -Hartree energ DENC   =     -3707.77340137
  -exchange      EXHF   =         0.00000000
  -V(xc)+E(xc)   XCENC  =       477.51764896
  PAW double counting   =     10983.84095484   -11520.22103976
  entropy T*S    EENTRO =        -0.00000000
  eigenvalues    EBANDS =     -1532.47561863
  atomic energy  EATOM  =     13290.28009929
  Solvation  Ediel_sol  =         0.00000000
  ---------------------------------------------------
  free energy    TOTEN  =      -714.87854747 eV

  energy without entropy =     -714.87854747  energy(sigma->0) =     -714.87854747


--------------------------------------------------------------------------------------------------------




--------------------------------------- Iteration      1(   7)  ---------------------------------------


    POTLOK:  cpu time    0.1867: real time    0.1970
    SETDIJ:  cpu time    1.1735: real time    1.1736
     EDDAV:  cpu time    5.3389: real time    5.3391
       DOS:  cpu time    0.0005: real time    0.0005
    CHARGE:  cpu time    1.0839: real time    1.0839
    MIXING:  cpu time    0.0009: real time    0.0009
    --------------------------------------------
      LOOP:  cpu time    7.7844: real time    7.7949

 eigenvalue-minimisations  :  2248
 total energy-change (2. order) : 0.2386558E+00  (-0.3887769E+00)
 number of electron     176.0000003 magnetization 
 augmentation part       -2.2690032 magnetization 

 Broyden mixing:
  rms(total) = 0.25076E+00    rms(broyden)= 0.25075E+00
  rms(prec ) = 0.29568E+00
  weight for this iteration     100.00

 eigenvalues of (default mixing * dielectric matrix)
  average eigenvalue GAMMA=   1.3330
  1.3330  1.3330

 Free energy of the ion-electron system (eV)
  ---------------------------------------------------
  alpha Z        PSCENC =       443.81021102
  Ewald energy   TEWEN  =     -9149.85740183
  -Hartree energ DENC   =     -3729.83754777
  -exchange      EXHF   =         0.00000000
  -V(xc)+E(xc)   XCENC  =       480.31398246
  PAW double counting   =     11320.16152557   -11855.84315737
  entropy T*S    EENTRO =        -0.00000000
  eigenvalues    EBANDS =     -1513.66760308
  atomic energy  EATOM  =     13290.28009929
  Solvation  Ediel_sol  =         0.00000000
  ---------------------------------------------------
  free energy    TOTEN  =      -714.63989170 eV

  energy without entropy =     -714.63989170  energy(sigma->0) =     -714.63989170


--------------------------------------------------------------------------------------------------------




--------------------------------------- Iteration      1(   8)  ---------------------------------------


    POTLOK:  cpu time    0.1635: real time    0.1938
    SETDIJ:  cpu time    1.1738: real time    1.1738
     EDDAV:  cpu time    5.2166: real time    5.2168
       DOS:  cpu time    0.0005: real time    0.0005
    CHARGE:  cpu time    1.0835: real time    1.0836
    MIXING:  cpu time    0.0009: real time    0.0009
    --------------------------------------------
      LOOP:  cpu time    7.6387: real time    7.6693

 eigenvalue-minimisations  :  2168
 total energy-change (2. order) :-0.8960017E-01  (-0.1842832E-01)
 number of electron     176.0000003 magnetization 
 augmentation part       -2.3126787 magnetization 

 Broyden mixing:
  rms(total) = 0.14753E+00    rms(broyden)= 0.14753E+00
  rms(prec ) = 0.17581E+00
  weight for this iteration     100.00

 eigenvalues of (default mixing * dielectric matrix)
  average eigenvalue GAMMA=   1.7313
  1.0685  1.4014  2.7241

 Free energy of the ion-electron system (eV)
  ---------------------------------------------------
  alpha Z        PSCENC =       443.81021102
  Ewald energy   TEWEN  =     -9149.85740183
  -Hartree energ DENC   =     -3731.85388498
  -exchange      EXHF   =         0.00000000
  -V(xc)+E(xc)   XCENC  =       480.62585449
  PAW double counting   =     11438.42239440   -11974.29534932
  entropy T*S    EENTRO =        -0.00000000
  eigenvalues    EBANDS =     -1511.86141494
  atomic energy  EATOM  =     13290.28009929
  Solvation  Ediel_sol  =         0.00000000
  ---------------------------------------------------
  free energy    TOTEN  =      -714.72949187 eV

  energy without entropy =     -714.72949187  energy(sigma->0) =     -714.72949187


--------------------------------------------------------------------------------------------------------




--------------------------------------- Iteration      1(   9)  ---------------------------------------


    POTLOK:  cpu time    0.1537: real time    0.1965
    SETDIJ:  cpu time    1.1730: real time    1.1730
     EDDAV:  cpu time    4.9919: real time    4.9921
       DOS:  cpu time    0.0003: real time    0.0003
    CHARGE:  cpu time    1.0858: real time    1.0858
    MIXING:  cpu time    0.0009: real time    0.0009
    --------------------------------------------
      LOOP:  cpu time    7.4057: real time    7.4486

 eigenvalue-minimisations  :  2016
 total energy-change (2. order) :-0.4091627E-01  (-0.7580562E-02)
 number of electron     176.0000003 magnetization 
 augmentation part       -2.3375953 magnetization 

 Broyden mixing:
  rms(total) = 0.32971E-01    rms(broyden)= 0.32969E-01
  rms(prec ) = 0.37182E-01
  weight for this iteration     100.00

 eigenvalues of (default mixing * dielectric matrix)
  average eigenvalue GAMMA=   1.4767
  2.5368  1.2625  1.2625  0.8451

 Free energy of the ion-electron system (eV)
  ---------------------------------------------------
  alpha Z        PSCENC =       443.81021102
  Ewald energy   TEWEN  =     -9149.85740183
  -Hartree energ DENC   =     -3734.67831159
  -exchange      EXHF   =         0.00000000
  -V(xc)+E(xc)   XCENC  =       481.62300533
  PAW double counting   =     11614.60899986   -12150.90635590
  entropy T*S    EENTRO =        -0.00000000
  eigenvalues    EBANDS =     -1509.65065432
  atomic energy  EATOM  =     13290.28009929
  Solvation  Ediel_sol  =         0.00000000
  ---------------------------------------------------
  free energy    TOTEN  =      -714.77040814 eV

  energy without entropy =     -714.77040814  energy(sigma->0) =     -714.77040814


--------------------------------------------------------------------------------------------------------




--------------------------------------- Iteration      1(  10)  ---------------------------------------


    POTLOK:  cpu time    0.1869: real time    0.1897
    SETDIJ:  cpu time    1.1725: real time    1.1725
     EDDAV:  cpu time    5.7358: real time    5.7360
       DOS:  cpu time    0.0005: real time    0.0005
    CHARGE:  cpu time    1.0818: real time    1.0818
    MIXING:  cpu time    0.0010: real time    0.0010
    --------------------------------------------
      LOOP:  cpu time    8.1783: real time    8.1814

 eigenvalue-minimisations  :  2504
 total energy-change (2. order) :-0.6539341E-03  (-0.4248909E-03)
 number of electron     176.0000003 magnetization 
 augmentation part       -2.3299573 magnetization 

 Broyden mixing:
  rms(total) = 0.18847E-01    rms(broyden)= 0.18846E-01
  rms(prec ) = 0.22381E-01
  weight for this iteration     100.00

 eigenvalues of (default mixing * dielectric matrix)
  average eigenvalue GAMMA=   1.6623
  2.5746  2.5746  1.1526  1.1526  0.8568

 Free energy of the ion-electron system (eV)
  ---------------------------------------------------
  alpha Z        PSCENC =       443.81021102
  Ewald energy   TEWEN  =     -9149.85740183
  -Hartree energ DENC   =     -3733.81621105
  -exchange      EXHF   =         0.00000000
  -V(xc)+E(xc)   XCENC  =       481.52293697
  PAW double counting   =     11594.89463178   -12131.20881754
  entropy T*S    EENTRO =        -0.00000000
  eigenvalues    EBANDS =     -1510.39651073
  atomic energy  EATOM  =     13290.28009929
  Solvation  Ediel_sol  =         0.00000000
  ---------------------------------------------------
  free energy    TOTEN  =      -714.77106208 eV

  energy without entropy =     -714.77106208  energy(sigma->0) =     -714.77106208


--------------------------------------------------------------------------------------------------------




--------------------------------------- Iteration      1(  11)  ---------------------------------------


    POTLOK:  cpu time    0.1609: real time    0.1915
    SETDIJ:  cpu time    1.1715: real time    1.1715
     EDDAV:  cpu time    5.1241: real time    5.1243
       DOS:  cpu time    0.0004: real time    0.0004
    CHARGE:  cpu time    1.0843: real time    1.0844
    MIXING:  cpu time    0.0010: real time    0.0010
    --------------------------------------------
      LOOP:  cpu time    7.5422: real time    7.5730

 eigenvalue-minimisations  :  2112
 total energy-change (2. order) :-0.1834586E-02  (-0.2165609E-03)
 number of electron     176.0000003 magnetization 
 augmentation part       -2.3281732 magnetization 

 Broyden mixing:
  rms(total) = 0.78048E-02    rms(broyden)= 0.78045E-02
  rms(prec ) = 0.10525E-01
  weight for this iteration     100.00

 eigenvalues of (default mixing * dielectric matrix)
  average eigenvalue GAMMA=   1.5991
  2.6188  2.6188  1.2571  1.2571  0.9216  0.9216

 Free energy of the ion-electron system (eV)
  ---------------------------------------------------
  alpha Z        PSCENC =       443.81021102
  Ewald energy   TEWEN  =     -9149.85740183
  -Hartree energ DENC   =     -3732.35333458
  -exchange      EXHF   =         0.00000000
  -V(xc)+E(xc)   XCENC  =       481.46901057
  PAW double counting   =     11574.47609808   -12110.91923749
  entropy T*S    EENTRO =        -0.00000000
  eigenvalues    EBANDS =     -1511.67834173
  atomic energy  EATOM  =     13290.28009929
  Solvation  Ediel_sol  =         0.00000000
  ---------------------------------------------------
  free energy    TOTEN  =      -714.77289666 eV

  energy without entropy =     -714.77289666  energy(sigma->0) =     -714.77289666


--------------------------------------------------------------------------------------------------------




--------------------------------------- Iteration      1(  12)  ---------------------------------------


    POTLOK:  cpu time    0.1619: real time    0.1922
    SETDIJ:  cpu time    1.1726: real time    1.1727
     EDDAV:  cpu time    5.3464: real time    5.3468
       DOS:  cpu time    0.0005: real time    0.0005
    CHARGE:  cpu time    1.0841: real time    1.0841
    MIXING:  cpu time    0.0010: real time    0.0010
    --------------------------------------------
      LOOP:  cpu time    7.7666: real time    7.7973

 eigenvalue-minimisations  :  2256
 total energy-change (2. order) : 0.2105643E-03  (-0.4784577E-04)
 number of electron     176.0000003 magnetization 
 augmentation part       -2.3307911 magnetization 

 Broyden mixing:
  rms(total) = 0.25859E-02    rms(broyden)= 0.25855E-02
  rms(prec ) = 0.31258E-02
  weight for this iteration     100.00

 eigenvalues of (default mixing * dielectric matrix)
  average eigenvalue GAMMA=   1.6506
  3.0262  2.4630  1.8284  1.1935  1.0146  1.0142  1.0142

 Free energy of the ion-electron system (eV)
  ---------------------------------------------------
  alpha Z        PSCENC =       443.81021102
  Ewald energy   TEWEN  =     -9149.85740183
  -Hartree energ DENC   =     -3732.75778111
  -exchange      EXHF   =         0.00000000
  -V(xc)+E(xc)   XCENC  =       481.53768480
  PAW double counting   =     11582.13081451   -12118.59663784
  entropy T*S    EENTRO =        -0.00000000
  eigenvalues    EBANDS =     -1511.31967494
  atomic energy  EATOM  =     13290.28009929
  Solvation  Ediel_sol  =         0.00000000
  ---------------------------------------------------
  free energy    TOTEN  =      -714.77268610 eV

  energy without entropy =     -714.77268610  energy(sigma->0) =     -714.77268610


--------------------------------------------------------------------------------------------------------




--------------------------------------- Iteration      1(  13)  ---------------------------------------


    POTLOK:  cpu time    0.1953: real time    0.2014
    SETDIJ:  cpu time    1.1732: real time    1.1732
     EDDAV:  cpu time    5.4581: real time    5.4583
       DOS:  cpu time    0.0004: real time    0.0004
    CHARGE:  cpu time    1.0824: real time    1.0824
    MIXING:  cpu time    0.0014: real time    0.0014
    --------------------------------------------
      LOOP:  cpu time    7.9109: real time    7.9172

 eigenvalue-minimisations  :  2320
 total energy-change (2. order) :-0.5520822E-05  (-0.4901639E-05)
 number of electron     176.0000003 magnetization 
 augmentation part       -2.3304143 magnetization 

 Broyden mixing:
  rms(total) = 0.60610E-03    rms(broyden)= 0.60477E-03
  rms(prec ) = 0.67329E-03
  weight for this iteration     100.00

 eigenvalues of (default mixing * dielectric matrix)
  average eigenvalue GAMMA=   1.6215
  3.0024  2.5220  1.6172  1.6172  1.1419  1.1419  0.9647  0.9647

 Free energy of the ion-electron system (eV)
  ---------------------------------------------------
  alpha Z        PSCENC =       443.81021102
  Ewald energy   TEWEN  =     -9149.85740183
  -Hartree energ DENC   =     -3732.92312506
  -exchange      EXHF   =         0.00000000
  -V(xc)+E(xc)   XCENC  =       481.54923402
  PAW double counting   =     11580.20981591   -12116.67607896
  entropy T*S    EENTRO =        -0.00000000
  eigenvalues    EBANDS =     -1511.16544602
  atomic energy  EATOM  =     13290.28009929
  Solvation  Ediel_sol  =         0.00000000
  ---------------------------------------------------
  free energy    TOTEN  =      -714.77269162 eV

  energy without entropy =     -714.77269162  energy(sigma->0) =     -714.77269162


--------------------------------------------------------------------------------------------------------




--------------------------------------- Iteration      1(  14)  ---------------------------------------


    POTLOK:  cpu time    0.1468: real time    0.1979
    SETDIJ:  cpu time    1.1713: real time    1.1713
     EDDAV:  cpu time    4.5560: real time    4.5562
       DOS:  cpu time    0.0005: real time    0.0005
    CHARGE:  cpu time    1.0827: real time    1.0828
    MIXING:  cpu time    0.0011: real time    0.0011
    --------------------------------------------
      LOOP:  cpu time    6.9584: real time    7.0098

 eigenvalue-minimisations  :  1720
 total energy-change (2. order) :-0.6700813E-05  (-0.2641829E-06)
 number of electron     176.0000003 magnetization 
 augmentation part       -2.3303414 magnetization 

 Broyden mixing:
  rms(total) = 0.23179E-03    rms(broyden)= 0.22836E-03
  rms(prec ) = 0.26911E-03
  weight for this iteration     100.00

 eigenvalues of (default mixing * dielectric matrix)
  average eigenvalue GAMMA=   1.6716
  2.9496  2.6888  2.0819  2.0819  1.1267  1.1267  1.0347  1.0347  0.9189

 Free energy of the ion-electron system (eV)
  ---------------------------------------------------
  alpha Z        PSCENC =       443.81021102
  Ewald energy   TEWEN  =     -9149.85740183
  -Hartree energ DENC   =     -3732.92056525
  -exchange      EXHF   =         0.00000000
  -V(xc)+E(xc)   XCENC  =       481.54848217
  PAW double counting   =     11580.13018712   -12116.59493749
  entropy T*S    EENTRO =        -0.00000000
  eigenvalues    EBANDS =     -1511.16877336
  atomic energy  EATOM  =     13290.28009929
  Solvation  Ediel_sol  =         0.00000000
  ---------------------------------------------------
  free energy    TOTEN  =      -714.77269832 eV

  energy without entropy =     -714.77269832  energy(sigma->0) =     -714.77269832


--------------------------------------------------------------------------------------------------------




--------------------------------------- Iteration      1(  15)  ---------------------------------------


    POTLOK:  cpu time    0.1424: real time    0.1968
    SETDIJ:  cpu time    1.1708: real time    1.1708
     EDDAV:  cpu time    3.8805: real time    3.8806
       DOS:  cpu time    0.0004: real time    0.0004
    CHARGE:  cpu time    1.0843: real time    1.0843
    MIXING:  cpu time    0.0012: real time    0.0012
    --------------------------------------------
      LOOP:  cpu time    6.2795: real time    6.3342

 eigenvalue-minimisations  :  1272
 total energy-change (2. order) : 0.1050324E-05  (-0.4064420E-07)
 number of electron     176.0000003 magnetization 
 augmentation part       -2.3303556 magnetization 

 Broyden mixing:
  rms(total) = 0.74008E-04    rms(broyden)= 0.62491E-04
  rms(prec ) = 0.83559E-04
  weight for this iteration     100.00
  WARNING: grid for Broyden might be to small

 eigenvalues of (default mixing * dielectric matrix)
  average eigenvalue GAMMA=   1.6638
  3.1029  2.7676  2.4657  1.8338  1.3306  1.1294  1.1294  0.9784  0.9784  0.9214

 Free energy of the ion-electron system (eV)
  ---------------------------------------------------
  alpha Z        PSCENC =       443.81021102
  Ewald energy   TEWEN  =     -9149.85740183
  -Hartree energ DENC   =     -3732.92273655
  -exchange      EXHF   =         0.00000000
  -V(xc)+E(xc)   XCENC  =       481.54867212
  PAW double counting   =     11580.18728392   -12116.65077349
  entropy T*S    EENTRO =        -0.00000000
  eigenvalues    EBANDS =     -1511.16805175
  atomic energy  EATOM  =     13290.28009929
  Solvation  Ediel_sol  =         0.00000000
  ---------------------------------------------------
  free energy    TOTEN  =      -714.77269727 eV

  energy without entropy =     -714.77269727  energy(sigma->0) =     -714.77269727


--------------------------------------------------------------------------------------------------------




--------------------------------------- Iteration      1(  16)  ---------------------------------------


    POTLOK:  cpu time    0.1655: real time    0.1900
    SETDIJ:  cpu time    1.1718: real time    1.1718
     EDDAV:  cpu time    3.8317: real time    3.8318
       DOS:  cpu time    0.0005: real time    0.0005
    CHARGE:  cpu time    1.0881: real time    1.0881
    MIXING:  cpu time    0.0015: real time    0.0015
    --------------------------------------------
      LOOP:  cpu time    6.2591: real time    6.2837

 eigenvalue-minimisations  :  1240
 total energy-change (2. order) : 0.2528460E-05  (-0.1465873E-07)
 number of electron     176.0000003 magnetization 
 augmentation part       -2.3303456 magnetization 

 Broyden mixing:
  rms(total) = 0.59331E-04    rms(broyden)= 0.44146E-04
  rms(prec ) = 0.51333E-04
  weight for this iteration     100.00
  WARNING: grid for Broyden might be to small

 eigenvalues of (default mixing * dielectric matrix)
  average eigenvalue GAMMA=   1.6811
  3.0480  2.8267  2.5768  1.8906  1.8906  1.1682  0.9221  1.0296  1.0296  1.0550
  1.0550

 Free energy of the ion-electron system (eV)
  ---------------------------------------------------
  alpha Z        PSCENC =       443.81021102
  Ewald energy   TEWEN  =     -9149.85740183
  -Hartree energ DENC   =     -3732.92734300
  -exchange      EXHF   =         0.00000000
  -V(xc)+E(xc)   XCENC  =       481.54902827
  PAW double counting   =     11580.20168212   -12116.66492900
  entropy T*S    EENTRO =        -0.00000000
  eigenvalues    EBANDS =     -1511.16404162
  atomic energy  EATOM  =     13290.28009929
  Solvation  Ediel_sol  =         0.00000000
  ---------------------------------------------------
  free energy    TOTEN  =      -714.77269474 eV

  energy without entropy =     -714.77269474  energy(sigma->0) =     -714.77269474


--------------------------------------------------------------------------------------------------------




--------------------------------------- Iteration      1(  17)  ---------------------------------------


    POTLOK:  cpu time    0.1364: real time    0.1899
    SETDIJ:  cpu time    1.1735: real time    1.1735
     EDDAV:  cpu time    3.7282: real time    3.7283
       DOS:  cpu time    0.0005: real time    0.0005
    CHARGE:  cpu time    1.0826: real time    1.0827
    MIXING:  cpu time    0.0015: real time    0.0015
    --------------------------------------------
      LOOP:  cpu time    6.1226: real time    6.1764

 eigenvalue-minimisations  :  1176
 total energy-change (2. order) : 0.1531694E-05  (-0.5318013E-08)
 number of electron     176.0000003 magnetization 
 augmentation part       -2.3303523 magnetization 

 Broyden mixing:
  rms(total) = 0.41752E-04    rms(broyden)= 0.13114E-04
  rms(prec ) = 0.16224E-04
  weight for this iteration     100.00
  WARNING: grid for Broyden might be to small

 eigenvalues of (default mixing * dielectric matrix)
  average eigenvalue GAMMA=   1.7425
  3.5492  2.8311  2.8311  2.2593  1.8260  1.3852  1.2033  1.0894  1.0894  0.9616
  0.9616  0.9225

 Free energy of the ion-electron system (eV)
  ---------------------------------------------------
  alpha Z        PSCENC =       443.81021102
  Ewald energy   TEWEN  =     -9149.85740183
  -Hartree energ DENC   =     -3732.92802845
  -exchange      EXHF   =         0.00000000
  -V(xc)+E(xc)   XCENC  =       481.54898877
  PAW double counting   =     11580.22272424   -12116.68593147
  entropy T*S    EENTRO =        -0.00000000
  eigenvalues    EBANDS =     -1511.16335479
  atomic energy  EATOM  =     13290.28009929
  Solvation  Ediel_sol  =         0.00000000
  ---------------------------------------------------
  free energy    TOTEN  =      -714.77269321 eV

  energy without entropy =     -714.77269321  energy(sigma->0) =     -714.77269321


--------------------------------------------------------------------------------------------------------




--------------------------------------- Iteration      1(  18)  ---------------------------------------


    POTLOK:  cpu time    0.1436: real time    0.1766
    SETDIJ:  cpu time    1.1720: real time    1.1720
     EDDAV:  cpu time    3.7046: real time    3.7048
       DOS:  cpu time    0.0003: real time    0.0003
    --------------------------------------------
      LOOP:  cpu time    5.0205: real time    5.0537

 eigenvalue-minimisations  :  1160
 total energy-change (2. order) :-0.2416480E-06  (-0.2395184E-08)
 number of electron     176.0000003 magnetization 
 augmentation part       -2.3303523 magnetization 

 Free energy of the ion-electron system (eV)
  ---------------------------------------------------
  alpha Z        PSCENC =       443.81021102
  Ewald energy   TEWEN  =     -9149.85740183
  -Hartree energ DENC   =     -3732.92749711
  -exchange      EXHF   =         0.00000000
  -V(xc)+E(xc)   XCENC  =       481.54899467
  PAW double counting   =     11580.22551642   -12116.68870453
  entropy T*S    EENTRO =        -0.00000000
  eigenvalues    EBANDS =     -1511.16391138
  atomic energy  EATOM  =     13290.28009929
  Solvation  Ediel_sol  =         0.00000000
  ---------------------------------------------------
  free energy    TOTEN  =      -714.77269345 eV

  energy without entropy =     -714.77269345  energy(sigma->0) =     -714.77269345


--------------------------------------------------------------------------------------------------------




 average (electrostatic) potential at core
  the test charge radii are     1.1312  1.1541  1.0178
  (the norm of the test charge is              1.0000)
       1 -55.6229       2 -55.3970       3 -55.4081       4 -55.4377       5-101.5855
       6-101.5855       7-101.5855       8-101.5855       9 -69.0057      10 -69.0057
      11 -69.0057      12 -69.0057      13 -69.0068      14 -69.0068      15 -69.0068
      16 -69.0068      17 -69.0008      18 -69.0008      19 -69.0008      20 -69.0008



 E-fermi :   0.3896     XC(G=0):  -8.0171     alpha+bet : -6.9627


 k-point     1 :       0.0000    0.0000    0.0000
  band No.  band energies     occupation 
      1     -21.1153      2.00000
      2     -20.9559      2.00000
      3     -20.9244      2.00000
      4     -20.9192      2.00000
      5     -16.4268      2.00000
      6     -16.4253      2.00000
      7     -16.3968      2.00000
      8     -16.3966      2.00000
      9     -16.3954      2.00000
     10     -16.3260      2.00000
     11     -16.3256      2.00000
     12     -16.3256      2.00000
     13     -16.2515      2.00000
     14     -16.2508      2.00000
     15     -16.2506      2.00000
     16     -16.2503      2.00000
     17     -16.2502      2.00000
     18     -16.2498      2.00000
     19     -16.2497      2.00000
     20     -16.2495      2.00000
     21     -16.2490      2.00000
     22     -16.2488      2.00000
     23     -16.2483      2.00000
     24     -16.2480      2.00000
     25     -14.3877      2.00000
     26     -14.0437      2.00000
     27     -14.0433      2.00000
     28     -14.0410      2.00000
     29     -14.0388      2.00000
     30     -14.0387      2.00000
     31     -14.0333      2.00000
     32     -13.9654      2.00000
     33     -13.9647      2.00000
     34     -13.9614      2.00000
     35     -13.7321      2.00000
     36     -13.7311      2.00000
     37      -7.6953      2.00000
     38      -7.6875      2.00000
     39      -7.6846      2.00000
     40      -7.4735      2.00000
     41      -7.4657      2.00000
     42      -7.4602      2.00000
     43      -7.3660      2.00000
     44      -7.3424      2.00000
     45      -7.3272      2.00000
     46      -7.3197      2.00000
     47      -7.3106      2.00000
     48      -7.2978      2.00000
     49      -7.2880      2.00000
     50      -7.2848      2.00000
     51      -7.2846      2.00000
     52      -6.4442      2.00000
     53      -3.3647      2.00000
     54      -3.3611      2.00000
     55      -3.3517      2.00000
     56      -3.1400      2.00000
     57      -3.1238      2.00000
     58      -3.1027      2.00000
     59      -2.1732      2.00000
     60      -2.1626      2.00000
     61      -2.1584      2.00000
     62      -1.6435      2.00000
     63      -1.6336      2.00000
     64      -1.6336      2.00000
     65      -1.5842      2.00000
     66      -1.5668      2.00000
     67      -1.5625      2.00000
     68      -1.5508      2.00000
     69      -1.5346      2.00000
     70      -1.5334      2.00000
     71      -1.5213      2.00000
     72      -1.5036      2.00000
     73      -1.5003      2.00000
     74      -1.4004      2.00000
     75      -1.3696      2.00000
     76      -1.3611      2.00000
     77      -1.2712      2.00000
     78      -1.2645      2.00000
     79      -1.2605      2.00000
     80      -1.1632      2.00000
     81      -1.1579      2.00000
     82      -1.1556      2.00000
     83      -0.9343      2.00000
     84      -0.9211      2.00000
     85      -0.8930      2.00000
     86      -0.0382      2.00000
     87      -0.0363      2.00000
     88      -0.0322      2.00000
     89       3.1790      0.00000
     90       3.1878      0.00000
     91       3.1908      0.00000
     92       3.2317      0.00000
     93       3.2324      0.00000
     94       3.2477      0.00000
     95       4.6438      0.00000
     96       5.6789      0.00000
     97       5.7666      0.00000
     98       5.7859      0.00000
     99       5.7965      0.00000
    100       5.8758      0.00000
    101       6.3468      0.00000
    102       6.3775      0.00000
    103       6.4296      0.00000
    104       6.6835      0.00000
    105       6.6879      0.00000
    106       6.7011      0.00000
    107       6.7077      0.00000
    108       6.7269      0.00000
    109       6.7344      0.00000
    110       6.7397      0.00000
    111       6.8250      0.00000
    112       7.2709      0.00000

 k-point     2 :       0.3333    0.0000    0.0000
  band No.  band energies     occupation 
      1     -21.1152      2.00000
      2     -20.9559      2.00000
      3     -20.9243      2.00000
      4     -20.9193      2.00000
      5     -16.4188      2.00000
      6     -16.4039      2.00000
      7     -16.4024      2.00000
      8     -16.3844      2.00000
      9     -16.3834      2.00000
     10     -16.3524      2.00000
     11     -16.3385      2.00000
     12     -16.3381      2.00000
     13     -16.2512      2.00000
     14     -16.2506      2.00000
     15     -16.2505      2.00000
     16     -16.2502      2.00000
     17     -16.2501      2.00000
     18     -16.2498      2.00000
     19     -16.2496      2.00000
     20     -16.2493      2.00000
     21     -16.2491      2.00000
     22     -16.2487      2.00000
     23     -16.2485      2.00000
     24     -16.2483      2.00000
     25     -14.3337      2.00000
     26     -14.1891      2.00000
     27     -14.1033      2.00000
     28     -14.1014      2.00000
     29     -14.0394      2.00000
     30     -14.0366      2.00000
     31     -13.9616      2.00000
     32     -13.8972      2.00000
     33     -13.8963      2.00000
     34     -13.8464      2.00000
     35     -13.8086      2.00000
     36     -13.7599      2.00000
     37      -7.7319      2.00000
     38      -7.7280      2.00000
     39      -7.4730      2.00000
     40      -7.4653      2.00000
     41      -7.4630      2.00000
     42      -7.4535      2.00000
     43      -7.3628      2.00000
     44      -7.3359      2.00000
     45      -7.3264      2.00000
     46      -7.3258      2.00000
     47      -7.3062      2.00000
     48      -7.2970      2.00000
     49      -7.2877      2.00000
     50      -7.2859      2.00000
     51      -7.2759      2.00000
     52      -6.8428      2.00000
     53      -3.3215      2.00000
     54      -3.2074      2.00000
     55      -3.0347      2.00000
     56      -2.7828      2.00000
     57      -2.7775      2.00000
     58      -2.7703      2.00000
     59      -2.2440      2.00000
     60      -2.1091      2.00000
     61      -2.0651      2.00000
     62      -2.0590      2.00000
     63      -2.0543      2.00000
     64      -2.0266      2.00000
     65      -1.7700      2.00000
     66      -1.7550      2.00000
     67      -1.7118      2.00000
     68      -1.5581      2.00000
     69      -1.5376      2.00000
     70      -1.4546      2.00000
     71      -1.4474      2.00000
     72      -1.4065      2.00000
     73      -1.3571      2.00000
     74      -1.3313      2.00000
     75      -1.3107      2.00000
     76      -1.3052      2.00000
     77      -1.2343      2.00000
     78      -1.2285      2.00000
     79      -1.1972      2.00000
     80      -1.1916      2.00000
     81      -1.1851      2.00000
     82      -1.1401      2.00000
     83      -1.0026      2.00000
     84      -0.9753      2.00000
     85      -0.9040      2.00000
     86      -0.6798      2.00000
     87      -0.2923      2.00000
     88      -0.2897      2.00000
     89       3.1853      0.00000
     90       3.1880      0.00000
     91       3.8986      0.00000
     92       3.9260      0.00000
     93       4.0436      0.00000
     94       4.1570      0.00000
     95       5.0984      0.00000
     96       5.1043      0.00000
     97       5.1152      0.00000
     98       5.6732      0.00000
     99       5.8193      0.00000
    100       5.9655      0.00000
    101       6.0286      0.00000
    102       6.1197      0.00000
    103       6.2492      0.00000
    104       6.3024      0.00000
    105       6.4884      0.00000
    106       6.5593      0.00000
    107       6.5889      0.00000
    108       6.7262      0.00000
    109       6.7479      0.00000
    110       6.7789      0.00000
    111       6.9038      0.00000
    112       6.9893      0.00000

 k-point     3 :       0.0000    0.3333    0.0000
  band No.  band energies     occupation 
      1     -21.1152      2.00000
      2     -20.9559      2.00000
      3     -20.9243      2.00000
      4     -20.9193      2.00000
      5     -16.4190      2.00000
      6     -16.4041      2.00000
      7     -16.4023      2.00000
      8     -16.3843      2.00000
      9     -16.3834      2.00000
     10     -16.3523      2.00000
     11     -16.3385      2.00000
     12     -16.3381      2.00000
     13     -16.2513      2.00000
     14     -16.2507      2.00000
     15     -16.2503      2.00000
     16     -16.2501      2.00000
     17     -16.2500      2.00000
     18     -16.2497      2.00000
     19     -16.2496      2.00000
     20     -16.2494      2.00000
     21     -16.2492      2.00000
     22     -16.2489      2.00000
     23     -16.2484      2.00000
     24     -16.2482      2.00000
     25     -14.3339      2.00000
     26     -14.1895      2.00000
     27     -14.1037      2.00000
     28     -14.0981      2.00000
     29     -14.0410      2.00000
     30     -14.0378      2.00000
     31     -13.9622      2.00000
     32     -13.8972      2.00000
     33     -13.8936      2.00000
     34     -13.8473      2.00000
     35     -13.8084      2.00000
     36     -13.7606      2.00000
     37      -7.7314      2.00000
     38      -7.7259      2.00000
     39      -7.4737      2.00000
     40      -7.4659      2.00000
     41      -7.4596      2.00000
     42      -7.4582      2.00000
     43      -7.3639      2.00000
     44      -7.3361      2.00000
     45      -7.3284      2.00000
     46      -7.3199      2.00000
     47      -7.3082      2.00000
     48      -7.2976      2.00000
     49      -7.2881      2.00000
     50      -7.2817      2.00000
     51      -7.2799      2.00000
     52      -6.8438      2.00000
     53      -3.3171      2.00000
     54      -3.2014      2.00000
     55      -3.0340      2.00000
     56      -2.7903      2.00000
     57      -2.7807      2.00000
     58      -2.7628      2.00000
     59      -2.2412      2.00000
     60      -2.1112      2.00000
     61      -2.0692      2.00000
     62      -2.0555      2.00000
     63      -2.0552      2.00000
     64      -2.0250      2.00000
     65      -1.7698      2.00000
     66      -1.7540      2.00000
     67      -1.7195      2.00000
     68      -1.5827      2.00000
     69      -1.5356      2.00000
     70      -1.4651      2.00000
     71      -1.4485      2.00000
     72      -1.3690      2.00000
     73      -1.3516      2.00000
     74      -1.3474      2.00000
     75      -1.3023      2.00000
     76      -1.2949      2.00000
     77      -1.2415      2.00000
     78      -1.2216      2.00000
     79      -1.2010      2.00000
     80      -1.1958      2.00000
     81      -1.1785      2.00000
     82      -1.1430      2.00000
     83      -1.0033      2.00000
     84      -0.9797      2.00000
     85      -0.8976      2.00000
     86      -0.6823      2.00000
     87      -0.3020      2.00000
     88      -0.2947      2.00000
     89       3.1857      0.00000
     90       3.1942      0.00000
     91       3.8953      0.00000
     92       3.9367      0.00000
     93       4.0520      0.00000
     94       4.1509      0.00000
     95       5.0883      0.00000
     96       5.1005      0.00000
     97       5.1375      0.00000
     98       5.6899      0.00000
     99       5.8234      0.00000
    100       5.9560      0.00000
    101       6.0179      0.00000
    102       6.0972      0.00000
    103       6.2588      0.00000
    104       6.3068      0.00000
    105       6.4956      0.00000
    106       6.5586      0.00000
    107       6.5956      0.00000
    108       6.6932      0.00000
    109       6.7256      0.00000
    110       6.8138      0.00000
    111       6.9574      0.00000
    112       7.0052      0.00000

 k-point     4 :       0.3333    0.3333    0.0000
  band No.  band energies     occupation 
      1     -21.1152      2.00000
      2     -20.9559      2.00000
      3     -20.9243      2.00000
      4     -20.9193      2.00000
      5     -16.4032      2.00000
      6     -16.4024      2.00000
      7     -16.4022      2.00000
      8     -16.3704      2.00000
      9     -16.3704      2.00000
     10     -16.3700      2.00000
     11     -16.3529      2.00000
     12     -16.3521      2.00000
     13     -16.2510      2.00000
     14     -16.2506      2.00000
     15     -16.2505      2.00000
     16     -16.2502      2.00000
     17     -16.2499      2.00000
[...]
     60      -2.0271      2.00000
     61      -1.9880      2.00000
     62      -1.9560      2.00000
     63      -1.9107      2.00000
     64      -1.8919      2.00000
     65      -1.8830      2.00000
     66      -1.6517      2.00000
     67      -1.5579      2.00000
     68      -1.4459      2.00000
     69      -1.4454      2.00000
     70      -1.4218      2.00000
     71      -1.4210      2.00000
     72      -1.3647      2.00000
     73      -1.3643      2.00000
     74      -1.3473      2.00000
     75      -1.3257      2.00000
     76      -1.3207      2.00000
     77      -1.2940      2.00000
     78      -1.2585      2.00000
     79      -1.2553      2.00000
     80      -1.2401      2.00000
     81      -1.1558      2.00000
     82      -1.0467      2.00000
     83      -1.0084      2.00000
     84      -0.9957      2.00000
     85      -0.8074      2.00000
     86      -0.6083      2.00000
     87      -0.5680      2.00000
     88       0.2741      2.00000
     89       2.8591      0.00000
     90       2.8707      0.00000
     91       3.4672      0.00000
     92       3.5130      0.00000
     93       3.6283      0.00000
     94       4.3743      0.00000
     95       5.4297      0.00000
     96       5.4506      0.00000
     97       5.6522      0.00000
     98       5.9888      0.00000
     99       6.0202      0.00000
    100       6.0757      0.00000
    101       6.1710      0.00000
    102       6.2146      0.00000
    103       6.2606      0.00000
    104       6.2818      0.00000
    105       6.3557      0.00000
    106       6.5250      0.00000
    107       6.6187      0.00000
    108       6.6351      0.00000
    109       6.6975      0.00000
    110       6.8462      0.00000
    111       6.8832      0.00000
    112       6.8911      0.00000

 k-point     8 :      -0.3333   -0.3333    0.3333
  band No.  band energies     occupation 
      1     -21.1152      2.00000
      2     -20.9559      2.00000
      3     -20.9242      2.00000
      4     -20.9192      2.00000
      5     -16.4267      2.00000
      6     -16.4154      2.00000
      7     -16.4152      2.00000
      8     -16.3791      2.00000
      9     -16.3575      2.00000
     10     -16.3575      2.00000
     11     -16.3434      2.00000
     12     -16.3259      2.00000
     13     -16.2513      2.00000
     14     -16.2508      2.00000
     15     -16.2505      2.00000
     16     -16.2502      2.00000
     17     -16.2499      2.00000
     18     -16.2496      2.00000
     19     -16.2494      2.00000
     20     -16.2493      2.00000
     21     -16.2490      2.00000
     22     -16.2488      2.00000
     23     -16.2486      2.00000
     24     -16.2478      2.00000
     25     -14.2777      2.00000
     26     -14.1723      2.00000
     27     -14.1703      2.00000
     28     -14.0386      2.00000
     29     -14.0374      2.00000
     30     -14.0353      2.00000
     31     -14.0341      2.00000
     32     -14.0104      2.00000
     33     -13.9206      2.00000
     34     -13.7734      2.00000
     35     -13.7709      2.00000
     36     -13.7312      2.00000
     37      -8.1125      2.00000
     38      -7.4741      2.00000
     39      -7.4663      2.00000
     40      -7.4625      2.00000
     41      -7.3784      2.00000
     42      -7.3606      2.00000
     43      -7.3421      2.00000
     44      -7.3293      2.00000
     45      -7.3276      2.00000
     46      -7.3267      2.00000
     47      -7.3043      2.00000
     48      -7.2978      2.00000
     49      -7.2886      2.00000
     50      -7.2200      2.00000
     51      -7.2171      2.00000
     52      -6.9584      2.00000
     53      -3.3005      2.00000
     54      -3.2981      2.00000
     55      -3.2590      2.00000
     56      -3.2301      2.00000
     57      -2.8653      2.00000
     58      -2.8573      2.00000
     59      -2.2148      2.00000
     60      -2.0276      2.00000
     61      -1.9876      2.00000
     62      -1.9486      2.00000
     63      -1.9130      2.00000
     64      -1.8904      2.00000
     65      -1.8796      2.00000
     66      -1.6508      2.00000
     67      -1.5522      2.00000
     68      -1.4473      2.00000
     69      -1.4467      2.00000
     70      -1.4400      2.00000
     71      -1.4167      2.00000
     72      -1.3623      2.00000
     73      -1.3543      2.00000
     74      -1.3480      2.00000
     75      -1.3247      2.00000
     76      -1.3189      2.00000
     77      -1.2859      2.00000
     78      -1.2619      2.00000
     79      -1.2586      2.00000
     80      -1.2482      2.00000
     81      -1.1568      2.00000
     82      -1.0294      2.00000
     83      -1.0120      2.00000
     84      -0.9960      2.00000
     85      -0.8228      2.00000
     86      -0.5869      2.00000
     87      -0.5675      2.00000
     88       0.2783      2.00000
     89       2.8574      0.00000
     90       2.8636      0.00000
     91       3.4513      0.00000
     92       3.5273      0.00000
     93       3.6212      0.00000
     94       4.3668      0.00000
     95       5.4163      0.00000
     96       5.4314      0.00000
     97       5.6606      0.00000
     98       6.0174      0.00000
     99       6.0274      0.00000
    100       6.0923      0.00000
    101       6.1759      0.00000
    102       6.2057      0.00000
    103       6.2647      0.00000
    104       6.2764      0.00000
    105       6.3122      0.00000
    106       6.5367      0.00000
    107       6.6111      0.00000
    108       6.6411      0.00000
    109       6.6810      0.00000
    110       6.8360      0.00000
    111       6.9001      0.00000
    112       6.9045      0.00000


--------------------------------------------------------------------------------------------------------


 soft charge-density along one line, spin component           1
         0         1         2         3         4         5         6         7         8         9
 total charge-density along one line

 pseudopotential strength for first ion, spin component:           1
 18.118  -4.743  -0.000  -0.000   0.000   0.000   0.000  -0.000
 -4.743   1.250   0.000   0.000  -0.000  -0.000  -0.000   0.000
 -0.000   0.000   2.324  -0.000   0.000  -2.793   0.000  -0.000
 -0.000   0.000  -0.000   2.325  -0.000   0.000  -2.794   0.000
  0.000  -0.000   0.000  -0.000   2.325  -0.000   0.000  -2.794
  0.000  -0.000  -2.793   0.000  -0.000   3.328  -0.000   0.000
  0.000  -0.000   0.000  -2.794   0.000  -0.000   3.328  -0.000
 -0.000   0.000  -0.000   0.000  -2.794   0.000  -0.000   3.329
  0.000  -0.000  -0.000   0.000  -0.000   0.000  -0.000   0.000
 -0.000   0.000  -0.000  -0.000   0.000   0.000   0.000  -0.000
  0.000  -0.000   0.000  -0.000   0.000  -0.000   0.000  -0.000
 -0.000   0.000   0.000  -0.000  -0.000  -0.000   0.000   0.000
  0.000  -0.000   0.000   0.000  -0.000  -0.000  -0.000   0.000
 total augmentation occupancy for first ion, spin component:           1
  1.904  -0.152   0.000   0.000   0.000   0.000   0.000   0.000  -0.000   0.000   0.000   0.000   0.001
 -0.152   0.076   0.000   0.000   0.000   0.000   0.000   0.000  -0.000   0.000  -0.000   0.000  -0.002
  0.000   0.000   2.011   0.000   0.000  -0.001   0.000   0.000   0.000   0.000   0.000   0.000   0.000
  0.000   0.000   0.000   2.012   0.000   0.000  -0.000   0.000   0.000   0.000   0.000   0.000   0.000
  0.000   0.000   0.000   0.000   2.014  -0.000   0.000   0.001   0.000   0.000   0.000   0.000   0.000
  0.000   0.000  -0.001   0.000  -0.000   0.005   0.000  -0.000   0.000   0.000   0.000   0.000   0.000
  0.000   0.000   0.000  -0.000   0.000   0.000   0.004   0.000   0.000   0.000   0.000   0.000   0.000
  0.000   0.000   0.000   0.000   0.001  -0.000   0.000   0.004   0.000   0.000   0.000   0.000   0.000
 -0.000  -0.000   0.000   0.000   0.000   0.000   0.000   0.000   0.003   0.000   0.000   0.000  -0.000
  0.000   0.000   0.000   0.000   0.000   0.000   0.000   0.000   0.000   0.003   0.000   0.000   0.000
  0.000  -0.000   0.000   0.000   0.000   0.000   0.000   0.000   0.000   0.000   0.002   0.000  -0.000
  0.000   0.000   0.000   0.000   0.000   0.000   0.000   0.000   0.000   0.000   0.000   0.002   0.000
  0.001  -0.002   0.000   0.000   0.000   0.000   0.000   0.000  -0.000   0.000  -0.000   0.000   0.002


------------------------ aborting loop because EDIFF is reached ----------------------------------------





 total charge     

# of ion       s       p       d       tot
------------------------------------------
    1        1.781   4.717   0.010   6.508
    2        1.785   4.719   0.016   6.520
    3        1.784   4.718   0.015   6.517
    4        1.784   4.719   0.015   6.518
    5        1.552   0.432   9.835  11.819
    6        1.552   0.432   9.835  11.819
    7        1.552   0.432   9.835  11.819
    8        1.552   0.432   9.835  11.819
    9        1.615   3.284   0.007   4.905
   10        1.615   3.284   0.007   4.905
   11        1.615   3.284   0.007   4.905
   12        1.615   3.284   0.007   4.905
   13        1.615   3.283   0.007   4.904
   14        1.615   3.283   0.007   4.904
   15        1.615   3.283   0.007   4.904
   16        1.615   3.283   0.007   4.904
   17        1.615   3.284   0.007   4.905
   18        1.615   3.284   0.007   4.905
   19        1.615   3.284   0.007   4.905
   20        1.615   3.284   0.007   4.905
--------------------------------------------------
tot         32.716  60.003  39.477 132.197

    CHARGE:  cpu time    0.1648: real time    0.1648
    FORLOC:  cpu time    0.0044: real time    0.0044
    FORNL :  cpu time    0.7346: real time    0.7347
    STRESS:  cpu time   14.6287: real time   14.6294
    FORCOR:  cpu time    0.1196: real time    0.1197
    FORHAR:  cpu time    0.0132: real time    0.0132
    MIXING:  cpu time    0.0012: real time    0.0012
    OFIELD:  cpu time    0.0000: real time    0.0000

  FORCE on cell =-STRESS in cart. coord.  units (eV):
  Direction    XX          YY          ZZ          XY          YZ          ZX
  --------------------------------------------------------------------------------------
  Alpha Z   443.81021   443.81021   443.81021
  Ewald   -3054.89514 -3046.48846 -3048.50073     0.00000     0.00000    -0.00000
  Hartree  1246.58621  1247.15820  1239.18254    -0.00000     0.00000     0.00000
  E(xc)    -738.92597  -738.90533  -738.87771     0.00239    -0.00056    -0.00221
  Local   -1454.60278 -1463.59354 -1453.79241     0.00040    -0.00041    -0.00041
  n-local   900.72415   900.84442   900.83523    -0.05064    -0.06312     0.05419
  augment   406.18381   406.15089   406.09976     0.00010    -0.00004    -0.00008
  Kinetic  2250.24681  2250.41738  2250.75833     0.04257     0.03329    -0.03755
  Fock        0.00000     0.00000     0.00000     0.00000     0.00000     0.00000
  -------------------------------------------------------------------------------------
  Total      -0.87270    -0.60624    -0.48479    -0.00000     0.00000     0.00000
  in kB      -1.71987    -1.19474    -0.95539    -0.00000     0.00000     0.00000
  external pressure =       -1.29 kB  Pullay stress =        0.00 kB


 VOLUME and BASIS-vectors are now :
 -----------------------------------------------------------------------------
  energy-cutoff  :      300.00
  volume of cell :      812.98
      direct lattice vectors                 reciprocal lattice vectors
     5.871564834  5.876966371  5.889967989     0.085156175  0.085077907 -0.000000000
     5.871564834 -5.876966371 -5.889967989     0.085156175 -0.000000000 -0.084890105
    -5.871564834  5.876966371 -5.889967989     0.000000000  0.085077907 -0.084890105

  length of vectors
    10.183601045 10.183601045 10.183601045     0.120373686  0.120241024  0.120185607


 FORCES acting on ions
    electron-ion (+dipol)            ewald-force                    non-local-force                 convergence-correction
 -----------------------------------------------------------------------------------------------
   0.311E-12 -.314E-12 0.192E-12   0.387E-13 0.107E-13 0.711E-14   0.827E-24 0.827E-24 0.000E+00   -.128E-13 -.129E-13 -.168E-13
   0.228E-10 0.475E-10 -.648E-10   0.142E-13 0.497E-13 -.142E-13   0.000E+00 -.207E-24 0.000E+00   -.257E-13 0.200E-13 0.246E-13
   0.583E-10 0.439E-09 -.323E-09   0.139E-13 -.178E-13 -.533E-14   0.000E+00 -.207E-24 0.000E+00   -.870E-14 -.239E-13 0.335E-13
   0.169E-09 0.130E-09 -.280E-09   0.353E-13 -.142E-13 0.142E-13   0.103E-24 0.000E+00 0.000E+00   -.284E-13 -.660E-13 -.630E-15
   -.176E-13 0.452E-13 0.133E-13   0.114E-12 0.853E-13 0.604E-13   0.000E+00 0.662E-23 -.662E-23   0.182E-12 0.130E-12 -.928E-13
   0.189E-13 0.746E-14 -.884E-12   0.112E-12 0.355E-13 -.608E-13   0.000E+00 0.000E+00 0.000E+00   0.128E-12 0.544E-13 -.822E-13
   0.183E-11 -.695E-12 0.173E-11   0.309E-13 -.160E-13 -.893E-13   0.000E+00 0.000E+00 -.265E-22   0.210E-12 0.448E-13 -.132E-12
   0.297E-11 -.252E-11 0.452E-11   0.284E-13 0.178E-13 -.266E-13   0.132E-22 0.000E+00 0.265E-22   0.192E-12 0.693E-13 -.461E-13
   0.187E+02 0.832E-05 -.149E+02   -.189E+02 -.235E-11 0.151E+02   0.120E+00 -.867E-18 -.110E+00   -.187E-04 -.889E-09 -.442E-04
   0.187E+02 -.185E-06 0.149E+02   -.189E+02 0.230E-11 -.151E+02   0.120E+00 -.867E-18 0.110E+00   -.187E-04 -.574E-09 0.442E-04
   -.187E+02 -.832E-05 0.149E+02   0.189E+02 0.229E-11 -.151E+02   -.120E+00 0.173E-17 0.110E+00   0.187E-04 0.889E-09 0.442E-04
   -.187E+02 0.185E-06 -.149E+02   0.189E+02 -.236E-11 0.151E+02   -.120E+00 0.867E-18 -.110E+00   0.187E-04 0.574E-09 -.442E-04
   -.164E+02 0.116E+02 -.615E-06   0.166E+02 -.117E+02 -.233E-10   -.160E+00 0.951E-01 0.347E-17   -.226E-05 -.404E-04 -.216E-11
   0.164E+02 -.116E+02 0.615E-06   -.166E+02 0.117E+02 0.233E-10   0.160E+00 -.951E-01 -.347E-17   0.226E-05 0.404E-04 0.222E-11
   -.164E+02 -.116E+02 0.458E-05   0.166E+02 0.117E+02 0.497E-13   -.160E+00 -.951E-01 -.347E-17   -.226E-05 0.404E-04 -.646E-09
   0.164E+02 0.116E+02 -.458E-05   -.166E+02 -.117E+02 0.888E-13   0.160E+00 0.951E-01 0.347E-17   0.226E-05 -.404E-04 0.646E-09
   -.488E-05 -.203E+02 0.153E+02   -.264E-11 0.204E+02 -.154E+02   0.000E+00 -.172E+00 0.964E-01   0.285E-09 -.166E-04 -.634E-05
   0.377E-05 -.203E+02 -.153E+02   0.203E-11 0.204E+02 0.154E+02   0.000E+00 -.172E+00 -.964E-01   -.339E-09 -.166E-04 0.634E-05
   -.377E-05 0.203E+02 0.153E+02   -.216E-11 -.204E+02 -.154E+02   0.867E-18 0.172E+00 0.964E-01   0.339E-09 0.166E-04 -.634E-05
   0.488E-05 0.203E+02 -.153E+02   0.254E-11 -.204E+02 0.154E+02   0.000E+00 0.172E+00 -.964E-01   -.285E-09 0.166E-04 0.634E-05
 -----------------------------------------------------------------------------------------------
   0.263E-09 0.611E-09 -.676E-09   0.391E-13 -.355E-13 -.107E-13   0.867E-18 -.278E-16 0.278E-16   0.676E-12 0.249E-12 -.308E-12


 POSITION                                       TOTAL-FORCE (eV/Angst)
 -----------------------------------------------------------------------------------
      2.93578      2.93848      2.94498         0.000000      0.000000      0.000000
      2.93578      2.93848     -2.94498         0.000000      0.000000      0.000000
     -2.93578      2.93848     -2.94498         0.000000      0.000000      0.000000
      2.93578     -2.93848     -2.94498         0.000000      0.000000      0.000000
      0.00000      0.00000      0.00000         0.000000      0.000000      0.000000
      0.00000      0.00000     -5.88997         0.000000      0.000000      0.000000
      0.00000      5.87697      0.00000         0.000000      0.000000      0.000000
      5.87156      0.00000      0.00000         0.000000      0.000000      0.000000
      5.49221     -2.93848     -5.59782        -0.018518      0.000000     -0.001878
     -0.37935      2.93848     -6.18212        -0.018518     -0.000000      0.001878
      0.37935      8.81545     -0.29215         0.018518     -0.000000      0.001878
      6.25092      2.93848      0.29215         0.018518      0.000000     -0.001878
      0.36168     -0.24869     -8.83495        -0.006521      0.005252      0.000000
      5.50988      6.12565      2.94498         0.006521     -0.005252      0.000000
      6.23325      0.24869     -2.94498        -0.006521     -0.005252      0.000000
     -0.36168      5.62828     -2.94498         0.006521      0.005252     -0.000000
      2.93578      0.41838     -0.29268        -0.000000     -0.006407      0.004008
      2.93578      0.41838     -5.59729         0.000000     -0.006407     -0.004008
      2.93578      5.45858     -0.29268        -0.000000      0.006407      0.004008
      2.93578      5.45858     -5.59729         0.000000      0.006407     -0.004008
 -----------------------------------------------------------------------------------
    total drift:                                0.000000      0.000000     -0.000000


--------------------------------------------------------------------------------------------------------



  FREE ENERGIE OF THE ION-ELECTRON SYSTEM (eV)
  ---------------------------------------------------
  free  energy   TOTEN  =      -714.77269345 eV

  energy  without entropy=     -714.77269345  energy(sigma->0) =     -714.77269345



--------------------------------------------------------------------------------------------------------


    POTLOK:  cpu time    1.2911: real time    1.2911


--------------------------------------------------------------------------------------------------------


 stress matrix after NEB project (eV)
     -0.87270     -0.00000      0.00000
     -0.00000     -0.60624      0.00000
      0.00000      0.00000     -0.48479
  FORCES: max atom, RMS     0.018613    0.009733
  FORCE total and by dimension    0.043527    0.018518
  Stress total and by dimension    1.167965    0.872698
     LOOP+:  cpu time  140.0979: real time  140.7618
    4ORBIT:  cpu time    0.0000: real time    0.0000



 total charge     

# of ion       s       p       d       tot
------------------------------------------
    1        1.781   4.717   0.010   6.508
    2        1.785   4.719   0.016   6.520
    3        1.784   4.718   0.015   6.517
    4        1.784   4.719   0.015   6.518
    5        1.552   0.432   9.835  11.819
    6        1.552   0.432   9.835  11.819
    7        1.552   0.432   9.835  11.819
    8        1.552   0.432   9.835  11.819
    9        1.615   3.284   0.007   4.905
   10        1.615   3.284   0.007   4.905
   11        1.615   3.284   0.007   4.905
   12        1.615   3.284   0.007   4.905
   13        1.615   3.283   0.007   4.904
   14        1.615   3.283   0.007   4.904
   15        1.615   3.283   0.007   4.904
   16        1.615   3.283   0.007   4.904
   17        1.615   3.284   0.007   4.905
   18        1.615   3.284   0.007   4.905
   19        1.615   3.284   0.007   4.905
   20        1.615   3.284   0.007   4.905
--------------------------------------------------
tot         32.716  60.003  39.477 132.197


 total amount of memory used by VASP MPI-rank0    45684. kBytes
=======================================================================

   base      :      30000. kBytes
   nonlr-proj:       4165. kBytes
   fftplans  :       5014. kBytes
   grid      :       4180. kBytes
   one-center:         46. kBytes
   wavefun   :       2279. kBytes

  
  
 General timing and accounting informations for this job:
 ========================================================
  
                  Total CPU time used (sec):      147.628
                            User time (sec):      146.664
                          System time (sec):        0.964
                         Elapsed time (sec):      148.648
  
                   Maximum memory used (kb):       89336.
                   Average memory used (kb):           0.
  
                          Minor page faults:        22378
                          Major page faults:            0
                 Voluntary context switches:         1695
