PROCAR new format
# of k-points:    8         # of bands:  112         # of ions:   20

 k-point     1 :    0.00000000 0.00000000 0.00000000     weight = 0.03703704

band     1 # energy  -21.11525209 # occ.  2.00000000

ion      s      p      d    tot
    1  0.887  0.000  0.000  0.887
    2  0.000  0.000  0.000  0.000
    3  0.000  0.000  0.000  0.000
    4  0.000  0.000  0.000  0.000
    5  0.000  0.000  0.000  0.000
    6  0.000  0.000  0.000  0.000
    7  0.000  0.000  0.000  0.000
    8  0.000  0.000  0.000  0.000
    9  0.000  0.000  0.000  0.000
   10  0.000  0.000  0.000  0.000
   11  0.000  0.000  0.000  0.000
   12  0.000  0.000  0.000  0.000
   13  0.000  0.000  0.000  0.000
   14  0.000  0.000  0.000  0.000
   15  0.000  0.000  0.000  0.000
   16  0.000  0.000  0.000  0.000
   17  0.000  0.000  0.000  0.000
   18  0.000  0.000  0.000  0.000
   19  0.000  0.000  0.000  0.000
   20  0.000  0.000  0.000  0.000
tot    0.888  0.000  0.000  0.888

band     2 # energy  -20.95592433 # occ.  2.00000000

ion      s      p      d    tot
    1  0.000  0.000  0.000  0.000
    2  0.000  0.000  0.000  0.000
    3  0.000  0.000  0.000  0.000
    4  0.887  0.000  0.000  0.887
    5  0.000  0.000  0.000  0.000
    6  0.000  0.000  0.000  0.000
    7  0.000  0.000  0.000  0.000
    8  0.000  0.000  0.000  0.000
    9  0.000  0.000  0.000  0.000
   10  0.000  0.000  0.000  0.000
   11  0.000  0.000  0.000  0.000
   12  0.000  0.000  0.000  0.000
   13  0.000  0.000  0.000  0.000
   14  0.000  0.000  0.000  0.000
   15  0.000  0.000  0.000  0.000
   16  0.000  0.000  0.000  0.000
   17  0.000  0.000  0.000  0.000
   18  0.000  0.000  0.000  0.000
   19  0.000  0.000  0.000  0.000
   20  0.000  0.000  0.000  0.000
tot    0.888  0.000  0.000  0.888

band     3 # energy  -20.92435344 # occ.  2.00000000

ion      s      p      d    tot
    1  0.000  0.000  0.000  0.000
    2  0.011  0.000  0.000  0.011
    3  0.876  0.000  0.000  0.876
    4  0.000  0.000  0.000  0.000
    5  0.000  0.000  0.000  0.000
    6  0.000  0.000  0.000  0.000
    7  0.000  0.000  0.000  0.000
    8  0.000  0.000  0.000  0.000
    9  0.000  0.000  0.000  0.000
   10  0.000  0.000  0.000  0.000
   11  0.000  0.000  0.000  0.000
   12  0.000  0.000  0.000  0.000
   13  0.000  0.000  0.000  0.000
   14  0.000  0.000  0.000  0.000
   15  0.000  0.000  0.000  0.000
   16  0.000  0.000  0.000  0.000
   17  0.000  0.000  0.000  0.000
   18  0.000  0.000  0.000  0.000
   19  0.000  0.000  0.000  0.000
   20  0.000  0.000  0.000  0.000
tot    0.888  0.000  0.000  0.888

band     4 # energy  -20.91924170 # occ.  2.00000000

ion      s      p      d    tot
    1  0.000  0.000  0.000  0.000
    2  0.876  0.000  0.000  0.876
    3  0.011  0.000  0.000  0.011
    4  0.000  0.000  0.000  0.000
    5  0.000  0.000  0.000  0.000
    6  0.000  0.000  0.000  0.000
    7  0.000  0.000  0.000  0.000
    8  0.000  0.000  0.000  0.000
    9  0.000  0.000  0.000  0.000
   10  0.000  0.000  0.000  0.000
   11  0.000  0.000  0.000  0.000
   12  0.000  0.000  0.000  0.000
   13  0.000  0.000  0.000  0.000
   14  0.000  0.000  0.000  0.000
   15  0.000  0.000  0.000  0.000
   16  0.000  0.000  0.000  0.000
   17  0.000  0.000  0.000  0.000
   18  0.000  0.000  0.000  0.000
   19  0.000  0.000  0.000  0.000
   20  0.000  0.000  0.000  0.000
tot    0.888  0.000  0.000  0.888

band     5 # energy  -16.42682479 # occ.  2.00000000

ion      s      p      d    tot
    1  0.000  0.000  0.000  0.000
    2  0.000  0.000  0.000  0.000
    3  0.000  0.000  0.000  0.000
    4  0.000  0.000  0.000  0.000
    5  0.000  0.000  0.229  0.229
    6  0.000  0.000  0.229  0.229
    7  0.000  0.000  0.230  0.230
    8  0.000  0.000  0.229  0.229
    9  0.005  0.000  0.000  0.005
   10  0.005  0.000  0.000  0.005
   11  0.005  0.000  0.000  0.005
   12  0.005  0.000  0.000  0.005
   13  0.005  0.000  0.000  0.006
   14  0.005  0.000  0.000  0.006
   15  0.005  0.000  0.000  0.006
   16  0.005  0.000  0.000  0.006
   17  0.000  0.000  0.000  0.000
   18  0.000  0.000  0.000  0.000
   19  0.000  0.000  0.000  0.000
   20  0.000  0.000  0.000  0.000
tot    0.042  0.000  0.918  0.960

band     6 # energy  -16.42534087 # occ.  2.00000000

ion      s      p      d    tot
    1  0.000  0.000  0.000  0.000
    2  0.000  0.000  0.000  0.000
    3  0.000  0.000  0.000  0.000
    4  0.000  0.000  0.000  0.000
    5  0.000  0.000  0.230  0.230
    6  0.000  0.000  0.229  0.229
    7  0.000  0.000  0.229  0.229
    8  0.000  0.000  0.230  0.230
    9  0.002  0.000  0.000  0.002
   10  0.002  0.000  0.000  0.002
   11  0.002  0.000  0.000  0.002
   12  0.002  0.000  0.000  0.002
   13  0.002  0.000  0.000  0.002
   14  0.002  0.000  0.000  0.002
   15  0.002  0.000  0.000  0.002
   16  0.002  0.000  0.000  0.002
   17  0.007  0.000  0.000  0.007
   18  0.007  0.000  0.000  0.007
   19  0.007  0.000  0.000  0.007
   20  0.007  0.000  0.000  0.007
tot    0.042  0.000  0.918  0.960

band     7 # energy  -16.39682326 # occ.  2.00000000

ion      s      p      d    tot
    1  0.000  0.000  0.000  0.000
    2  0.000  0.000  0.000  0.000
    3  0.000  0.000  0.000  0.000
    4  0.000  0.000  0.000  0.000
    5  0.000  0.000  0.224  0.224
    6  0.000  0.000  0.243  0.243
    7  0.000  0.000  0.241  0.241
    8  0.000  0.000  0.223  0.223
    9  0.008  0.000  0.000  0.008
   10  0.008  0.000  0.000  0.008
   11  0.008  0.000  0.000  0.008
   12  0.008  0.000  0.000  0.008
   13  0.000  0.000  0.000  0.000
   14  0.000  0.000  0.000  0.000
   15  0.000  0.000  0.000  0.000
   16  0.000  0.000  0.000  0.000
   17  0.000  0.000  0.000  0.000
   18  0.000  0.000  0.000  0.000
   19  0.000  0.000  0.000  0.000
   20  0.000  0.000  0.000  0.000
tot    0.031  0.001  0.931  0.963

band     8 # energy  -16.39660471 # occ.  2.00000000

ion      s      p      d    tot
    1  0.000  0.000  0.000  0.000
    2  0.000  0.000  0.000  0.000
    3  0.000  0.000  0.000  0.000
    4  0.000  0.000  0.000  0.000
    5  0.000  0.000  0.241  0.241
    6  0.000  0.000  0.225  0.225
    7  0.000  0.000  0.222  0.222
    8  0.000  0.000  0.243  0.243
    9  0.000  0.000  0.000  0.000
   10  0.000  0.000  0.000  0.000
   11  0.000  0.000  0.000  0.000
   12  0.000  0.000  0.000  0.000
   13  0.008  0.000  0.000  0.008
   14  0.008  0.000  0.000  0.008
   15  0.008  0.000  0.000  0.008
   16  0.008  0.000  0.000  0.008
   17  0.000  0.000  0.000  0.000
   18  0.000  0.000  0.000  0.000
   19  0.000  0.000  0.000  0.000
   20  0.000  0.000  0.000  0.000
tot    0.031  0.001  0.931  0.963

band     9 # energy  -16.39541355 # occ.  2.00000000

ion      s      p      d    tot
    1  0.000  0.000  0.000  0.000
    2  0.000  0.000  0.000  0.000
    3  0.000  0.000  0.000  0.000
    4  0.000  0.000  0.000  0.000
    5  0.000  0.000  0.233  0.233
    6  0.000  0.000  0.231  0.231
    7  0.000  0.000  0.235  0.235
    8  0.000  0.000  0.232  0.232
    9  0.000  0.000  0.000  0.000
   10  0.000  0.000  0.000  0.000
   11  0.000  0.000  0.000  0.000
   12  0.000  0.000  0.000  0.000
   13  0.000  0.000  0.000  0.000
   14  0.000  0.000  0.000  0.000
   15  0.000  0.000  0.000  0.000
   16  0.000  0.000  0.000  0.000
   17  0.008  0.000  0.000  0.008
   18  0.008  0.000  0.000  0.008
   19  0.008  0.000  0.000  0.008
   20  0.008  0.000  0.000  0.008
tot    0.031  0.001  0.932  0.963

band    10 # energy  -16.32600805 # occ.  2.00000000

ion      s      p      d    tot
    1  0.000  0.000  0.000  0.000
    2  0.000  0.000  0.000  0.000
    3  0.000  0.000  0.000  0.000
    4  0.000  0.000  0.000  0.000
    5  0.000  0.000  0.245  0.245
    6  0.000  0.000  0.228  0.228
    7  0.000  0.000  0.257  0.257
    8  0.000  0.000  0.241  0.241
    9  0.000  0.000  0.000  0.000
   10  0.000  0.000  0.000  0.000
   11  0.000  0.000  0.000  0.000
   12  0.000  0.000  0.000  0.000
   13  0.000  0.000  0.000  0.000
   14  0.000  0.000  0.000  0.000
   15  0.000  0.000  0.000  0.000
   16  0.000  0.000  0.000  0.000
   17  0.000  0.000  0.000  0.000
   18  0.000  0.000  0.000  0.000
   19  0.000  0.000  0.000  0.000
   20  0.000  0.000  0.000  0.000
tot    0.000  0.003  0.971  0.974

band    11 # energy  -16.32562271 # occ.  2.00000000

ion      s      p      d    tot
    1  0.000  0.000  0.000  0.000
    2  0.000  0.000  0.000  0.000
    3  0.000  0.000  0.000  0.000
    4  0.000  0.000  0.000  0.000
    5  0.000  0.000  0.314  0.314
    6  0.000  0.000  0.178  0.178
    7  0.000  0.000  0.152  0.152
    8  0.000  0.000  0.326  0.326
    9  0.000  0.000  0.000  0.000
   10  0.000  0.000  0.000  0.000
   11  0.000  0.000  0.000  0.000
   12  0.000  0.000  0.000  0.000
   13  0.000  0.000  0.000  0.000
   14  0.000  0.000  0.000  0.000
   15  0.000  0.000  0.000  0.000
   16  0.000  0.000  0.000  0.000
   17  0.000  0.001  0.000  0.001
   18  0.000  0.000  0.000  0.000
   19  0.000  0.000  0.000  0.000
   20  0.000  0.001  0.000  0.001
tot    0.000  0.003  0.971  0.974

band    12 # energy  -16.32557631 # occ.  2.00000000

ion      s      p      d    tot
    1  0.000  0.000  0.000  0.000
    2  0.000  0.000  0.000  0.000
    3  0.000  0.000  0.000  0.000
    4  0.000  0.000  0.000  0.000
    5  0.000  0.000  0.169  0.169
    6  0.000  0.000  0.323  0.323
    7  0.000  0.000  0.319  0.319
    8  0.000  0.000  0.161  0.161
    9  0.000  0.000  0.000  0.000
   10  0.000  0.000  0.000  0.000
   11  0.000  0.000  0.000  0.000
   12  0.000  0.000  0.000  0.000
   13  0.000  0.000  0.000  0.000
   14  0.000  0.000  0.000  0.000
   15  0.000  0.000  0.000  0.000
   16  0.000  0.000  0.000  0.000
   17  0.000  0.000  0.000  0.000
   18  0.000  0.001  0.000  0.001
   19  0.000  0.001  0.000  0.001
   20  0.000  0.000  0.000  0.000
tot    0.000  0.003  0.971  0.974

band    13 # energy  -16.25147373 # occ.  2.00000000

ion      s      p      d    tot
    1  0.000  0.000  0.000  0.000
    2  0.000  0.000  0.000  0.000
    3  0.000  0.000  0.000  0.000
    4  0.000  0.000  0.000  0.000
    5  0.000  0.000  0.230  0.230
    6  0.000  0.000  0.130  0.130
    7  0.000  0.000  0.462  0.462
    8  0.000  0.000  0.156  0.156
    9  0.000  0.000  0.000  0.000
   10  0.000  0.000  0.000  0.000
   11  0.000  0.000  0.000  0.000
   12  0.000  0.000  0.000  0.000
   13  0.000  0.000  0.000  0.000
   14  0.000  0.000  0.000  0.000
   15  0.000  0.000  0.000  0.000
   16  0.000  0.000  0.000  0.000
   17  0.000  0.000  0.000  0.000
   18  0.000  0.000  0.000  0.000
   19  0.000  0.000  0.000  0.000
   20  0.000  0.000  0.000  0.000
tot    0.000  0.000  0.977  0.977

band    14 # energy  -16.25075351 # occ.  2.00000000

ion      s      p      d    tot
    1  0.000  0.000  0.000  0.000
    2  0.000  0.000  0.000  0.000
    3  0.000  0.000  0.000  0.000
    4  0.000  0.000  0.000  0.000
    5  0.000  0.000  0.453  0.453
    6  0.000  0.000  0.126  0.126
    7  0.000  0.000  0.117  0.117
    8  0.000  0.000  0.281  0.281
    9  0.000  0.000  0.000  0.000
   10  0.000  0.000  0.000  0.000
   11  0.000  0.000  0.000  0.000
   12  0.000  0.000  0.000  0.000
   13  0.000  0.000  0.000  0.000
   14  0.000  0.000  0.000  0.000
   15  0.000  0.000  0.000  0.000
   16  0.000  0.000  0.000  0.000
   17  0.000  0.000  0.000  0.000
   18  0.000  0.000  0.000  0.000
   19  0.000  0.000  0.000  0.000
   20  0.000  0.000  0.000  0.000
tot    0.000  0.000  0.977  0.978

band    15 # energy  -16.25057314 # occ.  2.00000000

ion      s      p      d    tot
    1  0.000  0.000  0.000  0.000
    2  0.000  0.000  0.000  0.000
    3  0.000  0.000  0.000  0.000
    4  0.000  0.000  0.000  0.000
    5  0.000  0.000  0.000  0.000
    6  0.000  0.000  0.339  0.339
    7  0.000  0.000  0.338  0.338
    8  0.000  0.000  0.300  0.300
    9  0.000  0.000  0.000  0.000
   10  0.000  0.000  0.000  0.000
   11  0.000  0.000  0.000  0.000
   12  0.000  0.000  0.000  0.000
   13  0.000  0.000  0.000  0.000
   14  0.000  0.000  0.000  0.000
   15  0.000  0.000  0.000  0.000
   16  0.000  0.000  0.000  0.000
   17  0.000  0.000  0.000  0.000
   18  0.000  0.000  0.000  0.000
   19  0.000  0.000  0.000  0.000
   20  0.000  0.000  0.000  0.000
tot    0.000  0.000  0.978  0.978

band    16 # energy  -16.25027666 # occ.  2.00000000

ion      s      p      d    tot
    1  0.000  0.000  0.000  0.000
    2  0.000  0.000  0.000  0.000
    3  0.000  0.000  0.000  0.000
    4  0.000  0.000  0.000  0.000
    5  0.000  0.000  0.452  0.452
    6  0.000  0.000  0.224  0.224
    7  0.000  0.000  0.099  0.099
    8  0.000  0.000  0.202  0.202
    9  0.000  0.000  0.000  0.000
   10  0.000  0.000  0.000  0.000
   11  0.000  0.000  0.000  0.000
   12  0.000  0.000  0.000  0.000
   13  0.000  0.000  0.000  0.000
   14  0.000  0.000  0.000  0.000
   15  0.000  0.000  0.000  0.000
   16  0.000  0.000  0.000  0.000
   17  0.000  0.000  0.000  0.000
   18  0.000  0.000  0.000  0.000
   19  0.000  0.000  0.000  0.000
   20  0.000  0.000  0.000  0.000
tot    0.000  0.000  0.978  0.978

band    17 # energy  -16.25017414 # occ.  2.00000000

ion      s      p      d    tot
    1  0.000  0.000  0.000  0.000
    2  0.000  0.000  0.000  0.000
    3  0.000  0.000  0.000  0.000
    4  0.000  0.000  0.000  0.000
    5  0.000  0.000  0.182  0.182
    6  0.000  0.000  0.425  0.425
    7  0.000  0.000  0.090  0.090
    8  0.000  0.000  0.280  0.280
    9  0.000  0.000  0.000  0.000
   10  0.000  0.000  0.000  0.000
   11  0.000  0.000  0.000  0.000
   12  0.000  0.000  0.000  0.000
   13  0.000  0.000  0.000  0.000
   14  0.000  0.000  0.000  0.000
   15  0.000  0.000  0.000  0.000
   16  0.000  0.000  0.000  0.000
   17  0.000  0.000  0.000  0.000
   18  0.000  0.000  0.000  0.000
   19  0.000  0.000  0.000  0.000
   20  0.000  0.000  0.000  0.000
tot    0.000  0.000  0.978  0.978

band    18 # energy  -16.24984060 # occ.  2.00000000

ion      s      p      d    tot
    1  0.000  0.000  0.000  0.000
    2  0.000  0.000  0.000  0.000
    3  0.000  0.000  0.000  0.000
    4  0.000  0.000  0.000  0.000
    5  0.000  0.000  0.157  0.157
    6  0.000  0.000  0.358  0.358
    7  0.000  0.000  0.130  0.130
    8  0.000  0.000  0.333  0.333
    9  0.000  0.000  0.000  0.000
   10  0.000  0.000  0.000  0.000
   11  0.000  0.000  0.000  0.000
   12  0.000  0.000  0.000  0.000
   13  0.000  0.000  0.000  0.000
   14  0.000  0.000  0.000  0.000
   15  0.000  0.000  0.000  0.000
   16  0.000  0.000  0.000  0.000
   17  0.000  0.000  0.000  0.000
   18  0.000  0.000  0.000  0.000
   19  0.000  0.000  0.000  0.000
   20  0.000  0.000  0.000  0.000
tot    0.000  0.000  0.977  0.978

band    19 # energy  -16.24972970 # occ.  2.00000000

ion      s      p      d    tot
    1  0.000  0.000  0.000  0.000
    2  0.000  0.000  0.000  0.000
    3  0.000  0.000  0.000  0.000
    4  0.000  0.000  0.000  0.000
    5  0.000  0.000  0.357  0.357
    6  0.000  0.000  0.194  0.194
    7  0.000  0.000  0.368  0.368
    8  0.000  0.000  0.058  0.058
    9  0.000  0.000  0.000  0.000
   10  0.000  0.000  0.000  0.000
   11  0.000  0.000  0.000  0.000
   12  0.000  0.000  0.000  0.000
   13  0.000  0.000  0.000  0.000
   14  0.000  0.000  0.000  0.000
   15  0.000  0.000  0.000  0.000
   16  0.000  0.000  0.000  0.000
   17  0.000  0.000  0.000  0.000
   18  0.000  0.000  0.000  0.000
   19  0.000  0.000  0.000  0.000
   20  0.000  0.000  0.000  0.000
tot    0.000  0.000  0.977  0.978

band    20 # energy  -16.24951028 # occ.  2.00000000

ion      s      p      d    tot
    1  0.000  0.000  0.000  0.000
    2  0.000  0.000  0.000  0.000
    3  0.000  0.000  0.000  0.000
    4  0.000  0.000  0.000  0.000
    5  0.000  0.000  0.071  0.071
    6  0.000  0.000  0.247  0.247
    7  0.000  0.000  0.234  0.234
    8  0.000  0.000  0.425  0.425
    9  0.000  0.000  0.000  0.000
   10  0.000  0.000  0.000  0.000
   11  0.000  0.000  0.000  0.000
   12  0.000  0.000  0.000  0.000
   13  0.000  0.000  0.000  0.000
   14  0.000  0.000  0.000  0.000
   15  0.000  0.000  0.000  0.000
   16  0.000  0.000  0.000  0.000
   17  0.000  0.000  0.000  0.000
   18  0.000  0.000  0.000  0.000
   19  0.000  0.000  0.000  0.000
   20  0.000  0.000  0.000  0.000
tot    0.000  0.000  0.977  0.978

band    21 # energy  -16.24896243 # occ.  2.00000000

ion      s      p      d    tot
    1  0.000  0.000  0.000  0.000
    2  0.000  0.000  0.000  0.000
    3  0.000  0.000  0.000  0.000
    4  0.000  0.000  0.000  0.000
    5  0.000  0.000  0.229  0.229
    6  0.000  0.000  0.186  0.186
    7  0.000  0.000  0.305  0.305
    8  0.000  0.000  0.258  0.258
    9  0.000  0.000  0.000  0.000
   10  0.000  0.000  0.000  0.000
   11  0.000  0.000  0.000  0.000
   12  0.000  0.000  0.000  0.000
   13  0.000  0.000  0.000  0.000
   14  0.000  0.000  0.000  0.000
   15  0.000  0.000  0.000  0.000
   16  0.000  0.000  0.000  0.000
   17  0.000  0.000  0.000  0.000
   18  0.000  0.000  0.000  0.000
   19  0.000  0.000  0.000  0.000
   20  0.000  0.000  0.000  0.000
tot    0.000  0.000  0.978  0.978

band    22 # energy  -16.24878386 # occ.  2.00000000

ion      s      p      d    tot
    1  0.000  0.000  0.000  0.000
    2  0.000  0.000  0.000  0.000
    3  0.000  0.000  0.000  0.000
    4  0.000  0.000  0.000  0.000
    5  0.000  0.000  0.301  0.301
    6  0.000  0.000  0.346  0.346
    7  0.000  0.000  0.225  0.225
    8  0.000  0.000  0.105  0.105
    9  0.000  0.000  0.000  0.000
   10  0.000  0.000  0.000  0.000
   11  0.000  0.000  0.000  0.000
   12  0.000  0.000  0.000  0.000
   13  0.000  0.000  0.000  0.000
   14  0.000  0.000  0.000  0.000
   15  0.000  0.000  0.000  0.000
   16  0.000  0.000  0.000  0.000
   17  0.000  0.000  0.000  0.000
   18  0.000  0.000  0.000  0.000
   19  0.000  0.000  0.000  0.000
   20  0.000  0.000  0.000  0.000
tot    0.000  0.000  0.978  0.978

band    23 # energy  -16.24829815 # occ.  2.00000000

ion      s      p      d    tot
    1  0.000  0.000  0.000  0.000
    2  0.000  0.000  0.000  0.000
    3  0.000  0.000  0.000  0.000
    4  0.000  0.000  0.000  0.000
    5  0.000  0.000  0.073  0.073
    6  0.000  0.000  0.272  0.272
    7  0.000  0.000  0.181  0.181
    8  0.000  0.000  0.451  0.451
    9  0.000  0.000  0.000  0.000
   10  0.000  0.000  0.000  0.000
   11  0.000  0.000  0.000  0.000
   12  0.000  0.000  0.000  0.000
   13  0.000  0.000  0.000  0.000
   14  0.000  0.000  0.000  0.000
   15  0.000  0.000  0.000  0.000
   16  0.000  0.000  0.000  0.000
   17  0.000  0.000  0.000  0.000
   18  0.000  0.000  0.000  0.000
   19  0.000  0.000  0.000  0.000
   20  0.000  0.000  0.000  0.000
tot    0.000  0.000  0.978  0.978

band    24 # energy  -16.24799886 # occ.  2.00000000

ion      s      p      d    tot
    1  0.000  0.000  0.000  0.000
    2  0.000  0.000  0.000  0.000
    3  0.000  0.000  0.000  0.000
    4  0.000  0.000  0.000  0.000
    5  0.000  0.000  0.425  0.425
    6  0.000  0.000  0.084  0.084
    7  0.000  0.000  0.384  0.384
    8  0.000  0.000  0.084  0.084
    9  0.000  0.000  0.000  0.000
   10  0.000  0.000  0.000  0.000
   11  0.000  0.000  0.000  0.000
   12  0.000  0.000  0.000  0.000
   13  0.000  0.000  0.000  0.000
   14  0.000  0.000  0.000  0.000
   15  0.000  0.000  0.000  0.000
   16  0.000  0.000  0.000  0.000
   17  0.000  0.000  0.000  0.000
   18  0.000  0.000  0.000  0.000
   19  0.000  0.000  0.000  0.000
   20  0.000  0.000  0.000  0.000
tot    0.000  0.000  0.978  0.978

band    25 # energy  -14.38773728 # occ.  2.00000000

ion      s      p      d    tot
    1  0.000  0.000  0.000  0.000
    2  0.000  0.000  0.000  0.000
    3  0.000  0.000  0.000  0.000
    4  0.000  0.000  0.000  0.000
    5  0.008  0.000  0.000  0.008
    6  0.008  0.000  0.000  0.008
    7  0.008  0.000  0.000  0.008
    8  0.008  0.000  0.000  0.008
    9  0.062  0.000  0.000  0.062
   10  0.062  0.000  0.000  0.062
   11  0.062  0.000  0.000  0.062
   12  0.062  0.000  0.000  0.062
   13  0.062  0.000  0.000  0.062
   14  0.062  0.000  0.000  0.062
   15  0.062  0.000  0.000  0.062
   16  0.062  0.000  0.000  0.062
   17  0.061  0.000  0.000  0.061
   18  0.061  0.000  0.000  0.061
   19  0.061  0.000  0.000  0.061
   20  0.061  0.000  0.000  0.061
tot    0.770  0.000  0.000  0.770

band    26 # energy  -14.04374740 # occ.  2.00000000

ion      s      p      d    tot
    1  0.000  0.000  0.000  0.000
    2  0.000  0.000  0.000  0.000
    3  0.000  0.000  0.000  0.000
    4  0.000  0.000  0.000  0.000
    5  0.000  0.001  0.000  0.001
    6  0.000  0.001  0.000  0.001
    7  0.000  0.001  0.000  0.001
    8  0.000  0.001  0.000  0.001
    9  0.000  0.000  0.000  0.000
   10  0.000  0.000  0.000  0.000
   11  0.000  0.000  0.000  0.000
   12  0.000  0.000  0.000  0.000
   13  0.151  0.000  0.000  0.151
   14  0.151  0.000  0.000  0.151
   15  0.151  0.000  0.000  0.151
   16  0.151  0.000  0.000  0.151
   17  0.047  0.000  0.000  0.047
   18  0.047  0.000  0.000  0.047
   19  0.047  0.000  0.000  0.047
   20  0.047  0.000  0.000  0.047
tot    0.792  0.005  0.000  0.798

band    27 # energy  -14.04327256 # occ.  2.00000000

ion      s      p      d    tot
    1  0.000  0.000  0.000  0.000
    2  0.000  0.000  0.000  0.000
    3  0.000  0.000  0.000  0.000
    4  0.000  0.000  0.000  0.000
    5  0.000  0.001  0.000  0.001
    6  0.000  0.001  0.000  0.001
    7  0.000  0.001  0.000  0.001
    8  0.000  0.001  0.000  0.001
    9  0.180  0.000  0.000  0.181
   10  0.181  0.000  0.000  0.181
   11  0.180  0.000  0.000  0.181
   12  0.181  0.000  0.000  0.181
   13  0.000  0.000  0.000  0.000
   14  0.000  0.000  0.000  0.000
   15  0.000  0.000  0.000  0.000
   16  0.000  0.000  0.000  0.000
   17  0.017  0.000  0.000  0.017
   18  0.017  0.000  0.000  0.017
   19  0.017  0.000  0.000  0.017
   20  0.017  0.000  0.000  0.017
tot    0.792  0.005  0.000  0.798

band    28 # energy  -14.04095112 # occ.  2.00000000

ion      s      p      d    tot
    1  0.000  0.000  0.000  0.000
    2  0.000  0.000  0.000  0.000
    3  0.000  0.000  0.000  0.000
    4  0.000  0.000  0.000  0.000
    5  0.000  0.001  0.000  0.001
    6  0.000  0.001  0.000  0.001
    7  0.000  0.001  0.000  0.001
    8  0.000  0.001  0.000  0.001
    9  0.180  0.000  0.000  0.180
   10  0.179  0.000  0.000  0.179
   11  0.180  0.000  0.000  0.180
   12  0.179  0.000  0.000  0.179
   13  0.018  0.000  0.000  0.018
   14  0.018  0.000  0.000  0.018
   15  0.018  0.000  0.000  0.018
   16  0.018  0.000  0.000  0.018
   17  0.000  0.000  0.000  0.000
   18  0.000  0.000  0.000  0.000
   19  0.000  0.000  0.000  0.000
   20  0.000  0.000  0.000  0.000
tot    0.793  0.005  0.000  0.798

band    29 # energy  -14.03880595 # occ.  2.00000000

ion      s      p      d    tot
    1  0.000  0.000  0.000  0.000
    2  0.000  0.000  0.000  0.000
    3  0.000  0.000  0.000  0.000
    4  0.000  0.000  0.000  0.000
    5  0.000  0.001  0.000  0.001
    6  0.000  0.001  0.000  0.001
    7  0.000  0.001  0.000  0.001
    8  0.000  0.001  0.000  0.001
    9  0.019  0.000  0.000  0.019
   10  0.018  0.000  0.000  0.018
   11  0.019  0.000  0.000  0.019
   12  0.018  0.000  0.000  0.018
   13  0.180  0.000  0.000  0.180
   14  0.180  0.000  0.000  0.180
   15  0.180  0.000  0.000  0.180
   16  0.180  0.000  0.000  0.180
   17  0.000  0.000  0.000  0.000
   18  0.000  0.000  0.000  0.000
   19  0.000  0.000  0.000  0.000
   20  0.000  0.000  0.000  0.000
tot    0.793  0.005  0.000  0.798

band    30 # energy  -14.03865521 # occ.  2.00000000

ion      s      p      d    tot
    1  0.000  0.000  0.000  0.000
    2  0.000  0.001  0.000  0.001
    3  0.000  0.000  0.000  0.000
    4  0.000  0.000  0.000  0.000
    5  0.000  0.001  0.000  0.001
    6  0.000  0.001  0.000  0.001
    7  0.000  0.001  0.000  0.001
    8  0.000  0.001  0.000  0.001
    9  0.017  0.000  0.000  0.017
   10  0.017  0.000  0.000  0.017
   11  0.017  0.000  0.000  0.017
   12  0.017  0.000  0.000  0.017
   13  0.000  0.000  0.000  0.000
   14  0.000  0.000  0.000  0.000
   15  0.000  0.000  0.000  0.000
   16  0.000  0.000  0.000  0.000
   17  0.181  0.000  0.000  0.181
   18  0.181  0.000  0.000  0.181
   19  0.181  0.000  0.000  0.181
   20  0.181  0.000  0.000  0.181
tot    0.792  0.005  0.000  0.798

band    31 # energy  -14.03330531 # occ.  2.00000000

ion      s      p      d    tot
    1  0.000  0.000  0.000  0.000
    2  0.000  0.001  0.000  0.001
    3  0.000  0.000  0.000  0.000
    4  0.000  0.000  0.000  0.000
    5  0.000  0.001  0.000  0.001
    6  0.000  0.001  0.000  0.001
    7  0.000  0.001  0.000  0.001
    8  0.000  0.001  0.000  0.001
    9  0.000  0.000  0.000  0.000
   10  0.000  0.000  0.000  0.000
   11  0.000  0.000  0.000  0.000
   12  0.000  0.000  0.000  0.000
   13  0.047  0.000  0.000  0.047
   14  0.047  0.000  0.000  0.047
   15  0.047  0.000  0.000  0.047
   16  0.047  0.000  0.000  0.047
   17  0.151  0.000  0.000  0.152
   18  0.151  0.000  0.000  0.151
   19  0.151  0.000  0.000  0.151
   20  0.151  0.000  0.000  0.152
tot    0.793  0.005  0.000  0.798

band    32 # energy  -13.96543768 # occ.  2.00000000

ion      s      p      d    tot
    1  0.000  0.000  0.000  0.000
    2  0.000  0.000  0.000  0.000
    3  0.000  0.000  0.000  0.000
    4  0.000  0.000  0.000  0.000
    5  0.004  0.000  0.011  0.015
    6  0.004  0.000  0.011  0.015
    7  0.004  0.000  0.011  0.015
    8  0.004  0.000  0.011  0.015
    9  0.187  0.000  0.000  0.187
   10  0.187  0.000  0.000  0.187
   11  0.187  0.000  0.000  0.187
   12  0.187  0.000  0.000  0.187
   13  0.000  0.000  0.000  0.000
   14  0.000  0.000  0.000  0.000
   15  0.000  0.000  0.000  0.000
   16  0.000  0.000  0.000  0.000
   17  0.000  0.000  0.000  0.000
   18  0.000  0.000  0.000  0.000
   19  0.000  0.000  0.000  0.000
   20  0.000  0.000  0.000  0.000
tot    0.763  0.001  0.046  0.809

band    33 # energy  -13.96469660 # occ.  2.00000000

ion      s      p      d    tot
    1  0.000  0.000  0.000  0.000
    2  0.000  0.000  0.000  0.000
    3  0.000  0.000  0.000  0.000
    4  0.000  0.000  0.000  0.000
    5  0.004  0.000  0.011  0.015
    6  0.004  0.000  0.011  0.015
    7  0.004  0.000  0.011  0.015
    8  0.004  0.000  0.011  0.015
    9  0.000  0.000  0.000  0.000
   10  0.000  0.000  0.000  0.000
   11  0.000  0.000  0.000  0.000
   12  0.000  0.000  0.000  0.000
   13  0.187  0.000  0.000  0.187
   14  0.187  0.000  0.000  0.187
   15  0.187  0.000  0.000  0.187
   16  0.187  0.000  0.000  0.187
   17  0.000  0.000  0.000  0.000
   18  0.000  0.000  0.000  0.000
   19  0.000  0.000  0.000  0.000
   20  0.000  0.000  0.000  0.000
tot    0.763  0.001  0.045  0.809

band    34 # energy  -13.96144335 # occ.  2.00000000

ion      s      p      d    tot
    1  0.000  0.000  0.000  0.000
    2  0.000  0.000  0.000  0.000
    3  0.000  0.000  0.000  0.000
    4  0.000  0.000  0.000  0.000
    5  0.004  0.000  0.011  0.015
    6  0.004  0.000  0.011  0.015
    7  0.004  0.000  0.011  0.015
    8  0.004  0.000  0.011  0.015
    9  0.000  0.000  0.000  0.000
   10  0.000  0.000  0.000  0.000
   11  0.000  0.000  0.000  0.000
   12  0.000  0.000  0.000  0.000
   13  0.000  0.000  0.000  0.000
   14  0.000  0.000  0.000  0.000
   15  0.000  0.000  0.000  0.000
   16  0.000  0.000  0.000  0.000
   17  0.187  0.000  0.000  0.187
   18  0.187  0.000  0.000  0.187
   19  0.187  0.000  0.000  0.187
   20  0.187  0.000  0.000  0.187
tot    0.764  0.001  0.045  0.809

band    35 # energy  -13.73210848 # occ.  2.00000000

ion      s      p      d    tot
    1  0.000  0.000  0.000  0.000
    2  0.000  0.000  0.000  0.000
    3  0.000  0.000  0.000  0.000
    4  0.000  0.000  0.000  0.000
    5  0.000  0.000  0.016  0.016
    6  0.000  0.000  0.016  0.016
    7  0.000  0.000  0.016  0.016
    8  0.000  0.000  0.016  0.016
    9  0.120  0.000  0.000  0.120
   10  0.120  0.000  0.000  0.120
   11  0.120  0.000  0.000  0.120
   12  0.120  0.000  0.000  0.120
   13  0.062  0.000  0.000  0.062
   14  0.062  0.000  0.000  0.062
   15  0.062  0.000  0.000  0.062
   16  0.062  0.000  0.000  0.062
   17  0.010  0.000  0.000  0.010
   18  0.010  0.000  0.000  0.010
   19  0.010  0.000  0.000  0.010
   20  0.010  0.000  0.000  0.010
tot    0.769  0.000  0.063  0.832

band    36 # energy  -13.73113864 # occ.  2.00000000

ion      s      p      d    tot
    1  0.000  0.000  0.000  0.000
    2  0.000  0.000  0.000  0.000
    3  0.000  0.000  0.000  0.000
    4  0.000  0.000  0.000  0.000
    5  0.000  0.000  0.016  0.016
    6  0.000  0.000  0.016  0.016
    7  0.000  0.000  0.016  0.016
    8  0.000  0.000  0.016  0.016
    9  0.008  0.000  0.000  0.008
   10  0.008  0.000  0.000  0.008
   11  0.008  0.000  0.000  0.008
   12  0.008  0.000  0.000  0.008
   13  0.066  0.000  0.000  0.066
   14  0.066  0.000  0.000  0.066
   15  0.066  0.000  0.000  0.066
   16  0.066  0.000  0.000  0.066
   17  0.119  0.000  0.000  0.119
   18  0.119  0.000  0.000  0.119
   19  0.119  0.000  0.000  0.119
   20  0.119  0.000  0.000  0.119
tot    0.770  0.000  0.062  0.832

band    37 # energy   -7.69532804 # occ.  2.00000000

ion      s      p      d    tot
    1  0.000  0.000  0.000  0.000
    2  0.000  0.000  0.000  0.000
    3  0.000  0.000  0.000  0.000
    4  0.000  0.000  0.000  0.000
    5  0.146  0.000  0.001  0.147
    6  0.146  0.000  0.001  0.147
    7  0.146  0.000  0.001  0.147
    8  0.146  0.000  0.001  0.147
    9  0.000  0.010  0.000  0.010
   10  0.000  0.010  0.000  0.010
   11  0.000  0.010  0.000  0.010
   12  0.000  0.010  0.000  0.010
   13  0.000  0.010  0.000  0.011
   14  0.000  0.010  0.000  0.011
   15  0.000  0.010  0.000  0.011
   16  0.000  0.010  0.000  0.011
   17  0.008  0.000  0.000  0.008
   18  0.008  0.000  0.000  0.008
   19  0.008  0.000  0.000  0.008
   20  0.008  0.000  0.000  0.008
tot    0.616  0.085  0.004  0.704

band    38 # energy   -7.68753715 # occ.  2.00000000

ion      s      p      d    tot
    1  0.000  0.000  0.000  0.000
    2  0.000  0.000  0.000  0.000
    3  0.000  0.000  0.000  0.000