CsPbBr3 cubic bulk                      
           1
     5.871565    5.876966    5.889968
     5.871565   -5.876966   -5.889968
    -5.871565    5.876966   -5.889968
   Cs   Pb   Br
   4   4  12
Direct configuration=     1
   0.50000000  0.00000000  0.00000000
   0.50000000  0.50000000  0.50000000
   0.00000000  0.00000000  0.50000000
   0.00000000  0.50000000  0.00000000
   0.00000000  0.00000000  0.00000000
   0.00000000  0.50000000  0.50000000
   0.50000000  0.00000000  0.50000000
   0.50000000  0.50000000  0.00000000
   0.21769582  0.94289535  0.22519952
   0.21769582  0.49249630  0.77480048
   0.78230418  0.05710465  0.77480048
   0.78230418  0.50750370  0.22519952
   0.00964196  0.78079965  0.72884231
   0.99035804  0.21920035  0.27115769
   0.55195735  0.78079965  0.27115769
   0.44804265  0.21920035  0.72884231
   0.28559516  0.27484541  0.06044057
   0.28559516  0.72515459  0.51074975
   0.71440484  0.27484541  0.48925025
   0.71440484  0.72515459  0.93955943
