  20  20   1   0
  0.4011419E+02  0.8672618E-09  0.1182145E-08  0.7825411E-09  0.5000000E-15
   1.0000000000000000E-004
  CAR 
 CsPbBr3 cubic bulk                      
      8.64674218    -22.15096155  301      0.45968594      1.00000000
    -22.151  0.0000E+00  0.0000E+00
    -22.048  0.0000E+00  0.0000E+00
    -21.946  0.0000E+00  0.0000E+00
    -21.843  0.0000E+00  0.0000E+00
    -21.740  0.0000E+00  0.0000E+00
    -21.638  0.0000E+00  0.0000E+00
    -21.535  0.0000E+00  0.0000E+00
    -21.432  0.0000E+00  0.0000E+00
    -21.330  0.0000E+00  0.0000E+00
    -21.227  0.0000E+00  0.0000E+00
    -21.124  0.0000E+00  0.0000E+00
    -21.022  0.0000E+00  0.0000E+00
    -20.919  0.0000E+00  0.0000E+00
    -20.816  0.0000E+00  0.0000E+00
    -20.714  0.7793E+02  0.8000E+01
    -20.611  0.0000E+00  0.8000E+01
    -20.508  0.0000E+00  0.8000E+01
    -20.406  0.0000E+00  0.8000E+01
    -20.303  0.0000E+00  0.8000E+01
    -20.200  0.0000E+00  0.8000E+01
    -20.098  0.0000E+00  0.8000E+01
    -19.995  0.0000E+00  0.8000E+01
    -19.892  0.0000E+00  0.8000E+01
    -19.790  0.0000E+00  0.8000E+01
    -19.687  0.0000E+00  0.8000E+01
    -19.584  0.0000E+00  0.8000E+01
    -19.482  0.0000E+00  0.8000E+01
    -19.379  0.0000E+00  0.8000E+01
    -19.277  0.0000E+00  0.8000E+01
    -19.174  0.0000E+00  0.8000E+01
    -19.071  0.0000E+00  0.8000E+01
    -18.969  0.0000E+00  0.8000E+01
    -18.866  0.0000E+00  0.8000E+01
    -18.763  0.0000E+00  0.8000E+01
    -18.661  0.0000E+00  0.8000E+01
    -18.558  0.0000E+00  0.8000E+01
    -18.455  0.0000E+00  0.8000E+01
    -18.353  0.0000E+00  0.8000E+01
    -18.250  0.0000E+00  0.8000E+01
    -18.147  0.0000E+00  0.8000E+01
    -18.045  0.0000E+00  0.8000E+01
    -17.942  0.0000E+00  0.8000E+01
    -17.839  0.0000E+00  0.8000E+01
    -17.737  0.0000E+00  0.8000E+01
    -17.634  0.0000E+00  0.8000E+01
    -17.531  0.0000E+00  0.8000E+01
    -17.429  0.0000E+00  0.8000E+01
    -17.326  0.0000E+00  0.8000E+01
    -17.223  0.0000E+00  0.8000E+01
    -17.121  0.0000E+00  0.8000E+01
    -17.018  0.0000E+00  0.8000E+01
    -16.915  0.0000E+00  0.8000E+01
    -16.813  0.0000E+00  0.8000E+01
    -16.710  0.0000E+00  0.8000E+01
    -16.607  0.0000E+00  0.8000E+01
    -16.505  0.2188E+01  0.8225E+01
    -16.402  0.1316E+03  0.2385E+02
    -16.299  0.2338E+03  0.4800E+02
    -16.197  0.0000E+00  0.4800E+02
    -16.094  0.0000E+00  0.4800E+02
    -15.991  0.0000E+00  0.4800E+02
    -15.889  0.0000E+00  0.4800E+02
    -15.786  0.0000E+00  0.4800E+02
    -15.683  0.0000E+00  0.4800E+02
    -15.581  0.0000E+00  0.4800E+02
    -15.478  0.0000E+00  0.4800E+02
    -15.375  0.0000E+00  0.4800E+02
    -15.273  0.0000E+00  0.4800E+02
    -15.170  0.0000E+00  0.4800E+02
    -15.067  0.0000E+00  0.4800E+02
    -14.965  0.0000E+00  0.4800E+02
    -14.862  0.0000E+00  0.4800E+02
    -14.760  0.0000E+00  0.4800E+02
    -14.657  0.0000E+00  0.4800E+02
    -14.554  0.0000E+00  0.4800E+02
    -14.452  0.0000E+00  0.4800E+02
    -14.349  0.2929E-05  0.4800E+02
    -14.246  0.7528E+01  0.4877E+02
    -14.144  0.2360E+02  0.5120E+02
    -14.041  0.3146E+02  0.5523E+02
    -13.938  0.3001E+02  0.5997E+02
    -13.836  0.4773E+02  0.6634E+02
    -13.733  0.3831E+02  0.7138E+02
    -13.630  0.0000E+00  0.7200E+02
    -13.528  0.0000E+00  0.7200E+02
    -13.425  0.0000E+00  0.7200E+02
    -13.322  0.0000E+00  0.7200E+02
    -13.220  0.0000E+00  0.7200E+02
    -13.117  0.0000E+00  0.7200E+02
    -13.014  0.0000E+00  0.7200E+02
    -12.912  0.0000E+00  0.7200E+02
    -12.809  0.0000E+00  0.7200E+02
    -12.706  0.0000E+00  0.7200E+02
    -12.604  0.0000E+00  0.7200E+02
    -12.501  0.0000E+00  0.7200E+02
    -12.398  0.0000E+00  0.7200E+02
    -12.296  0.0000E+00  0.7200E+02
    -12.193  0.0000E+00  0.7200E+02
    -12.090  0.0000E+00  0.7200E+02
    -11.988  0.0000E+00  0.7200E+02
    -11.885  0.0000E+00  0.7200E+02
    -11.782  0.0000E+00  0.7200E+02
    -11.680  0.0000E+00  0.7200E+02
    -11.577  0.0000E+00  0.7200E+02
    -11.474  0.0000E+00  0.7200E+02
    -11.372  0.0000E+00  0.7200E+02
    -11.269  0.0000E+00  0.7200E+02
    -11.166  0.0000E+00  0.7200E+02
    -11.064  0.0000E+00  0.7200E+02
    -10.961  0.0000E+00  0.7200E+02
    -10.858  0.0000E+00  0.7200E+02
    -10.756  0.0000E+00  0.7200E+02
    -10.653  0.0000E+00  0.7200E+02
    -10.550  0.0000E+00  0.7200E+02
    -10.448  0.0000E+00  0.7200E+02
    -10.345  0.0000E+00  0.7200E+02
    -10.243  0.0000E+00  0.7200E+02
    -10.140  0.0000E+00  0.7200E+02
    -10.037  0.0000E+00  0.7200E+02
     -9.935  0.0000E+00  0.7200E+02
     -9.832  0.0000E+00  0.7200E+02
     -9.729  0.0000E+00  0.7200E+02
     -9.627  0.0000E+00  0.7200E+02
     -9.524  0.0000E+00  0.7200E+02
     -9.421  0.0000E+00  0.7200E+02
     -9.319  0.0000E+00  0.7200E+02
     -9.216  0.0000E+00  0.7200E+02
     -9.113  0.0000E+00  0.7200E+02
     -9.011  0.0000E+00  0.7200E+02
     -8.908  0.0000E+00  0.7200E+02
     -8.805  0.0000E+00  0.7200E+02
     -8.703  0.0000E+00  0.7200E+02
     -8.600  0.0000E+00  0.7200E+02
     -8.497  0.0000E+00  0.7200E+02
     -8.395  0.0000E+00  0.7200E+02
     -8.292  0.0000E+00  0.7200E+02
     -8.189  0.6547E-06  0.7200E+02
     -8.087  0.1082E+01  0.7211E+02
     -7.984  0.5452E-04  0.7211E+02
     -7.881  0.6494E+01  0.7278E+02
     -7.779  0.4329E+01  0.7322E+02
     -7.676  0.8660E+01  0.7411E+02
     -7.573  0.1297E+02  0.7555E+02
     -7.471  0.4336E+01  0.7600E+02
     -7.368  0.3155E+01  0.7655E+02
     -7.265  0.8255E+01  0.7818E+02
     -7.163  0.6349E+02  0.8518E+02
     -7.060  0.1093E+03  0.1028E+03
     -6.957  0.4330E+01  0.1032E+03
     -6.855  0.6494E+01  0.1039E+03
     -6.752  0.0000E+00  0.1039E+03
     -6.649  0.0000E+00  0.1039E+03
     -6.547  0.1082E+01  0.1040E+03
     -6.444  0.0000E+00  0.1040E+03
     -6.341  0.0000E+00  0.1040E+03
     -6.239  0.0000E+00  0.1040E+03
     -6.136  0.0000E+00  0.1040E+03
     -6.033  0.0000E+00  0.1040E+03
     -5.931  0.0000E+00  0.1040E+03
     -5.828  0.0000E+00  0.1040E+03
     -5.726  0.0000E+00  0.1040E+03
     -5.623  0.0000E+00  0.1040E+03
     -5.520  0.0000E+00  0.1040E+03
     -5.418  0.0000E+00  0.1040E+03
     -5.315  0.0000E+00  0.1040E+03
     -5.212  0.0000E+00  0.1040E+03
     -5.110  0.0000E+00  0.1040E+03
     -5.007  0.0000E+00  0.1040E+03
     -4.904  0.0000E+00  0.1040E+03
     -4.802  0.0000E+00  0.1040E+03
     -4.699  0.0000E+00  0.1040E+03
     -4.596  0.0000E+00  0.1040E+03
     -4.494  0.0000E+00  0.1040E+03
     -4.391  0.0000E+00  0.1040E+03
     -4.288  0.0000E+00  0.1040E+03
     -4.186  0.0000E+00  0.1040E+03
     -4.083  0.0000E+00  0.1040E+03
     -3.980  0.0000E+00  0.1040E+03
     -3.878  0.0000E+00  0.1040E+03
     -3.775  0.0000E+00  0.1040E+03
     -3.672  0.0000E+00  0.1040E+03
     -3.570  0.0000E+00  0.1040E+03
     -3.467  0.0000E+00  0.1040E+03
     -3.364  0.0000E+00  0.1040E+03
     -3.262  0.2634E+01  0.1043E+03
     -3.159  0.1114E+02  0.1063E+03
     -3.056  0.1190E+02  0.1081E+03
     -2.954  0.7577E+01  0.1089E+03
     -2.851  0.7905E+01  0.1097E+03
     -2.748  0.1828E+02  0.1117E+03
     -2.646  0.6504E+01  0.1133E+03
     -2.543  0.2164E+01  0.1140E+03
     -2.440  0.1336E+02  0.1154E+03
     -2.338  0.1742E+02  0.1178E+03
     -2.235  0.2253E+01  0.1182E+03
     -2.132  0.1290E+02  0.1202E+03
     -2.030  0.2409E+02  0.1233E+03
     -1.927  0.2944E+02  0.1265E+03
     -1.824  0.3454E+01  0.1269E+03
     -1.722  0.1206E+02  0.1285E+03
     -1.619  0.3814E+02  0.1339E+03
     -1.517  0.5384E+01  0.1351E+03
     -1.414  0.4251E+02  0.1410E+03
     -1.311  0.6115E+02  0.1486E+03
     -1.209  0.2981E+02  0.1538E+03
     -1.106  0.5406E+02  0.1608E+03
     -1.003  0.3826E+02  0.1665E+03
     -0.901  0.6386E+01  0.1682E+03
     -0.798  0.1693E+02  0.1700E+03
     -0.695  0.1077E+02  0.1714E+03
     -0.593  0.8217E+01  0.1725E+03
     -0.490  0.7056E+01  0.1741E+03
     -0.387  0.4149E+01  0.1746E+03
     -0.285  0.0000E+00  0.1747E+03
     -0.182  0.1148E+01  0.1748E+03
     -0.079  0.7566E+01  0.1758E+03
      0.023  0.0000E+00  0.1759E+03
      0.126  0.0000E+00  0.1759E+03
      0.229  0.0000E+00  0.1759E+03
      0.331  0.2309E-11  0.1759E+03
      0.434  0.1082E+01  0.1760E+03
      0.537  0.0000E+00  0.1760E+03
      0.639  0.0000E+00  0.1760E+03
      0.742  0.0000E+00  0.1760E+03
      0.845  0.0000E+00  0.1760E+03
      0.947  0.0000E+00  0.1760E+03
      1.050  0.0000E+00  0.1760E+03
      1.153  0.0000E+00  0.1760E+03
      1.255  0.0000E+00  0.1760E+03
      1.358  0.0000E+00  0.1760E+03
      1.461  0.0000E+00  0.1760E+03
      1.563  0.0000E+00  0.1760E+03
      1.666  0.0000E+00  0.1760E+03
      1.769  0.0000E+00  0.1760E+03
      1.871  0.0000E+00  0.1760E+03
      1.974  0.0000E+00  0.1760E+03
      2.077  0.0000E+00  0.1760E+03
      2.179  0.0000E+00  0.1760E+03
      2.282  0.0000E+00  0.1760E+03
      2.385  0.0000E+00  0.1760E+03
      2.487  0.0000E+00  0.1760E+03
      2.590  0.8920E-04  0.1760E+03
      2.693  0.1082E+01  0.1761E+03
      2.795  0.1082E+01  0.1762E+03
      2.898  0.3034E+01  0.1765E+03
      3.000  0.5411E+01  0.1774E+03
      3.103  0.5411E+01  0.1780E+03
      3.206  0.6832E+01  0.1787E+03
      3.308  0.1131E-09  0.1800E+03
      3.411  0.3426E+01  0.1804E+03
      3.514  0.3273E+01  0.1811E+03
      3.616  0.2424E-07  0.1816E+03
      3.719  0.6501E+01  0.1822E+03
      3.822  0.3086E+01  0.1828E+03
      3.924  0.6494E+01  0.1838E+03
      4.027  0.1299E+02  0.1851E+03
      4.130  0.2165E+01  0.1853E+03
      4.232  0.6494E+01  0.1860E+03
      4.335  0.2165E+01  0.1862E+03
      4.438  0.8583E+01  0.1871E+03
      4.540  0.8659E+01  0.1880E+03
      4.643  0.8659E+01  0.1889E+03
      4.746  0.8660E+01  0.1898E+03
      4.848  0.7381E+01  0.1905E+03
      4.951  0.4371E+01  0.1913E+03
      5.054  0.1299E+02  0.1928E+03
      5.156  0.6480E+01  0.1934E+03
      5.259  0.9017E+01  0.1944E+03
      5.362  0.4329E+01  0.1952E+03
      5.464  0.3954E+01  0.1956E+03
      5.567  0.2406E-01  0.1959E+03
      5.670  0.4629E+01  0.1965E+03
      5.772  0.4329E+01  0.1977E+03
      5.875  0.7931E+01  0.1985E+03
      5.978  0.5401E+01  0.1993E+03
      6.080  0.6514E+01  0.2004E+03
      6.183  0.1251E+02  0.2024E+03
      6.286  0.5102E+01  0.2032E+03
      6.388  0.1838E+02  0.2053E+03
      6.491  0.2881E+02  0.2086E+03
      6.594  0.8649E+01  0.2098E+03
      6.696  0.3109E+02  0.2130E+03
      6.799  0.7643E+01  0.2147E+03
      6.902  0.1565E+02  0.2174E+03
      7.004  0.1551E+02  0.2196E+03
      7.107  0.1482E+02  0.2216E+03
      7.210  0.1407E+02  0.2236E+03
      7.312  0.4329E+01  0.2240E+03
      7.415  0.0000E+00  0.2240E+03
      7.517  0.0000E+00  0.2240E+03
      7.620  0.0000E+00  0.2240E+03
      7.723  0.0000E+00  0.2240E+03
      7.825  0.0000E+00  0.2240E+03
      7.928  0.0000E+00  0.2240E+03
      8.031  0.0000E+00  0.2240E+03
      8.133  0.0000E+00  0.2240E+03
      8.236  0.0000E+00  0.2240E+03
      8.339  0.0000E+00  0.2240E+03
      8.441  0.0000E+00  0.2240E+03
      8.544  0.0000E+00  0.2240E+03
      8.647  0.0000E+00  0.2240E+03
      8.64674218    -22.15096155  301      0.45968594      1.00000000
    -22.151  0.0000E+00  0.0000E+00  0.0000E+00
    -22.048  0.0000E+00  0.0000E+00  0.0000E+00
    -21.946  0.0000E+00  0.0000E+00  0.0000E+00
    -21.843  0.0000E+00  0.0000E+00  0.0000E+00
    -21.740  0.0000E+00  0.0000E+00  0.0000E+00
    -21.638  0.0000E+00  0.0000E+00  0.0000E+00
    -21.535  0.0000E+00  0.0000E+00  0.0000E+00
    -21.432  0.0000E+00  0.0000E+00  0.0000E+00
    -21.330  0.0000E+00  0.0000E+00  0.0000E+00
    -21.227  0.0000E+00  0.0000E+00  0.0000E+00
    -21.124  0.0000E+00  0.0000E+00  0.0000E+00
    -21.022  0.0000E+00  0.0000E+00  0.0000E+00
    -20.919  0.0000E+00  0.0000E+00  0.0000E+00
    -20.816  0.0000E+00  0.0000E+00  0.0000E+00
    -20.714  0.1729E+02  0.1316E-04  0.2460E-05
    -20.611  0.0000E+00  0.0000E+00  0.0000E+00
    -20.508  0.0000E+00  0.0000E+00  0.0000E+00
    -20.406  0.0000E+00  0.0000E+00  0.0000E+00
    -20.303  0.0000E+00  0.0000E+00  0.0000E+00
    -20.200  0.0000E+00  0.0000E+00  0.0000E+00
    -20.098  0.0000E+00  0.0000E+00  0.0000E+00
    -19.995  0.0000E+00  0.0000E+00  0.0000E+00
    -19.892  0.0000E+00  0.0000E+00  0.0000E+00
    -19.790  0.0000E+00  0.0000E+00  0.0000E+00
    -19.687  0.0000E+00  0.0000E+00  0.0000E+00
    -19.584  0.0000E+00  0.0000E+00  0.0000E+00
    -19.482  0.0000E+00  0.0000E+00  0.0000E+00
    -19.379  0.0000E+00  0.0000E+00  0.0000E+00
    -19.277  0.0000E+00  0.0000E+00  0.0000E+00
    -19.174  0.0000E+00  0.0000E+00  0.0000E+00
    -19.071  0.0000E+00  0.0000E+00  0.0000E+00
    -18.969  0.0000E+00  0.0000E+00  0.0000E+00
    -18.866  0.0000E+00  0.0000E+00  0.0000E+00
    -18.763  0.0000E+00  0.0000E+00  0.0000E+00
    -18.661  0.0000E+00  0.0000E+00  0.0000E+00
    -18.558  0.0000E+00  0.0000E+00  0.0000E+00
    -18.455  0.0000E+00  0.0000E+00  0.0000E+00
    -18.353  0.0000E+00  0.0000E+00  0.0000E+00
    -18.250  0.0000E+00  0.0000E+00  0.0000E+00
    -18.147  0.0000E+00  0.0000E+00  0.0000E+00
    -18.045  0.0000E+00  0.0000E+00  0.0000E+00
    -17.942  0.0000E+00  0.0000E+00  0.0000E+00
    -17.839  0.0000E+00  0.0000E+00  0.0000E+00
    -17.737  0.0000E+00  0.0000E+00  0.0000E+00
    -17.634  0.0000E+00  0.0000E+00  0.0000E+00
    -17.531  0.0000E+00  0.0000E+00  0.0000E+00
    -17.429  0.0000E+00  0.0000E+00  0.0000E+00
    -17.326  0.0000E+00  0.0000E+00  0.0000E+00
    -17.223  0.0000E+00  0.0000E+00  0.0000E+00
    -17.121  0.0000E+00  0.0000E+00  0.0000E+00
    -17.018  0.0000E+00  0.0000E+00  0.0000E+00
    -16.915  0.0000E+00  0.0000E+00  0.0000E+00
    -16.813  0.0000E+00  0.0000E+00  0.0000E+00
    -16.710  0.0000E+00  0.0000E+00  0.0000E+00
    -16.607  0.0000E+00  0.0000E+00  0.0000E+00
    -16.505  0.5561E-05  0.2117E-05  0.5324E-06
    -16.402  0.7092E-04  0.9008E-04  0.1629E-04
    -16.299  0.8739E-04  0.4691E-04  0.5800E-05
    -16.197  0.0000E+00  0.0000E+00  0.0000E+00
    -16.094  0.0000E+00  0.0000E+00  0.0000E+00
    -15.991  0.0000E+00  0.0000E+00  0.0000E+00
    -15.889  0.0000E+00  0.0000E+00  0.0000E+00
    -15.786  0.0000E+00  0.0000E+00  0.0000E+00
    -15.683  0.0000E+00  0.0000E+00  0.0000E+00
    -15.581  0.0000E+00  0.0000E+00  0.0000E+00
    -15.478  0.0000E+00  0.0000E+00  0.0000E+00
    -15.375  0.0000E+00  0.0000E+00  0.0000E+00
    -15.273  0.0000E+00  0.0000E+00  0.0000E+00
    -15.170  0.0000E+00  0.0000E+00  0.0000E+00
    -15.067  0.0000E+00  0.0000E+00  0.0000E+00
    -14.965  0.0000E+00  0.0000E+00  0.0000E+00
    -14.862  0.0000E+00  0.0000E+00  0.0000E+00
    -14.760  0.0000E+00  0.0000E+00  0.0000E+00
    -14.657  0.0000E+00  0.0000E+00  0.0000E+00
    -14.554  0.0000E+00  0.0000E+00  0.0000E+00
    -14.452  0.0000E+00  0.0000E+00  0.0000E+00
    -14.349  0.1355E-08  0.1332E-10  0.1212E-11
    -14.246  0.2545E-02  0.5778E-03  0.8914E-05
    -14.144  0.3835E-02  0.4119E-02  0.8048E-04
    -14.041  0.9466E-03  0.5358E-02  0.2655E-03
    -13.938  0.2192E-02  0.4378E-02  0.3785E-03
    -13.836  0.9359E-03  0.4260E-02  0.4574E-03
    -13.733  0.1007E-02  0.2570E-02  0.4259E-03
    -13.630  0.0000E+00  0.0000E+00  0.0000E+00
    -13.528  0.0000E+00  0.0000E+00  0.0000E+00
    -13.425  0.0000E+00  0.0000E+00  0.0000E+00
    -13.322  0.0000E+00  0.0000E+00  0.0000E+00
    -13.220  0.0000E+00  0.0000E+00  0.0000E+00
    -13.117  0.0000E+00  0.0000E+00  0.0000E+00
    -13.014  0.0000E+00  0.0000E+00  0.0000E+00
    -12.912  0.0000E+00  0.0000E+00  0.0000E+00
    -12.809  0.0000E+00  0.0000E+00  0.0000E+00
    -12.706  0.0000E+00  0.0000E+00  0.0000E+00
    -12.604  0.0000E+00  0.0000E+00  0.0000E+00
    -12.501  0.0000E+00  0.0000E+00  0.0000E+00
    -12.398  0.0000E+00  0.0000E+00  0.0000E+00
    -12.296  0.0000E+00  0.0000E+00  0.0000E+00
    -12.193  0.0000E+00  0.0000E+00  0.0000E+00
    -12.090  0.0000E+00  0.0000E+00  0.0000E+00
    -11.988  0.0000E+00  0.0000E+00  0.0000E+00
    -11.885  0.0000E+00  0.0000E+00  0.0000E+00
    -11.782  0.0000E+00  0.0000E+00  0.0000E+00
    -11.680  0.0000E+00  0.0000E+00  0.0000E+00
    -11.577  0.0000E+00  0.0000E+00  0.0000E+00
    -11.474  0.0000E+00  0.0000E+00  0.0000E+00
    -11.372  0.0000E+00  0.0000E+00  0.0000E+00
    -11.269  0.0000E+00  0.0000E+00  0.0000E+00
    -11.166  0.0000E+00  0.0000E+00  0.0000E+00
    -11.064  0.0000E+00  0.0000E+00  0.0000E+00
    -10.961  0.0000E+00  0.0000E+00  0.0000E+00
    -10.858  0.0000E+00  0.0000E+00  0.0000E+00
    -10.756  0.0000E+00  0.0000E+00  0.0000E+00
    -10.653  0.0000E+00  0.0000E+00  0.0000E+00
    -10.550  0.0000E+00  0.0000E+00  0.0000E+00
    -10.448  0.0000E+00  0.0000E+00  0.0000E+00
    -10.345  0.0000E+00  0.0000E+00  0.0000E+00
    -10.243  0.0000E+00  0.0000E+00  0.0000E+00
    -10.140  0.0000E+00  0.0000E+00  0.0000E+00
    -10.037  0.0000E+00  0.0000E+00  0.0000E+00
     -9.935  0.0000E+00  0.0000E+00  0.0000E+00
     -9.832  0.0000E+00  0.0000E+00  0.0000E+00
     -9.729  0.0000E+00  0.0000E+00  0.0000E+00
     -9.627  0.0000E+00  0.0000E+00  0.0000E+00
     -9.524  0.0000E+00  0.0000E+00  0.0000E+00
     -9.421  0.0000E+00  0.0000E+00  0.0000E+00
     -9.319  0.0000E+00  0.0000E+00  0.0000E+00
     -9.216  0.0000E+00  0.0000E+00  0.0000E+00
     -9.113  0.0000E+00  0.0000E+00  0.0000E+00
     -9.011  0.0000E+00  0.0000E+00  0.0000E+00
     -8.908  0.0000E+00  0.0000E+00  0.0000E+00
     -8.805  0.0000E+00  0.0000E+00  0.0000E+00
     -8.703  0.0000E+00  0.0000E+00  0.0000E+00
     -8.600  0.0000E+00  0.0000E+00  0.0000E+00
     -8.497  0.0000E+00  0.0000E+00  0.0000E+00
     -8.395  0.0000E+00  0.0000E+00  0.0000E+00
     -8.292  0.0000E+00  0.0000E+00  0.0000E+00
     -8.189  0.2169E-24  0.1091E-09  0.5382E-11
     -8.087  0.3586E-18  0.1804E-03  0.8896E-05
     -7.984  0.1066E-22  0.4801E-07  0.2328E-09
     -7.881  0.8445E-06  0.6005E-02  0.4399E-04
     -7.779  0.1032E-17  0.6736E-02  0.3224E-04
     -7.676  0.1287E-04  0.2345E-01  0.5253E-04
     -7.573  0.2062E-04  0.4974E-01  0.6508E-04
     -7.471  0.4207E-07  0.1785E-01  0.2705E-04
     -7.368  0.1297E-04  0.4501E-01  0.1364E-04
     -7.265  0.4686E-04  0.3044E+00  0.2106E-04
     -7.163  0.2508E-04  0.1161E+02  0.4347E-04
     -7.060  0.3975E-04  0.1984E+02  0.4909E-04
     -6.957  0.1383E-04  0.1307E+00  0.2765E-04
     -6.855  0.5005E-04  0.7252E-01  0.2251E-04
     -6.752  0.0000E+00  0.0000E+00  0.0000E+00
     -6.649  0.0000E+00  0.0000E+00  0.0000E+00
     -6.547  0.1021E-04  0.3284E-02  0.7579E-06
     -6.444  0.0000E+00  0.0000E+00  0.0000E+00
     -6.341  0.0000E+00  0.0000E+00  0.0000E+00
     -6.239  0.0000E+00  0.0000E+00  0.0000E+00
     -6.136  0.0000E+00  0.0000E+00  0.0000E+00
     -6.033  0.0000E+00  0.0000E+00  0.0000E+00
     -5.931  0.0000E+00  0.0000E+00  0.0000E+00
     -5.828  0.0000E+00  0.0000E+00  0.0000E+00
     -5.726  0.0000E+00  0.0000E+00  0.0000E+00
     -5.623  0.0000E+00  0.0000E+00  0.0000E+00
     -5.520  0.0000E+00  0.0000E+00  0.0000E+00
     -5.418  0.0000E+00  0.0000E+00  0.0000E+00
     -5.315  0.0000E+00  0.0000E+00  0.0000E+00
     -5.212  0.0000E+00  0.0000E+00  0.0000E+00
     -5.110  0.0000E+00  0.0000E+00  0.0000E+00
     -5.007  0.0000E+00  0.0000E+00  0.0000E+00
     -4.904  0.0000E+00  0.0000E+00  0.0000E+00
     -4.802  0.0000E+00  0.0000E+00  0.0000E+00
     -4.699  0.0000E+00  0.0000E+00  0.0000E+00
     -4.596  0.0000E+00  0.0000E+00  0.0000E+00
     -4.494  0.0000E+00  0.0000E+00  0.0000E+00
     -4.391  0.0000E+00  0.0000E+00  0.0000E+00
     -4.288  0.0000E+00  0.0000E+00  0.0000E+00
     -4.186  0.0000E+00  0.0000E+00  0.0000E+00
     -4.083  0.0000E+00  0.0000E+00  0.0000E+00
     -3.980  0.0000E+00  0.0000E+00  0.0000E+00
     -3.878  0.0000E+00  0.0000E+00  0.0000E+00
     -3.775  0.0000E+00  0.0000E+00  0.0000E+00
     -3.672  0.0000E+00  0.0000E+00  0.0000E+00
     -3.570  0.0000E+00  0.0000E+00  0.0000E+00
     -3.467  0.0000E+00  0.0000E+00  0.0000E+00
     -3.364  0.0000E+00  0.0000E+00  0.0000E+00
     -3.262  0.5835E-04  0.5052E-02  0.9412E-04
     -3.159  0.6429E-04  0.5725E-02  0.9114E-03
     -3.056  0.4234E-03  0.1523E-01  0.1560E-02
     -2.954  0.2269E-03  0.6461E-02  0.9624E-03
     -2.851  0.4023E-03  0.1254E-01  0.6338E-03
     -2.748  0.4355E-03  0.2682E-01  0.1674E-02
     -2.646  0.7596E-03  0.1058E-01  0.6510E-03
     -2.543  0.3126E-17  0.3449E-02  0.2851E-03
     -2.440  0.6887E-03  0.2413E-01  0.1311E-02
     -2.338  0.2473E-02  0.1377E-01  0.2522E-02
     -2.235  0.7864E-03  0.1828E-02  0.2818E-03
     -2.132  0.4816E-02  0.1467E-01  0.1271E-02
     -2.030  0.1519E-01  0.3993E-01  0.3693E-02
     -1.927  0.1970E-01  0.5830E-01  0.6073E-02
     -1.824  0.1160E-02  0.2188E-01  0.2667E-03
     -1.722  0.9387E-03  0.7296E-01  0.3316E-02
     -1.619  0.1600E-02  0.1252E+00  0.1614E-01
     -1.517  0.5016E-03  0.1417E-01  0.2034E-02
     -1.414  0.3267E-02  0.6905E-01  0.1914E-01
     -1.311  0.5291E-02  0.9578E-01  0.2411E-01
     -1.209  0.4498E-02  0.4479E-01  0.8845E-02
     -1.106  0.1130E-02  0.1080E+00  0.1476E-01
     -1.003  0.1251E-02  0.3222E-01  0.1002E-01
     -0.901  0.1712E-03  0.1052E-01  0.1665E-02
     -0.798  0.6764E-03  0.2087E-01  0.5578E-02
     -0.695  0.4273E-03  0.1287E-01  0.1528E-02
     -0.593  0.5725E-03  0.3156E-02  0.1311E-02
     -0.490  0.3447E-03  0.3489E-02  0.1047E-02
     -0.387  0.2844E-15  0.2837E-02  0.6600E-04
     -0.285  0.0000E+00  0.0000E+00  0.0000E+00
     -0.182  0.1880E-04  0.4827E-03  0.1503E-03
     -0.079  0.5555E-05  0.1900E-02  0.1177E-02
      0.023  0.0000E+00  0.0000E+00  0.0000E+00
      0.126  0.0000E+00  0.0000E+00  0.0000E+00
      0.229  0.0000E+00  0.0000E+00  0.0000E+00
      0.331  0.6572E-28  0.2085E-15  0.3104E-15
      0.434  0.3081E-16  0.9774E-04  0.1455E-03
      0.537  0.0000E+00  0.0000E+00  0.0000E+00
      0.639  0.0000E+00  0.0000E+00  0.0000E+00
      0.742  0.0000E+00  0.0000E+00  0.0000E+00
      0.845  0.0000E+00  0.0000E+00  0.0000E+00
      0.947  0.0000E+00  0.0000E+00  0.0000E+00
      1.050  0.0000E+00  0.0000E+00  0.0000E+00
      1.153  0.0000E+00  0.0000E+00  0.0000E+00
      1.255  0.0000E+00  0.0000E+00  0.0000E+00
      1.358  0.0000E+00  0.0000E+00  0.0000E+00
      1.461  0.0000E+00  0.0000E+00  0.0000E+00
      1.563  0.0000E+00  0.0000E+00  0.0000E+00
      1.666  0.0000E+00  0.0000E+00  0.0000E+00
      1.769  0.0000E+00  0.0000E+00  0.0000E+00
      1.871  0.0000E+00  0.0000E+00  0.0000E+00
      1.974  0.0000E+00  0.0000E+00  0.0000E+00
      2.077  0.0000E+00  0.0000E+00  0.0000E+00
      2.179  0.0000E+00  0.0000E+00  0.0000E+00
      2.282  0.0000E+00  0.0000E+00  0.0000E+00
      2.385  0.0000E+00  0.0000E+00  0.0000E+00
      2.487  0.0000E+00  0.0000E+00  0.0000E+00
      2.590  0.9192E-20  0.7102E-08  0.9507E-07
      2.693  0.1230E-15  0.8617E-04  0.1153E-02
      2.795  0.5190E-04  0.2548E-03  0.4565E-03
      2.898  0.3875E-03  0.4636E-03  0.1640E-02
      3.000  0.3442E-04  0.7901E-03  0.3137E-02
      3.103  0.2674E-03  0.4012E-02  0.2083E-02
      3.206  0.5068E-03  0.1160E-02  0.1941E-02
      3.308  0.2887E-25  0.3140E-13  0.1117E-12
      3.411  0.1388E-03  0.8434E-03  0.2435E-02
      3.514  0.3884E-05  0.6419E-03  0.3109E-02
      3.616  0.3356E-11  0.7817E-11  0.1890E-10
      3.719  0.6016E-03  0.1687E-02  0.5013E-02
      3.822  0.6442E-13  0.1912E-03  0.1541E-02
      3.924  0.5092E-03  0.1354E-02  0.3422E-02
      4.027  0.3376E-03  0.2881E-02  0.5272E-02
      4.130  0.2718E-03  0.1959E-03  0.9130E-03
      4.232  0.2262E-03  0.1931E-02  0.1538E-02
      4.335  0.8638E-04  0.4632E-03  0.2684E-02
      4.438  0.8697E-03  0.2932E-02  0.8974E-02
      4.540  0.8508E-04  0.3757E-02  0.8482E-02
      4.643  0.9637E-03  0.1889E-02  0.3427E-02
      4.746  0.1763E-02  0.3140E-02  0.4486E-02
      4.848  0.5220E-03  0.1421E-02  0.7718E-02
      4.951  0.4727E-02  0.8530E-03  0.5911E-02
      5.054  0.3180E-02  0.4702E-02  0.1263E-01
      5.156  0.5625E-02  0.2631E-02  0.6658E-02
      5.259  0.1248E-01  0.5368E-02  0.5901E-02
      5.362  0.4531E-02  0.3548E-02  0.3091E-02
      5.464  0.5101E-03  0.2812E-03  0.5302E-02
      5.567  0.5477E-05  0.3015E-05  0.5037E-04
      5.670  0.1781E-01  0.3134E-02  0.1002E-01
      5.772  0.1468E-01  0.3611E-02  0.1317E-01
      5.875  0.8869E-02  0.2020E-02  0.1777E-01
      5.978  0.4125E-04  0.4687E-03  0.9921E-02
      6.080  0.3251E-01  0.6646E-02  0.4211E-01
      6.183  0.5265E-02  0.2529E-02  0.1240E+00
      6.286  0.8056E-02  0.3922E-02  0.1290E+00
      6.388  0.4754E-01  0.4037E-01  0.3257E+00
      6.491  0.6315E-01  0.3660E-01  0.7131E+00
      6.594  0.3165E-01  0.4316E-02  0.2082E+00
      6.696  0.3304E-01  0.4596E-01  0.8703E+00
      6.799  0.1043E-01  0.1220E-01  0.2131E+00
      6.902  0.5845E-02  0.3653E-01  0.5302E+00
      7.004  0.1717E-01  0.1247E-01  0.6256E+00
      7.107  0.3361E-01  0.2223E-01  0.4838E+00
      7.210  0.6574E-02  0.4498E-01  0.3352E+00
      7.312  0.4501E-05  0.3407E-02  0.7358E-01
      7.415  0.0000E+00  0.0000E+00  0.0000E+00
      7.517  0.0000E+00  0.0000E+00  0.0000E+00
      7.620  0.0000E+00  0.0000E+00  0.0000E+00
      7.723  0.0000E+00  0.0000E+00  0.0000E+00
      7.825  0.0000E+00  0.0000E+00  0.0000E+00
      7.928  0.0000E+00  0.0000E+00  0.0000E+00
      8.031  0.0000E+00  0.0000E+00  0.0000E+00
      8.133  0.0000E+00  0.0000E+00  0.0000E+00
      8.236  0.0000E+00  0.0000E+00  0.0000E+00
      8.339  0.0000E+00  0.0000E+00  0.0000E+00
      8.441  0.0000E+00  0.0000E+00  0.0000E+00
      8.544  0.0000E+00  0.0000E+00  0.0000E+00
      8.647  0.0000E+00  0.0000E+00  0.0000E+00
      8.64674218    -22.15096155  301      0.45968594      1.00000000
    -22.151  0.0000E+00  0.0000E+00  0.0000E+00
    -22.048  0.0000E+00  0.0000E+00  0.0000E+00
    -21.946  0.0000E+00  0.0000E+00  0.0000E+00
    -21.843  0.0000E+00  0.0000E+00  0.0000E+00
    -21.740  0.0000E+00  0.0000E+00  0.0000E+00
    -21.638  0.0000E+00  0.0000E+00  0.0000E+00
    -21.535  0.0000E+00  0.0000E+00  0.0000E+00
    -21.432  0.0000E+00  0.0000E+00  0.0000E+00
    -21.330  0.0000E+00  0.0000E+00  0.0000E+00
    -21.227  0.0000E+00  0.0000E+00  0.0000E+00
    -21.124  0.0000E+00  0.0000E+00  0.0000E+00
    -21.022  0.0000E+00  0.0000E+00  0.0000E+00
    -20.919  0.0000E+00  0.0000E+00  0.0000E+00
    -20.816  0.0000E+00  0.0000E+00  0.0000E+00
    -20.714  0.1729E+02  0.1316E-04  0.2472E-05
    -20.611  0.0000E+00  0.0000E+00  0.0000E+00
    -20.508  0.0000E+00  0.0000E+00  0.0000E+00
    -20.406  0.0000E+00  0.0000E+00  0.0000E+00
    -20.303  0.0000E+00  0.0000E+00  0.0000E+00
    -20.200  0.0000E+00  0.0000E+00  0.0000E+00
    -20.098  0.0000E+00  0.0000E+00  0.0000E+00
    -19.995  0.0000E+00  0.0000E+00  0.0000E+00
    -19.892  0.0000E+00  0.0000E+00  0.0000E+00
    -19.790  0.0000E+00  0.0000E+00  0.0000E+00
    -19.687  0.0000E+00  0.0000E+00  0.0000E+00
    -19.584  0.0000E+00  0.0000E+00  0.0000E+00
    -19.482  0.0000E+00  0.0000E+00  0.0000E+00
    -19.379  0.0000E+00  0.0000E+00  0.0000E+00
    -19.277  0.0000E+00  0.0000E+00  0.0000E+00
    -19.174  0.0000E+00  0.0000E+00  0.0000E+00
    -19.071  0.0000E+00  0.0000E+00  0.0000E+00
    -18.969  0.0000E+00  0.0000E+00  0.0000E+00
    -18.866  0.0000E+00  0.0000E+00  0.0000E+00
    -18.763  0.0000E+00  0.0000E+00  0.0000E+00
    -18.661  0.0000E+00  0.0000E+00  0.0000E+00
    -18.558  0.0000E+00  0.0000E+00  0.0000E+00
    -18.455  0.0000E+00  0.0000E+00  0.0000E+00
    -18.353  0.0000E+00  0.0000E+00  0.0000E+00
    -18.250  0.0000E+00  0.0000E+00  0.0000E+00
    -18.147  0.0000E+00  0.0000E+00  0.0000E+00
    -18.045  0.0000E+00  0.0000E+00  0.0000E+00
    -17.942  0.0000E+00  0.0000E+00  0.0000E+00
    -17.839  0.0000E+00  0.0000E+00  0.0000E+00
    -17.737  0.0000E+00  0.0000E+00  0.0000E+00
    -17.634  0.0000E+00  0.0000E+00  0.0000E+00
    -17.531  0.0000E+00  0.0000E+00  0.0000E+00
    -17.429  0.0000E+00  0.0000E+00  0.0000E+00
    -17.326  0.0000E+00  0.0000E+00  0.0000E+00
    -17.223  0.0000E+00  0.0000E+00  0.0000E+00
    -17.121  0.0000E+00  0.0000E+00  0.0000E+00
    -17.018  0.0000E+00  0.0000E+00  0.0000E+00
    -16.915  0.0000E+00  0.0000E+00  0.0000E+00
    -16.813  0.0000E+00  0.0000E+00  0.0000E+00
    -16.710  0.0000E+00  0.0000E+00  0.0000E+00
    -16.607  0.0000E+00  0.0000E+00  0.0000E+00
    -16.505  0.2153E-05  0.2196E-05  0.5882E-06
    -16.402  0.6767E-04  0.9175E-04  0.1662E-04
    -16.299  0.8687E-04  0.4673E-04  0.5765E-05
    -16.197  0.0000E+00  0.0000E+00  0.0000E+00
    -16.094  0.0000E+00  0.0000E+00  0.0000E+00
    -15.991  0.0000E+00  0.0000E+00  0.0000E+00
    -15.889  0.0000E+00  0.0000E+00  0.0000E+00
    -15.786  0.0000E+00  0.0000E+00  0.0000E+00
    -15.683  0.0000E+00  0.0000E+00  0.0000E+00
    -15.581  0.0000E+00  0.0000E+00  0.0000E+00
    -15.478  0.0000E+00  0.0000E+00  0.0000E+00
    -15.375  0.0000E+00  0.0000E+00  0.0000E+00
    -15.273  0.0000E+00  0.0000E+00  0.0000E+00
    -15.170  0.0000E+00  0.0000E+00  0.0000E+00
    -15.067  0.0000E+00  0.0000E+00  0.0000E+00
    -14.965  0.0000E+00  0.0000E+00  0.0000E+00
    -14.862  0.0000E+00  0.0000E+00  0.0000E+00
    -14.760  0.0000E+00  0.0000E+00  0.0000E+00
    -14.657  0.0000E+00  0.0000E+00  0.0000E+00
    -14.554  0.0000E+00  0.0000E+00  0.0000E+00
    -14.452  0.0000E+00  0.0000E+00  0.0000E+00
    -14.349  0.1355E-08  0.1332E-10  0.1212E-11
    -14.246  0.2545E-02  0.5777E-03  0.8915E-05
    -14.144  0.4317E-02  0.3363E-02  0.8509E-04
    -14.041  0.1029E-02  0.6589E-02  0.2620E-03
    -13.938  0.4387E-03  0.2300E-02  0.2460E-03
    -13.836  0.1884E-02  0.5395E-02  0.5472E-03
    -13.733  0.9950E-03  0.2390E-02  0.3556E-03
    -13.630  0.0000E+00  0.0000E+00  0.0000E+00
    -13.528  0.0000E+00  0.0000E+00  0.0000E+00
    -13.425  0.0000E+00  0.0000E+00  0.0000E+00
    -13.322  0.0000E+00  0.0000E+00  0.0000E+00
    -13.220  0.0000E+00  0.0000E+00  0.0000E+00
    -13.117  0.0000E+00  0.0000E+00  0.0000E+00
    -13.014  0.0000E+00  0.0000E+00  0.0000E+00