       N       E                     dE             d eps       ncg     rms          rms(c)
DAV:   1     0.656558117310E+03    0.65656E+03   -0.56063E+04  1856   0.921E+02
DAV:   2    -0.573667698553E+03   -0.12302E+04   -0.11713E+04  2184   0.285E+02
DAV:   3    -0.748911030417E+03   -0.17524E+03   -0.17408E+03  2432   0.128E+02
DAV:   4    -0.754571742359E+03   -0.56607E+01   -0.56421E+01  2152   0.300E+01
DAV:   5    -0.754836384329E+03   -0.26464E+00   -0.26447E+00  2360   0.524E+00    0.700E+00
DAV:   6    -0.714989952697E+03    0.39846E+02   -0.11881E+01  2392   0.287E+01    0.498E+00
DAV:   7    -0.714753017489E+03    0.23694E+00   -0.39051E+00  2216   0.490E+00    0.259E+00
DAV:   8    -0.714847784151E+03   -0.94767E-01   -0.18430E-01  2200   0.172E+00    0.149E+00
DAV:   9    -0.714887225885E+03   -0.39442E-01   -0.82667E-02  1952   0.119E+00    0.319E-01
DAV:  10    -0.714888187398E+03   -0.96151E-03   -0.51812E-03  2624   0.326E-01    0.184E-01
DAV:  11    -0.714889829971E+03   -0.16426E-02   -0.18946E-03  1952   0.173E-01    0.703E-02
DAV:  12    -0.714889802597E+03    0.27374E-04   -0.46932E-04  2264   0.960E-02    0.228E-02
DAV:  13    -0.714889796827E+03    0.57693E-05   -0.48726E-05  2160   0.262E-02    0.727E-03
DAV:  14    -0.714889816748E+03   -0.19921E-04   -0.30541E-06  1808   0.614E-03    0.227E-03
DAV:  15    -0.714889818685E+03   -0.19366E-05   -0.54133E-07  1224   0.332E-03    0.749E-04
DAV:  16    -0.714889815634E+03    0.30513E-05   -0.17555E-07  1264   0.219E-03    0.389E-04
DAV:  17    -0.714889814459E+03    0.11741E-05   -0.60290E-08  1128   0.120E-03    0.216E-04
DAV:  18    -0.714889814281E+03    0.17854E-06   -0.35522E-08  1112   0.896E-04
   1 F= -.71488981E+03 E0= -.71488981E+03  d E =-.145015E-30
