<?xml version="1.0" encoding="ISO-8859-1"?>
<modeling>
 <generator>
  <i name="program" type="string">vasp </i>
  <i name="version" type="string">5.4.4.18Apr17-6-g9f103f2a35  </i>
  <i name="subversion" type="string">(build Jun 29 2021 12:58:12) complex            parallel </i>
  <i name="platform" type="string">tx2_gcc-7.3_libsci-18.07_cray-fftw-3.3.8 </i>
  <i name="date" type="string">2021 09 21 </i>
  <i name="time" type="string">08:29:00 </i>
 </generator>
 <incar>
  <i type="string" name="SYSTEM"> CsPbBr3 cubic bulk</i>
  <i type="string" name="PREC">accurate</i>
  <i type="string" name="ALGO"> Normal   ! Electronic minimisation algo</i>
  <i type="logical" name="ADDGRID"> T  </i>
  <i type="int" name="NELM">   200</i>
  <i type="int" name="IBRION">     2</i>
  <i name="EDIFF">      0.00000100</i>
  <i name="EDIFFG">     -0.01000000</i>
  <i type="int" name="NSW">     0</i>
  <i type="int" name="ISIF">     3</i>
  <i type="int" name="ISYM">     2</i>
  <i name="ENCUT">    300.00000000</i>
  <i name="POTIM">      0.50000000</i>
  <i type="string" name="LREAL"> AUTO</i>
  <i type="int" name="ISMEAR">     0</i>
  <i name="SIGMA">      0.01000000</i>
  <i name="PSTRESS">      0.00000000</i>
  <i type="logical" name="LWAVE"> F  </i>
  <i type="logical" name="LCHARG"> F  </i>
  <i type="logical" name="LVHAR"> T  </i>
  <i type="int" name="LORBIT">    10</i>
  <i type="logical" name="LASPH"> T  </i>
  <v type="int" name="KPOINT_BSE">    -1     0     0     0</v>
  <i type="int" name="NELM">   200</i>
  <i type="string" name="METAGGA"> SCAN       ! PBE exchange-correlation</i>
  <i type="logical" name="LASPH"> T  </i>
 </incar>
 <structure name="primitive_cell" >
  <crystal>
   <varray name="basis" >
    <v>       8.67261813       0.00000000       0.00000000 </v>
    <v>       0.00000000      11.82144586       0.00000000 </v>
    <v>       0.00000000       0.00000000       7.82541123 </v>
   </varray>
   <i name="volume">    802.28374102 </i>
   <varray name="rec_basis" >
    <v>       0.11530543       0.00000000       0.00000000 </v>
    <v>       0.00000000       0.08459202       0.00000000 </v>
    <v>       0.00000000       0.00000000       0.12778881 </v>
   </varray>
  </crystal>
  <varray name="positions" >
   <v>       0.07222032       0.25000000       0.47087180 </v>
   <v>       0.48922349       0.25000000      -0.43755738 </v>
   <v>      -0.19902911       0.46626799       0.31122212 </v>
   <v>      -0.19902911       0.03373201       0.31122212 </v>
   <v>      -0.01077651       0.25000000      -0.06244262 </v>
   <v>       0.30097089       0.46626799       0.18877788 </v>
   <v>       0.30097089       0.03373201       0.18877788 </v>
   <v>       0.19902911      -0.46626799      -0.31122212 </v>
   <v>       0.19902911      -0.03373201      -0.31122212 </v>
   <v>      -0.50000000       0.00000000      -0.50000000 </v>
   <v>      -0.50000000      -0.50000000      -0.50000000 </v>
   <v>       0.00000000       0.00000000       0.00000000 </v>
   <v>       0.00000000      -0.50000000       0.00000000 </v>
   <v>      -0.30097089      -0.03373201      -0.18877788 </v>
   <v>      -0.30097089      -0.46626799      -0.18877788 </v>
   <v>      -0.42777968       0.25000000       0.02912820 </v>
   <v>      -0.07222032      -0.25000000      -0.47087180 </v>
   <v>       0.01077651      -0.25000000       0.06244262 </v>
   <v>      -0.48922349      -0.25000000       0.43755738 </v>
   <v>       0.42777968      -0.25000000      -0.02912820 </v>
  </varray>
 </structure>
 <varray name="primitive_index" >
  <v type="int" >        1 </v>
  <v type="int" >       12 </v>
  <v type="int" >       20 </v>
  <v type="int" >       15 </v>
  <v type="int" >       10 </v>
  <v type="int" >       13 </v>
  <v type="int" >       17 </v>
  <v type="int" >       14 </v>
  <v type="int" >       18 </v>
  <v type="int" >        6 </v>
  <v type="int" >        7 </v>
  <v type="int" >        5 </v>
  <v type="int" >        8 </v>
  <v type="int" >       16 </v>
  <v type="int" >       19 </v>
  <v type="int" >        3 </v>
  <v type="int" >        4 </v>
  <v type="int" >       11 </v>
  <v type="int" >        9 </v>
  <v type="int" >        2 </v>
 </varray>
 <kpoints>
  <generation param="Gamma">
   <v type="int" name="divisions">       3        2        3 </v>
   <v name="usershift">      0.00000000       0.00000000       0.00000000 </v>
   <v name="genvec1">      0.33333333       0.00000000       0.00000000 </v>
   <v name="genvec2">      0.00000000       0.50000000       0.00000000 </v>
   <v name="genvec3">      0.00000000       0.00000000       0.33333333 </v>
   <v name="shift">      0.00000000       0.00000000       0.00000000 </v>
  </generation>
  <varray name="kpointlist" >
   <v>       0.00000000       0.00000000       0.00000000 </v>
   <v>       0.33333333       0.00000000       0.00000000 </v>
   <v>       0.00000000       0.50000000       0.00000000 </v>
   <v>       0.33333333       0.50000000       0.00000000 </v>
   <v>       0.00000000       0.00000000       0.33333333 </v>
   <v>       0.33333333       0.00000000       0.33333333 </v>
   <v>       0.00000000       0.50000000       0.33333333 </v>
   <v>       0.33333333       0.50000000       0.33333333 </v>
  </varray>
  <varray name="weights" >
   <v>       0.05555556 </v>
   <v>       0.11111111 </v>
   <v>       0.05555556 </v>
   <v>       0.11111111 </v>
   <v>       0.11111111 </v>
   <v>       0.22222222 </v>
   <v>       0.11111111 </v>
   <v>       0.22222222 </v>
  </varray>
 </kpoints>
 <parameters>
  <separator name="general" >
   <i type="string" name="SYSTEM">CsPbBr3 cubic bulk</i>
   <i type="logical" name="LCOMPAT"> F  </i>
  </separator>
  <separator name="electronic" >
   <i type="string" name="PREC">accura</i>
   <i name="ENMAX">    300.00000000</i>
   <i name="ENAUG">    503.85200000</i>
   <i name="EDIFF">      0.00000100</i>
   <i type="int" name="IALGO">    38</i>
   <i type="int" name="IWAVPR">    10</i>
   <i type="int" name="NBANDS">   112</i>
   <i name="NELECT">    176.00000000</i>
   <i type="int" name="TURBO">     0</i>
   <i type="int" name="IRESTART">     0</i>
   <i type="int" name="NREBOOT">     0</i>
   <i type="int" name="NMIN">     0</i>
   <i name="EREF">      0.00000000</i>
   <separator name="electronic smearing" >
    <i type="int" name="ISMEAR">     0</i>
    <i name="SIGMA">      0.01000000</i>
    <i name="KSPACING">      0.50000000</i>
    <i type="logical" name="KGAMMA"> T  </i>
   </separator>
   <separator name="electronic projectors" >
    <i type="logical" name="LREAL"> T  </i>
    <v name="ROPT">     -0.00025000     -0.00025000     -0.00025000</v>
    <i type="int" name="LMAXPAW">  -100</i>
    <i type="int" name="LMAXMIX">     2</i>
    <i type="logical" name="NLSPLINE"> F  </i>
   </separator>
   <separator name="electronic startup" >
    <i type="int" name="ISTART">     0</i>
    <i type="int" name="ICHARG">     2</i>
    <i type="int" name="INIWAV">     1</i>
   </separator>
   <separator name="electronic spin" >
    <i type="int" name="ISPIN">     1</i>
    <i type="logical" name="LNONCOLLINEAR"> F  </i>
    <v name="MAGMOM">      1.00000000      1.00000000      1.00000000      1.00000000      1.00000000      1.00000000      1.00000000      1.00000000      1.00000000      1.00000000      1.00000000      1.00000000      1.00000000      1.00000000      1.00000000      1.00000000      1.00000000      1.00000000      1.00000000      1.00000000
</v>
    <i name="NUPDOWN">     -1.00000000</i>
    <i type="logical" name="LSORBIT"> F  </i>
    <v name="SAXIS">      0.00000000      0.00000000      1.00000000</v>
    <i type="logical" name="LSPIRAL"> F  </i>
    <v name="QSPIRAL">      0.00000000      0.00000000      0.00000000</v>
    <i type="logical" name="LZEROZ"> F  </i>
   </separator>
   <separator name="electronic exchange-correlation" >
    <i type="logical" name="LASPH"> T  </i>
    <i type="logical" name="LMETAGGA"> F  </i>
   </separator>
   <separator name="electronic convergence" >
    <i type="int" name="NELM">   200</i>
    <i type="int" name="NELMDL">    -5</i>
    <i type="int" name="NELMIN">     2</i>
    <i name="ENINI">    300.00000000</i>
    <separator name="electronic convergence detail" >
     <i type="logical" name="LDIAG"> T  </i>
     <i type="logical" name="LSUBROT"> F  </i>
     <i name="WEIMIN">      0.00000000</i>
     <i name="EBREAK">      0.00000000</i>
     <i name="DEPER">      0.30000000</i>
     <i type="int" name="NRMM">     4</i>
     <i name="TIME">      0.40000000</i>
    </separator>
   </separator>
   <separator name="electronic mixer" >
    <i name="AMIX">      0.40000000</i>
    <i name="BMIX">      1.00000000</i>
    <i name="AMIN">      0.10000000</i>
    <i name="AMIX_MAG">      1.60000000</i>
    <i name="BMIX_MAG">      1.00000000</i>
    <separator name="electronic mixer details" >
     <i type="int" name="IMIX">     4</i>
     <i type="logical" name="MIXFIRST"> F  </i>
     <i type="int" name="MAXMIX">   -45</i>
     <i name="WC">    100.00000000</i>
     <i type="int" name="INIMIX">     1</i>
     <i type="int" name="MIXPRE">     1</i>
     <i type="int" name="MREMOVE">     5</i>
    </separator>
   </separator>
   <separator name="electronic dipolcorrection" >
    <i type="logical" name="LDIPOL"> F  </i>
    <i type="logical" name="LMONO"> F  </i>
    <i type="int" name="IDIPOL">     0</i>
    <i name="EPSILON">      1.00000000</i>
    <v name="DIPOL">   -100.00000000   -100.00000000   -100.00000000</v>
    <i name="EFIELD">      0.00000000</i>
   </separator>
  </separator>
  <separator name="grids" >
   <i type="int" name="NGX">    50</i>
   <i type="int" name="NGY">    70</i>
   <i type="int" name="NGZ">    48</i>
   <i type="int" name="NGXF">   100</i>
   <i type="int" name="NGYF">   140</i>
   <i type="int" name="NGZF">    96</i>
   <i type="logical" name="ADDGRID"> T  </i>
  </separator>
  <separator name="ionic" >
   <i type="int" name="NSW">     0</i>
   <i type="int" name="IBRION">    -1</i>
   <i type="int" name="MDALGO">     0</i>
   <i type="int" name="ISIF">     3</i>
   <i name="PSTRESS">      0.00000000</i>
   <i name="EDIFFG">     -0.01000000</i>
   <i type="int" name="NFREE">     1</i>
   <i name="POTIM">      0.50000000</i>
   <i name="SMASS">     -3.00000000</i>
   <i name="SCALEE">      1.00000000</i>
  </separator>
  <separator name="ionic md" >
   <i name="TEBEG">      0.00010000</i>
   <i name="TEEND">      0.00010000</i>
   <i type="int" name="NBLOCK">     1</i>
   <i type="int" name="KBLOCK">     1</i>
   <i type="int" name="NPACO">   256</i>
   <i name="APACO">     16.00000000</i>
  </separator>
  <separator name="symmetry" >
   <i type="int" name="ISYM">     2</i>
   <i name="SYMPREC">      0.00001000</i>
  </separator>
  <separator name="dos" >
   <i type="int" name="LORBIT">    10</i>
   <v name="RWIGS">     -1.00000000     -1.00000000     -1.00000000</v>
   <i type="int" name="NEDOS">   301</i>
   <i name="EMIN">     10.00000000</i>
   <i name="EMAX">    -10.00000000</i>
   <i name="EFERMI">      0.00000000</i>
  </separator>
  <separator name="writing" >
   <i type="int" name="NWRITE">     2</i>
   <i type="logical" name="LWAVE"> F  </i>
   <i type="logical" name="LDOWNSAMPLE"> F  </i>
   <i type="logical" name="LCHARG"> F  </i>
   <i type="logical" name="LPARD"> F  </i>
   <i type="logical" name="LVTOT"> F  </i>
   <i type="logical" name="LVHAR"> T  </i>
   <i type="logical" name="LELF"> F  </i>
   <i type="logical" name="LOPTICS"> F  </i>
   <v name="STM">      0.00000000      0.00000000      0.00000000      0.00000000      0.00000000      0.00000000      0.00000000</v>
  </separator>
  <separator name="performance" >
   <i type="int" name="NPAR">     8</i>
   <i type="int" name="NSIM">     4</i>
   <i type="int" name="NBLK">    -1</i>
   <i type="logical" name="LPLANE"> T  </i>
   <i type="logical" name="LSCALAPACK"> T  </i>
   <i type="logical" name="LSCAAWARE"> F  </i>
   <i type="logical" name="LSCALU"> F  </i>
   <i type="logical" name="LASYNC"> F  </i>
   <i type="logical" name="LORBITALREAL"> F  </i>
  </separator>
  <separator name="miscellaneous" >
   <i type="int" name="IDIOT">     3</i>
   <i type="int" name="ISPECIAL">     0</i>
   <i type="logical" name="LMUSIC"> F  </i>
   <v name="POMASS">    132.90000000    207.20000000     79.90400000</v>
   <v name="DARWINR">      0.00000000      0.00000000      0.00000000</v>
   <v name="DARWINV">      1.00000000      1.00000000      1.00000000</v>
   <i type="logical" name="LCORR"> T  </i>
  </separator>
  <i type="logical" name="GGA_COMPAT"> T  </i>
  <i type="logical" name="LBERRY"> F  </i>
  <i type="int" name="ICORELEVEL">     0</i>
  <i type="logical" name="LDAU"> F  </i>
  <i type="int" name="I_CONSTRAINED_M">     0</i>
  <separator name="electronic exchange-correlation" >
   <i type="string" name="GGA">--</i>
   <i type="int" name="VOSKOWN">     0</i>
   <i type="logical" name="LHFCALC"> F  </i>
   <i type="string" name="PRECFOCK"></i>
   <i type="logical" name="LSYMGRAD"> F  </i>
   <i type="logical" name="LHFONE"> F  </i>
   <i type="logical" name="LRHFCALC"> F  </i>
   <i type="logical" name="LTHOMAS"> F  </i>
   <i type="logical" name="LMODELHF"> F  </i>
   <i name="ENCUT4O">     -1.00000000</i>
   <i type="int" name="EXXOEP">     0</i>
   <i type="int" name="FOURORBIT">     0</i>
   <i name="AEXX">      0.00000000</i>
   <i name="HFALPHA">      0.00000000</i>
   <i name="MCALPHA">      0.00000000</i>
   <i name="ALDAX">      1.00000000</i>
   <i name="AGGAX">      1.00000000</i>
   <i name="ALDAC">      1.00000000</i>
   <i name="AGGAC">      1.00000000</i>
   <i type="int" name="NKREDX">     1</i>
   <i type="int" name="NKREDY">     1</i>
   <i type="int" name="NKREDZ">     1</i>
   <i type="logical" name="SHIFTRED"> F  </i>
   <i type="logical" name="ODDONLY"> F  </i>
   <i type="logical" name="EVENONLY"> F  </i>
   <i type="int" name="LMAXFOCK">     0</i>
   <i type="int" name="NMAXFOCKAE">     0</i>
   <i type="logical" name="LFOCKAEDFT"> F  </i>
   <i name="HFSCREEN">      0.00000000</i>
   <i name="HFSCREENC">      0.00000000</i>
   <i type="int" name="NBANDSGWLOW">     0</i>
  </separator>
  <separator name="vdW DFT" >
   <i type="logical" name="LUSE_VDW"> F  </i>
   <i name="Zab_VDW">     -0.84910000</i>
   <i name="PARAM1">      0.12340000</i>
   <i name="PARAM2">      1.00000000</i>
   <i name="PARAM3">      0.00000000</i>
  </separator>
  <separator name="model GW" >
   <i type="int" name="MODEL_GW">     0</i>
   <i name="MODEL_EPS0">     24.06851223</i>
   <i name="MODEL_ALPHA">      1.00000000</i>
  </separator>
  <separator name="linear response parameters" >
   <i type="logical" name="LEPSILON"> F  </i>
   <i type="logical" name="LRPA"> F  </i>
   <i type="logical" name="LNABLA"> F  </i>
   <i type="logical" name="LVEL"> F  </i>
   <i type="int" name="KINTER">     0</i>
   <i name="CSHIFT">      0.10000000</i>
   <i name="OMEGAMAX">     -1.00000000</i>
   <i name="DEG_THRESHOLD">      0.00200000</i>
   <i name="RTIME">     -0.10000000</i>
   <i name="WPLASMAI">      0.00000000</i>
   <v name="DFIELD">      0.00000000      0.00000000      0.00000000</v>
   <v name="WPLASMA">      0.00000000      0.00000000      0.00000000      0.00000000      0.00000000      0.00000000      0.00000000      0.00000000      0.00000000</v>
  </separator>
  <separator name="orbital magnetization" >
   <i type="logical" name="NUCIND"> F  </i>
   <v name="MAGPOS">      0.00000000      0.00000000      0.00000000</v>
   <i type="logical" name="LNICSALL"> T  </i>
   <i type="logical" name="ORBITALMAG"> F  </i>
   <i type="logical" name="LMAGBLOCH"> F  </i>
   <i type="logical" name="LCHIMAG"> F  </i>
   <i type="logical" name="LGAUGE"> T  </i>
   <i type="int" name="MAGATOM">     0</i>
   <v name="MAGDIPOL">      0.00000000      0.00000000      0.00000000</v>
   <v name="AVECCONST">      0.00000000      0.00000000      0.00000000</v>
  </separator>
  <separator name="response functions" >
   <i type="logical" name="LADDER"> F  </i>
   <i type="logical" name="LRPAFORCE"> F  </i>
   <i type="logical" name="LFXC"> F  </i>
   <i type="logical" name="LHARTREE"> T  </i>
   <i type="int" name="IBSE">     0</i>
   <v type="int" name="KPOINT">    -1     0     0     0</v>
   <i type="logical" name="LTCTE"> F  </i>
   <i type="logical" name="LTETE"> F  </i>
   <i type="logical" name="LTRIPLET"> F  </i>
   <i type="logical" name="LFXCEPS"> F  </i>
   <i type="logical" name="LFXHEG"> F  </i>
   <i type="int" name="NATURALO">     2</i>
   <i type="logical" name="L2ORDER"> F  </i>
   <i type="logical" name="LMP2LT"> F  </i>
   <i type="logical" name="LUSEW"> F  </i>
   <i name="ENCUTGW">     -2.00000000</i>
   <i name="ENCUTGWSOFT">     -2.00000000</i>
   <i name="ENCUTLF">     -1.00000000</i>
   <i type="int" name="LMAXMP2">    -1</i>
   <i name="SCISSOR">      0.00000000</i>
   <i type="int" name="NOMEGA">     0</i>
   <i type="int" name="NOMEGAR">     0</i>
   <i type="int" name="NBANDSGW">    -1</i>
   <i type="int" name="NBANDSO">    -1</i>
   <i type="int" name="NBANDSV">    -1</i>
   <i type="int" name="NELM">   200</i>
   <i type="int" name="NELMHF">     1</i>
   <i type="int" name="DIM">     3</i>
   <i type="int" name="ANTIRES">     0</i>
   <i name="OMEGAMAX">    -30.00000000</i>
   <i name="OMEGAMIN">    -30.00000000</i>
   <i name="OMEGATL">   -200.00000000</i>
   <i type="int" name="OMEGAGRID">   140</i>
   <i name="CSHIFT">     -0.10000000</i>
   <i type="logical" name="SELFENERGY"> F  </i>
   <i type="logical" name="LSPECTRAL"> F  </i>
   <i type="logical" name="LSPECTRALGW"> F  </i>
   <i type="logical" name="LSINGLES"> F  </i>
   <i type="logical" name="LFERMIGW"> F  </i>
   <i type="logical" name="ODDONLYGW"> F  </i>
   <i type="logical" name="EVENONLYGW"> F  </i>
   <i type="int" name="NKREDLFX">     1</i>
   <i type="int" name="NKREDLFY">     1</i>
   <i type="int" name="NKREDLFZ">     1</i>
   <i type="int" name="MAXMEM">  2800</i>
   <i type="int" name="TELESCOPE">     0</i>
   <i type="int" name="TAUPAR">     1</i>
   <i type="int" name="OMEGAPAR">    -1</i>
   <i name="LAMBDA">      1.00000000</i>
  </separator>
  <separator name="External order field" >
   <i name="OFIELD_KAPPA">      0.00000000</i>
   <v name="OFIELD_K">      0.00000000      0.00000000      0.00000000</v>
   <i name="OFIELD_Q6_NEAR">      0.00000000</i>
   <i name="OFIELD_Q6_FAR">      0.00000000</i>
   <i name="OFIELD_A">      0.00000000</i>
  </separator>
 </parameters>
 <atominfo>
  <atoms>      20 </atoms>
  <types>       3 </types>
  <array name="atoms" >
   <dimension dim="1">ion</dimension>
   <field type="string">element</field>
   <field type="int">atomtype</field>
   <set>
    <rc><c>Cs</c><c>   1</c></rc>
    <rc><c>Cs</c><c>   1</c></rc>
    <rc><c>Cs</c><c>   1</c></rc>
    <rc><c>Cs</c><c>   1</c></rc>
    <rc><c>Pb</c><c>   2</c></rc>
    <rc><c>Pb</c><c>   2</c></rc>
    <rc><c>Pb</c><c>   2</c></rc>
    <rc><c>Pb</c><c>   2</c></rc>
    <rc><c>Br</c><c>   3</c></rc>
    <rc><c>Br</c><c>   3</c></rc>
    <rc><c>Br</c><c>   3</c></rc>
    <rc><c>Br</c><c>   3</c></rc>
    <rc><c>Br</c><c>   3</c></rc>
    <rc><c>Br</c><c>   3</c></rc>
    <rc><c>Br</c><c>   3</c></rc>
    <rc><c>Br</c><c>   3</c></rc>
    <rc><c>Br</c><c>   3</c></rc>
    <rc><c>Br</c><c>   3</c></rc>
    <rc><c>Br</c><c>   3</c></rc>
    <rc><c>Br</c><c>   3</c></rc>
   </set>
  </array>
  <array name="atomtypes" >
   <dimension dim="1">type</dimension>
   <field type="int">atomspertype</field>
   <field type="string">element</field>
   <field>mass</field>
   <field>valence</field>
   <field type="string">pseudopotential</field>
   <set>
    <rc><c>   4</c><c>Cs</c><c>    132.90000000</c><c>      9.00000000</c><c>  PAW_PBE Cs_sv 08Apr2002               </c></rc>
    <rc><c>   4</c><c>Pb</c><c>    207.20000000</c><c>     14.00000000</c><c>  PAW_PBE Pb_d 06Sep2000                </c></rc>
    <rc><c>  12</c><c>Br</c><c>     79.90400000</c><c>      7.00000000</c><c>  PAW_PBE Br 06Sep2000                  </c></rc>
   </set>
  </array>
 </atominfo>
 <structure name="initialpos" >
  <crystal>
   <varray name="basis" >
    <v>       8.67261813       0.00000000       0.00000000 </v>
    <v>       0.00000000      11.82144586       0.00000000 </v>
    <v>       0.00000000       0.00000000       7.82541123 </v>
   </varray>
   <i name="volume">    802.28374102 </i>
   <varray name="rec_basis" >
    <v>       0.11530543       0.00000000       0.00000000 </v>
    <v>       0.00000000       0.08459202       0.00000000 </v>
    <v>       0.00000000       0.00000000       0.12778881 </v>
   </varray>
  </crystal>
  <varray name="positions" >
   <v>       0.07222032       0.25000000       0.47087180 </v>
   <v>       0.42777968       0.75000000       0.97087180 </v>
   <v>       0.57222032       0.25000000       0.02912820 </v>
   <v>       0.92777968       0.75000000       0.52912820 </v>
   <v>       0.00000000       0.00000000       0.00000000 </v>
   <v>       0.50000000       0.00000000       0.50000000 </v>
   <v>       0.50000000       0.50000000       0.50000000 </v>
   <v>       0.00000000       0.50000000       0.00000000 </v>
   <v>       0.51077651       0.75000000       0.43755738 </v>
   <v>       0.98922349       0.25000000       0.93755738 </v>
   <v>       0.01077651       0.75000000       0.06244262 </v>
   <v>       0.48922349       0.25000000       0.56244262 </v>
   <v>       0.30097089       0.46626799       0.18877788 </v>
   <v>       0.19902911       0.53373201       0.68877788 </v>
   <v>       0.80097089       0.03373201       0.31122212 </v>
   <v>       0.69902911       0.96626799       0.81122212 </v>
   <v>       0.30097089       0.03373201       0.18877788 </v>
   <v>       0.19902911       0.96626799       0.68877788 </v>
   <v>       0.69902911       0.53373201       0.81122212 </v>
   <v>       0.80097089       0.46626799       0.31122212 </v>
  </varray>
 </structure>
 <calculation>
  <scstep>
   <time name="dav">    4.37    4.37</time>
   <time name="total">    5.60    5.61</time>
   <energy>
    <i name="alphaZ">    449.72734123 </i>
    <i name="ewald">  -9232.84144100 </i>
    <i name="hartreedc">  -3651.13619469 </i>
    <i name="XCdc">    461.94234542 </i>
    <i name="pawpsdc">  10816.98087266 </i>
    <i name="pawaedc"> -11353.96092700 </i>
    <i name="eentropy">     -0.00220855 </i>
    <i name="bandstr">   -124.43177003 </i>
    <i name="atom">  13290.28009929 </i>
    <i name="e_fr_energy">    656.55811731 </i>
    <i name="e_wo_entrp">    656.56032586 </i>
    <i name="e_0_energy">    656.55922159 </i>
   </energy>
  </scstep>
  <scstep>
   <time name="dav">    4.87    4.92</time>
   <time name="total">    4.87    4.92</time>
   <energy>
    <i name="e_fr_energy">   -573.66769855 </i>
    <i name="e_wo_entrp">   -573.66769855 </i>
    <i name="e_0_energy">   -573.66769855 </i>
   </energy>
  </scstep>
  <scstep>
   <time name="dav">    5.22    5.27</time>
   <time name="total">    5.22    5.27</time>
   <energy>
    <i name="e_fr_energy">   -748.91103042 </i>
    <i name="e_wo_entrp">   -748.91103042 </i>
    <i name="e_0_energy">   -748.91103042 </i>
   </energy>
  </scstep>
  <scstep>
   <time name="dav">    4.84    4.87</time>
   <time name="total">    4.84    4.87</time>
   <energy>
    <i name="e_fr_energy">   -754.57174236 </i>
    <i name="e_wo_entrp">   -754.57174236 </i>
    <i name="e_0_energy">   -754.57174236 </i>
   </energy>
  </scstep>
  <scstep>
   <time name="dav">    5.12    5.13</time>
   <time name="total">    6.08    6.09</time>
   <energy>
    <i name="e_fr_energy">   -754.83638433 </i>
    <i name="e_wo_entrp">   -754.83638433 </i>
    <i name="e_0_energy">   -754.83638433 </i>
   </energy>
  </scstep>
  <scstep>
   <time name="dav">    5.14    5.14</time>
   <time name="total">    7.28    7.33</time>
   <energy>
    <i name="e_fr_energy">   -714.98995270 </i>
    <i name="e_wo_entrp">   -714.98995270 </i>
    <i name="e_0_energy">   -714.98995270 </i>
   </energy>
  </scstep>
  <scstep>
   <time name="dav">    4.88    4.88</time>
   <time name="total">    7.02    7.07</time>
   <energy>
    <i name="e_fr_energy">   -714.75301749 </i>
    <i name="e_wo_entrp">   -714.75301749 </i>
    <i name="e_0_energy">   -714.75301749 </i>
   </energy>
  </scstep>
  <scstep>
   <time name="dav">    4.86    4.86</time>
   <time name="total">    7.01    7.05</time>
   <energy>
    <i name="e_fr_energy">   -714.84778415 </i>
    <i name="e_wo_entrp">   -714.84778415 </i>
    <i name="e_0_energy">   -714.84778415 </i>
   </energy>
  </scstep>
  <scstep>
   <time name="dav">    4.50    4.50</time>
   <time name="total">    6.65    6.66</time>
   <energy>
    <i name="e_fr_energy">   -714.88722589 </i>
    <i name="e_wo_entrp">   -714.88722589 </i>
    <i name="e_0_energy">   -714.88722589 </i>
   </energy>
  </scstep>
  <scstep>
   <time name="dav">    5.47    5.47</time>
   <time name="total">    7.64    7.66</time>
   <energy>
    <i name="e_fr_energy">   -714.88818740 </i>
    <i name="e_wo_entrp">   -714.88818740 </i>
    <i name="e_0_energy">   -714.88818740 </i>
   </energy>
  </scstep>
  <scstep>
   <time name="dav">    4.49    4.49</time>
   <time name="total">    6.68    6.68</time>
   <energy>
    <i name="e_fr_energy">   -714.88982997 </i>
    <i name="e_wo_entrp">   -714.88982997 </i>
    <i name="e_0_energy">   -714.88982997 </i>
   </energy>
  </scstep>
  <scstep>
   <time name="dav">    4.95    4.95</time>
   <time name="total">    7.11    7.14</time>
   <energy>
    <i name="e_fr_energy">   -714.88980260 </i>
    <i name="e_wo_entrp">   -714.88980260 </i>
    <i name="e_0_energy">   -714.88980260 </i>
   </energy>
  </scstep>
  <scstep>
   <time name="dav">    4.79    4.79</time>
   <time name="total">    6.95    6.98</time>
   <energy>
    <i name="e_fr_energy">   -714.88979683 </i>
    <i name="e_wo_entrp">   -714.88979683 </i>
    <i name="e_0_energy">   -714.88979683 </i>
   </energy>
  </scstep>
  <scstep>
   <time name="dav">    4.32    4.32</time>
   <time name="total">    6.51    6.52</time>
   <energy>
    <i name="e_fr_energy">   -714.88981675 </i>
    <i name="e_wo_entrp">   -714.88981675 </i>
    <i name="e_0_energy">   -714.88981675 </i>
   </energy>
  </scstep>
  <scstep>
   <time name="dav">    3.50    3.50</time>
   <time name="total">    5.64    5.69</time>
   <energy>
    <i name="e_fr_energy">   -714.88981868 </i>
    <i name="e_wo_entrp">   -714.88981868 </i>
    <i name="e_0_energy">   -714.88981868 </i>
   </energy>
  </scstep>
  <scstep>
   <time name="dav">    3.57    3.57</time>
   <time name="total">    5.72    5.76</time>
   <energy>
    <i name="e_fr_energy">   -714.88981563 </i>
    <i name="e_wo_entrp">   -714.88981563 </i>
    <i name="e_0_energy">   -714.88981563 </i>
   </energy>
  </scstep>
  <scstep>
   <time name="dav">    3.37    3.37</time>
   <time name="total">    5.52    5.56</time>
   <energy>
    <i name="e_fr_energy">   -714.88981446 </i>
    <i name="e_wo_entrp">   -714.88981446 </i>
    <i name="e_0_energy">   -714.88981446 </i>
   </energy>
  </scstep>
  <scstep>
   <time name="dav">    3.34    3.34</time>
   <time name="total">    4.60    4.61</time>
   <energy>
    <i name="alphaZ">    449.72734123 </i>
    <i name="ewald">  -9232.84144100 </i>
    <i name="hartreedc">  -3662.50535500 </i>
    <i name="XCdc">    481.27901572 </i>
    <i name="pawpsdc">  11523.18526548 </i>
    <i name="pawaedc"> -12059.01996323 </i>
    <i name="eentropy">     -0.00000000 </i>
    <i name="bandstr">  -1504.99477676 </i>
    <i name="atom">  13290.28009929 </i>
    <i name="e_fr_energy">   -714.88981428 </i>
    <i name="e_wo_entrp">   -714.88981428 </i>
    <i name="e_0_energy">   -714.88981428 </i>
   </energy>
  </scstep>
  <structure>
   <crystal>
    <varray name="basis" >
     <v>       8.67261813       0.00000000       0.00000000 </v>
     <v>       0.00000000      11.82144586       0.00000000 </v>
     <v>       0.00000000       0.00000000       7.82541123 </v>
    </varray>
    <i name="volume">    802.28374102 </i>
    <varray name="rec_basis" >
     <v>       0.11530543       0.00000000       0.00000000 </v>
     <v>       0.00000000       0.08459202       0.00000000 </v>
     <v>       0.00000000       0.00000000       0.12778881 </v>
    </varray>
   </crystal>
   <varray name="positions" >
    <v>       0.07222032       0.25000000       0.47087180 </v>
    <v>       0.42777968       0.75000000       0.97087180 </v>
    <v>       0.57222032       0.25000000       0.02912820 </v>
    <v>       0.92777968       0.75000000       0.52912820 </v>
    <v>       0.00000000       0.00000000       0.00000000 </v>
    <v>       0.50000000       0.00000000       0.50000000 </v>
    <v>       0.50000000       0.50000000       0.50000000 </v>
    <v>       0.00000000       0.50000000       0.00000000 </v>
    <v>       0.51077651       0.75000000       0.43755738 </v>
    <v>       0.98922349       0.25000000       0.93755738 </v>
    <v>       0.01077651       0.75000000       0.06244262 </v>
    <v>       0.48922349       0.25000000       0.56244262 </v>
    <v>       0.30097089       0.46626799       0.18877788 </v>
    <v>       0.19902911       0.53373201       0.68877788 </v>
    <v>       0.80097089       0.03373201       0.31122212 </v>
    <v>       0.69902911       0.96626799       0.81122212 </v>
    <v>       0.30097089       0.03373201       0.18877788 </v>
    <v>       0.19902911       0.96626799       0.68877788 </v>
    <v>       0.69902911       0.53373201       0.81122212 </v>
    <v>       0.80097089       0.46626799       0.31122212 </v>
   </varray>
  </structure>
  <varray name="forces" >
   <v>       0.00617576       0.00000000       0.00314972 </v>
   <v>      -0.00617576       0.00000000       0.00314972 </v>
   <v>       0.00617576       0.00000000      -0.00314972 </v>
   <v>      -0.00617576       0.00000000      -0.00314972 </v>
   <v>       0.00000000       0.00000000      -0.00000000 </v>
   <v>       0.00000000       0.00000000      -0.00000000 </v>
   <v>       0.00000000       0.00000000      -0.00000000 </v>
   <v>       0.00000000       0.00000000      -0.00000000 </v>
   <v>      -0.00872247       0.00000000      -0.01048184 </v>
   <v>       0.00872247       0.00000000      -0.01048184 </v>
   <v>      -0.00872247       0.00000000       0.01048184 </v>
   <v>       0.00872247       0.00000000       0.01048184 </v>
   <v>      -0.00688162      -0.01275792       0.00848637 </v>
   <v>       0.00688162       0.01275792       0.00848637 </v>
   <v>      -0.00688162       0.01275792      -0.00848637 </v>
   <v>       0.00688162      -0.01275792      -0.00848637 </v>
   <v>      -0.00688162       0.01275792       0.00848637 </v>
   <v>       0.00688162      -0.01275792       0.00848637 </v>
   <v>       0.00688162       0.01275792      -0.00848637 </v>
   <v>      -0.00688162      -0.01275792      -0.00848637 </v>
  </varray>
  <varray name="stress" >
   <v>      -5.72074797       0.00000000      -0.00000000 </v>
   <v>       0.00000000      -2.15020714       0.00000000 </v>
   <v>       0.00000000       0.00000000      -1.17231990 </v>
  </varray>
  <energy>
   <i name="e_fr_energy">   -714.88981428 </i>
   <i name="e_wo_entrp">   -714.88981428 </i>
   <i name="e_0_energy">     -0.00000000 </i>
  </energy>
  <time name="totalsc">  127.92  128.52</time>
  <eigenvalues>
   <array>
    <dimension dim="1">band</dimension>
    <dimension dim="2">kpoint</dimension>
    <dimension dim="3">spin</dimension>
    <field>eigene</field>
    <field>occ</field>
    <set>
     <set comment="spin 1">
      <set comment="kpoint 1">
       <r>  -20.7511    1.0000 </r>
       <r>  -20.7493    1.0000 </r>
       <r>  -20.7467    1.0000 </r>
       <r>  -20.7456    1.0000 </r>
       <r>  -16.5029    1.0000 </r>
       <r>  -16.4848    1.0000 </r>
       <r>  -16.4845    1.0000 </r>
       <r>  -16.4793    1.0000 </r>
       <r>  -16.4463    1.0000 </r>
       <r>  -16.4179    1.0000 </r>
       <r>  -16.4059    1.0000 </r>
       <r>  -16.4057    1.0000 </r>
       <r>  -16.3570    1.0000 </r>
       <r>  -16.3563    1.0000 </r>
       <r>  -16.3559    1.0000 </r>
       <r>  -16.3555    1.0000 </r>
       <r>  -16.3451    1.0000 </r>
       <r>  -16.3447    1.0000 </r>
       <r>  -16.3443    1.0000 </r>
       <r>  -16.3442    1.0000 </r>
       <r>  -16.3368    1.0000 </r>
       <r>  -16.3361    1.0000 </r>
       <r>  -16.3361    1.0000 </r>
       <r>  -16.3353    1.0000 </r>
       <r>  -14.3167    1.0000 </r>
       <r>  -14.1304    1.0000 </r>
       <r>  -14.0366    1.0000 </r>
       <r>  -14.0339    1.0000 </r>
       <r>  -14.0033    1.0000 </r>
       <r>  -13.9942    1.0000 </r>
       <r>  -13.9746    1.0000 </r>
       <r>  -13.9380    1.0000 </r>
       <r>  -13.9318    1.0000 </r>
       <r>  -13.7509    1.0000 </r>
       <r>  -13.7240    1.0000 </r>
       <r>  -13.7206    1.0000 </r>
       <r>   -8.1550    1.0000 </r>
       <r>   -7.6544    1.0000 </r>
       <r>   -7.2084    1.0000 </r>
       <r>   -7.2080    1.0000 </r>
       <r>   -7.1850    1.0000 </r>
       <r>   -7.1814    1.0000 </r>
       <r>   -7.1736    1.0000 </r>
       <r>   -7.1701    1.0000 </r>
       <r>   -7.1619    1.0000 </r>
       <r>   -7.1473    1.0000 </r>
       <r>   -7.1393    1.0000 </r>
       <r>   -7.1383    1.0000 </r>
       <r>   -7.1320    1.0000 </r>
       <r>   -7.1201    1.0000 </r>
       <r>   -7.0935    1.0000 </r>
       <r>   -6.5774    1.0000 </r>
       <r>   -3.2904    1.0000 </r>
       <r>   -3.2783    1.0000 </r>
       <r>   -3.1679    1.0000 </r>
       <r>   -3.1497    1.0000 </r>
       <r>   -3.1112    1.0000 </r>
       <r>   -3.0250    1.0000 </r>
       <r>   -2.1257    1.0000 </r>
       <r>   -1.8907    1.0000 </r>
       <r>   -1.8564    1.0000 </r>
       <r>   -1.8497    1.0000 </r>
       <r>   -1.8173    1.0000 </r>
       <r>   -1.7093    1.0000 </r>
       <r>   -1.6343    1.0000 </r>
       <r>   -1.5409    1.0000 </r>
       <r>   -1.4866    1.0000 </r>
       <r>   -1.4819    1.0000 </r>
       <r>   -1.4420    1.0000 </r>
       <r>   -1.4293    1.0000 </r>
       <r>   -1.4204    1.0000 </r>
       <r>   -1.4179    1.0000 </r>
       <r>   -1.4096    1.0000 </r>
       <r>   -1.3497    1.0000 </r>
       <r>   -1.3371    1.0000 </r>
       <r>   -1.3359    1.0000 </r>
       <r>   -1.3286    1.0000 </r>
       <r>   -1.1498    1.0000 </r>
       <r>   -1.1244    1.0000 </r>
       <r>   -1.0507    1.0000 </r>
       <r>   -1.0422    1.0000 </r>
       <r>   -0.9909    1.0000 </r>
       <r>   -0.9640    1.0000 </r>
       <r>   -0.9556    1.0000 </r>
       <r>   -0.7827    1.0000 </r>
       <r>   -0.6083    1.0000 </r>
       <r>   -0.2106    1.0000 </r>
       <r>    0.3804    1.0000 </r>
       <r>    2.6165    0.0000 </r>
       <r>    2.7437    0.0000 </r>
       <r>    2.9675    0.0000 </r>
       <r>    3.0329    0.0000 </r>
       <r>    3.4002    0.0000 </r>
       <r>    3.4431    0.0000 </r>
       <r>    4.9538    0.0000 </r>
       <r>    5.5813    0.0000 </r>
       <r>    5.6677    0.0000 </r>
       <r>    5.9070    0.0000 </r>
       <r>    6.0262    0.0000 </r>
       <r>    6.0667    0.0000 </r>
       <r>    6.1119    0.0000 </r>
       <r>    6.1523    0.0000 </r>
       <r>    6.2336    0.0000 </r>
       <r>    6.4220    0.0000 </r>
       <r>    6.4690    0.0000 </r>
       <r>    6.4845    0.0000 </r>
       <r>    6.6217    0.0000 </r>
       <r>    6.7917    0.0000 </r>
       <r>    6.9296    0.0000 </r>
       <r>    7.0991    0.0000 </r>
       <r>    7.1233    0.0000 </r>
       <r>    7.1303    0.0000 </r>
      </set>
      <set comment="kpoint 2">
       <r>  -20.7499    1.0000 </r>
       <r>  -20.7484    1.0000 </r>
       <r>  -20.7478    1.0000 </r>
       <r>  -20.7466    1.0000 </r>
       <r>  -16.4968    1.0000 </r>
       <r>  -16.4853    1.0000 </r>
       <r>  -16.4657    1.0000 </r>
       <r>  -16.4657    1.0000 </r>
       <r>  -16.4390    1.0000 </r>
       <r>  -16.4263    1.0000 </r>
       <r>  -16.4262    1.0000 </r>
       <r>  -16.4248    1.0000 </r>
       <r>  -16.3568    1.0000 </r>
       <r>  -16.3566    1.0000 </r>
       <r>  -16.3557    1.0000 </r>
       <r>  -16.3556    1.0000 </r>
       <r>  -16.3449    1.0000 </r>
       <r>  -16.3446    1.0000 </r>
       <r>  -16.3445    1.0000 </r>
       <r>  -16.3443    1.0000 </r>
       <r>  -16.3366    1.0000 </r>
       <r>  -16.3362    1.0000 </r>
       <r>  -16.3360    1.0000 </r>
       <r>  -16.3355    1.0000 </r>
       <r>  -14.2717    1.0000 </r>
       <r>  -14.1491    1.0000 </r>
       <r>  -14.0984    1.0000 </r>
       <r>  -14.0362    1.0000 </r>
       <r>  -14.0346    1.0000 </r>
       <r>  -14.0304    1.0000 </r>
       <r>  -13.8844    1.0000 </r>
       <r>  -13.8786    1.0000 </r>
       <r>  -13.8524    1.0000 </r>
       <r>  -13.7774    1.0000 </r>
       <r>  -13.7743    1.0000 </r>
       <r>  -13.7731    1.0000 </r>
       <r>   -7.9553    1.0000 </r>
       <r>   -7.4997    1.0000 </r>
       <r>   -7.4552    1.0000 </r>
       <r>   -7.2153    1.0000 </r>
       <r>   -7.1799    1.0000 </r>
       <r>   -7.1769    1.0000 </r>
       <r>   -7.1692    1.0000 </r>
       <r>   -7.1598    1.0000 </r>
       <r>   -7.1543    1.0000 </r>
       <r>   -7.1497    1.0000 </r>
       <r>   -7.1385    1.0000 </r>
       <r>   -7.1267    1.0000 </r>
       <r>   -7.1221    1.0000 </r>
       <r>   -7.1146    1.0000 </r>
       <r>   -7.1034    1.0000 </r>
       <r>   -6.8966    1.0000 </r>
       <r>   -3.2511    1.0000 </r>
       <r>   -3.1640    1.0000 </r>
       <r>   -2.8876    1.0000 </r>
       <r>   -2.7556    1.0000 </r>
       <r>   -2.7554    1.0000 </r>
       <r>   -2.7279    1.0000 </r>
       <r>   -2.2219    1.0000 </r>
       <r>   -2.0919    1.0000 </r>
       <r>   -2.0613    1.0000 </r>
       <r>   -1.9744    1.0000 </r>
       <r>   -1.9580    1.0000 </r>
       <r>   -1.9504    1.0000 </r>
       <r>   -1.7733    1.0000 </r>
       <r>   -1.6694    1.0000 </r>
       <r>   -1.6320    1.0000 </r>
       <r>   -1.6084    1.0000 </r>
       <r>   -1.4682    1.0000 </r>
       <r>   -1.4451    1.0000 </r>
       <r>   -1.3884    1.0000 </r>
       <r>   -1.3819    1.0000 </r>
       <r>   -1.3666    1.0000 </r>
       <r>   -1.3591    1.0000 </r>
       <r>   -1.2903    1.0000 </r>
       <r>   -1.2843    1.0000 </r>
       <r>   -1.2495    1.0000 </r>
       <r>   -1.1996    1.0000 </r>
       <r>   -1.1856    1.0000 </r>
       <r>   -1.0605    1.0000 </r>
       <r>   -1.0533    1.0000 </r>
       <r>   -1.0441    1.0000 </r>
       <r>   -1.0054    1.0000 </r>
       <r>   -0.9759    1.0000 </r>
       <r>   -0.7477    1.0000 </r>
       <r>   -0.6409    1.0000 </r>
       <r>   -0.4854    1.0000 </r>
       <r>   -0.0932    1.0000 </r>
       <r>    2.9035    0.0000 </r>
       <r>    3.2274    0.0000 </r>
       <r>    3.3542    0.0000 </r>
       <r>    3.7384    0.0000 </r>
       <r>    3.8265    0.0000 </r>
       <r>    4.1871    0.0000 </r>
       <r>    4.7935    0.0000 </r>
       <r>    5.1391    0.0000 </r>
       <r>    5.2090    0.0000 </r>
       <r>    5.2478    0.0000 </r>
       <r>    5.8027    0.0000 </r>
       <r>    5.8176    0.0000 </r>
       <r>    6.1546    0.0000 </r>
       <r>    6.2636    0.0000 </r>
       <r>    6.4211    0.0000 </r>
       <r>    6.4676    0.0000 </r>
       <r>    6.5006    0.0000 </r>
       <r>    6.5291    0.0000 </r>
       <r>    6.5523    0.0000 </r>
       <r>    6.7470    0.0000 </r>
       <r>    6.9846    0.0000 </r>
       <r>    7.0141    0.0000 </r>
       <r>    7.1372    0.0000 </r>
       <r>    7.1772    0.0000 </r>
      </set>
      <set comment="kpoint 3">
       <r>  -20.7502    1.0000 </r>
       <r>  -20.7502    1.0000 </r>
       <r>  -20.7463    1.0000 </r>
       <r>  -20.7463    1.0000 </r>
       <r>  -16.4846    1.0000 </r>
       <r>  -16.4846    1.0000 </r>
       <r>  -16.4749    1.0000 </r>
       <r>  -16.4749    1.0000 </r>
       <r>  -16.4492    1.0000 </r>
       <r>  -16.4492    1.0000 </r>
       <r>  -16.4057    1.0000 </r>
       <r>  -16.4057    1.0000 </r>
       <r>  -16.3565    1.0000 </r>
       <r>  -16.3565    1.0000 </r>
       <r>  -16.3560    1.0000 </r>
       <r>  -16.3560    1.0000 </r>
       <r>  -16.3450    1.0000 </r>
       <r>  -16.3450    1.0000 </r>
       <r>  -16.3442    1.0000 </r>
       <r>  -16.3442    1.0000 </r>
       <r>  -16.3366    1.0000 </r>
       <r>  -16.3366    1.0000 </r>
       <r>  -16.3356    1.0000 </r>
       <r>  -16.3356    1.0000 </r>
       <r>  -14.2614    1.0000 </r>
       <r>  -14.2614    1.0000 </r>
       <r>  -14.0050    1.0000 </r>
       <r>  -14.0050    1.0000 </r>
       <r>  -13.9974    1.0000 </r>
       <r>  -13.9974    1.0000 </r>
       <r>  -13.9354    1.0000 </r>
       <r>  -13.9354    1.0000 </r>
       <r>  -13.8549    1.0000 </r>
       <r>  -13.8549    1.0000 </r>
       <r>  -13.7222    1.0000 </r>
       <r>  -13.7222    1.0000 </r>
       <r>   -7.9238    1.0000 </r>
       <r>   -7.9238    1.0000 </r>
       <r>   -7.1981    1.0000 </r>
       <r>   -7.1981    1.0000 </r>
       <r>   -7.1787    1.0000 </r>
       <r>   -7.1787    1.0000 </r>
       <r>   -7.1559    1.0000 </r>
       <r>   -7.1559    1.0000 </r>
       <r>   -7.1423    1.0000 </r>
       <r>   -7.1423    1.0000 </r>
       <r>   -7.1354    1.0000 </r>
       <r>   -7.1354    1.0000 </r>
       <r>   -7.1253    1.0000 </r>
       <r>   -7.1253    1.0000 </r>
       <r>   -6.9319    1.0000 </r>
       <r>   -6.9319    1.0000 </r>
       <r>   -3.2296    1.0000 </r>
       <r>   -3.2296    1.0000 </r>
       <r>   -3.0949    1.0000 </r>
       <r>   -3.0949    1.0000 </r>
       <r>   -2.4547    1.0000 </r>
       <r>   -2.4547    1.0000 </r>
       <r>   -2.3261    1.0000 </r>
       <r>   -2.3261    1.0000 </r>
       <r>   -1.9957    1.0000 </r>
       <r>   -1.9957    1.0000 </r>
       <r>   -1.7921    1.0000 </r>
       <r>   -1.7921    1.0000 </r>
       <r>   -1.7402    1.0000 </r>
       <r>   -1.7402    1.0000 </r>
       <r>   -1.5059    1.0000 </r>
       <r>   -1.5059    1.0000 </r>
       <r>   -1.4358    1.0000 </r>
       <r>   -1.4358    1.0000 </r>
       <r>   -1.4322    1.0000 </r>
       <r>   -1.4322    1.0000 </r>
       <r>   -1.3501    1.0000 </r>
       <r>   -1.3501    1.0000 </r>
       <r>   -1.2927    1.0000 </r>
       <r>   -1.2927    1.0000 </r>
       <r>   -1.2161    1.0000 </r>
       <r>   -1.2161    1.0000 </r>
       <r>   -1.1426    1.0000 </r>
       <r>   -1.1426    1.0000 </r>
       <r>   -1.1042    1.0000 </r>
       <r>   -1.1042    1.0000 </r>
       <r>   -0.9844    1.0000 </r>
       <r>   -0.9844    1.0000 </r>
       <r>   -0.7843    1.0000 </r>
       <r>   -0.7843    1.0000 </r>
       <r>   -0.0796    1.0000 </r>
       <r>   -0.0796    1.0000 </r>
       <r>    2.8358    0.0000 </r>
       <r>    2.8358    0.0000 </r>
       <r>    3.1805    0.0000 </r>
       <r>    3.1805    0.0000 </r>
       <r>    4.2960    0.0000 </r>
       <r>    4.2960    0.0000 </r>
       <r>    4.8501    0.0000 </r>
       <r>    4.8501    0.0000 </r>
       <r>    5.5912    0.0000 </r>
       <r>    5.5912    0.0000 </r>
       <r>    5.7470    0.0000 </r>
       <r>    5.7470    0.0000 </r>
       <r>    6.0871    0.0000 </r>
       <r>    6.0871    0.0000 </r>
       <r>    6.3248    0.0000 </r>
       <r>    6.3248    0.0000 </r>
       <r>    6.4045    0.0000 </r>
       <r>    6.4045    0.0000 </r>
       <r>    6.7256    0.0000 </r>
       <r>    6.7256    0.0000 </r>
       <r>    6.9050    0.0000 </r>
       <r>    6.9050    0.0000 </r>
       <r>    7.0485    0.0000 </r>
       <r>    7.0563    0.0000 </r>
      </set>
      <set comment="kpoint 4">
       <r>  -20.7492    1.0000 </r>
       <r>  -20.7492    1.0000 </r>
       <r>  -20.7472    1.0000 </r>
       <r>  -20.7472    1.0000 </r>
       <r>  -16.4683    1.0000 </r>
       <r>  -16.4683    1.0000 </r>
       <r>  -16.4657    1.0000 </r>
       <r>  -16.4657    1.0000 </r>
       <r>  -16.4554    1.0000 </r>
       <r>  -16.4554    1.0000 </r>
       <r>  -16.4263    1.0000 </r>
       <r>  -16.4263    1.0000 </r>
       <r>  -16.3564    1.0000 </r>
       <r>  -16.3564    1.0000 </r>
       <r>  -16.3561    1.0000 </r>
       <r>  -16.3561    1.0000 </r>
       <r>  -16.3448    1.0000 </r>
       <r>  -16.3448    1.0000 </r>
       <r>  -16.3444    1.0000 </r>
       <r>  -16.3444    1.0000 </r>
       <r>  -16.3364    1.0000 </r>
       <r>  -16.3364    1.0000 </r>
       <r>  -16.3359    1.0000 </r>
       <r>  -16.3359    1.0000 </r>
       <r>  -14.2223    1.0000 </r>
       <r>  -14.2223    1.0000 </r>
       <r>  -14.1208    1.0000 </r>
       <r>  -14.1208    1.0000 </r>
       <r>  -13.9117    1.0000 </r>
       <r>  -13.9117    1.0000 </r>
       <r>  -13.8836    1.0000 </r>
       <r>  -13.8836    1.0000 </r>
       <r>  -13.8653    1.0000 </r>
       <r>  -13.8653    1.0000 </r>
       <r>  -13.7753    1.0000 </r>
       <r>  -13.7753    1.0000 </r>
       <r>   -7.7237    1.0000 </r>
       <r>   -7.7237    1.0000 </r>
       <r>   -7.2743    1.0000 </r>
       <r>   -7.2743    1.0000 </r>
       <r>   -7.1842    1.0000 </r>
       <r>   -7.1842    1.0000 </r>
       <r>   -7.1809    1.0000 </r>
       <r>   -7.1809    1.0000 </r>
       <r>   -7.1458    1.0000 </r>
       <r>   -7.1458    1.0000 </r>
       <r>   -7.1355    1.0000 </r>
       <r>   -7.1355    1.0000 </r>
       <r>   -7.1315    1.0000 </r>
       <r>   -7.1315    1.0000 </r>
       <r>   -7.0939    1.0000 </r>
       <r>   -7.0939    1.0000 </r>
       <r>   -2.8260    1.0000 </r>
       <r>   -2.8260    1.0000 </r>
       <r>   -2.8214    1.0000 </r>
       <r>   -2.8214    1.0000 </r>
       <r>   -2.4334    1.0000 </r>
       <r>   -2.4334    1.0000 </r>
       <r>   -2.3648    1.0000 </r>
       <r>   -2.3648    1.0000 </r>
       <r>   -2.1435    1.0000 </r>
       <r>   -2.1435    1.0000 </r>
       <r>   -2.0338    1.0000 </r>
       <r>   -2.0338    1.0000 </r>
       <r>   -1.7192    1.0000 </r>
       <r>   -1.7192    1.0000 </r>
       <r>   -1.6381    1.0000 </r>
       <r>   -1.6381    1.0000 </r>
       <r>   -1.5191    1.0000 </r>
       <r>   -1.5191    1.0000 </r>
       <r>   -1.5000    1.0000 </r>
       <r>   -1.5000    1.0000 </r>
       <r>   -1.3908    1.0000 </r>
       <r>   -1.3908    1.0000 </r>
       <r>   -1.3498    1.0000 </r>
       <r>   -1.3498    1.0000 </r>
       <r>   -1.1095    1.0000 </r>
       <r>   -1.1095    1.0000 </r>
       <r>   -1.1079    1.0000 </r>
       <r>   -1.1079    1.0000 </r>
       <r>   -1.0822    1.0000 </r>
       <r>   -1.0822    1.0000 </r>
       <r>   -1.0353    1.0000 </r>
       <r>   -1.0353    1.0000 </r>
       <r>   -0.7414    1.0000 </r>
       <r>   -0.7414    1.0000 </r>
       <r>   -0.5353    1.0000 </r>
       <r>   -0.5353    1.0000 </r>
       <r>    3.5316    0.0000 </r>
       <r>    3.5316    0.0000 </r>
       <r>    3.9840    0.0000 </r>
       <r>    3.9840    0.0000 </r>
       <r>    4.4226    0.0000 </r>
       <r>    4.4226    0.0000 </r>
       <r>    4.6902    0.0000 </r>
       <r>    4.6902    0.0000 </r>
       <r>    4.9410    0.0000 </r>
       <r>    4.9410    0.0000 </r>
       <r>    5.3038    0.0000 </r>
       <r>    5.3038    0.0000 </r>
       <r>    6.0704    0.0000 </r>
       <r>    6.0704    0.0000 </r>
       <r>    6.3837    0.0000 </r>
       <r>    6.3837    0.0000 </r>
       <r>    6.6526    0.0000 </r>
       <r>    6.6526    0.0000 </r>
       <r>    6.7107    0.0000 </r>
       <r>    6.7107    0.0000 </r>
       <r>    6.7980    0.0000 </r>
       <r>    6.7980    0.0000 </r>
       <r>    6.9233    0.0000 </r>
       <r>    6.9235    0.0000 </r>
      </set>
      <set comment="kpoint 5">
       <r>  -20.7501    1.0000 </r>
       <r>  -20.7488    1.0000 </r>
       <r>  -20.7472    1.0000 </r>
       <r>  -20.7464    1.0000 </r>
       <r>  -16.4969    1.0000 </r>
       <r>  -16.4852    1.0000 </r>
       <r>  -16.4660    1.0000 </r>
       <r>  -16.4660    1.0000 </r>
       <r>  -16.4390    1.0000 </r>
       <r>  -16.4267    1.0000 </r>
       <r>  -16.4266    1.0000 </r>
       <r>  -16.4248    1.0000 </r>
       <r>  -16.3569    1.0000 </r>
       <r>  -16.3565    1.0000 </r>
       <r>  -16.3559    1.0000 </r>
       <r>  -16.3556    1.0000 </r>
       <r>  -16.3450    1.0000 </r>
       <r>  -16.3447    1.0000 </r>
       <r>  -16.3446    1.0000 </r>
       <r>  -16.3445    1.0000 </r>
       <r>  -16.3367    1.0000 </r>
       <r>  -16.3363    1.0000 </r>
       <r>  -16.3359    1.0000 </r>
       <r>  -16.3356    1.0000 </r>
       <r>  -14.2636    1.0000 </r>
       <r>  -14.1241    1.0000 </r>
       <r>  -14.0843    1.0000 </r>
       <r>  -14.0376    1.0000 </r>
       <r>  -14.0363    1.0000 </r>
       <r>  -13.9851    1.0000 </r>
       <r>  -13.9346    1.0000 </r>
       <r>  -13.9256    1.0000 </r>
       <r>  -13.8331    1.0000 </r>
       <r>  -13.7928    1.0000 </r>
       <r>  -13.7890    1.0000 </r>
       <r>  -13.7688    1.0000 </r>
       <r>   -7.9510    1.0000 </r>
       <r>   -7.4870    1.0000 </r>
       <r>   -7.4428    1.0000 </r>
       <r>   -7.1865    1.0000 </r>
       <r>   -7.1742    1.0000 </r>
       <r>   -7.1695    1.0000 </r>
       <r>   -7.1692    1.0000 </r>
       <r>   -7.1486    1.0000 </r>
       <r>   -7.1439    1.0000 </r>
       <r>   -7.1407    1.0000 </r>
       <r>   -7.1377    1.0000 </r>
       <r>   -7.1331    1.0000 </r>
       <r>   -7.1301    1.0000 </r>
       <r>   -7.1145    1.0000 </r>
       <r>   -7.1063    1.0000 </r>
       <r>   -6.8949    1.0000 </r>
       <r>   -3.2537    1.0000 </r>
       <r>   -3.1678    1.0000 </r>
       <r>   -2.9909    1.0000 </r>
       <r>   -2.8538    1.0000 </r>
       <r>   -2.6757    1.0000 </r>
       <r>   -2.5688    1.0000 </r>
       <r>   -2.2870    1.0000 </r>
       <r>   -2.0522    1.0000 </r>
       <r>   -2.0518    1.0000 </r>
       <r>   -1.9910    1.0000 </r>
       <r>   -1.9290    1.0000 </r>
       <r>   -1.8097    1.0000 </r>
       <r>   -1.7977    1.0000 </r>
       <r>   -1.6872    1.0000 </r>
       <r>   -1.6131    1.0000 </r>
       <r>   -1.5973    1.0000 </r>
       <r>   -1.4419    1.0000 </r>
       <r>   -1.4276    1.0000 </r>
       <r>   -1.3884    1.0000 </r>
       <r>   -1.3694    1.0000 </r>
       <r>   -1.3176    1.0000 </r>
       <r>   -1.3076    1.0000 </r>
       <r>   -1.2982    1.0000 </r>
       <r>   -1.2441    1.0000 </r>
       <r>   -1.2426    1.0000 </r>
       <r>   -1.2097    1.0000 </r>
       <r>   -1.1947    1.0000 </r>
       <r>   -1.1691    1.0000 </r>
       <r>   -1.1476    1.0000 </r>
       <r>   -1.1341    1.0000 </r>
       <r>   -1.0217    1.0000 </r>
       <r>   -0.9851    1.0000 </r>
       <r>   -0.9122    1.0000 </r>
       <r>   -0.7352    1.0000 </r>
       <r>   -0.5497    1.0000 </r>
       <r>   -0.1687    1.0000 </r>
       <r>    2.9041    0.0000 </r>
       <r>    3.2218    0.0000 </r>
       <r>    3.4867    0.0000 </r>
       <r>    3.6933    0.0000 </r>
       <r>    3.8923    0.0000 </r>
       <r>    4.0573    0.0000 </r>
       <r>    4.8660    0.0000 </r>
       <r>    5.1084    0.0000 </r>
       <r>    5.1255    0.0000 </r>
       <r>    5.4527    0.0000 </r>
       <r>    5.7183    0.0000 </r>
       <r>    5.8146    0.0000 </r>
       <r>    6.1201    0.0000 </r>
       <r>    6.1780    0.0000 </r>
       <r>    6.1975    0.0000 </r>
       <r>    6.4720    0.0000 </r>
       <r>    6.4816    0.0000 </r>
       <r>    6.6167    0.0000 </r>
       <r>    6.6635    0.0000 </r>
       <r>    6.8797    0.0000 </r>
       <r>    6.9427    0.0000 </r>
       <r>    7.0900    0.0000 </r>
       <r>    7.1084    0.0000 </r>
       <r>    7.1262    0.0000 </r>
      </set>
      <set comment="kpoint 6">
       <r>  -20.7493    1.0000 </r>
       <r>  -20.7485    1.0000 </r>
       <r>  -20.7476    1.0000 </r>
       <r>  -20.7469    1.0000 </r>
       <r>  -16.4994    1.0000 </r>
       <r>  -16.4923    1.0000 </r>
       <r>  -16.4663    1.0000 </r>
       <r>  -16.4509    1.0000 </r>
       <r>  -16.4506    1.0000 </r>
       <r>  -16.4325    1.0000 </r>
       <r>  -16.4253    1.0000 </r>
       <r>  -16.4142    1.0000 </r>
       <r>  -16.3568    1.0000 </r>
       <r>  -16.3566    1.0000 </r>
       <r>  -16.3558    1.0000 </r>
       <r>  -16.3557    1.0000 </r>
       <r>  -16.3448    1.0000 </r>
       <r>  -16.3446    1.0000 </r>
       <r>  -16.3445    1.0000 </r>
       <r>  -16.3443    1.0000 </r>
       <r>  -16.3365    1.0000 </r>
       <r>  -16.3363    1.0000 </r>
       <r>  -16.3359    1.0000 </r>
       <r>  -16.3356    1.0000 </r>
       <r>  -14.2198    1.0000 </r>
       <r>  -14.1320    1.0000 </r>
       <r>  -14.0500    1.0000 </r>
       <r>  -14.0392    1.0000 </r>
       <r>  -14.0374    1.0000 </r>
       <r>  -13.9828    1.0000 </r>
       <r>  -13.9764    1.0000 </r>
       <r>  -13.9215    1.0000 </r>
       <r>  -13.8908    1.0000 </r>
       <r>  -13.8356    1.0000 </r>
       <r>  -13.7657    1.0000 </r>
       <r>  -13.7335    1.0000 </r>
       <r>   -7.8307    1.0000 </r>
       <r>   -7.6003    1.0000 </r>
       <r>   -7.3175    1.0000 </r>
       <r>   -7.1783    1.0000 </r>
       <r>   -7.1701    1.0000 </r>
       <r>   -7.1584    1.0000 </r>
       <r>   -7.1562    1.0000 </r>
       <r>   -7.1555    1.0000 </r>
       <r>   -7.1441    1.0000 </r>
       <r>   -7.1396    1.0000 </r>
       <r>   -7.1341    1.0000 </r>
       <r>   -7.1321    1.0000 </r>
       <r>   -7.1259    1.0000 </r>
       <r>   -7.1154    1.0000 </r>
       <r>   -7.1091    1.0000 </r>
       <r>   -7.0063    1.0000 </r>
       <r>   -3.2459    1.0000 </r>
       <r>   -3.2134    1.0000 </r>
       <r>   -3.1382    1.0000 </r>
       <r>   -2.9947    1.0000 </r>
       <r>   -2.7733    1.0000 </r>
       <r>   -2.6258    1.0000 </r>
       <r>   -2.2169    1.0000 </r>
       <r>   -2.0672    1.0000 </r>
       <r>   -2.0467    1.0000 </r>
       <r>   -2.0373    1.0000 </r>
       <r>   -1.9651    1.0000 </r>
       <r>   -1.7179    1.0000 </r>
       <r>   -1.6989    1.0000 </r>
       <r>   -1.6533    1.0000 </r>
       <r>   -1.5099    1.0000 </r>
       <r>   -1.4882    1.0000 </r>
       <r>   -1.4583    1.0000 </r>
       <r>   -1.4084    1.0000 </r>
       <r>   -1.3766    1.0000 </r>
       <r>   -1.3762    1.0000 </r>
       <r>   -1.3575    1.0000 </r>
       <r>   -1.3479    1.0000 </r>
       <r>   -1.2954    1.0000 </r>
       <r>   -1.2911    1.0000 </r>
       <r>   -1.2565    1.0000 </r>
       <r>   -1.2345    1.0000 </r>
       <r>   -1.1853    1.0000 </r>
       <r>   -1.1639    1.0000 </r>
       <r>   -1.1510    1.0000 </r>
       <r>   -1.0976    1.0000 </r>
       <r>   -1.0485    1.0000 </r>
       <r>   -0.9877    1.0000 </r>
       <r>   -0.8404    1.0000 </r>
       <r>   -0.6950    1.0000 </r>
       <r>   -0.3995    1.0000 </r>
       <r>   -0.1224    1.0000 </r>
       <r>    2.9762    0.0000 </r>
       <r>    3.0275    0.0000 </r>
       <r>    3.1401    0.0000 </r>
       <r>    3.4223    0.0000 </r>
       <r>    3.8202    0.0000 </r>
       <r>    4.1618    0.0000 </r>
       <r>    4.7700    0.0000 </r>
       <r>    5.1798    0.0000 </r>
       <r>    5.4654    0.0000 </r>
       <r>    5.8780    0.0000 </r>
       <r>    5.9587    0.0000 </r>
       <r>    5.9990    0.0000 </r>
       <r>    6.1150    0.0000 </r>
       <r>    6.3255    0.0000 </r>
       <r>    6.4158    0.0000 </r>
       <r>    6.5736    0.0000 </r>
       <r>    6.6303    0.0000 </r>
       <r>    6.6883    0.0000 </r>
       <r>    6.7083    0.0000 </r>
       <r>    6.8894    0.0000 </r>
       <r>    6.9918    0.0000 </r>
       <r>    7.0073    0.0000 </r>
       <r>    7.1454    0.0000 </r>
       <r>    7.2468    0.0000 </r>
      </set>
      <set comment="kpoint 7">
       <r>  -20.7494    1.0000 </r>
       <r>  -20.7494    1.0000 </r>
       <r>  -20.7468    1.0000 </r>
       <r>  -20.7468    1.0000 </r>
       <r>  -16.4682    1.0000 </r>
       <r>  -16.4682    1.0000 </r>
       <r>  -16.4660    1.0000 </r>
       <r>  -16.4660    1.0000 </r>
       <r>  -16.4553    1.0000 </r>
       <r>  -16.4553    1.0000 </r>
       <r>  -16.4266    1.0000 </r>
       <r>  -16.4266    1.0000 </r>
       <r>  -16.3564    1.0000 </r>
       <r>  -16.3564    1.0000 </r>
       <r>  -16.3561    1.0000 </r>
       <r>  -16.3561    1.0000 </r>
       <r>  -16.3449    1.0000 </r>
       <r>  -16.3449    1.0000 </r>
       <r>  -16.3445    1.0000 </r>
       <r>  -16.3445    1.0000 </r>
       <r>  -16.3363    1.0000 </r>
       <r>  -16.3363    1.0000 </r>
       <r>  -16.3359    1.0000 </r>
       <r>  -16.3359    1.0000 </r>
       <r>  -14.2142    1.0000 </r>
       <r>  -14.2142    1.0000 </r>
       <r>  -14.0982    1.0000 </r>
       <r>  -14.0982    1.0000 </r>
       <r>  -13.9313    1.0000 </r>
       <r>  -13.9313    1.0000 </r>
       <r>  -13.8910    1.0000 </r>
       <r>  -13.8910    1.0000 </r>
       <r>  -13.8602    1.0000 </r>
       <r>  -13.8602    1.0000 </r>
       <r>  -13.7912    1.0000 </r>
       <r>  -13.7912    1.0000 </r>
       <r>   -7.7166    1.0000 </r>
       <r>   -7.7166    1.0000 </r>
       <r>   -7.2493    1.0000 </r>
       <r>   -7.2493    1.0000 </r>
       <r>   -7.1877    1.0000 </r>
       <r>   -7.1877    1.0000 </r>
       <r>   -7.1606    1.0000 </r>
       <r>   -7.1606    1.0000 </r>
       <r>   -7.1412    1.0000 </r>
       <r>   -7.1412    1.0000 </r>
       <r>   -7.1369    1.0000 </r>
       <r>   -7.1369    1.0000 </r>
       <r>   -7.1240    1.0000 </r>
       <r>   -7.1240    1.0000 </r>
       <r>   -7.1105    1.0000 </r>
       <r>   -7.1105    1.0000 </r>
       <r>   -2.9265    1.0000 </r>
       <r>   -2.9265    1.0000 </r>
       <r>   -2.7204    1.0000 </r>
       <r>   -2.7204    1.0000 </r>
       <r>   -2.4393    1.0000 </r>
       <r>   -2.4393    1.0000 </r>
       <r>   -2.3595    1.0000 </r>
       <r>   -2.3595    1.0000 </r>
       <r>   -2.1807    1.0000 </r>
       <r>   -2.1807    1.0000 </r>
       <r>   -1.9817    1.0000 </r>
       <r>   -1.9817    1.0000 </r>
       <r>   -1.6704    1.0000 </r>
       <r>   -1.6704    1.0000 </r>
       <r>   -1.6430    1.0000 </r>
       <r>   -1.6430    1.0000 </r>
       <r>   -1.5086    1.0000 </r>
       <r>   -1.5086    1.0000 </r>
       <r>   -1.4531    1.0000 </r>
       <r>   -1.4531    1.0000 </r>
       <r>   -1.3371    1.0000 </r>
       <r>   -1.3371    1.0000 </r>
       <r>   -1.2980    1.0000 </r>
       <r>   -1.2980    1.0000 </r>
       <r>   -1.1846    1.0000 </r>
       <r>   -1.1846    1.0000 </r>
       <r>   -1.1266    1.0000 </r>
       <r>   -1.1266    1.0000 </r>
       <r>   -1.1132    1.0000 </r>
       <r>   -1.1132    1.0000 </r>
       <r>   -1.0635    1.0000 </r>
       <r>   -1.0635    1.0000 </r>
       <r>   -0.8759    1.0000 </r>
       <r>   -0.8759    1.0000 </r>
       <r>   -0.6630    1.0000 </r>
       <r>   -0.6630    1.0000 </r>
       <r>    3.6568    0.0000 </r>
       <r>    3.6568    0.0000 </r>
       <r>    3.8651    0.0000 </r>
       <r>    3.8651    0.0000 </r>
       <r>    4.4167    0.0000 </r>
       <r>    4.4167    0.0000 </r>
       <r>    4.7097    0.0000 </r>
       <r>    4.7097    0.0000 </r>
       <r>    5.0029    0.0000 </r>
       <r>    5.0029    0.0000 </r>
       <r>    5.2676    0.0000 </r>
       <r>    5.2676    0.0000 </r>
       <r>    6.0967    0.0000 </r>
       <r>    6.0967    0.0000 </r>
       <r>    6.2868    0.0000 </r>
       <r>    6.2868    0.0000 </r>
       <r>    6.4788    0.0000 </r>
       <r>    6.4788    0.0000 </r>
       <r>    6.6654    0.0000 </r>
       <r>    6.6654    0.0000 </r>
       <r>    6.9384    0.0000 </r>
       <r>    6.9384    0.0000 </r>
       <r>    7.1358    0.0000 </r>
       <r>    7.1358    0.0000 </r>
      </set>
      <set comment="kpoint 8">
       <r>  -20.7487    1.0000 </r>
       <r>  -20.7487    1.0000 </r>
       <r>  -20.7474    1.0000 </r>
       <r>  -20.7474    1.0000 </r>
       <r>  -16.4777    1.0000 </r>
       <r>  -16.4777    1.0000 </r>
       <r>  -16.4675    1.0000 </r>
       <r>  -16.4675    1.0000 </r>
       <r>  -16.4435    1.0000 </r>
       <r>  -16.4435    1.0000 </r>
       <r>  -16.4278    1.0000 </r>
       <r>  -16.4278    1.0000 </r>
       <r>  -16.3563    1.0000 </r>
       <r>  -16.3563    1.0000 </r>
       <r>  -16.3562    1.0000 </r>
       <r>  -16.3562    1.0000 </r>
       <r>  -16.3446    1.0000 </r>
       <r>  -16.3446    1.0000 </r>
       <r>  -16.3445    1.0000 </r>
       <r>  -16.3445    1.0000 </r>
       <r>  -16.3362    1.0000 </r>
       <r>  -16.3362    1.0000 </r>
       <r>  -16.3360    1.0000 </r>
       <r>  -16.3360    1.0000 </r>
       <r>  -14.1752    1.0000 </r>
       <r>  -14.1752    1.0000 </r>
       <r>  -14.1001    1.0000 </r>
       <r>  -14.1001    1.0000 </r>
       <r>  -13.9791    1.0000 </r>
       <r>  -13.9791    1.0000 </r>
       <r>  -13.9131    1.0000 </r>
       <r>  -13.9131    1.0000 </r>
       <r>  -13.8289    1.0000 </r>
       <r>  -13.8289    1.0000 </r>
       <r>  -13.7945    1.0000 </r>
       <r>  -13.7945    1.0000 </r>
       <r>   -7.5942    1.0000 </r>
       <r>   -7.5942    1.0000 </r>
       <r>   -7.3596    1.0000 </r>
       <r>   -7.3596    1.0000 </r>
       <r>   -7.1749    1.0000 </r>
       <r>   -7.1749    1.0000 </r>
       <r>   -7.1559    1.0000 </r>
       <r>   -7.1559    1.0000 </r>
       <r>   -7.1428    1.0000 </r>
       <r>   -7.1428    1.0000 </r>
       <r>   -7.1382    1.0000 </r>
       <r>   -7.1382    1.0000 </r>
       <r>   -7.1259    1.0000 </r>
       <r>   -7.1259    1.0000 </r>
       <r>   -7.1066    1.0000 </r>
       <r>   -7.1066    1.0000 </r>
       <r>   -3.0812    1.0000 </r>
       <r>   -3.0812    1.0000 </r>
       <r>   -2.7422    1.0000 </r>
       <r>   -2.7422    1.0000 </r>
       <r>   -2.4893    1.0000 </r>
       <r>   -2.4893    1.0000 </r>
       <r>   -2.3801    1.0000 </r>
       <r>   -2.3801    1.0000 </r>
       <r>   -2.1324    1.0000 </r>
       <r>   -2.1324    1.0000 </r>
       <r>   -1.9800    1.0000 </r>
       <r>   -1.9800    1.0000 </r>
       <r>   -1.7112    1.0000 </r>
       <r>   -1.7112    1.0000 </r>
       <r>   -1.6333    1.0000 </r>
       <r>   -1.6333    1.0000 </r>
       <r>   -1.4882    1.0000 </r>
       <r>   -1.4882    1.0000 </r>
       <r>   -1.4040    1.0000 </r>
       <r>   -1.4040    1.0000 </r>
       <r>   -1.3425    1.0000 </r>
       <r>   -1.3425    1.0000 </r>
       <r>   -1.2592    1.0000 </r>
       <r>   -1.2592    1.0000 </r>
       <r>   -1.1972    1.0000 </r>
       <r>   -1.1972    1.0000 </r>
       <r>   -1.1299    1.0000 </r>
       <r>   -1.1299    1.0000 </r>
       <r>   -1.0865    1.0000 </r>
       <r>   -1.0865    1.0000 </r>
       <r>   -1.0425    1.0000 </r>
       <r>   -1.0425    1.0000 </r>
       <r>   -0.8093    1.0000 </r>
       <r>   -0.8093    1.0000 </r>
       <r>   -0.5824    1.0000 </r>
       <r>   -0.5824    1.0000 </r>
       <r>    3.2186    0.0000 </r>
       <r>    3.2186    0.0000 </r>
       <r>    3.9749    0.0000 </r>
       <r>    3.9749    0.0000 </r>
       <r>    4.4839    0.0000 </r>
       <r>    4.4839    0.0000 </r>
       <r>    4.5922    0.0000 </r>
       <r>    4.5922    0.0000 </r>
       <r>    5.0066    0.0000 </r>
       <r>    5.0066    0.0000 </r>
       <r>    5.6754    0.0000 </r>
       <r>    5.6754    0.0000 </r>
       <r>    6.3406    0.0000 </r>
       <r>    6.3406    0.0000 </r>
       <r>    6.4390    0.0000 </r>
       <r>    6.4390    0.0000 </r>
       <r>    6.6312    0.0000 </r>
       <r>    6.6312    0.0000 </r>
       <r>    6.8198    0.0000 </r>
       <r>    6.8198    0.0000 </r>
       <r>    6.8576    0.0000 </r>
       <r>    6.8576    0.0000 </r>
       <r>    7.0433    0.0000 </r>
       <r>    7.0433    0.0000 </r>
      </set>
     </set>
    </set>
   </array>
  </eigenvalues>
  <separator name="orbital magnetization" >
   <v name="MAGDIPOLOUT">      0.00000000      0.00000000      0.00000000</v>
  </separator>
  <dos>
   <i name="efermi">      0.45968594 </i>
   <total>
    <array>
     <dimension dim="1">gridpoints</dimension>
     <dimension dim="2">spin</dimension>
     <field>energy</field>
     <field>total</field>
     <field>integrated</field>
     <set>
      <set comment="spin 1">
       <r>   -22.1510     0.0000     0.0000 </r>
       <r>   -22.0483     0.0000     0.0000 </r>
       <r>   -21.9456     0.0000     0.0000 </r>
       <r>   -21.8430     0.0000     0.0000 </r>
       <r>   -21.7403     0.0000     0.0000 </r>
       <r>   -21.6377     0.0000     0.0000 </r>
       <r>   -21.5350     0.0000     0.0000 </r>
       <r>   -21.4323     0.0000     0.0000 </r>
       <r>   -21.3297     0.0000     0.0000 </r>
       <r>   -21.2270     0.0000     0.0000 </r>
       <r>   -21.1244     0.0000     0.0000 </r>
       <r>   -21.0217     0.0000     0.0000 </r>
       <r>   -20.9191     0.0000     0.0000 </r>
       <r>   -20.8164     0.0000     0.0000 </r>
       <r>   -20.7137    77.9278     8.0000 </r>
       <r>   -20.6111     0.0000     8.0000 </r>
       <r>   -20.5084     0.0000     8.0000 </r>
       <r>   -20.4058     0.0000     8.0000 </r>
       <r>   -20.3031     0.0000     8.0000 </r>
       <r>   -20.2004     0.0000     8.0000 </r>
       <r>   -20.0978     0.0000     8.0000 </r>
       <r>   -19.9951     0.0000     8.0000 </r>
       <r>   -19.8925     0.0000     8.0000 </r>
       <r>   -19.7898     0.0000     8.0000 </r>
       <r>   -19.6871     0.0000     8.0000 </r>
       <r>   -19.5845     0.0000     8.0000 </r>
       <r>   -19.4818     0.0000     8.0000 </r>
       <r>   -19.3792     0.0000     8.0000 </r>
       <r>   -19.2765     0.0000     8.0000 </r>
       <r>   -19.1739     0.0000     8.0000 </r>
       <r>   -19.0712     0.0000     8.0000 </r>
       <r>   -18.9685     0.0000     8.0000 </r>
       <r>   -18.8659     0.0000     8.0000 </r>
       <r>   -18.7632     0.0000     8.0000 </r>
       <r>   -18.6606     0.0000     8.0000 </r>
       <r>   -18.5579     0.0000     8.0000 </r>
       <r>   -18.4552     0.0000     8.0000 </r>
       <r>   -18.3526     0.0000     8.0000 </r>
       <r>   -18.2499     0.0000     8.0000 </r>
       <r>   -18.1473     0.0000     8.0000 </r>
       <r>   -18.0446     0.0000     8.0000 </r>
       <r>   -17.9419     0.0000     8.0000 </r>
       <r>   -17.8393     0.0000     8.0000 </r>
       <r>   -17.7366     0.0000     8.0000 </r>
       <r>   -17.6340     0.0000     8.0000 </r>
       <r>   -17.5313     0.0000     8.0000 </r>
       <r>   -17.4286     0.0000     8.0000 </r>
       <r>   -17.3260     0.0000     8.0000 </r>
       <r>   -17.2233     0.0000     8.0000 </r>
       <r>   -17.1207     0.0000     8.0000 </r>
       <r>   -17.0180     0.0000     8.0000 </r>
       <r>   -16.9154     0.0000     8.0000 </r>
       <r>   -16.8127     0.0000     8.0000 </r>
       <r>   -16.7100     0.0000     8.0000 </r>
       <r>   -16.6074     0.0000     8.0000 </r>
       <r>   -16.5047     2.1882     8.2246 </r>
       <r>   -16.4021   131.6168    23.8451 </r>
       <r>   -16.2994   233.7837    48.0000 </r>
       <r>   -16.1967     0.0000    48.0000 </r>
       <r>   -16.0941     0.0000    48.0000 </r>
       <r>   -15.9914     0.0000    48.0000 </r>
       <r>   -15.8888     0.0000    48.0000 </r>
       <r>   -15.7861     0.0000    48.0000 </r>
       <r>   -15.6834     0.0000    48.0000 </r>
       <r>   -15.5808     0.0000    48.0000 </r>
       <r>   -15.4781     0.0000    48.0000 </r>
       <r>   -15.3755     0.0000    48.0000 </r>
       <r>   -15.2728     0.0000    48.0000 </r>
       <r>   -15.1701     0.0000    48.0000 </r>
       <r>   -15.0675     0.0000    48.0000 </r>
       <r>   -14.9648     0.0000    48.0000 </r>
       <r>   -14.8622     0.0000    48.0000 </r>
       <r>   -14.7595     0.0000    48.0000 </r>
       <r>   -14.6569     0.0000    48.0000 </r>
       <r>   -14.5542     0.0000    48.0000 </r>
       <r>   -14.4515     0.0000    48.0000 </r>
       <r>   -14.3489     0.0000    48.0000 </r>
       <r>   -14.2462     7.5284    48.7729 </r>
       <r>   -14.1436    23.5995    51.2007 </r>
       <r>   -14.0409    31.4600    55.2299 </r>
       <r>   -13.9382    30.0083    59.9695 </r>
       <r>   -13.8356    47.7296    66.3445 </r>
       <r>   -13.7329    38.3073    71.3770 </r>
       <r>   -13.6303     0.0000    72.0000 </r>
       <r>   -13.5276     0.0000    72.0000 </r>
       <r>   -13.4249     0.0000    72.0000 </r>
       <r>   -13.3223     0.0000    72.0000 </r>
       <r>   -13.2196     0.0000    72.0000 </r>
       <r>   -13.1170     0.0000    72.0000 </r>
       <r>   -13.0143     0.0000    72.0000 </r>
       <r>   -12.9117     0.0000    72.0000 </r>
       <r>   -12.8090     0.0000    72.0000 </r>
       <r>   -12.7063     0.0000    72.0000 </r>
       <r>   -12.6037     0.0000    72.0000 </r>
       <r>   -12.5010     0.0000    72.0000 </r>
       <r>   -12.3984     0.0000    72.0000 </r>
       <r>   -12.2957     0.0000    72.0000 </r>
       <r>   -12.1930     0.0000    72.0000 </r>
       <r>   -12.0904     0.0000    72.0000 </r>
       <r>   -11.9877     0.0000    72.0000 </r>
       <r>   -11.8851     0.0000    72.0000 </r>
       <r>   -11.7824     0.0000    72.0000 </r>
       <r>   -11.6797     0.0000    72.0000 </r>
       <r>   -11.5771     0.0000    72.0000 </r>
       <r>   -11.4744     0.0000    72.0000 </r>
       <r>   -11.3718     0.0000    72.0000 </r>
       <r>   -11.2691     0.0000    72.0000 </r>
       <r>   -11.1664     0.0000    72.0000 </r>
       <r>   -11.0638     0.0000    72.0000 </r>
       <r>   -10.9611     0.0000    72.0000 </r>
       <r>   -10.8585     0.0000    72.0000 </r>
       <r>   -10.7558     0.0000    72.0000 </r>
       <r>   -10.6532     0.0000    72.0000 </r>
       <r>   -10.5505     0.0000    72.0000 </r>
       <r>   -10.4478     0.0000    72.0000 </r>
       <r>   -10.3452     0.0000    72.0000 </r>
       <r>   -10.2425     0.0000    72.0000 </r>
       <r>   -10.1399     0.0000    72.0000 </r>
       <r>   -10.0372     0.0000    72.0000 </r>
       <r>    -9.9345     0.0000    72.0000 </r>
       <r>    -9.8319     0.0000    72.0000 </r>
       <r>    -9.7292     0.0000    72.0000 </r>
       <r>    -9.6266     0.0000    72.0000 </r>
       <r>    -9.5239     0.0000    72.0000 </r>
       <r>    -9.4212     0.0000    72.0000 </r>
       <r>    -9.3186     0.0000    72.0000 </r>
       <r>    -9.2159     0.0000    72.0000 </r>
       <r>    -9.1133     0.0000    72.0000 </r>
       <r>    -9.0106     0.0000    72.0000 </r>
       <r>    -8.9079     0.0000    72.0000 </r>
       <r>    -8.8053     0.0000    72.0000 </r>
       <r>    -8.7026     0.0000    72.0000 </r>
       <r>    -8.6000     0.0000    72.0000 </r>
       <r>    -8.4973     0.0000    72.0000 </r>
       <r>    -8.3947     0.0000    72.0000 </r>
       <r>    -8.2920     0.0000    72.0000 </r>
       <r>    -8.1893     0.0000    72.0000 </r>
       <r>    -8.0867     1.0823    72.1111 </r>
       <r>    -7.9840     0.0001    72.1111 </r>
       <r>    -7.8814     6.4939    72.7778 </r>
       <r>    -7.7787     4.3293    73.2222 </r>
       <r>    -7.6760     8.6599    74.1112 </r>
       <r>    -7.5734    12.9740    75.5541 </r>
       <r>    -7.4707     4.3362    76.0007 </r>
       <r>    -7.3681     3.1552    76.5461 </r>
       <r>    -7.2654     8.2555    78.1808 </r>
       <r>    -7.1627    63.4859    85.1841 </r>
       <r>    -7.0601   109.3079   102.7778 </r>
       <r>    -6.9574     4.3297   103.2223 </r>
       <r>    -6.8548     6.4937   103.8889 </r>
       <r>    -6.7521     0.0000   103.8889 </r>
       <r>    -6.6495     0.0000   103.8889 </r>
       <r>    -6.5468     1.0823   104.0000 </r>
       <r>    -6.4441     0.0000   104.0000 </r>
       <r>    -6.3415     0.0000   104.0000 </r>
       <r>    -6.2388     0.0000   104.0000 </r>
       <r>    -6.1362     0.0000   104.0000 </r>
       <r>    -6.0335     0.0000   104.0000 </r>
       <r>    -5.9308     0.0000   104.0000 </r>
       <r>    -5.8282     0.0000   104.0000 </r>
       <r>    -5.7255     0.0000   104.0000 </r>
       <r>    -5.6229     0.0000   104.0000 </r>
       <r>    -5.5202     0.0000   104.0000 </r>
       <r>    -5.4175     0.0000   104.0000 </r>
       <r>    -5.3149     0.0000   104.0000 </r>
       <r>    -5.2122     0.0000   104.0000 </r>
       <r>    -5.1096     0.0000   104.0000 </r>
       <r>    -5.0069     0.0000   104.0000 </r>
       <r>    -4.9042     0.0000   104.0000 </r>
       <r>    -4.8016     0.0000   104.0000 </r>
       <r>    -4.6989     0.0000   104.0000 </r>
       <r>    -4.5963     0.0000   104.0000 </r>
       <r>    -4.4936     0.0000   104.0000 </r>
       <r>    -4.3910     0.0000   104.0000 </r>
       <r>    -4.2883     0.0000   104.0000 </r>
       <r>    -4.1856     0.0000   104.0000 </r>
       <r>    -4.0830     0.0000   104.0000 </r>
       <r>    -3.9803     0.0000   104.0000 </r>
       <r>    -3.8777     0.0000   104.0000 </r>
       <r>    -3.7750     0.0000   104.0000 </r>
       <r>    -3.6723     0.0000   104.0000 </r>
       <r>    -3.5697     0.0000   104.0000 </r>
       <r>    -3.4670     0.0000   104.0000 </r>
       <r>    -3.3644     0.0000   104.0000 </r>
       <r>    -3.2617     2.6342   104.2704 </r>
       <r>    -3.1590    11.1398   106.2547 </r>
       <r>    -3.0564    11.9037   108.1109 </r>
       <r>    -2.9537     7.5766   108.8889 </r>
       <r>    -2.8511     7.9053   109.7005 </r>
       <r>    -2.7484    18.2805   111.6545 </r>
       <r>    -2.6457     6.5044   113.3344 </r>
       <r>    -2.5431     2.1644   114.0000 </r>
       <r>    -2.4404    13.3577   115.3713 </r>
       <r>    -2.3378    17.4196   117.7883 </r>
       <r>    -2.2351     2.2533   118.2313 </r>
       <r>    -2.1325    12.9032   120.2135 </r>
       <r>    -2.0298    24.0890   123.2507 </r>
       <r>    -1.9271    29.4433   126.4671 </r>
       <r>    -1.8245     3.4543   126.9102 </r>
       <r>    -1.7218    12.0614   128.4604 </r>
       <r>    -1.6192    38.1368   133.9153 </r>
       <r>    -1.5165     5.3837   135.1082 </r>
       <r>    -1.4138    42.5141   141.0312 </r>
       <r>    -1.3112    61.1498   148.6112 </r>
       <r>    -1.2085    29.8091   153.8380 </r>
       <r>    -1.1059    54.0631   160.7728 </r>
       <r>    -1.0032    38.2623   166.4837 </r>
       <r>    -0.9005     6.3861   168.2112 </r>
       <r>    -0.7979    16.9314   169.9605 </r>
       <r>    -0.6952    10.7660   171.4386 </r>
       <r>    -0.5926     8.2171   172.5102 </r>
       <r>    -0.4899     7.0564   174.0577 </r>
       <r>    -0.3873     4.1494   174.6482 </r>
       <r>    -0.2846     0.0000   174.6667 </r>
       <r>    -0.1819     1.1482   174.7845 </r>
       <r>    -0.0793     7.5659   175.7767 </r>
       <r>     0.0234     0.0000   175.8889 </r>
       <r>     0.1260     0.0000   175.8889 </r>
       <r>     0.2287     0.0000   175.8889 </r>
       <r>     0.3314     0.0000   175.8889 </r>
       <r>     0.4340     1.0823   176.0000 </r>
       <r>     0.5367     0.0000   176.0000 </r>
       <r>     0.6393     0.0000   176.0000 </r>
       <r>     0.7420     0.0000   176.0000 </r>
       <r>     0.8447     0.0000   176.0000 </r>
       <r>     0.9473     0.0000   176.0000 </r>
       <r>     1.0500     0.0000   176.0000 </r>
       <r>     1.1526     0.0000   176.0000 </r>
       <r>     1.2553     0.0000   176.0000 </r>
       <r>     1.3580     0.0000   176.0000 </r>
       <r>     1.4606     0.0000   176.0000 </r>
       <r>     1.5633     0.0000   176.0000 </r>
       <r>     1.6659     0.0000   176.0000 </r>
       <r>     1.7686     0.0000   176.0000 </r>
       <r>     1.8712     0.0000   176.0000 </r>
       <r>     1.9739     0.0000   176.0000 </r>
       <r>     2.0766     0.0000   176.0000 </r>
       <r>     2.1792     0.0000   176.0000 </r>
       <r>     2.2819     0.0000   176.0000 </r>
       <r>     2.3845     0.0000   176.0000 </r>
       <r>     2.4872     0.0000   176.0000 </r>
       <r>     2.5899     0.0001   176.0000 </r>
       <r>     2.6925     1.0822   176.1111 </r>
       <r>     2.7952     1.0823   176.2222 </r>
       <r>     2.8978     3.0338   176.5337 </r>
       <r>     3.0005     5.4107   177.4443 </r>
       <r>     3.1032     5.4114   178.0000 </r>
       <r>     3.2058     6.8317   178.7013 </r>
       <r>     3.3085     0.0000   180.0000 </r>
       <r>     3.4111     3.4260   180.3517 </r>
       <r>     3.5138     3.2729   181.1138 </r>
       <r>     3.6165     0.0000   181.5556 </r>
       <r>     3.7191     6.5007   182.2229 </r>
       <r>     3.8218     3.0858   182.7612 </r>
       <r>     3.9244     6.4940   183.7778 </r>
       <r>     4.0271    12.9880   185.1111 </r>
       <r>     4.1297     2.1647   185.3333 </r>
       <r>     4.2324     6.4940   186.0000 </r>
       <r>     4.3351     2.1647   186.2222 </r>
       <r>     4.4377     8.5828   187.1033 </r>
       <r>     4.5404     8.6587   188.0000 </r>
       <r>     4.6430     8.6587   188.8889 </r>
       <r>     4.7457     8.6599   189.7779 </r>
       <r>     4.8484     7.3808   190.5356 </r>
       <r>     4.9510     4.3711   191.3376 </r>
       <r>     5.0537    12.9880   192.7778 </r>
       <r>     5.1563     6.4797   193.4430 </r>
       <r>     5.2590     9.0166   194.3703 </r>
       <r>     5.3617     4.3293   195.2222 </r>
       <r>     5.4643     3.9544   195.6282 </r>
       <r>     5.5670     0.0241   195.8914 </r>
       <r>     5.6696     4.6291   196.4753 </r>
       <r>     5.7723     4.3290   197.6666 </r>
       <r>     5.8749     7.9314   198.4809 </r>
       <r>     5.9776     5.4011   199.3323 </r>
       <r>     6.0803     6.5136   200.4465 </r>
       <r>     6.1829    12.5055   202.3949 </r>
       <r>     6.2856     5.1023   203.1905 </r>
       <r>     6.3882    18.3797   205.3313 </r>
       <r>     6.4909    28.8111   208.6244 </r>
       <r>     6.5936     8.6495   209.7768 </r>
       <r>     6.6962    31.0895   212.9695 </r>
       <r>     6.7989     7.6434   214.6736 </r>
       <r>     6.9015    15.6502   217.3844 </r>
       <r>     7.0042    15.5089   219.5921 </r>
       <r>     7.1069    14.8173   221.6322 </r>
       <r>     7.2095    14.0697   223.5556 </r>
       <r>     7.3122     4.3293   224.0000 </r>
       <r>     7.4148     0.0000   224.0000 </r>
       <r>     7.5175     0.0000   224.0000 </r>
       <r>     7.6202     0.0000   224.0000 </r>
       <r>     7.7228     0.0000   224.0000 </r>
       <r>     7.8255     0.0000   224.0000 </r>
       <r>     7.9281     0.0000   224.0000 </r>
       <r>     8.0308     0.0000   224.0000 </r>
       <r>     8.1334     0.0000   224.0000 </r>
       <r>     8.2361     0.0000   224.0000 </r>
       <r>     8.3388     0.0000   224.0000 </r>
       <r>     8.4414     0.0000   224.0000 </r>
       <r>     8.5441     0.0000   224.0000 </r>
       <r>     8.6467     0.0000   224.0000 </r>
      </set>
     </set>
    </array>
   </total>
   <partial>
    <array>
     <dimension dim="1">gridpoints</dimension>
     <dimension dim="2">spin</dimension>
     <dimension dim="3">ion</dimension>
     <field>energy</field>
     <field>  s  </field>
     <field>  p  </field>
     <field>  d  </field>
     <set>
      <set comment="ion 1">
       <set comment="spin 1">
        <r>   -22.1510     0.0000     0.0000     0.0000 </r>
[...]
        <r>  0.0000  0.0001  0.0004 </r>
        <r>  0.0003  0.0118  0.0002 </r>
        <r>  0.0001  0.0093  0.0003 </r>
        <r>  0.0027  0.1740  0.0015 </r>
        <r>  0.0028  0.1548  0.0018 </r>
        <r>  0.0001  0.0032  0.0017 </r>
        <r>  0.0002  0.0049  0.0008 </r>
        <r>  0.0001  0.0028  0.0014 </r>
        <r>  0.0003  0.0058  0.0009 </r>
        <r>  0.0134  0.0345  0.0070 </r>
        <r>  0.0009  0.0140  0.0006 </r>
        <r>  0.0001  0.0010  0.0001 </r>
        <r>  0.0009  0.0019  0.0005 </r>
        <r>  0.0008  0.0031  0.0004 </r>
        <r>  0.0000  0.0007  0.0000 </r>
        <r>  0.0135  0.0333  0.0072 </r>
        <r>  0.0009  0.0143  0.0006 </r>
       </set>
       <set comment="band 93">
        <r>  0.0000  0.0001  0.0003 </r>
        <r>  0.0004  0.0002  0.0005 </r>
        <r>  0.0000  0.0000  0.0005 </r>
        <r>  0.0000  0.0008  0.0017 </r>
        <r>  0.0025  0.0877  0.0013 </r>
        <r>  0.0023  0.0803  0.0012 </r>
        <r>  0.0026  0.0716  0.0013 </r>
        <r>  0.0029  0.0777  0.0014 </r>
        <r>  0.0109  0.0008  0.0045 </r>
        <r>  0.0000  0.0687  0.0003 </r>
        <r>  0.0116  0.0009  0.0049 </r>
        <r>  0.0000  0.0639  0.0004 </r>
        <r>  0.0001  0.0055  0.0010 </r>
        <r>  0.0000  0.0017  0.0019 </r>
        <r>  0.0000  0.0011  0.0020 </r>
        <r>  0.0004  0.0028  0.0008 </r>
        <r>  0.0002  0.0059  0.0011 </r>
        <r>  0.0000  0.0019  0.0021 </r>
        <r>  0.0004  0.0023  0.0008 </r>
        <r>  0.0000  0.0010  0.0018 </r>
       </set>
       <set comment="band 94">
        <r>  0.0000  0.0008  0.0017 </r>
        <r>  0.0000  0.0000  0.0005 </r>
        <r>  0.0004  0.0002  0.0005 </r>
        <r>  0.0000  0.0001  0.0003 </r>
        <r>  0.0029  0.0777  0.0014 </r>
        <r>  0.0026  0.0716  0.0013 </r>
        <r>  0.0023  0.0803  0.0012 </r>
        <r>  0.0025  0.0877  0.0013 </r>
        <r>  0.0000  0.0639  0.0004 </r>
        <r>  0.0116  0.0009  0.0049 </r>
        <r>  0.0000  0.0687  0.0003 </r>
        <r>  0.0109  0.0008  0.0045 </r>
        <r>  0.0004  0.0028  0.0008 </r>
        <r>  0.0000  0.0011  0.0020 </r>
        <r>  0.0000  0.0017  0.0019 </r>
        <r>  0.0001  0.0055  0.0010 </r>
        <r>  0.0004  0.0023  0.0008 </r>
        <r>  0.0000  0.0010  0.0018 </r>
        <r>  0.0002  0.0059  0.0011 </r>
        <r>  0.0000  0.0019  0.0021 </r>
       </set>
       <set comment="band 95">
        <r>  0.0000  0.0001  0.0004 </r>
        <r>  0.0001  0.0010  0.0012 </r>
        <r>  0.0000  0.0002  0.0003 </r>
        <r>  0.0002  0.0003  0.0004 </r>
        <r>  0.0027  0.0696  0.0012 </r>
        <r>  0.0029  0.0778  0.0014 </r>
        <r>  0.0025  0.0909  0.0013 </r>
        <r>  0.0023  0.0815  0.0011 </r>
        <r>  0.0109  0.0002  0.0048 </r>
        <r>  0.0000  0.0523  0.0005 </r>
        <r>  0.0094  0.0003  0.0041 </r>
        <r>  0.0000  0.0605  0.0002 </r>
        <r>  0.0007  0.0073  0.0018 </r>
        <r>  0.0001  0.0031  0.0007 </r>
        <r>  0.0001  0.0056  0.0010 </r>
        <r>  0.0003  0.0075  0.0022 </r>
        <r>  0.0006  0.0062  0.0015 </r>
        <r>  0.0000  0.0024  0.0006 </r>
        <r>  0.0004  0.0086  0.0025 </r>
        <r>  0.0001  0.0062  0.0011 </r>
       </set>
       <set comment="band 96">
        <r>  0.0002  0.0003  0.0004 </r>
        <r>  0.0000  0.0002  0.0003 </r>
        <r>  0.0001  0.0010  0.0012 </r>
        <r>  0.0000  0.0001  0.0004 </r>
        <r>  0.0023  0.0815  0.0011 </r>
        <r>  0.0025  0.0909  0.0013 </r>
        <r>  0.0029  0.0778  0.0014 </r>
        <r>  0.0027  0.0696  0.0012 </r>
        <r>  0.0000  0.0605  0.0002 </r>
        <r>  0.0094  0.0003  0.0041 </r>
        <r>  0.0000  0.0523  0.0005 </r>
        <r>  0.0109  0.0002  0.0048 </r>
        <r>  0.0003  0.0075  0.0022 </r>
        <r>  0.0001  0.0056  0.0010 </r>
        <r>  0.0001  0.0031  0.0007 </r>
        <r>  0.0007  0.0073  0.0018 </r>
        <r>  0.0004  0.0086  0.0025 </r>
        <r>  0.0001  0.0062  0.0011 </r>
        <r>  0.0006  0.0062  0.0015 </r>
        <r>  0.0000  0.0024  0.0006 </r>
       </set>
       <set comment="band 97">
        <r>  0.0000  0.0000  0.0013 </r>
        <r>  0.0001  0.0005  0.0007 </r>
        <r>  0.0000  0.0001  0.0028 </r>
        <r>  0.0002  0.0003  0.0006 </r>
        <r>  0.0022  0.0631  0.0009 </r>
        <r>  0.0015  0.0526  0.0008 </r>
        <r>  0.0030  0.0846  0.0010 </r>
        <r>  0.0020  0.1109  0.0011 </r>
        <r>  0.0014  0.0049  0.0007 </r>
        <r>  0.0001  0.0101  0.0032 </r>
        <r>  0.0027  0.0038  0.0013 </r>
        <r>  0.0000  0.0062  0.0032 </r>
        <r>  0.0030  0.0474  0.0022 </r>
        <r>  0.0002  0.0018  0.0023 </r>
        <r>  0.0002  0.0018  0.0012 </r>
        <r>  0.0028  0.0253  0.0010 </r>
        <r>  0.0016  0.0284  0.0014 </r>
        <r>  0.0002  0.0010  0.0014 </r>
        <r>  0.0041  0.0442  0.0017 </r>
        <r>  0.0003  0.0026  0.0021 </r>
       </set>
       <set comment="band 98">
        <r>  0.0002  0.0003  0.0006 </r>
        <r>  0.0000  0.0001  0.0028 </r>
        <r>  0.0001  0.0005  0.0007 </r>
        <r>  0.0000  0.0000  0.0013 </r>
        <r>  0.0020  0.1109  0.0011 </r>
        <r>  0.0030  0.0846  0.0010 </r>
        <r>  0.0015  0.0526  0.0008 </r>
        <r>  0.0022  0.0631  0.0009 </r>
        <r>  0.0000  0.0062  0.0032 </r>
        <r>  0.0027  0.0038  0.0013 </r>
        <r>  0.0001  0.0101  0.0032 </r>
        <r>  0.0014  0.0049  0.0007 </r>
        <r>  0.0028  0.0253  0.0010 </r>
        <r>  0.0002  0.0018  0.0012 </r>
        <r>  0.0002  0.0018  0.0023 </r>
        <r>  0.0030  0.0474  0.0022 </r>
        <r>  0.0041  0.0442  0.0017 </r>
        <r>  0.0003  0.0026  0.0021 </r>
        <r>  0.0016  0.0284  0.0014 </r>
        <r>  0.0002  0.0010  0.0014 </r>
       </set>
       <set comment="band 99">
        <r>  0.0000  0.0001  0.0018 </r>
        <r>  0.0000  0.0001  0.0017 </r>
        <r>  0.0000  0.0001  0.0022 </r>
        <r>  0.0000  0.0001  0.0013 </r>
        <r>  0.0000  0.1365  0.0004 </r>
        <r>  0.0000  0.1618  0.0003 </r>
        <r>  0.0001  0.0065  0.0007 </r>
        <r>  0.0000  0.0057  0.0006 </r>
        <r>  0.0003  0.0017  0.0017 </r>
        <r>  0.0000  0.0017  0.0030 </r>
        <r>  0.0001  0.0030  0.0015 </r>
        <r>  0.0001  0.0015  0.0031 </r>
        <r>  0.0000  0.0003  0.0002 </r>
        <r>  0.0000  0.0033  0.0006 </r>
        <r>  0.0001  0.0956  0.0022 </r>
        <r>  0.0002  0.0022  0.0047 </r>
        <r>  0.0001  0.0023  0.0047 </r>
        <r>  0.0000  0.0944  0.0025 </r>
        <r>  0.0001  0.0002  0.0003 </r>
        <r>  0.0000  0.0045  0.0003 </r>
       </set>
       <set comment="band 100">
        <r>  0.0000  0.0001  0.0013 </r>
        <r>  0.0000  0.0001  0.0022 </r>
        <r>  0.0000  0.0001  0.0017 </r>
        <r>  0.0000  0.0001  0.0018 </r>
        <r>  0.0000  0.0057  0.0006 </r>
        <r>  0.0001  0.0065  0.0007 </r>
        <r>  0.0000  0.1618  0.0003 </r>
        <r>  0.0000  0.1365  0.0004 </r>
        <r>  0.0001  0.0015  0.0031 </r>
        <r>  0.0001  0.0030  0.0015 </r>
        <r>  0.0000  0.0017  0.0030 </r>
        <r>  0.0003  0.0017  0.0017 </r>
        <r>  0.0002  0.0022  0.0047 </r>
        <r>  0.0001  0.0956  0.0022 </r>
        <r>  0.0000  0.0033  0.0006 </r>
        <r>  0.0000  0.0003  0.0002 </r>
        <r>  0.0001  0.0002  0.0003 </r>
        <r>  0.0000  0.0045  0.0003 </r>
        <r>  0.0001  0.0023  0.0047 </r>
        <r>  0.0000  0.0944  0.0025 </r>
       </set>
       <set comment="band 101">
        <r>  0.0095  0.0043  0.0049 </r>
        <r>  0.0002  0.0009  0.0115 </r>
        <r>  0.0119  0.0055  0.0148 </r>
        <r>  0.0002  0.0009  0.0150 </r>
        <r>  0.0001  0.0045  0.0002 </r>
        <r>  0.0004  0.0083  0.0004 </r>
        <r>  0.0004  0.0068  0.0006 </r>
        <r>  0.0002  0.0049  0.0003 </r>
        <r>  0.0001  0.0062  0.0003 </r>
        <r>  0.0042  0.0065  0.0038 </r>
        <r>  0.0001  0.0062  0.0003 </r>
        <r>  0.0025  0.0051  0.0043 </r>
        <r>  0.0025  0.0051  0.0022 </r>
        <r>  0.0038  0.0016  0.0015 </r>
        <r>  0.0040  0.0027  0.0025 </r>
        <r>  0.0002  0.0030  0.0003 </r>
        <r>  0.0020  0.0041  0.0017 </r>
        <r>  0.0028  0.0014  0.0015 </r>
        <r>  0.0007  0.0039  0.0008 </r>
        <r>  0.0050  0.0029  0.0025 </r>
       </set>
       <set comment="band 102">
        <r>  0.0002  0.0009  0.0150 </r>
        <r>  0.0119  0.0055  0.0148 </r>
        <r>  0.0002  0.0009  0.0115 </r>
        <r>  0.0095  0.0043  0.0049 </r>
        <r>  0.0002  0.0049  0.0003 </r>
        <r>  0.0004  0.0068  0.0006 </r>
        <r>  0.0004  0.0083  0.0004 </r>
        <r>  0.0001  0.0045  0.0002 </r>
        <r>  0.0025  0.0051  0.0043 </r>
        <r>  0.0001  0.0062  0.0003 </r>
        <r>  0.0042  0.0065  0.0038 </r>
        <r>  0.0001  0.0062  0.0003 </r>
        <r>  0.0002  0.0030  0.0003 </r>
        <r>  0.0040  0.0027  0.0025 </r>
        <r>  0.0038  0.0016  0.0015 </r>
        <r>  0.0025  0.0051  0.0022 </r>
        <r>  0.0007  0.0039  0.0008 </r>
        <r>  0.0050  0.0029  0.0025 </r>
        <r>  0.0020  0.0041  0.0017 </r>
        <r>  0.0028  0.0014  0.0015 </r>
       </set>
       <set comment="band 103">
        <r>  0.0000  0.0005  0.0034 </r>
        <r>  0.0000  0.0001  0.0505 </r>
        <r>  0.0000  0.0008  0.0024 </r>
        <r>  0.0057  0.0027  0.0480 </r>
        <r>  0.0001  0.0078  0.0005 </r>
        <r>  0.0000  0.0020  0.0003 </r>
        <r>  0.0000  0.0019  0.0003 </r>
        <r>  0.0001  0.0079  0.0005 </r>
        <r>  0.0004  0.0145  0.0066 </r>
        <r>  0.0000  0.0020  0.0005 </r>
        <r>  0.0008  0.0098  0.0065 </r>
        <r>  0.0000  0.0006  0.0001 </r>
        <r>  0.0009  0.0046  0.0011 </r>
        <r>  0.0015  0.0050  0.0018 </r>
        <r>  0.0000  0.0008  0.0011 </r>
        <r>  0.0004  0.0024  0.0019 </r>
        <r>  0.0009  0.0045  0.0011 </r>
        <r>  0.0015  0.0050  0.0018 </r>
        <r>  0.0004  0.0025  0.0019 </r>
        <r>  0.0000  0.0008  0.0010 </r>
       </set>
       <set comment="band 104">
        <r>  0.0057  0.0027  0.0480 </r>
        <r>  0.0000  0.0008  0.0024 </r>
        <r>  0.0000  0.0001  0.0505 </r>
        <r>  0.0000  0.0005  0.0034 </r>
        <r>  0.0001  0.0079  0.0005 </r>
        <r>  0.0000  0.0019  0.0003 </r>
        <r>  0.0000  0.0020  0.0003 </r>
        <r>  0.0001  0.0078  0.0005 </r>
        <r>  0.0000  0.0006  0.0001 </r>
        <r>  0.0008  0.0098  0.0065 </r>
        <r>  0.0000  0.0020  0.0005 </r>
        <r>  0.0004  0.0145  0.0066 </r>
        <r>  0.0004  0.0024  0.0019 </r>
        <r>  0.0000  0.0008  0.0011 </r>
        <r>  0.0015  0.0050  0.0018 </r>
        <r>  0.0009  0.0046  0.0011 </r>
        <r>  0.0004  0.0025  0.0019 </r>
        <r>  0.0000  0.0008  0.0010 </r>
        <r>  0.0009  0.0045  0.0011 </r>
        <r>  0.0015  0.0050  0.0018 </r>
       </set>
       <set comment="band 105">
        <r>  0.0005  0.0005  0.0301 </r>
        <r>  0.0022  0.0020  0.0278 </r>
        <r>  0.0013  0.0014  0.0264 </r>
        <r>  0.0008  0.0005  0.0310 </r>
        <r>  0.0000  0.0012  0.0013 </r>
        <r>  0.0006  0.0037  0.0005 </r>
        <r>  0.0000  0.0084  0.0012 </r>
        <r>  0.0001  0.0067  0.0006 </r>
        <r>  0.0006  0.0024  0.0022 </r>
        <r>  0.0001  0.0034  0.0017 </r>
        <r>  0.0002  0.0047  0.0020 </r>
        <r>  0.0003  0.0017  0.0016 </r>
        <r>  0.0021  0.0019  0.0028 </r>
        <r>  0.0026  0.0015  0.0033 </r>
        <r>  0.0000  0.0019  0.0019 </r>
        <r>  0.0007  0.0043  0.0033 </r>
        <r>  0.0011  0.0029  0.0031 </r>
        <r>  0.0002  0.0022  0.0018 </r>
        <r>  0.0017  0.0033  0.0029 </r>
        <r>  0.0024  0.0012  0.0034 </r>
       </set>
       <set comment="band 106">
        <r>  0.0008  0.0005  0.0310 </r>
        <r>  0.0013  0.0014  0.0264 </r>
        <r>  0.0022  0.0020  0.0278 </r>
        <r>  0.0005  0.0005  0.0301 </r>
        <r>  0.0001  0.0067  0.0006 </r>
        <r>  0.0000  0.0084  0.0012 </r>
        <r>  0.0006  0.0037  0.0005 </r>
        <r>  0.0000  0.0012  0.0013 </r>
        <r>  0.0003  0.0017  0.0016 </r>
        <r>  0.0002  0.0047  0.0020 </r>
        <r>  0.0001  0.0034  0.0017 </r>
        <r>  0.0006  0.0024  0.0022 </r>
        <r>  0.0007  0.0043  0.0033 </r>
        <r>  0.0000  0.0019  0.0019 </r>
        <r>  0.0026  0.0015  0.0033 </r>
        <r>  0.0021  0.0019  0.0028 </r>
        <r>  0.0017  0.0033  0.0029 </r>
        <r>  0.0024  0.0012  0.0034 </r>
        <r>  0.0011  0.0029  0.0031 </r>
        <r>  0.0002  0.0022  0.0018 </r>
       </set>
       <set comment="band 107">
        <r>  0.0000  0.0003  0.0121 </r>
        <r>  0.0011  0.0062  0.0340 </r>
        <r>  0.0000  0.0007  0.0227 </r>
        <r>  0.0013  0.0048  0.0417 </r>
        <r>  0.0000  0.0035  0.0006 </r>
        <r>  0.0001  0.0057  0.0006 </r>
        <r>  0.0001  0.0052  0.0011 </r>
        <r>  0.0000  0.0039  0.0006 </r>
        <r>  0.0054  0.0027  0.0053 </r>
        <r>  0.0000  0.0018  0.0007 </r>
        <r>  0.0000  0.0060  0.0040 </r>
        <r>  0.0002  0.0039  0.0016 </r>
        <r>  0.0009  0.0013  0.0015 </r>
        <r>  0.0002  0.0033  0.0033 </r>
        <r>  0.0005  0.0031  0.0013 </r>
        <r>  0.0023  0.0039  0.0039 </r>
        <r>  0.0016  0.0017  0.0017 </r>
        <r>  0.0004  0.0037  0.0039 </r>
        <r>  0.0017  0.0035  0.0037 </r>
        <r>  0.0002  0.0028  0.0007 </r>
       </set>
       <set comment="band 108">
        <r>  0.0013  0.0048  0.0417 </r>
        <r>  0.0000  0.0007  0.0227 </r>
        <r>  0.0011  0.0062  0.0340 </r>
        <r>  0.0000  0.0003  0.0121 </r>
        <r>  0.0000  0.0039  0.0006 </r>
        <r>  0.0001  0.0052  0.0011 </r>
        <r>  0.0001  0.0057  0.0006 </r>
        <r>  0.0000  0.0035  0.0006 </r>
        <r>  0.0002  0.0039  0.0016 </r>
        <r>  0.0000  0.0060  0.0040 </r>
        <r>  0.0000  0.0018  0.0007 </r>
        <r>  0.0054  0.0027  0.0053 </r>
        <r>  0.0023  0.0039  0.0039 </r>
        <r>  0.0005  0.0031  0.0013 </r>
        <r>  0.0002  0.0033  0.0033 </r>
        <r>  0.0009  0.0013  0.0015 </r>
        <r>  0.0017  0.0035  0.0037 </r>
        <r>  0.0002  0.0028  0.0007 </r>
        <r>  0.0016  0.0017  0.0017 </r>
        <r>  0.0004  0.0037  0.0039 </r>
       </set>
       <set comment="band 109">
        <r>  0.0001  0.0012  0.0232 </r>
        <r>  0.0009  0.0018  0.0203 </r>
        <r>  0.0001  0.0003  0.0347 </r>
        <r>  0.0008  0.0048  0.0497 </r>
        <r>  0.0001  0.0041  0.0007 </r>
        <r>  0.0000  0.0067  0.0007 </r>
        <r>  0.0000  0.0047  0.0017 </r>
        <r>  0.0002  0.0083  0.0010 </r>
        <r>  0.0002  0.0035  0.0003 </r>
        <r>  0.0002  0.0031  0.0007 </r>
        <r>  0.0023  0.0089  0.0036 </r>
        <r>  0.0000  0.0018  0.0017 </r>
        <r>  0.0004  0.0026  0.0017 </r>
        <r>  0.0006  0.0034  0.0053 </r>
        <r>  0.0008  0.0023  0.0028 </r>
        <r>  0.0005  0.0022  0.0040 </r>
        <r>  0.0001  0.0031  0.0014 </r>
        <r>  0.0002  0.0037  0.0039 </r>
        <r>  0.0008  0.0017  0.0044 </r>
        <r>  0.0013  0.0020  0.0043 </r>
       </set>
       <set comment="band 110">
        <r>  0.0008  0.0048  0.0497 </r>
        <r>  0.0001  0.0003  0.0347 </r>
        <r>  0.0009  0.0018  0.0203 </r>
        <r>  0.0001  0.0012  0.0232 </r>
        <r>  0.0002  0.0083  0.0010 </r>
        <r>  0.0000  0.0047  0.0017 </r>
        <r>  0.0000  0.0067  0.0007 </r>
        <r>  0.0001  0.0041  0.0007 </r>
        <r>  0.0000  0.0018  0.0017 </r>
        <r>  0.0023  0.0089  0.0036 </r>
        <r>  0.0002  0.0031  0.0007 </r>
        <r>  0.0002  0.0035  0.0003 </r>
        <r>  0.0005  0.0022  0.0040 </r>
        <r>  0.0008  0.0023  0.0028 </r>
        <r>  0.0006  0.0034  0.0053 </r>
        <r>  0.0004  0.0026  0.0017 </r>
        <r>  0.0008  0.0017  0.0044 </r>
        <r>  0.0013  0.0020  0.0043 </r>
        <r>  0.0001  0.0031  0.0014 </r>
        <r>  0.0002  0.0037  0.0039 </r>
       </set>
       <set comment="band 111">
        <r>  0.0025  0.0018  0.0362 </r>
        <r>  0.0022  0.0019  0.0288 </r>
        <r>  0.0013  0.0016  0.0232 </r>
        <r>  0.0044  0.0024  0.0286 </r>
        <r>  0.0000  0.0097  0.0010 </r>
        <r>  0.0001  0.0004  0.0019 </r>
        <r>  0.0000  0.0094  0.0004 </r>
        <r>  0.0000  0.0050  0.0018 </r>
        <r>  0.0003  0.0096  0.0016 </r>
        <r>  0.0003  0.0016  0.0027 </r>
        <r>  0.0005  0.0027  0.0024 </r>
        <r>  0.0002  0.0056  0.0012 </r>
        <r>  0.0013  0.0022  0.0047 </r>
        <r>  0.0003  0.0059  0.0024 </r>
        <r>  0.0012  0.0012  0.0048 </r>
        <r>  0.0003  0.0034  0.0017 </r>
        <r>  0.0003  0.0026  0.0021 </r>
        <r>  0.0012  0.0021  0.0054 </r>
        <r>  0.0014  0.0030  0.0043 </r>
        <r>  0.0003  0.0050  0.0017 </r>
       </set>
       <set comment="band 112">
        <r>  0.0044  0.0024  0.0286 </r>
        <r>  0.0013  0.0016  0.0230 </r>
        <r>  0.0022  0.0019  0.0290 </r>
        <r>  0.0025  0.0018  0.0361 </r>
        <r>  0.0000  0.0050  0.0018 </r>
        <r>  0.0000  0.0094  0.0004 </r>
        <r>  0.0001  0.0004  0.0019 </r>
        <r>  0.0000  0.0097  0.0010 </r>
        <r>  0.0002  0.0056  0.0012 </r>
        <r>  0.0005  0.0027  0.0024 </r>
        <r>  0.0003  0.0016  0.0027 </r>
        <r>  0.0003  0.0096  0.0016 </r>
        <r>  0.0003  0.0034  0.0017 </r>
        <r>  0.0012  0.0012  0.0047 </r>
        <r>  0.0003  0.0059  0.0023 </r>
        <r>  0.0013  0.0022  0.0047 </r>
        <r>  0.0014  0.0030  0.0043 </r>
        <r>  0.0003  0.0050  0.0017 </r>
        <r>  0.0003  0.0026  0.0021 </r>
        <r>  0.0012  0.0021  0.0054 </r>
       </set>
      </set>
     </set>
    </set>
   </array>
  </projected>
 </calculation>
 <structure name="finalpos" >
  <crystal>
   <varray name="basis" >
    <v>       8.67261813       0.00000000       0.00000000 </v>
    <v>       0.00000000      11.82144586       0.00000000 </v>
    <v>       0.00000000       0.00000000       7.82541123 </v>
   </varray>
   <i name="volume">    802.28374102 </i>
   <varray name="rec_basis" >
    <v>       0.11530543       0.00000000       0.00000000 </v>
    <v>       0.00000000       0.08459202       0.00000000 </v>
    <v>       0.00000000       0.00000000       0.12778881 </v>
   </varray>
  </crystal>
  <varray name="positions" >
   <v>       0.07222032       0.25000000       0.47087180 </v>
   <v>       0.42777968       0.75000000       0.97087180 </v>
   <v>       0.57222032       0.25000000       0.02912820 </v>
   <v>       0.92777968       0.75000000       0.52912820 </v>
   <v>       0.00000000       0.00000000       0.00000000 </v>
   <v>       0.50000000       0.00000000       0.50000000 </v>
   <v>       0.50000000       0.50000000       0.50000000 </v>
   <v>       0.00000000       0.50000000       0.00000000 </v>
   <v>       0.51077651       0.75000000       0.43755738 </v>
   <v>       0.98922349       0.25000000       0.93755738 </v>
   <v>       0.01077651       0.75000000       0.06244262 </v>
   <v>       0.48922349       0.25000000       0.56244262 </v>
   <v>       0.30097089       0.46626799       0.18877788 </v>
   <v>       0.19902911       0.53373201       0.68877788 </v>
   <v>       0.80097089       0.03373201       0.31122212 </v>
   <v>       0.69902911       0.96626799       0.81122212 </v>
   <v>       0.30097089       0.03373201       0.18877788 </v>
   <v>       0.19902911       0.96626799       0.68877788 </v>
   <v>       0.69902911       0.53373201       0.81122212 </v>
   <v>       0.80097089       0.46626799       0.31122212 </v>
  </varray>
 </structure>
</modeling>
