CsPbBr3 cubic bulk                      
           1
     8.672618    0.000000    0.000000
     0.000000   11.821446    0.000000
     0.000000    0.000000    7.825411
   Cs   Pb   Br
   4   4  12
Direct configuration=     1
   0.07222032  0.25000000  0.47087180
   0.42777968  0.75000000  0.97087180
   0.57222032  0.25000000  0.02912820
   0.92777968  0.75000000  0.52912820
   0.00000000  0.00000000  0.00000000
   0.50000000  0.00000000  0.50000000
   0.50000000  0.50000000  0.50000000
   0.00000000  0.50000000  0.00000000
   0.51077651  0.75000000  0.43755738
   0.98922349  0.25000000  0.93755738
   0.01077651  0.75000000  0.06244262
   0.48922349  0.25000000  0.56244262
   0.30097089  0.46626799  0.18877788
   0.19902911  0.53373201  0.68877788
   0.80097089  0.03373201  0.31122212
   0.69902911  0.96626799  0.81122212
   0.30097089  0.03373201  0.18877788
   0.19902911  0.96626799  0.68877788
   0.69902911  0.53373201  0.81122212
   0.80097089  0.46626799  0.31122212
