  39  39   1   0
  0.4103261E+02  0.1166835E-08  0.1176381E-08  0.1166835E-08  0.5000000E-15
   1.0000000000000000E-004
  CAR 
 CsPbBr3 cubic bulk                      
      7.97281817    -22.92582349  301      0.27390663      1.00000000
    -22.926  0.0000E+00  0.0000E+00
    -22.823  0.0000E+00  0.0000E+00
    -22.720  0.0000E+00  0.0000E+00
    -22.617  0.0000E+00  0.0000E+00
    -22.514  0.0000E+00  0.0000E+00
    -22.411  0.0000E+00  0.0000E+00
    -22.308  0.0000E+00  0.0000E+00
    -22.205  0.0000E+00  0.0000E+00
    -22.102  0.0000E+00  0.0000E+00
    -21.999  0.0000E+00  0.0000E+00
    -21.896  0.0000E+00  0.0000E+00
    -21.793  0.0000E+00  0.0000E+00
    -21.690  0.0000E+00  0.0000E+00
    -21.587  0.0000E+00  0.0000E+00
    -21.484  0.1942E+02  0.2000E+01
    -21.381  0.0000E+00  0.2000E+01
    -21.278  0.0000E+00  0.2000E+01
    -21.175  0.0000E+00  0.2000E+01
    -21.072  0.0000E+00  0.2000E+01
    -20.969  0.3906E+00  0.2040E+01
    -20.866  0.3938E+02  0.1006E+02
    -20.763  0.1942E+02  0.1400E+02
    -20.660  0.0000E+00  0.1400E+02
    -20.557  0.0000E+00  0.1400E+02
    -20.454  0.0000E+00  0.1400E+02
    -20.351  0.0000E+00  0.1400E+02
    -20.248  0.0000E+00  0.1400E+02
    -20.145  0.0000E+00  0.1400E+02
    -20.042  0.0000E+00  0.1400E+02
    -19.939  0.0000E+00  0.1400E+02
    -19.836  0.0000E+00  0.1400E+02
    -19.733  0.0000E+00  0.1400E+02
    -19.630  0.0000E+00  0.1400E+02
    -19.527  0.0000E+00  0.1400E+02
    -19.424  0.0000E+00  0.1400E+02
    -19.321  0.0000E+00  0.1400E+02
    -19.218  0.0000E+00  0.1400E+02
    -19.115  0.0000E+00  0.1400E+02
    -19.012  0.0000E+00  0.1400E+02
    -18.909  0.0000E+00  0.1400E+02
    -18.806  0.0000E+00  0.1400E+02
    -18.703  0.0000E+00  0.1400E+02
    -18.600  0.0000E+00  0.1400E+02
    -18.497  0.0000E+00  0.1400E+02
    -18.394  0.0000E+00  0.1400E+02
    -18.291  0.0000E+00  0.1400E+02
    -18.188  0.0000E+00  0.1400E+02
    -18.085  0.0000E+00  0.1400E+02
    -17.982  0.0000E+00  0.1400E+02
    -17.879  0.0000E+00  0.1400E+02
    -17.776  0.0000E+00  0.1400E+02
    -17.673  0.0000E+00  0.1400E+02
    -17.570  0.0000E+00  0.1400E+02
    -17.467  0.0000E+00  0.1400E+02
    -17.364  0.0000E+00  0.1400E+02
    -17.261  0.0000E+00  0.1400E+02
    -17.158  0.0000E+00  0.1400E+02
    -17.055  0.0000E+00  0.1400E+02
    -16.952  0.0000E+00  0.1400E+02
    -16.849  0.0000E+00  0.1400E+02
    -16.746  0.4135E+02  0.1826E+02
    -16.643  0.8703E+02  0.3171E+02
    -16.540  0.2461E+03  0.6935E+02
    -16.437  0.2330E+03  0.9400E+02
    -16.334  0.0000E+00  0.9400E+02
    -16.231  0.0000E+00  0.9400E+02
    -16.128  0.0000E+00  0.9400E+02
    -16.025  0.0000E+00  0.9400E+02
    -15.922  0.0000E+00  0.9400E+02
    -15.819  0.0000E+00  0.9400E+02
    -15.716  0.0000E+00  0.9400E+02
    -15.613  0.0000E+00  0.9400E+02
    -15.510  0.0000E+00  0.9400E+02
    -15.407  0.0000E+00  0.9400E+02
    -15.304  0.0000E+00  0.9400E+02
    -15.201  0.0000E+00  0.9400E+02
    -15.098  0.0000E+00  0.9400E+02
    -14.995  0.0000E+00  0.9400E+02
    -14.892  0.0000E+00  0.9400E+02
    -14.789  0.0000E+00  0.9400E+02
    -14.686  0.0000E+00  0.9400E+02
    -14.583  0.9111E+01  0.9494E+02
    -14.480  0.1390E+02  0.9693E+02
    -14.377  0.1306E+02  0.9935E+02
    -14.274  0.4929E+02  0.1053E+03
    -14.171  0.5355E+02  0.1130E+03
    -14.068  0.7093E+02  0.1226E+03
    -13.965  0.8571E+02  0.1323E+03
    -13.862  0.5621E+02  0.1398E+03
    -13.759  0.1456E+02  0.1420E+03
    -13.656  0.0000E+00  0.1420E+03
    -13.553  0.0000E+00  0.1420E+03
    -13.450  0.0000E+00  0.1420E+03
    -13.347  0.0000E+00  0.1420E+03
    -13.244  0.0000E+00  0.1420E+03
    -13.141  0.0000E+00  0.1420E+03
    -13.038  0.0000E+00  0.1420E+03
    -12.935  0.0000E+00  0.1420E+03
    -12.832  0.0000E+00  0.1420E+03
    -12.729  0.0000E+00  0.1420E+03
    -12.626  0.0000E+00  0.1420E+03
    -12.523  0.0000E+00  0.1420E+03
    -12.420  0.0000E+00  0.1420E+03
    -12.317  0.0000E+00  0.1420E+03
    -12.214  0.0000E+00  0.1420E+03
    -12.111  0.0000E+00  0.1420E+03
    -12.008  0.0000E+00  0.1420E+03
    -11.905  0.0000E+00  0.1420E+03
    -11.802  0.0000E+00  0.1420E+03
    -11.699  0.0000E+00  0.1420E+03
    -11.596  0.0000E+00  0.1420E+03
    -11.493  0.0000E+00  0.1420E+03
    -11.390  0.0000E+00  0.1420E+03
    -11.287  0.0000E+00  0.1420E+03
    -11.184  0.0000E+00  0.1420E+03
    -11.081  0.0000E+00  0.1420E+03
    -10.978  0.0000E+00  0.1420E+03
    -10.875  0.0000E+00  0.1420E+03
    -10.772  0.0000E+00  0.1420E+03
    -10.669  0.0000E+00  0.1420E+03
    -10.566  0.0000E+00  0.1420E+03
    -10.463  0.0000E+00  0.1420E+03
    -10.360  0.0000E+00  0.1420E+03
    -10.257  0.0000E+00  0.1420E+03
    -10.154  0.0000E+00  0.1420E+03
    -10.051  0.0000E+00  0.1420E+03
     -9.948  0.0000E+00  0.1420E+03
     -9.845  0.0000E+00  0.1420E+03
     -9.742  0.0000E+00  0.1420E+03
     -9.639  0.0000E+00  0.1420E+03
     -9.536  0.0000E+00  0.1420E+03
     -9.433  0.0000E+00  0.1420E+03
     -9.330  0.0000E+00  0.1420E+03
     -9.227  0.0000E+00  0.1420E+03
     -9.124  0.0000E+00  0.1420E+03
     -9.021  0.0000E+00  0.1420E+03
     -8.918  0.0000E+00  0.1420E+03
     -8.815  0.0000E+00  0.1420E+03
     -8.712  0.0000E+00  0.1420E+03
     -8.609  0.0000E+00  0.1420E+03
     -8.506  0.0000E+00  0.1420E+03
     -8.403  0.5697E-02  0.1420E+03
     -8.300  0.1347E-15  0.1422E+03
     -8.197  0.6080E+01  0.1429E+03
     -8.094  0.9295E+01  0.1440E+03
     -7.991  0.1613E+02  0.1457E+03
     -7.888  0.3901E+02  0.1510E+03
     -7.785  0.1697E+02  0.1537E+03
     -7.682  0.1296E+02  0.1551E+03
     -7.579  0.1958E+02  0.1580E+03
     -7.477  0.7282E+01  0.1590E+03
     -7.374  0.4601E+02  0.1637E+03
     -7.271  0.1921E+03  0.1873E+03
     -7.168  0.7323E+02  0.1983E+03
     -7.065  0.7281E+01  0.1992E+03
     -6.962  0.4854E+01  0.1998E+03
     -6.859  0.0000E+00  0.1998E+03
     -6.756  0.2412E+01  0.2000E+03
     -6.653  0.0000E+00  0.2000E+03
     -6.550  0.0000E+00  0.2000E+03
     -6.447  0.0000E+00  0.2000E+03
     -6.344  0.0000E+00  0.2000E+03
     -6.241  0.0000E+00  0.2000E+03
     -6.138  0.0000E+00  0.2000E+03
     -6.035  0.0000E+00  0.2000E+03
     -5.932  0.0000E+00  0.2000E+03
     -5.829  0.0000E+00  0.2000E+03
     -5.726  0.0000E+00  0.2000E+03
     -5.623  0.0000E+00  0.2000E+03
     -5.520  0.0000E+00  0.2000E+03
     -5.417  0.0000E+00  0.2000E+03
     -5.314  0.0000E+00  0.2000E+03
     -5.211  0.0000E+00  0.2000E+03
     -5.108  0.0000E+00  0.2000E+03
     -5.005  0.0000E+00  0.2000E+03
     -4.902  0.0000E+00  0.2000E+03
     -4.799  0.0000E+00  0.2000E+03
     -4.696  0.0000E+00  0.2000E+03
     -4.593  0.0000E+00  0.2000E+03
     -4.490  0.0000E+00  0.2000E+03
     -4.387  0.0000E+00  0.2000E+03
     -4.284  0.0000E+00  0.2000E+03
     -4.181  0.0000E+00  0.2000E+03
     -4.078  0.0000E+00  0.2000E+03
     -3.975  0.0000E+00  0.2000E+03
     -3.872  0.0000E+00  0.2000E+03
     -3.769  0.0000E+00  0.2000E+03
     -3.666  0.0000E+00  0.2000E+03
     -3.563  0.2145E+01  0.2002E+03
     -3.460  0.1305E+02  0.2023E+03
     -3.357  0.2657E+02  0.2055E+03
     -3.254  0.2252E+02  0.2081E+03
     -3.151  0.2157E+02  0.2110E+03
     -3.048  0.2865E+01  0.2118E+03
     -2.945  0.1199E+02  0.2132E+03
     -2.842  0.1641E+02  0.2152E+03
     -2.739  0.1825E+02  0.2181E+03
     -2.636  0.2732E+02  0.2216E+03
     -2.533  0.3191E+02  0.2260E+03
     -2.430  0.4279E+02  0.2317E+03
     -2.327  0.2583E+02  0.2349E+03
     -2.224  0.3002E+02  0.2396E+03
     -2.121  0.2982E+02  0.2433E+03
     -2.018  0.1769E+02  0.2458E+03
     -1.915  0.4077E+02  0.2512E+03
     -1.812  0.4357E+02  0.2575E+03
     -1.709  0.4318E+02  0.2629E+03
     -1.606  0.7703E+02  0.2722E+03
     -1.503  0.9833E+02  0.2844E+03
     -1.400  0.7308E+02  0.2938E+03
     -1.297  0.8848E+02  0.3051E+03
     -1.194  0.9732E+02  0.3180E+03
     -1.091  0.6229E+02  0.3269E+03
     -0.988  0.1437E+02  0.3290E+03
     -0.885  0.3408E+02  0.3333E+03
     -0.782  0.1477E+02  0.3355E+03
     -0.679  0.1191E+02  0.3382E+03
     -0.576  0.1427E+02  0.3400E+03
     -0.473  0.4866E+01  0.3413E+03
     -0.370  0.2466E+01  0.3420E+03
     -0.267  0.2928E+01  0.3426E+03
     -0.164  0.4900E+01  0.3433E+03
     -0.061  0.2427E+01  0.3438E+03
      0.042  0.0000E+00  0.3438E+03
      0.145  0.5890E-01  0.3438E+03
      0.248  0.0000E+00  0.3440E+03
      0.351  0.0000E+00  0.3440E+03
      0.454  0.0000E+00  0.3440E+03
      0.557  0.0000E+00  0.3440E+03
      0.660  0.0000E+00  0.3440E+03
      0.763  0.0000E+00  0.3440E+03
      0.866  0.0000E+00  0.3440E+03
      0.969  0.0000E+00  0.3440E+03
      1.072  0.0000E+00  0.3440E+03
      1.175  0.0000E+00  0.3440E+03
      1.278  0.0000E+00  0.3440E+03
      1.381  0.0000E+00  0.3440E+03
      1.484  0.0000E+00  0.3440E+03
      1.587  0.0000E+00  0.3440E+03
      1.690  0.0000E+00  0.3440E+03
      1.793  0.0000E+00  0.3440E+03
      1.896  0.0000E+00  0.3440E+03
      1.999  0.0000E+00  0.3440E+03
      2.102  0.0000E+00  0.3440E+03
      2.205  0.0000E+00  0.3440E+03
      2.308  0.0000E+00  0.3440E+03
      2.411  0.0000E+00  0.3440E+03
      2.514  0.0000E+00  0.3440E+03
      2.617  0.8866E+00  0.3441E+03
      2.720  0.4892E+01  0.3448E+03
      2.823  0.1079E+02  0.3466E+03
      2.926  0.2260E+02  0.3493E+03
      3.029  0.9709E+01  0.3513E+03
      3.132  0.2267E+02  0.3536E+03
      3.235  0.9795E+01  0.3550E+03
      3.338  0.4856E+01  0.3560E+03
      3.441  0.4853E+01  0.3565E+03
      3.544  0.4568E-03  0.3565E+03
      3.647  0.4852E+01  0.3570E+03
      3.750  0.5139E+01  0.3575E+03
      3.853  0.1062E-01  0.3578E+03
      3.956  0.7761E+01  0.3588E+03
      4.059  0.1568E+02  0.3606E+03
      4.162  0.1053E+02  0.3623E+03
      4.265  0.2526E+02  0.3656E+03
      4.368  0.2675E+02  0.3695E+03
      4.471  0.3232E+02  0.3733E+03
      4.574  0.1965E+02  0.3758E+03
      4.677  0.1935E+02  0.3785E+03
      4.780  0.7393E+01  0.3798E+03
      4.883  0.4854E+01  0.3805E+03
      4.986  0.2427E+01  0.3808E+03
      5.089  0.1686E-09  0.3808E+03
      5.192  0.2427E+01  0.3810E+03
      5.295  0.5517E+01  0.3816E+03
      5.398  0.1470E+02  0.3833E+03
      5.501  0.2269E+02  0.3863E+03
      5.604  0.1214E+02  0.3883E+03
      5.707  0.2151E+02  0.3905E+03
      5.810  0.1670E+02  0.3927E+03
      5.913  0.1032E+02  0.3938E+03
      6.016  0.2348E+02  0.3972E+03
      6.119  0.2204E+02  0.4008E+03
      6.222  0.1462E+02  0.4025E+03
      6.325  0.3482E+02  0.4066E+03
      6.428  0.3634E+02  0.4112E+03
      6.531  0.3162E+02  0.4150E+03
      6.634  0.2427E+01  0.4160E+03
      6.737  0.0000E+00  0.4160E+03
      6.840  0.0000E+00  0.4160E+03
      6.943  0.0000E+00  0.4160E+03
      7.046  0.0000E+00  0.4160E+03
      7.149  0.0000E+00  0.4160E+03
      7.252  0.0000E+00  0.4160E+03
      7.355  0.0000E+00  0.4160E+03
      7.458  0.0000E+00  0.4160E+03
      7.561  0.0000E+00  0.4160E+03
      7.664  0.0000E+00  0.4160E+03
      7.767  0.0000E+00  0.4160E+03
      7.870  0.0000E+00  0.4160E+03
      7.973  0.0000E+00  0.4160E+03
      7.97281817    -22.92582349  301      0.27390663      1.00000000
    -22.926  0.0000E+00  0.0000E+00  0.0000E+00
    -22.823  0.0000E+00  0.0000E+00  0.0000E+00
    -22.720  0.0000E+00  0.0000E+00  0.0000E+00
    -22.617  0.0000E+00  0.0000E+00  0.0000E+00
    -22.514  0.0000E+00  0.0000E+00  0.0000E+00
    -22.411  0.0000E+00  0.0000E+00  0.0000E+00
    -22.308  0.0000E+00  0.0000E+00  0.0000E+00
    -22.205  0.0000E+00  0.0000E+00  0.0000E+00
    -22.102  0.0000E+00  0.0000E+00  0.0000E+00
    -21.999  0.0000E+00  0.0000E+00  0.0000E+00
    -21.896  0.0000E+00  0.0000E+00  0.0000E+00
    -21.793  0.0000E+00  0.0000E+00  0.0000E+00
    -21.690  0.0000E+00  0.0000E+00  0.0000E+00
    -21.587  0.0000E+00  0.0000E+00  0.0000E+00
    -21.484  0.1497E-08  0.2553E-08  0.1022E-09
    -21.381  0.0000E+00  0.0000E+00  0.0000E+00
    -21.278  0.0000E+00  0.0000E+00  0.0000E+00
    -21.175  0.0000E+00  0.0000E+00  0.0000E+00
    -21.072  0.0000E+00  0.0000E+00  0.0000E+00
    -20.969  0.1493E-04  0.2319E-08  0.2958E-09
    -20.866  0.4867E+00  0.3757E-06  0.2697E-06
    -20.763  0.5498E-01  0.7588E-06  0.2358E-07
    -20.660  0.0000E+00  0.0000E+00  0.0000E+00
    -20.557  0.0000E+00  0.0000E+00  0.0000E+00
    -20.454  0.0000E+00  0.0000E+00  0.0000E+00
    -20.351  0.0000E+00  0.0000E+00  0.0000E+00
    -20.248  0.0000E+00  0.0000E+00  0.0000E+00
    -20.145  0.0000E+00  0.0000E+00  0.0000E+00
    -20.042  0.0000E+00  0.0000E+00  0.0000E+00
    -19.939  0.0000E+00  0.0000E+00  0.0000E+00
    -19.836  0.0000E+00  0.0000E+00  0.0000E+00
    -19.733  0.0000E+00  0.0000E+00  0.0000E+00
    -19.630  0.0000E+00  0.0000E+00  0.0000E+00
    -19.527  0.0000E+00  0.0000E+00  0.0000E+00
    -19.424  0.0000E+00  0.0000E+00  0.0000E+00
    -19.321  0.0000E+00  0.0000E+00  0.0000E+00
    -19.218  0.0000E+00  0.0000E+00  0.0000E+00
    -19.115  0.0000E+00  0.0000E+00  0.0000E+00
    -19.012  0.0000E+00  0.0000E+00  0.0000E+00
    -18.909  0.0000E+00  0.0000E+00  0.0000E+00
    -18.806  0.0000E+00  0.0000E+00  0.0000E+00
    -18.703  0.0000E+00  0.0000E+00  0.0000E+00
    -18.600  0.0000E+00  0.0000E+00  0.0000E+00
    -18.497  0.0000E+00  0.0000E+00  0.0000E+00
    -18.394  0.0000E+00  0.0000E+00  0.0000E+00
    -18.291  0.0000E+00  0.0000E+00  0.0000E+00
    -18.188  0.0000E+00  0.0000E+00  0.0000E+00
    -18.085  0.0000E+00  0.0000E+00  0.0000E+00
    -17.982  0.0000E+00  0.0000E+00  0.0000E+00
    -17.879  0.0000E+00  0.0000E+00  0.0000E+00
    -17.776  0.0000E+00  0.0000E+00  0.0000E+00
    -17.673  0.0000E+00  0.0000E+00  0.0000E+00
    -17.570  0.0000E+00  0.0000E+00  0.0000E+00
    -17.467  0.0000E+00  0.0000E+00  0.0000E+00
    -17.364  0.0000E+00  0.0000E+00  0.0000E+00
    -17.261  0.0000E+00  0.0000E+00  0.0000E+00
    -17.158  0.0000E+00  0.0000E+00  0.0000E+00
    -17.055  0.0000E+00  0.0000E+00  0.0000E+00
    -16.952  0.0000E+00  0.0000E+00  0.0000E+00
    -16.849  0.0000E+00  0.0000E+00  0.0000E+00
    -16.746  0.2931E-04  0.1225E-04  0.1487E-05
    -16.643  0.9393E-05  0.2702E-04  0.4405E-05
    -16.540  0.2572E-04  0.5800E-04  0.1337E-04
    -16.437  0.8983E-04  0.4502E-04  0.5145E-05
    -16.334  0.0000E+00  0.0000E+00  0.0000E+00
    -16.231  0.0000E+00  0.0000E+00  0.0000E+00
    -16.128  0.0000E+00  0.0000E+00  0.0000E+00
    -16.025  0.0000E+00  0.0000E+00  0.0000E+00
    -15.922  0.0000E+00  0.0000E+00  0.0000E+00
    -15.819  0.0000E+00  0.0000E+00  0.0000E+00
    -15.716  0.0000E+00  0.0000E+00  0.0000E+00
    -15.613  0.0000E+00  0.0000E+00  0.0000E+00
    -15.510  0.0000E+00  0.0000E+00  0.0000E+00
    -15.407  0.0000E+00  0.0000E+00  0.0000E+00
    -15.304  0.0000E+00  0.0000E+00  0.0000E+00
    -15.201  0.0000E+00  0.0000E+00  0.0000E+00
    -15.098  0.0000E+00  0.0000E+00  0.0000E+00
    -14.995  0.0000E+00  0.0000E+00  0.0000E+00
    -14.892  0.0000E+00  0.0000E+00  0.0000E+00
    -14.789  0.0000E+00  0.0000E+00  0.0000E+00
    -14.686  0.0000E+00  0.0000E+00  0.0000E+00
    -14.583  0.9996E-03  0.2588E-03  0.6717E-05
    -14.480  0.5840E-03  0.6592E-03  0.1256E-04
    -14.377  0.9674E-03  0.1456E-02  0.5086E-04
    -14.274  0.3480E-02  0.3247E-02  0.1423E-03
    -14.171  0.1649E-02  0.5301E-02  0.1401E-03
    -14.068  0.2325E-02  0.6223E-02  0.7420E-03
    -13.965  0.2944E-02  0.7136E-02  0.6363E-03
    -13.862  0.5346E-03  0.3077E-02  0.5308E-03
    -13.759  0.4864E-04  0.3002E-03  0.1381E-03
    -13.656  0.0000E+00  0.0000E+00  0.0000E+00
    -13.553  0.0000E+00  0.0000E+00  0.0000E+00
    -13.450  0.0000E+00  0.0000E+00  0.0000E+00
    -13.347  0.0000E+00  0.0000E+00  0.0000E+00
    -13.244  0.0000E+00  0.0000E+00  0.0000E+00
    -13.141  0.0000E+00  0.0000E+00  0.0000E+00
    -13.038  0.0000E+00  0.0000E+00  0.0000E+00
    -12.935  0.0000E+00  0.0000E+00  0.0000E+00
    -12.832  0.0000E+00  0.0000E+00  0.0000E+00
    -12.729  0.0000E+00  0.0000E+00  0.0000E+00
    -12.626  0.0000E+00  0.0000E+00  0.0000E+00
    -12.523  0.0000E+00  0.0000E+00  0.0000E+00
    -12.420  0.0000E+00  0.0000E+00  0.0000E+00
    -12.317  0.0000E+00  0.0000E+00  0.0000E+00
    -12.214  0.0000E+00  0.0000E+00  0.0000E+00
    -12.111  0.0000E+00  0.0000E+00  0.0000E+00
    -12.008  0.0000E+00  0.0000E+00  0.0000E+00
    -11.905  0.0000E+00  0.0000E+00  0.0000E+00
    -11.802  0.0000E+00  0.0000E+00  0.0000E+00
    -11.699  0.0000E+00  0.0000E+00  0.0000E+00
    -11.596  0.0000E+00  0.0000E+00  0.0000E+00
    -11.493  0.0000E+00  0.0000E+00  0.0000E+00
    -11.390  0.0000E+00  0.0000E+00  0.0000E+00
    -11.287  0.0000E+00  0.0000E+00  0.0000E+00
    -11.184  0.0000E+00  0.0000E+00  0.0000E+00
    -11.081  0.0000E+00  0.0000E+00  0.0000E+00
    -10.978  0.0000E+00  0.0000E+00  0.0000E+00
    -10.875  0.0000E+00  0.0000E+00  0.0000E+00
    -10.772  0.0000E+00  0.0000E+00  0.0000E+00
    -10.669  0.0000E+00  0.0000E+00  0.0000E+00
    -10.566  0.0000E+00  0.0000E+00  0.0000E+00
    -10.463  0.0000E+00  0.0000E+00  0.0000E+00
    -10.360  0.0000E+00  0.0000E+00  0.0000E+00
    -10.257  0.0000E+00  0.0000E+00  0.0000E+00
    -10.154  0.0000E+00  0.0000E+00  0.0000E+00
    -10.051  0.0000E+00  0.0000E+00  0.0000E+00
     -9.948  0.0000E+00  0.0000E+00  0.0000E+00
     -9.845  0.0000E+00  0.0000E+00  0.0000E+00
     -9.742  0.0000E+00  0.0000E+00  0.0000E+00
     -9.639  0.0000E+00  0.0000E+00  0.0000E+00
     -9.536  0.0000E+00  0.0000E+00  0.0000E+00
     -9.433  0.0000E+00  0.0000E+00  0.0000E+00
     -9.330  0.0000E+00  0.0000E+00  0.0000E+00
     -9.227  0.0000E+00  0.0000E+00  0.0000E+00
     -9.124  0.0000E+00  0.0000E+00  0.0000E+00
     -9.021  0.0000E+00  0.0000E+00  0.0000E+00
     -8.918  0.0000E+00  0.0000E+00  0.0000E+00
     -8.815  0.0000E+00  0.0000E+00  0.0000E+00
     -8.712  0.0000E+00  0.0000E+00  0.0000E+00
     -8.609  0.0000E+00  0.0000E+00  0.0000E+00
     -8.506  0.0000E+00  0.0000E+00  0.0000E+00
     -8.403  0.7762E-15  0.2438E-08  0.2432E-07
     -8.300  0.9856E-29  0.1640E-19  0.4441E-21
     -8.197  0.6834E-12  0.3056E-03  0.2416E-04
     -8.094  0.9023E-06  0.4374E-02  0.1756E-04
     -7.991  0.5429E-06  0.8509E-02  0.1831E-04
     -7.888  0.6836E-05  0.1687E-01  0.1406E-04
     -7.785  0.2107E-05  0.1499E-01  0.3690E-04
     -7.682  0.1076E-04  0.5697E-01  0.1810E-04
     -7.579  0.1389E-04  0.2335E-01  0.4898E-04
     -7.477  0.1194E-05  0.6369E-01  0.2613E-04
     -7.374  0.1381E-03  0.5346E+00  0.5031E-04
     -7.271  0.4583E-04  0.1402E+02  0.6799E-04
     -7.168  0.5921E-04  0.1859E+02  0.5348E-04
     -7.065  0.6066E-04  0.5612E-01  0.1502E-04
     -6.962  0.1923E-04  0.3588E-01  0.9608E-05
     -6.859  0.0000E+00  0.0000E+00  0.0000E+00
     -6.756  0.2969E-04  0.4671E-02  0.3800E-06
     -6.653  0.0000E+00  0.0000E+00  0.0000E+00
     -6.550  0.0000E+00  0.0000E+00  0.0000E+00
     -6.447  0.0000E+00  0.0000E+00  0.0000E+00
     -6.344  0.0000E+00  0.0000E+00  0.0000E+00
     -6.241  0.0000E+00  0.0000E+00  0.0000E+00
     -6.138  0.0000E+00  0.0000E+00  0.0000E+00
     -6.035  0.0000E+00  0.0000E+00  0.0000E+00
     -5.932  0.0000E+00  0.0000E+00  0.0000E+00
     -5.829  0.0000E+00  0.0000E+00  0.0000E+00
     -5.726  0.0000E+00  0.0000E+00  0.0000E+00
     -5.623  0.0000E+00  0.0000E+00  0.0000E+00
     -5.520  0.0000E+00  0.0000E+00  0.0000E+00
     -5.417  0.0000E+00  0.0000E+00  0.0000E+00
     -5.314  0.0000E+00  0.0000E+00  0.0000E+00
     -5.211  0.0000E+00  0.0000E+00  0.0000E+00
     -5.108  0.0000E+00  0.0000E+00  0.0000E+00
     -5.005  0.0000E+00  0.0000E+00  0.0000E+00
     -4.902  0.0000E+00  0.0000E+00  0.0000E+00
     -4.799  0.0000E+00  0.0000E+00  0.0000E+00
     -4.696  0.0000E+00  0.0000E+00  0.0000E+00
     -4.593  0.0000E+00  0.0000E+00  0.0000E+00
     -4.490  0.0000E+00  0.0000E+00  0.0000E+00
     -4.387  0.0000E+00  0.0000E+00  0.0000E+00
     -4.284  0.0000E+00  0.0000E+00  0.0000E+00
     -4.181  0.0000E+00  0.0000E+00  0.0000E+00
     -4.078  0.0000E+00  0.0000E+00  0.0000E+00
     -3.975  0.0000E+00  0.0000E+00  0.0000E+00
     -3.872  0.0000E+00  0.0000E+00  0.0000E+00
     -3.769  0.0000E+00  0.0000E+00  0.0000E+00
     -3.666  0.0000E+00  0.0000E+00  0.0000E+00
     -3.563  0.2019E-11  0.1205E-02  0.1261E-04
     -3.460  0.5919E-05  0.2904E-02  0.1788E-03
     -3.357  0.1074E-03  0.2194E-01  0.1571E-02
     -3.254  0.1353E-03  0.7271E-02  0.1389E-02
     -3.151  0.9768E-04  0.1723E-01  0.1778E-02
     -3.048  0.8916E-06  0.6808E-03  0.5508E-03
     -2.945  0.4803E-04  0.2985E-02  0.8596E-03
     -2.842  0.9780E-04  0.2044E-01  0.1053E-02
     -2.739  0.5489E-03  0.1741E-01  0.1090E-02
     -2.636  0.8785E-03  0.2196E-01  0.1301E-02
     -2.533  0.1152E-02  0.2502E-01  0.2877E-02
     -2.430  0.2014E-02  0.3148E-01  0.3110E-02
     -2.327  0.3915E-02  0.7018E-02  0.3608E-02
     -2.224  0.1554E-01  0.1956E-01  0.2085E-02
     -2.121  0.1979E-01  0.2841E-01  0.3155E-02
     -2.018  0.2985E-02  0.6208E-01  0.1374E-02
     -1.915  0.6233E-02  0.8133E-01  0.7175E-02
     -1.812  0.4599E-02  0.7186E-01  0.5598E-02
     -1.709  0.1465E-02  0.4621E-01  0.8456E-02
     -1.606  0.3548E-02  0.1010E+00  0.1679E-01
     -1.503  0.6098E-02  0.1546E+00  0.3029E-01
     -1.400  0.2414E-02  0.6877E-01  0.1650E-01
     -1.297  0.2510E-02  0.1045E+00  0.1968E-01
     -1.194  0.1200E-02  0.9438E-01  0.1833E-01
     -1.091  0.1231E-02  0.4528E-01  0.1077E-01
     -0.988  0.1255E-03  0.1833E-01  0.3408E-02
     -0.885  0.8462E-03  0.3413E-01  0.4332E-02
     -0.782  0.2882E-03  0.6742E-02  0.1334E-02
     -0.679  0.1540E-03  0.1571E-02  0.1239E-02
     -0.576  0.7868E-04  0.2016E-02  0.1270E-02
     -0.473  0.2089E-03  0.4054E-03  0.2094E-03
     -0.370  0.6019E-12  0.4530E-04  0.2094E-03
     -0.267  0.9263E-05  0.1026E-02  0.2063E-03
     -0.164  0.3186E-06  0.9664E-03  0.5208E-03
     -0.061  0.7403E-13  0.6400E-03  0.2286E-03
      0.042  0.0000E+00  0.0000E+00  0.0000E+00
      0.145  0.7553E-15  0.9772E-07  0.9245E-05
      0.248  0.0000E+00  0.0000E+00  0.0000E+00
      0.351  0.0000E+00  0.0000E+00  0.0000E+00
      0.454  0.0000E+00  0.0000E+00  0.0000E+00
      0.557  0.0000E+00  0.0000E+00  0.0000E+00
      0.660  0.0000E+00  0.0000E+00  0.0000E+00
      0.763  0.0000E+00  0.0000E+00  0.0000E+00
      0.866  0.0000E+00  0.0000E+00  0.0000E+00
      0.969  0.0000E+00  0.0000E+00  0.0000E+00
      1.072  0.0000E+00  0.0000E+00  0.0000E+00
      1.175  0.0000E+00  0.0000E+00  0.0000E+00
      1.278  0.0000E+00  0.0000E+00  0.0000E+00
      1.381  0.0000E+00  0.0000E+00  0.0000E+00
      1.484  0.0000E+00  0.0000E+00  0.0000E+00
      1.587  0.0000E+00  0.0000E+00  0.0000E+00
      1.690  0.0000E+00  0.0000E+00  0.0000E+00
      1.793  0.0000E+00  0.0000E+00  0.0000E+00
      1.896  0.0000E+00  0.0000E+00  0.0000E+00
      1.999  0.0000E+00  0.0000E+00  0.0000E+00
      2.102  0.0000E+00  0.0000E+00  0.0000E+00
      2.205  0.0000E+00  0.0000E+00  0.0000E+00
      2.308  0.0000E+00  0.0000E+00  0.0000E+00
      2.411  0.0000E+00  0.0000E+00  0.0000E+00
      2.514  0.0000E+00  0.0000E+00  0.0000E+00
      2.617  0.7803E-05  0.8584E-04  0.1468E-03
      2.720  0.3018E-04  0.2990E-03  0.1267E-02
      2.823  0.4482E-03  0.1914E-02  0.1285E-02
      2.926  0.8604E-03  0.2985E-02  0.3892E-02
      3.029  0.4362E-03  0.5360E-03  0.2312E-02
      3.132  0.8614E-03  0.3433E-02  0.4738E-02
      3.235  0.1739E-03  0.1073E-02  0.2064E-02
      3.338  0.1066E-03  0.1079E-02  0.4812E-03
      3.441  0.3194E-03  0.5374E-03  0.5969E-03
      3.544  0.2221E-07  0.2643E-07  0.1292E-07
      3.647  0.3062E-03  0.7771E-03  0.5959E-03
      3.750  0.3331E-04  0.1107E-02  0.1913E-03
      3.853  0.4153E-06  0.2001E-05  0.3651E-05
      3.956  0.8857E-10  0.3174E-03  0.1719E-02
      4.059  0.3800E-03  0.2052E-02  0.2454E-02
      4.162  0.8497E-04  0.5485E-03  0.3700E-02
      4.265  0.2298E-02  0.3572E-02  0.9816E-02
      4.368  0.1490E-02  0.3683E-02  0.9459E-02
      4.471  0.1581E-02  0.4266E-02  0.1625E-01
      4.574  0.3170E-03  0.4998E-02  0.1065E-01
      4.677  0.2528E-02  0.3045E-02  0.8366E-02
      4.780  0.6749E-03  0.1955E-02  0.2065E-02
      4.883  0.1345E-03  0.6674E-03  0.2502E-02
      4.986  0.3097E-03  0.4708E-03  0.9978E-03
      5.089  0.1536E-21  0.9735E-14  0.1897E-12
      5.192  0.2211E-11  0.1402E-03  0.2731E-02
      5.295  0.8398E-06  0.1295E-02  0.4125E-02
      5.398  0.1066E-01  0.4949E-02  0.8640E-02
      5.501  0.2219E-01  0.2948E-02  0.1391E-01
      5.604  0.1354E-01  0.5546E-02  0.9726E-02
      5.707  0.1001E-02  0.4430E-02  0.2586E-01
      5.810  0.6833E-02  0.2481E-02  0.4971E-01
      5.913  0.2205E-01  0.2490E-02  0.2322E-01
      6.016  0.1214E-01  0.2959E-01  0.9574E-01
      6.119  0.1253E-01  0.8205E-02  0.2510E+00
      6.222  0.3448E-01  0.9473E-02  0.1365E+00
      6.325  0.1403E-01  0.2332E-01  0.3997E+00
      6.428  0.1869E-01  0.2148E-01  0.3225E+00
      6.531  0.5900E-02  0.2399E-01  0.4348E+00
      6.634  0.8941E-03  0.8556E-03  0.9239E-02
      6.737  0.0000E+00  0.0000E+00  0.0000E+00
      6.840  0.0000E+00  0.0000E+00  0.0000E+00
      6.943  0.0000E+00  0.0000E+00  0.0000E+00
      7.046  0.0000E+00  0.0000E+00  0.0000E+00
      7.149  0.0000E+00  0.0000E+00  0.0000E+00
      7.252  0.0000E+00  0.0000E+00  0.0000E+00
      7.355  0.0000E+00  0.0000E+00  0.0000E+00
      7.458  0.0000E+00  0.0000E+00  0.0000E+00
      7.561  0.0000E+00  0.0000E+00  0.0000E+00
      7.664  0.0000E+00  0.0000E+00  0.0000E+00
      7.767  0.0000E+00  0.0000E+00  0.0000E+00
      7.870  0.0000E+00  0.0000E+00  0.0000E+00
      7.973  0.0000E+00  0.0000E+00  0.0000E+00
      7.97281817    -22.92582349  301      0.27390663      1.00000000
    -22.926  0.0000E+00  0.0000E+00  0.0000E+00
    -22.823  0.0000E+00  0.0000E+00  0.0000E+00
    -22.720  0.0000E+00  0.0000E+00  0.0000E+00
    -22.617  0.0000E+00  0.0000E+00  0.0000E+00
    -22.514  0.0000E+00  0.0000E+00  0.0000E+00
    -22.411  0.0000E+00  0.0000E+00  0.0000E+00
    -22.308  0.0000E+00  0.0000E+00  0.0000E+00
    -22.205  0.0000E+00  0.0000E+00  0.0000E+00
    -22.102  0.0000E+00  0.0000E+00  0.0000E+00
    -21.999  0.0000E+00  0.0000E+00  0.0000E+00
    -21.896  0.0000E+00  0.0000E+00  0.0000E+00
    -21.793  0.0000E+00  0.0000E+00  0.0000E+00
    -21.690  0.0000E+00  0.0000E+00  0.0000E+00
    -21.587  0.0000E+00  0.0000E+00  0.0000E+00
    -21.484  0.3255E-05  0.1064E-07  0.1848E-08
    -21.381  0.0000E+00  0.0000E+00  0.0000E+00
    -21.278  0.0000E+00  0.0000E+00  0.0000E+00
    -21.175  0.0000E+00  0.0000E+00  0.0000E+00
    -21.072  0.0000E+00  0.0000E+00  0.0000E+00
    -20.969  0.3341E-01  0.2667E-07  0.9944E-08
    -20.866  0.8727E-05  0.2173E-08  0.4845E-09
    -20.763  0.7904E-03  0.1815E-06  0.2732E-07
    -20.660  0.0000E+00  0.0000E+00  0.0000E+00
    -20.557  0.0000E+00  0.0000E+00  0.0000E+00
    -20.454  0.0000E+00  0.0000E+00  0.0000E+00
    -20.351  0.0000E+00  0.0000E+00  0.0000E+00
    -20.248  0.0000E+00  0.0000E+00  0.0000E+00
    -20.145  0.0000E+00  0.0000E+00  0.0000E+00
    -20.042  0.0000E+00  0.0000E+00  0.0000E+00
    -19.939  0.0000E+00  0.0000E+00  0.0000E+00
    -19.836  0.0000E+00  0.0000E+00  0.0000E+00
    -19.733  0.0000E+00  0.0000E+00  0.0000E+00
    -19.630  0.0000E+00  0.0000E+00  0.0000E+00
    -19.527  0.0000E+00  0.0000E+00  0.0000E+00
    -19.424  0.0000E+00  0.0000E+00  0.0000E+00
    -19.321  0.0000E+00  0.0000E+00  0.0000E+00
    -19.218  0.0000E+00  0.0000E+00  0.0000E+00
    -19.115  0.0000E+00  0.0000E+00  0.0000E+00
    -19.012  0.0000E+00  0.0000E+00  0.0000E+00
    -18.909  0.0000E+00  0.0000E+00  0.0000E+00
    -18.806  0.0000E+00  0.0000E+00  0.0000E+00
    -18.703  0.0000E+00  0.0000E+00  0.0000E+00
    -18.600  0.0000E+00  0.0000E+00  0.0000E+00
    -18.497  0.0000E+00  0.0000E+00  0.0000E+00
    -18.394  0.0000E+00  0.0000E+00  0.0000E+00
    -18.291  0.0000E+00  0.0000E+00  0.0000E+00
    -18.188  0.0000E+00  0.0000E+00  0.0000E+00
    -18.085  0.0000E+00  0.0000E+00  0.0000E+00
    -17.982  0.0000E+00  0.0000E+00  0.0000E+00
    -17.879  0.0000E+00  0.0000E+00  0.0000E+00
    -17.776  0.0000E+00  0.0000E+00  0.0000E+00
    -17.673  0.0000E+00  0.0000E+00  0.0000E+00
    -17.570  0.0000E+00  0.0000E+00  0.0000E+00
    -17.467  0.0000E+00  0.0000E+00  0.0000E+00
    -17.364  0.0000E+00  0.0000E+00  0.0000E+00
    -17.261  0.0000E+00  0.0000E+00  0.0000E+00
    -17.158  0.0000E+00  0.0000E+00  0.0000E+00
    -17.055  0.0000E+00  0.0000E+00  0.0000E+00
    -16.952  0.0000E+00  0.0000E+00  0.0000E+00
    -16.849  0.0000E+00  0.0000E+00  0.0000E+00
    -16.746  0.5716E-04  0.3473E-04  0.7847E-05
    -16.643  0.2768E-04  0.5188E-04  0.9118E-05
    -16.540  0.1086E-03  0.6209E-04  0.8079E-05
    -16.437  0.1146E-04  0.7130E-05  0.9379E-06
    -16.334  0.0000E+00  0.0000E+00  0.0000E+00
    -16.231  0.0000E+00  0.0000E+00  0.0000E+00
    -16.128  0.0000E+00  0.0000E+00  0.0000E+00
    -16.025  0.0000E+00  0.0000E+00  0.0000E+00
    -15.922  0.0000E+00  0.0000E+00  0.0000E+00
    -15.819  0.0000E+00  0.0000E+00  0.0000E+00
    -15.716  0.0000E+00  0.0000E+00  0.0000E+00
    -15.613  0.0000E+00  0.0000E+00  0.0000E+00
    -15.510  0.0000E+00  0.0000E+00  0.0000E+00
    -15.407  0.0000E+00  0.0000E+00  0.0000E+00
    -15.304  0.0000E+00  0.0000E+00  0.0000E+00
    -15.201  0.0000E+00  0.0000E+00  0.0000E+00
    -15.098  0.0000E+00  0.0000E+00  0.0000E+00
    -14.995  0.0000E+00  0.0000E+00  0.0000E+00
    -14.892  0.0000E+00  0.0000E+00  0.0000E+00
    -14.789  0.0000E+00  0.0000E+00  0.0000E+00
    -14.686  0.0000E+00  0.0000E+00  0.0000E+00
    -14.583  0.1245E-02  0.7653E-03  0.3261E-04
    -14.480  0.6962E-03  0.1162E-02  0.4218E-04
    -14.377  0.2508E-03  0.2457E-02  0.8246E-04
    -14.274  0.2311E-02  0.2951E-02  0.1655E-03
    -14.171  0.1772E-02  0.6889E-02  0.4434E-03
    -14.068  0.1368E-02  0.4167E-02  0.4619E-03
    -13.965  0.1434E-02  0.4172E-02  0.5896E-03
    -13.862  0.8950E-03  0.1983E-02  0.2015E-03
    -13.759  0.1359E-03  0.3766E-03  0.1485E-04