       N       E                     dE             d eps       ncg     rms          rms(c)
DAV:   1     0.136132914845E+04    0.13613E+04   -0.11050E+05  3464   0.972E+02
DAV:   2    -0.108978879532E+04   -0.24511E+04   -0.23693E+04  4080   0.300E+02
DAV:   3    -0.145264185561E+04   -0.36285E+03   -0.36072E+03  4408   0.137E+02
DAV:   4    -0.146521351196E+04   -0.12572E+02   -0.12531E+02  3944   0.336E+01
DAV:   5    -0.146576176868E+04   -0.54826E+00   -0.54796E+00  4432   0.554E+00    0.102E+01
DAV:   6    -0.138683312162E+04    0.78929E+02   -0.23257E+01  4328   0.331E+01    0.718E+00
DAV:   7    -0.138640558514E+04    0.42754E+00   -0.95463E+00  4144   0.586E+00    0.383E+00
DAV:   8    -0.138658309757E+04   -0.17751E+00   -0.41938E-01  3912   0.201E+00    0.224E+00
DAV:   9    -0.138666438812E+04   -0.81291E-01   -0.18019E-01  3696   0.134E+00    0.443E-01
DAV:  10    -0.138666765812E+04   -0.32700E-02   -0.17182E-02  4552   0.392E-01    0.299E-01
DAV:  11    -0.138667133378E+04   -0.36757E-02   -0.34903E-03  3672   0.171E-01    0.110E-01
DAV:  12    -0.138667395800E+04   -0.26242E-02   -0.29249E-03  3712   0.121E-01    0.800E-02
DAV:  13    -0.138667376084E+04    0.19717E-03   -0.90299E-04  4456   0.882E-02    0.345E-02
DAV:  14    -0.138667374879E+04    0.12042E-04   -0.20616E-04  3664   0.263E-02    0.179E-02
DAV:  15    -0.138667375339E+04   -0.45981E-05   -0.31988E-05  3712   0.133E-02    0.104E-02
DAV:  16    -0.138667381184E+04   -0.58452E-04   -0.28320E-05  3608   0.127E-02    0.504E-03
DAV:  17    -0.138667380919E+04    0.26592E-05   -0.49312E-06  3392   0.536E-03    0.305E-03
DAV:  18    -0.138667380678E+04    0.24011E-05   -0.54977E-07  2152   0.201E-03    0.160E-03
DAV:  19    -0.138667380866E+04   -0.18781E-05   -0.29340E-07  2136   0.181E-03    0.885E-04
DAV:  20    -0.138667380794E+04    0.72083E-06   -0.26289E-06  2352   0.210E-03
   1 F= -.13866738E+04 E0= -.13866738E+04  d E =-.414001E-60
