CsPbBr3 cubic bulk                      
           1
     8.420018    0.000000    8.077981
     0.000000   11.763808    0.000000
    -8.420018    0.000000    8.077981
   Cs   Pb   Br   Cs
   6   8  24   1
Direct configuration=     1
   0.26866100  0.25000100  0.19158700
   0.77117000  0.25000100  0.72091000
   0.21280400  0.75000100  0.75884200
   0.29696100  0.24999800  0.75242200
   0.79002500  0.24999700  0.22161200
   0.25604300  0.75000200  0.24920600
   0.99225700  0.99408200  0.99270300
   0.49273700  0.00742400  0.50110700
   0.50866600  0.99344900  0.00071600
   0.00877300  0.00666900  0.49996000
   0.50867200  0.50656200  0.00071500
   0.00877400  0.49333000  0.49997300
   0.99225500  0.50591800  0.99268900
   0.49274100  0.49257500  0.50110100
   0.44790600  0.75000100  0.97981800
   0.04443600  0.74999400  0.46870900
   0.97368200  0.25000000  0.96668400
   0.44272600  0.25000000  0.46940300
   0.04293700  0.75000400  0.02136100
   0.45866500  0.75000200  0.52207500
   0.52856700  0.25000000  0.02349000
   0.02994300  0.25000100  0.55437400
   0.24632200  0.47556500  0.95477400
   0.74544400  0.44706900  0.46011200
   0.44645900  0.51116000  0.24768900
   0.94187200  0.54349800  0.73971000
   0.54668700  0.04061800  0.74979000
   0.05252000  0.03643200  0.24746900
   0.75259400  0.97164200  0.07254300
   0.24926800  0.99861100  0.57129600
   0.24632500  0.02443800  0.95477200
   0.74544700  0.05293200  0.46010800
   0.44645800  0.98883900  0.24768900
   0.94187100  0.95649900  0.73970800
   0.75259700  0.52835800  0.07254400
   0.24927000  0.50138500  0.57129300
   0.54668800  0.45938100  0.74979100
   0.05251900  0.46356300  0.24746500
   0.74933500  0.74999700  0.46887600
