  40  40   1   0
  0.4000680E+02  0.1166835E-08  0.1176381E-08  0.1166835E-08  0.5000000E-15
   1.0000000000000000E-004
  CAR 
 CsPbBr3 cubic bulk                      
      8.28657548    -22.39300689  301      0.53998093      1.00000000
    -22.393  0.0000E+00  0.0000E+00
    -22.291  0.0000E+00  0.0000E+00
    -22.188  0.0000E+00  0.0000E+00
    -22.086  0.0000E+00  0.0000E+00
    -21.984  0.0000E+00  0.0000E+00
    -21.882  0.0000E+00  0.0000E+00
    -21.779  0.0000E+00  0.0000E+00
    -21.677  0.0000E+00  0.0000E+00
    -21.575  0.0000E+00  0.0000E+00
    -21.473  0.0000E+00  0.0000E+00
    -21.370  0.0000E+00  0.0000E+00
    -21.268  0.0000E+00  0.0000E+00
    -21.166  0.0000E+00  0.0000E+00
    -21.064  0.0000E+00  0.0000E+00
    -20.961  0.2169E+02  0.2219E+01
    -20.859  0.2444E+02  0.6499E+01
    -20.757  0.3377E+02  0.1345E+02
    -20.654  0.0000E+00  0.1400E+02
    -20.552  0.1137E-03  0.1400E+02
    -20.450  0.1956E+02  0.1600E+02
    -20.348  0.0000E+00  0.1600E+02
    -20.245  0.0000E+00  0.1600E+02
    -20.143  0.0000E+00  0.1600E+02
    -20.041  0.0000E+00  0.1600E+02
    -19.939  0.0000E+00  0.1600E+02
    -19.836  0.0000E+00  0.1600E+02
    -19.734  0.0000E+00  0.1600E+02
    -19.632  0.0000E+00  0.1600E+02
    -19.530  0.0000E+00  0.1600E+02
    -19.427  0.0000E+00  0.1600E+02
    -19.325  0.0000E+00  0.1600E+02
    -19.223  0.0000E+00  0.1600E+02
    -19.121  0.0000E+00  0.1600E+02
    -19.018  0.0000E+00  0.1600E+02
    -18.916  0.0000E+00  0.1600E+02
    -18.814  0.0000E+00  0.1600E+02
    -18.711  0.0000E+00  0.1600E+02
    -18.609  0.0000E+00  0.1600E+02
    -18.507  0.0000E+00  0.1600E+02
    -18.405  0.0000E+00  0.1600E+02
    -18.302  0.0000E+00  0.1600E+02
    -18.200  0.0000E+00  0.1600E+02
    -18.098  0.0000E+00  0.1600E+02
    -17.996  0.0000E+00  0.1600E+02
    -17.893  0.0000E+00  0.1600E+02
    -17.791  0.0000E+00  0.1600E+02
    -17.689  0.0000E+00  0.1600E+02
    -17.587  0.0000E+00  0.1600E+02
    -17.484  0.0000E+00  0.1600E+02
    -17.382  0.0000E+00  0.1600E+02
    -17.280  0.0000E+00  0.1600E+02
    -17.177  0.0000E+00  0.1600E+02
    -17.075  0.0000E+00  0.1600E+02
    -16.973  0.8943E-03  0.1600E+02
    -16.871  0.5001E+02  0.2111E+02
    -16.768  0.1275E+03  0.3504E+02
    -16.666  0.2320E+02  0.3837E+02
    -16.564  0.7809E+02  0.4799E+02
    -16.462  0.3941E-06  0.4800E+02
    -16.359  0.5804E+02  0.5394E+02
    -16.257  0.5569E+02  0.6170E+02
    -16.155  0.4261E+02  0.6636E+02
    -16.053  0.9816E+02  0.8004E+02
    -15.950  0.4453E+02  0.8655E+02
    -15.848  0.4010E+02  0.9410E+02
    -15.746  0.0000E+00  0.9600E+02
    -15.643  0.0000E+00  0.9600E+02
    -15.541  0.0000E+00  0.9600E+02
    -15.439  0.0000E+00  0.9600E+02
    -15.337  0.0000E+00  0.9600E+02
    -15.234  0.0000E+00  0.9600E+02
    -15.132  0.0000E+00  0.9600E+02
    -15.030  0.0000E+00  0.9600E+02
    -14.928  0.0000E+00  0.9600E+02
    -14.825  0.1521E+02  0.9756E+02
    -14.723  0.6837E+01  0.9870E+02
    -14.621  0.2918E+02  0.1020E+03
    -14.519  0.1956E+02  0.1040E+03
    -14.416  0.4727E-05  0.1040E+03
    -14.314  0.1956E+02  0.1060E+03
    -14.212  0.2061E+02  0.1081E+03
    -14.110  0.2933E+02  0.1120E+03
    -14.007  0.3819E+02  0.1159E+03
    -13.905  0.4612E+02  0.1220E+03
    -13.803  0.1102E+02  0.1231E+03
    -13.700  0.3911E+02  0.1280E+03
    -13.598  0.1956E+02  0.1300E+03
    -13.496  0.3782E+02  0.1339E+03
    -13.394  0.0000E+00  0.1340E+03
    -13.291  0.1941E+02  0.1360E+03
    -13.189  0.2486E+02  0.1385E+03
    -13.087  0.0000E+00  0.1420E+03
    -12.985  0.1956E+02  0.1440E+03
    -12.882  0.0000E+00  0.1440E+03
    -12.780  0.0000E+00  0.1440E+03
    -12.678  0.0000E+00  0.1440E+03
    -12.576  0.0000E+00  0.1440E+03
    -12.473  0.0000E+00  0.1440E+03
    -12.371  0.0000E+00  0.1440E+03
    -12.269  0.0000E+00  0.1440E+03
    -12.166  0.0000E+00  0.1440E+03
    -12.064  0.0000E+00  0.1440E+03
    -11.962  0.0000E+00  0.1440E+03
    -11.860  0.0000E+00  0.1440E+03
    -11.757  0.0000E+00  0.1440E+03
    -11.655  0.0000E+00  0.1440E+03
    -11.553  0.0000E+00  0.1440E+03
    -11.451  0.0000E+00  0.1440E+03
    -11.348  0.0000E+00  0.1440E+03
    -11.246  0.0000E+00  0.1440E+03
    -11.144  0.0000E+00  0.1440E+03
    -11.042  0.0000E+00  0.1440E+03
    -10.939  0.0000E+00  0.1440E+03
    -10.837  0.0000E+00  0.1440E+03
    -10.735  0.0000E+00  0.1440E+03
    -10.633  0.0000E+00  0.1440E+03
    -10.530  0.0000E+00  0.1440E+03
    -10.428  0.0000E+00  0.1440E+03
    -10.326  0.0000E+00  0.1440E+03
    -10.223  0.0000E+00  0.1440E+03
    -10.121  0.0000E+00  0.1440E+03
    -10.019  0.0000E+00  0.1440E+03
     -9.917  0.0000E+00  0.1440E+03
     -9.814  0.0000E+00  0.1440E+03
     -9.712  0.0000E+00  0.1440E+03
     -9.610  0.0000E+00  0.1440E+03
     -9.508  0.0000E+00  0.1440E+03
     -9.405  0.0000E+00  0.1440E+03
     -9.303  0.0000E+00  0.1440E+03
     -9.201  0.0000E+00  0.1440E+03
     -9.099  0.0000E+00  0.1440E+03
     -8.996  0.0000E+00  0.1440E+03
     -8.894  0.0000E+00  0.1440E+03
     -8.792  0.0000E+00  0.1440E+03
     -8.689  0.0000E+00  0.1440E+03
     -8.587  0.0000E+00  0.1440E+03
     -8.485  0.0000E+00  0.1440E+03
     -8.383  0.2435E+01  0.1442E+03
     -8.280  0.2473E+01  0.1445E+03
     -8.178  0.5359E+01  0.1453E+03
     -8.076  0.2445E+01  0.1457E+03
     -7.974  0.1083E+02  0.1469E+03
     -7.871  0.5896E+01  0.1476E+03
     -7.769  0.9677E+01  0.1487E+03
     -7.667  0.2240E+01  0.1492E+03
     -7.565  0.7330E+01  0.1510E+03
     -7.462  0.2178E+02  0.1535E+03
     -7.360  0.6733E+02  0.1611E+03
     -7.258  0.1223E+03  0.1780E+03
     -7.155  0.1118E+03  0.1944E+03
     -7.053  0.2241E+02  0.1983E+03
     -6.951  0.4445E+02  0.2030E+03
     -6.849  0.2155E+02  0.2067E+03
     -6.746  0.2488E+01  0.2073E+03
     -6.644  0.2445E+01  0.2078E+03
     -6.542  0.2445E+01  0.2080E+03
     -6.440  0.0000E+00  0.2080E+03
     -6.337  0.0000E+00  0.2080E+03
     -6.235  0.0000E+00  0.2080E+03
     -6.133  0.0000E+00  0.2080E+03
     -6.031  0.0000E+00  0.2080E+03
     -5.928  0.0000E+00  0.2080E+03
     -5.826  0.0000E+00  0.2080E+03
     -5.724  0.0000E+00  0.2080E+03
     -5.622  0.0000E+00  0.2080E+03
     -5.519  0.0000E+00  0.2080E+03
     -5.417  0.0000E+00  0.2080E+03
     -5.315  0.0000E+00  0.2080E+03
     -5.212  0.0000E+00  0.2080E+03
     -5.110  0.0000E+00  0.2080E+03
     -5.008  0.0000E+00  0.2080E+03
     -4.906  0.0000E+00  0.2080E+03
     -4.803  0.0000E+00  0.2080E+03
     -4.701  0.0000E+00  0.2080E+03
     -4.599  0.0000E+00  0.2080E+03
     -4.497  0.0000E+00  0.2080E+03
     -4.394  0.0000E+00  0.2080E+03
     -4.292  0.0000E+00  0.2080E+03
     -4.190  0.0000E+00  0.2080E+03
     -4.088  0.0000E+00  0.2080E+03
     -3.985  0.0000E+00  0.2080E+03
     -3.883  0.0000E+00  0.2080E+03
     -3.781  0.3549E+01  0.2084E+03
     -3.678  0.9771E+01  0.2100E+03
     -3.576  0.0000E+00  0.2100E+03
     -3.474  0.6853E+01  0.2107E+03
     -3.372  0.8525E+01  0.2119E+03
     -3.269  0.1380E+02  0.2134E+03
     -3.167  0.4256E+01  0.2139E+03
     -3.065  0.1222E+02  0.2155E+03
     -2.963  0.2868E+02  0.2184E+03
     -2.860  0.1756E+02  0.2208E+03
     -2.758  0.2273E+02  0.2236E+03
     -2.656  0.3031E+02  0.2268E+03
     -2.554  0.1240E+02  0.2288E+03
     -2.451  0.3035E+02  0.2326E+03
     -2.349  0.2557E+02  0.2361E+03
     -2.247  0.3181E+02  0.2405E+03
     -2.144  0.3302E+02  0.2444E+03
     -2.042  0.3167E+02  0.2492E+03
     -1.940  0.3323E+02  0.2536E+03
     -1.838  0.4023E+02  0.2586E+03
     -1.735  0.4694E+02  0.2646E+03
     -1.633  0.4069E+02  0.2702E+03
     -1.531  0.4375E+02  0.2760E+03
     -1.429  0.5416E+02  0.2825E+03
     -1.326  0.4568E+02  0.2889E+03
     -1.224  0.5400E+02  0.2953E+03
     -1.122  0.5344E+02  0.3022E+03
     -1.020  0.5148E+02  0.3083E+03
     -0.917  0.3536E+02  0.3134E+03
     -0.815  0.3946E+02  0.3180E+03
     -0.713  0.4911E+02  0.3238E+03
     -0.611  0.4740E+02  0.3293E+03
     -0.508  0.4355E+02  0.3347E+03
     -0.406  0.4441E+02  0.3403E+03
     -0.304  0.3441E+02  0.3443E+03
     -0.201  0.1911E+02  0.3470E+03
     -0.099  0.4163E+01  0.3477E+03
      0.003  0.1332E+02  0.3496E+03
      0.105  0.4177E+01  0.3507E+03
      0.208  0.2445E+01  0.3513E+03
      0.310  0.4889E+01  0.3517E+03
      0.412  0.2776E+00  0.3518E+03
      0.514  0.0000E+00  0.3520E+03
      0.617  0.0000E+00  0.3520E+03
      0.719  0.0000E+00  0.3520E+03
      0.821  0.0000E+00  0.3520E+03
      0.923  0.0000E+00  0.3520E+03
      1.026  0.0000E+00  0.3520E+03
      1.128  0.0000E+00  0.3520E+03
      1.230  0.0000E+00  0.3520E+03
      1.333  0.0000E+00  0.3520E+03
      1.435  0.0000E+00  0.3520E+03
      1.537  0.0000E+00  0.3520E+03
      1.639  0.0000E+00  0.3520E+03
      1.742  0.0000E+00  0.3520E+03
      1.844  0.0000E+00  0.3520E+03
      1.946  0.0000E+00  0.3520E+03
      2.048  0.0000E+00  0.3520E+03
      2.151  0.0000E+00  0.3520E+03
      2.253  0.0000E+00  0.3520E+03
      2.355  0.0000E+00  0.3520E+03
      2.457  0.5394E-10  0.3520E+03
      2.560  0.4890E+01  0.3525E+03
      2.662  0.5737E+01  0.3531E+03
      2.764  0.9974E+01  0.3543E+03
      2.867  0.5311E+01  0.3553E+03
      2.969  0.4655E+01  0.3560E+03
      3.071  0.9771E+01  0.3575E+03
      3.173  0.1469E+02  0.3593E+03
      3.276  0.9131E+01  0.3604E+03
      3.378  0.1354E+02  0.3619E+03
      3.480  0.1332E+02  0.3641E+03
      3.582  0.1247E-02  0.3645E+03
      3.685  0.1186E+02  0.3657E+03
      3.787  0.1223E+02  0.3675E+03
      3.889  0.2019E+02  0.3698E+03
      3.991  0.5167E+01  0.3705E+03
      4.094  0.8687E+01  0.3719E+03
      4.196  0.4456E+01  0.3725E+03
      4.298  0.7220E+01  0.3737E+03
      4.400  0.1515E+02  0.3753E+03
      4.503  0.4769E+01  0.3765E+03
      4.605  0.9853E+01  0.3778E+03
      4.707  0.9788E+01  0.3793E+03
      4.810  0.9928E+01  0.3805E+03
      4.912  0.1245E+02  0.3820E+03
      5.014  0.1264E+02  0.3835E+03
      5.116  0.9361E+01  0.3850E+03
      5.219  0.2599E+02  0.3877E+03
      5.321  0.4150E+01  0.3889E+03
      5.423  0.1620E+02  0.3912E+03
      5.525  0.1954E+02  0.3932E+03
      5.628  0.1337E+02  0.3949E+03
      5.730  0.1794E+02  0.3968E+03
      5.832  0.2293E+02  0.3993E+03
      5.934  0.1391E+02  0.4017E+03
      6.037  0.1890E+02  0.4044E+03
      6.139  0.1906E+02  0.4072E+03
      6.241  0.2541E+02  0.4101E+03
      6.344  0.2831E+02  0.4136E+03
      6.446  0.2839E+02  0.4172E+03
      6.548  0.2039E+02  0.4203E+03
      6.650  0.2825E+02  0.4236E+03
      6.753  0.2742E+02  0.4273E+03
      6.855  0.2824E+02  0.4311E+03
      6.957  0.2445E+01  0.4320E+03
      7.059  0.0000E+00  0.4320E+03
      7.162  0.0000E+00  0.4320E+03
      7.264  0.0000E+00  0.4320E+03
      7.366  0.0000E+00  0.4320E+03
      7.468  0.0000E+00  0.4320E+03
      7.571  0.0000E+00  0.4320E+03
      7.673  0.0000E+00  0.4320E+03
      7.775  0.0000E+00  0.4320E+03
      7.878  0.0000E+00  0.4320E+03
      7.980  0.0000E+00  0.4320E+03
      8.082  0.0000E+00  0.4320E+03
      8.184  0.0000E+00  0.4320E+03
      8.287  0.0000E+00  0.4320E+03
      8.28657548    -22.39300689  301      0.53998093      1.00000000
    -22.393  0.0000E+00  0.0000E+00  0.0000E+00
    -22.291  0.0000E+00  0.0000E+00  0.0000E+00
    -22.188  0.0000E+00  0.0000E+00  0.0000E+00
    -22.086  0.0000E+00  0.0000E+00  0.0000E+00
    -21.984  0.0000E+00  0.0000E+00  0.0000E+00
    -21.882  0.0000E+00  0.0000E+00  0.0000E+00
    -21.779  0.0000E+00  0.0000E+00  0.0000E+00
    -21.677  0.0000E+00  0.0000E+00  0.0000E+00
    -21.575  0.0000E+00  0.0000E+00  0.0000E+00
    -21.473  0.0000E+00  0.0000E+00  0.0000E+00
    -21.370  0.0000E+00  0.0000E+00  0.0000E+00
    -21.268  0.0000E+00  0.0000E+00  0.0000E+00
    -21.166  0.0000E+00  0.0000E+00  0.0000E+00
    -21.064  0.0000E+00  0.0000E+00  0.0000E+00
    -20.961  0.7836E-07  0.1909E-08  0.1262E-09
    -20.859  0.1542E-04  0.2795E-07  0.3049E-08
    -20.757  0.7048E-03  0.4941E-06  0.5671E-07
    -20.654  0.0000E+00  0.0000E+00  0.0000E+00
    -20.552  0.1008E-03  0.3630E-09  0.1048E-09
    -20.450  0.1735E+02  0.6246E-04  0.1803E-04
    -20.348  0.0000E+00  0.0000E+00  0.0000E+00
    -20.245  0.0000E+00  0.0000E+00  0.0000E+00
    -20.143  0.0000E+00  0.0000E+00  0.0000E+00
    -20.041  0.0000E+00  0.0000E+00  0.0000E+00
    -19.939  0.0000E+00  0.0000E+00  0.0000E+00
    -19.836  0.0000E+00  0.0000E+00  0.0000E+00
    -19.734  0.0000E+00  0.0000E+00  0.0000E+00
    -19.632  0.0000E+00  0.0000E+00  0.0000E+00
    -19.530  0.0000E+00  0.0000E+00  0.0000E+00
    -19.427  0.0000E+00  0.0000E+00  0.0000E+00
    -19.325  0.0000E+00  0.0000E+00  0.0000E+00
    -19.223  0.0000E+00  0.0000E+00  0.0000E+00
    -19.121  0.0000E+00  0.0000E+00  0.0000E+00
    -19.018  0.0000E+00  0.0000E+00  0.0000E+00
    -18.916  0.0000E+00  0.0000E+00  0.0000E+00
    -18.814  0.0000E+00  0.0000E+00  0.0000E+00
    -18.711  0.0000E+00  0.0000E+00  0.0000E+00
    -18.609  0.0000E+00  0.0000E+00  0.0000E+00
    -18.507  0.0000E+00  0.0000E+00  0.0000E+00
    -18.405  0.0000E+00  0.0000E+00  0.0000E+00
    -18.302  0.0000E+00  0.0000E+00  0.0000E+00
    -18.200  0.0000E+00  0.0000E+00  0.0000E+00
    -18.098  0.0000E+00  0.0000E+00  0.0000E+00
    -17.996  0.0000E+00  0.0000E+00  0.0000E+00
    -17.893  0.0000E+00  0.0000E+00  0.0000E+00
    -17.791  0.0000E+00  0.0000E+00  0.0000E+00
    -17.689  0.0000E+00  0.0000E+00  0.0000E+00
    -17.587  0.0000E+00  0.0000E+00  0.0000E+00
    -17.484  0.0000E+00  0.0000E+00  0.0000E+00
    -17.382  0.0000E+00  0.0000E+00  0.0000E+00
    -17.280  0.0000E+00  0.0000E+00  0.0000E+00
    -17.177  0.0000E+00  0.0000E+00  0.0000E+00
    -17.075  0.0000E+00  0.0000E+00  0.0000E+00
    -16.973  0.9099E-10  0.1818E-09  0.6078E-10
    -16.871  0.4740E-05  0.6337E-05  0.1949E-05
    -16.768  0.6207E-04  0.2764E-04  0.4744E-05
    -16.666  0.2296E-05  0.3722E-05  0.5823E-06
    -16.564  0.8707E-05  0.7076E-05  0.1604E-05
    -16.462  0.1064E-11  0.4914E-12  0.6816E-13
    -16.359  0.5748E-04  0.3006E-04  0.4541E-05
    -16.257  0.7125E-05  0.1562E-04  0.3563E-05
    -16.155  0.5873E-05  0.7401E-05  0.1459E-05
    -16.053  0.5987E-04  0.2241E-03  0.5301E-04
    -15.950  0.4647E-03  0.2170E-03  0.1682E-04
    -15.848  0.6466E-04  0.4614E-04  0.6318E-05
    -15.746  0.0000E+00  0.0000E+00  0.0000E+00
    -15.643  0.0000E+00  0.0000E+00  0.0000E+00
    -15.541  0.0000E+00  0.0000E+00  0.0000E+00
    -15.439  0.0000E+00  0.0000E+00  0.0000E+00
    -15.337  0.0000E+00  0.0000E+00  0.0000E+00
    -15.234  0.0000E+00  0.0000E+00  0.0000E+00
    -15.132  0.0000E+00  0.0000E+00  0.0000E+00
    -15.030  0.0000E+00  0.0000E+00  0.0000E+00
    -14.928  0.0000E+00  0.0000E+00  0.0000E+00
    -14.825  0.1119E-02  0.5382E-03  0.1490E-04
    -14.723  0.1763E-03  0.1500E-03  0.5711E-05
    -14.621  0.5348E-03  0.6171E-03  0.3227E-04
    -14.519  0.2959E-03  0.2745E-03  0.2135E-04
    -14.416  0.5321E-10  0.1361E-10  0.1139E-10
    -14.314  0.1350E-03  0.2724E-03  0.2683E-04
    -14.212  0.8277E-02  0.7214E-02  0.3102E-03
    -14.110  0.3113E-02  0.4887E-02  0.1354E-03
    -14.007  0.3333E-02  0.8117E-02  0.2626E-03
    -13.905  0.2456E-03  0.4597E-02  0.8952E-03
    -13.803  0.5300E-04  0.2484E-03  0.3240E-04
    -13.700  0.4295E-02  0.8848E-02  0.8936E-03
    -13.598  0.8380E-05  0.6472E-03  0.1048E-03
    -13.496  0.1465E-02  0.4610E-02  0.5247E-03
    -13.394  0.0000E+00  0.0000E+00  0.0000E+00
    -13.291  0.2394E-03  0.9013E-03  0.6732E-04
    -13.189  0.2143E-03  0.6281E-03  0.5769E-04
    -13.087  0.0000E+00  0.0000E+00  0.0000E+00
    -12.985  0.9543E-05  0.8665E-04  0.9767E-05
    -12.882  0.0000E+00  0.0000E+00  0.0000E+00
    -12.780  0.0000E+00  0.0000E+00  0.0000E+00
    -12.678  0.0000E+00  0.0000E+00  0.0000E+00
    -12.576  0.0000E+00  0.0000E+00  0.0000E+00
    -12.473  0.0000E+00  0.0000E+00  0.0000E+00
    -12.371  0.0000E+00  0.0000E+00  0.0000E+00
    -12.269  0.0000E+00  0.0000E+00  0.0000E+00
    -12.166  0.0000E+00  0.0000E+00  0.0000E+00
    -12.064  0.0000E+00  0.0000E+00  0.0000E+00
    -11.962  0.0000E+00  0.0000E+00  0.0000E+00
    -11.860  0.0000E+00  0.0000E+00  0.0000E+00
    -11.757  0.0000E+00  0.0000E+00  0.0000E+00
    -11.655  0.0000E+00  0.0000E+00  0.0000E+00
    -11.553  0.0000E+00  0.0000E+00  0.0000E+00
    -11.451  0.0000E+00  0.0000E+00  0.0000E+00
    -11.348  0.0000E+00  0.0000E+00  0.0000E+00
    -11.246  0.0000E+00  0.0000E+00  0.0000E+00
    -11.144  0.0000E+00  0.0000E+00  0.0000E+00
    -11.042  0.0000E+00  0.0000E+00  0.0000E+00
    -10.939  0.0000E+00  0.0000E+00  0.0000E+00
    -10.837  0.0000E+00  0.0000E+00  0.0000E+00
    -10.735  0.0000E+00  0.0000E+00  0.0000E+00
    -10.633  0.0000E+00  0.0000E+00  0.0000E+00
    -10.530  0.0000E+00  0.0000E+00  0.0000E+00
    -10.428  0.0000E+00  0.0000E+00  0.0000E+00
    -10.326  0.0000E+00  0.0000E+00  0.0000E+00
    -10.223  0.0000E+00  0.0000E+00  0.0000E+00
    -10.121  0.0000E+00  0.0000E+00  0.0000E+00
    -10.019  0.0000E+00  0.0000E+00  0.0000E+00
     -9.917  0.0000E+00  0.0000E+00  0.0000E+00
     -9.814  0.0000E+00  0.0000E+00  0.0000E+00
     -9.712  0.0000E+00  0.0000E+00  0.0000E+00
     -9.610  0.0000E+00  0.0000E+00  0.0000E+00
     -9.508  0.0000E+00  0.0000E+00  0.0000E+00
     -9.405  0.0000E+00  0.0000E+00  0.0000E+00
     -9.303  0.0000E+00  0.0000E+00  0.0000E+00
     -9.201  0.0000E+00  0.0000E+00  0.0000E+00
     -9.099  0.0000E+00  0.0000E+00  0.0000E+00
     -8.996  0.0000E+00  0.0000E+00  0.0000E+00
     -8.894  0.0000E+00  0.0000E+00  0.0000E+00
     -8.792  0.0000E+00  0.0000E+00  0.0000E+00
     -8.689  0.0000E+00  0.0000E+00  0.0000E+00
     -8.587  0.0000E+00  0.0000E+00  0.0000E+00
     -8.485  0.0000E+00  0.0000E+00  0.0000E+00
     -8.383  0.6935E-05  0.9323E-03  0.6113E-05
     -8.280  0.1221E-04  0.1179E-02  0.4573E-05
     -8.178  0.2188E-04  0.4265E-02  0.1222E-04
     -8.076  0.5402E-05  0.2323E-02  0.7789E-05
     -7.974  0.1953E-04  0.5592E-02  0.3017E-04
     -7.871  0.9290E-05  0.2080E-02  0.3395E-04
     -7.769  0.2375E-04  0.3261E-02  0.2410E-04
     -7.667  0.1231E-04  0.3857E-02  0.1664E-04
     -7.565  0.1546E-04  0.1010E-01  0.2755E-04
     -7.462  0.7983E-04  0.4778E-01  0.7508E-04
     -7.360  0.2866E-04  0.3548E-01  0.3690E-04
     -7.258  0.4280E-04  0.1286E+00  0.8153E-04
     -7.155  0.3953E-04  0.4226E+00  0.1046E-03
     -7.053  0.3569E-04  0.4763E+00  0.5087E-04
     -6.951  0.1697E-03  0.2433E+02  0.2461E-03
     -6.849  0.9441E-04  0.8694E+01  0.7755E-04
     -6.746  0.5648E-05  0.3322E-01  0.1760E-04
     -6.644  0.2070E-04  0.8538E-02  0.1089E-05
     -6.542  0.2268E-04  0.2502E-02  0.1279E-04
     -6.440  0.0000E+00  0.0000E+00  0.0000E+00
     -6.337  0.0000E+00  0.0000E+00  0.0000E+00
     -6.235  0.0000E+00  0.0000E+00  0.0000E+00
     -6.133  0.0000E+00  0.0000E+00  0.0000E+00
     -6.031  0.0000E+00  0.0000E+00  0.0000E+00
     -5.928  0.0000E+00  0.0000E+00  0.0000E+00
     -5.826  0.0000E+00  0.0000E+00  0.0000E+00
     -5.724  0.0000E+00  0.0000E+00  0.0000E+00
     -5.622  0.0000E+00  0.0000E+00  0.0000E+00
     -5.519  0.0000E+00  0.0000E+00  0.0000E+00
     -5.417  0.0000E+00  0.0000E+00  0.0000E+00
     -5.315  0.0000E+00  0.0000E+00  0.0000E+00
     -5.212  0.0000E+00  0.0000E+00  0.0000E+00
     -5.110  0.0000E+00  0.0000E+00  0.0000E+00
     -5.008  0.0000E+00  0.0000E+00  0.0000E+00
     -4.906  0.0000E+00  0.0000E+00  0.0000E+00
     -4.803  0.0000E+00  0.0000E+00  0.0000E+00
     -4.701  0.0000E+00  0.0000E+00  0.0000E+00
     -4.599  0.0000E+00  0.0000E+00  0.0000E+00
     -4.497  0.0000E+00  0.0000E+00  0.0000E+00
     -4.394  0.0000E+00  0.0000E+00  0.0000E+00
     -4.292  0.0000E+00  0.0000E+00  0.0000E+00
     -4.190  0.0000E+00  0.0000E+00  0.0000E+00
     -4.088  0.0000E+00  0.0000E+00  0.0000E+00
     -3.985  0.0000E+00  0.0000E+00  0.0000E+00
     -3.883  0.0000E+00  0.0000E+00  0.0000E+00
     -3.781  0.1197E-04  0.1005E-02  0.4788E-04
     -3.678  0.6193E-04  0.2418E-02  0.1374E-03
     -3.576  0.0000E+00  0.0000E+00  0.0000E+00
     -3.474  0.2600E-05  0.4769E-02  0.4822E-03
     -3.372  0.1743E-04  0.6333E-02  0.6122E-03
     -3.269  0.3261E-04  0.1174E-01  0.6946E-03
     -3.167  0.3649E-05  0.1640E-02  0.2601E-03
     -3.065  0.5118E-04  0.5151E-02  0.6854E-03
     -2.963  0.9154E-03  0.4344E-01  0.2788E-02
     -2.860  0.1720E-03  0.8126E-02  0.1112E-02
     -2.758  0.4276E-03  0.1828E-01  0.1315E-02
     -2.656  0.1037E-02  0.3911E-01  0.3452E-02
     -2.554  0.1233E-02  0.8436E-02  0.8595E-03
     -2.451  0.3394E-02  0.3164E-01  0.2261E-02
     -2.349  0.4373E-02  0.2594E-01  0.3385E-02
     -2.247  0.7404E-02  0.4473E-01  0.4073E-02
     -2.144  0.1129E-01  0.6261E-01  0.4982E-02
     -2.042  0.8426E-02  0.4750E-01  0.5239E-02
     -1.940  0.4950E-02  0.3274E-01  0.4588E-02
     -1.838  0.7532E-02  0.6205E-01  0.6015E-02
     -1.735  0.8876E-02  0.6730E-01  0.1099E-01
     -1.633  0.6891E-02  0.1035E+00  0.1469E-01
     -1.531  0.4098E-02  0.1175E+00  0.1346E-01
     -1.429  0.3678E-02  0.9683E-01  0.1373E-01
     -1.326  0.2391E-02  0.7937E-01  0.1524E-01
     -1.224  0.3204E-02  0.9537E-01  0.1839E-01
     -1.122  0.2618E-02  0.6094E-01  0.1184E-01
     -1.020  0.2371E-02  0.4344E-01  0.9527E-02
     -0.917  0.2197E-02  0.7537E-01  0.1104E-01
     -0.815  0.1681E-02  0.1116E+00  0.1522E-01
     -0.713  0.1044E-02  0.3094E-01  0.4863E-02
     -0.611  0.1029E-02  0.2602E-01  0.4442E-02
     -0.508  0.1620E-02  0.1730E-01  0.6159E-02
     -0.406  0.8588E-03  0.1791E-01  0.3581E-02
     -0.304  0.9014E-03  0.1601E-01  0.3445E-02
     -0.201  0.3979E-04  0.1690E-02  0.8491E-03
     -0.099  0.2390E-04  0.4464E-03  0.3672E-03
      0.003  0.5560E-04  0.1437E-02  0.1049E-02
      0.105  0.5172E-05  0.5644E-03  0.6796E-03
      0.208  0.2223E-05  0.5547E-03  0.3742E-03
      0.310  0.7828E-06  0.2449E-03  0.4351E-03
      0.412  0.1142E-05  0.1475E-04  0.6438E-05
      0.514  0.0000E+00  0.0000E+00  0.0000E+00
      0.617  0.0000E+00  0.0000E+00  0.0000E+00
      0.719  0.0000E+00  0.0000E+00  0.0000E+00
      0.821  0.0000E+00  0.0000E+00  0.0000E+00
      0.923  0.0000E+00  0.0000E+00  0.0000E+00
      1.026  0.0000E+00  0.0000E+00  0.0000E+00
      1.128  0.0000E+00  0.0000E+00  0.0000E+00
      1.230  0.0000E+00  0.0000E+00  0.0000E+00
      1.333  0.0000E+00  0.0000E+00  0.0000E+00
      1.435  0.0000E+00  0.0000E+00  0.0000E+00
      1.537  0.0000E+00  0.0000E+00  0.0000E+00
      1.639  0.0000E+00  0.0000E+00  0.0000E+00
      1.742  0.0000E+00  0.0000E+00  0.0000E+00
      1.844  0.0000E+00  0.0000E+00  0.0000E+00
      1.946  0.0000E+00  0.0000E+00  0.0000E+00
      2.048  0.0000E+00  0.0000E+00  0.0000E+00
      2.151  0.0000E+00  0.0000E+00  0.0000E+00
      2.253  0.0000E+00  0.0000E+00  0.0000E+00
      2.355  0.0000E+00  0.0000E+00  0.0000E+00
      2.457  0.9340E-15  0.3745E-14  0.1168E-13
      2.560  0.1431E-03  0.5301E-03  0.1394E-02
      2.662  0.8876E-04  0.1099E-02  0.1335E-02
      2.764  0.3187E-03  0.1248E-02  0.3236E-02
      2.867  0.2273E-03  0.2081E-02  0.2096E-02
      2.969  0.4830E-04  0.6355E-03  0.1427E-03
      3.071  0.2107E-03  0.1348E-02  0.1344E-02
      3.173  0.1205E-03  0.3559E-02  0.5421E-02
      3.276  0.1311E-03  0.1401E-02  0.2713E-02
      3.378  0.3984E-03  0.2003E-02  0.3983E-02
      3.480  0.2930E-03  0.1931E-02  0.4512E-02
      3.582  0.6202E-07  0.1843E-06  0.2300E-06
      3.685  0.5994E-03  0.1260E-02  0.2687E-02
      3.787  0.2155E-03  0.1220E-02  0.2448E-02
      3.889  0.1053E-02  0.2604E-02  0.6729E-02
      3.991  0.8464E-04  0.1595E-02  0.2028E-02
      4.094  0.5316E-03  0.2458E-02  0.2907E-02
      4.196  0.2407E-03  0.3654E-03  0.4933E-03
      4.298  0.1307E-03  0.8629E-03  0.1917E-02
      4.400  0.1173E-03  0.1312E-02  0.3304E-02
      4.503  0.1437E-03  0.1048E-02  0.1195E-02
      4.605  0.1217E-02  0.1593E-02  0.8199E-02
      4.707  0.1155E-02  0.5751E-02  0.6777E-02
      4.810  0.9240E-02  0.1952E-02  0.5062E-02
      4.912  0.1382E-03  0.2077E-02  0.1378E-01
      5.014  0.2664E-02  0.2660E-02  0.1350E-01
      5.116  0.3672E-03  0.1484E-02  0.9079E-02
      5.219  0.6411E-02  0.9819E-02  0.2109E-01
      5.321  0.9760E-03  0.1868E-02  0.6115E-02
      5.423  0.1127E-01  0.6458E-02  0.2508E-01
      5.525  0.8614E-02  0.8601E-02  0.3824E-01
      5.628  0.3567E-02  0.5577E-02  0.1955E-01
      5.730  0.9285E-02  0.4140E-02  0.4301E-01
      5.832  0.8946E-02  0.1137E-01  0.4937E-01
      5.934  0.9956E-02  0.5562E-02  0.3804E-01
      6.037  0.8605E-02  0.8513E-02  0.1135E+00
      6.139  0.1351E-01  0.7383E-02  0.8504E-01
      6.241  0.2475E-01  0.1768E-01  0.1480E+00
      6.344  0.3203E-01  0.2042E-01  0.1371E+00
      6.446  0.3449E-01  0.2323E-01  0.3449E+00
      6.548  0.1508E-01  0.1818E-01  0.1876E+00
      6.650  0.1205E-01  0.1536E-01  0.2855E+00
      6.753  0.1674E-01  0.1217E-01  0.3063E+00
      6.855  0.2701E-01  0.1486E-01  0.2050E+00
      6.957  0.6409E-03  0.2061E-02  0.2682E-01
      7.059  0.0000E+00  0.0000E+00  0.0000E+00
      7.162  0.0000E+00  0.0000E+00  0.0000E+00
      7.264  0.0000E+00  0.0000E+00  0.0000E+00
      7.366  0.0000E+00  0.0000E+00  0.0000E+00
      7.468  0.0000E+00  0.0000E+00  0.0000E+00
      7.571  0.0000E+00  0.0000E+00  0.0000E+00
      7.673  0.0000E+00  0.0000E+00  0.0000E+00
      7.775  0.0000E+00  0.0000E+00  0.0000E+00
      7.878  0.0000E+00  0.0000E+00  0.0000E+00
      7.980  0.0000E+00  0.0000E+00  0.0000E+00
      8.082  0.0000E+00  0.0000E+00  0.0000E+00
      8.184  0.0000E+00  0.0000E+00  0.0000E+00
      8.287  0.0000E+00  0.0000E+00  0.0000E+00
      8.28657548    -22.39300689  301      0.53998093      1.00000000
    -22.393  0.0000E+00  0.0000E+00  0.0000E+00
    -22.291  0.0000E+00  0.0000E+00  0.0000E+00
    -22.188  0.0000E+00  0.0000E+00  0.0000E+00
    -22.086  0.0000E+00  0.0000E+00  0.0000E+00
    -21.984  0.0000E+00  0.0000E+00  0.0000E+00
    -21.882  0.0000E+00  0.0000E+00  0.0000E+00
    -21.779  0.0000E+00  0.0000E+00  0.0000E+00
    -21.677  0.0000E+00  0.0000E+00  0.0000E+00
    -21.575  0.0000E+00  0.0000E+00  0.0000E+00
    -21.473  0.0000E+00  0.0000E+00  0.0000E+00
    -21.370  0.0000E+00  0.0000E+00  0.0000E+00
    -21.268  0.0000E+00  0.0000E+00  0.0000E+00
    -21.166  0.0000E+00  0.0000E+00  0.0000E+00
    -21.064  0.0000E+00  0.0000E+00  0.0000E+00
    -20.961  0.2443E-03  0.5577E-07  0.7977E-08
    -20.859  0.6778E+01  0.9821E-04  0.6880E-05
    -20.757  0.2898E-02  0.1767E-06  0.3204E-07
    -20.654  0.0000E+00  0.0000E+00  0.0000E+00
    -20.552  0.3806E-11  0.1535E-13  0.9357E-15
    -20.450  0.6563E-06  0.2651E-08  0.1610E-09
    -20.348  0.0000E+00  0.0000E+00  0.0000E+00
    -20.245  0.0000E+00  0.0000E+00  0.0000E+00
    -20.143  0.0000E+00  0.0000E+00  0.0000E+00
    -20.041  0.0000E+00  0.0000E+00  0.0000E+00
    -19.939  0.0000E+00  0.0000E+00  0.0000E+00
    -19.836  0.0000E+00  0.0000E+00  0.0000E+00
    -19.734  0.0000E+00  0.0000E+00  0.0000E+00
    -19.632  0.0000E+00  0.0000E+00  0.0000E+00
    -19.530  0.0000E+00  0.0000E+00  0.0000E+00
    -19.427  0.0000E+00  0.0000E+00  0.0000E+00
    -19.325  0.0000E+00  0.0000E+00  0.0000E+00
    -19.223  0.0000E+00  0.0000E+00  0.0000E+00
    -19.121  0.0000E+00  0.0000E+00  0.0000E+00
    -19.018  0.0000E+00  0.0000E+00  0.0000E+00
    -18.916  0.0000E+00  0.0000E+00  0.0000E+00
    -18.814  0.0000E+00  0.0000E+00  0.0000E+00
    -18.711  0.0000E+00  0.0000E+00  0.0000E+00
    -18.609  0.0000E+00  0.0000E+00  0.0000E+00
    -18.507  0.0000E+00  0.0000E+00  0.0000E+00
    -18.405  0.0000E+00  0.0000E+00  0.0000E+00
    -18.302  0.0000E+00  0.0000E+00  0.0000E+00
    -18.200  0.0000E+00  0.0000E+00  0.0000E+00
    -18.098  0.0000E+00  0.0000E+00  0.0000E+00
    -17.996  0.0000E+00  0.0000E+00  0.0000E+00
    -17.893  0.0000E+00  0.0000E+00  0.0000E+00
    -17.791  0.0000E+00  0.0000E+00  0.0000E+00
    -17.689  0.0000E+00  0.0000E+00  0.0000E+00
    -17.587  0.0000E+00  0.0000E+00  0.0000E+00
    -17.484  0.0000E+00  0.0000E+00  0.0000E+00
    -17.382  0.0000E+00  0.0000E+00  0.0000E+00
    -17.280  0.0000E+00  0.0000E+00  0.0000E+00
    -17.177  0.0000E+00  0.0000E+00  0.0000E+00
    -17.075  0.0000E+00  0.0000E+00  0.0000E+00
    -16.973  0.1292E-10  0.4808E-09  0.2073E-09
    -16.871  0.1228E-03  0.6861E-04  0.1286E-04
    -16.768  0.5042E-04  0.2510E-04  0.3980E-05
    -16.666  0.2178E-03  0.1194E-03  0.1893E-04
    -16.564  0.1370E-03  0.6864E-04  0.9373E-05
    -16.462  0.4187E-12  0.2243E-12  0.2573E-13
    -16.359  0.5427E-04  0.4634E-04  0.7058E-05
    -16.257  0.5413E-04  0.3197E-04  0.3749E-05
    -16.155  0.2000E-04  0.1382E-04  0.1833E-05
    -16.053  0.3392E-04  0.2386E-04  0.2831E-05
    -15.950  0.4780E-05  0.3422E-05  0.3496E-06
    -15.848  0.5205E-06  0.3756E-06  0.3536E-07
    -15.746  0.0000E+00  0.0000E+00  0.0000E+00
    -15.643  0.0000E+00  0.0000E+00  0.0000E+00
    -15.541  0.0000E+00  0.0000E+00  0.0000E+00
    -15.439  0.0000E+00  0.0000E+00  0.0000E+00
    -15.337  0.0000E+00  0.0000E+00  0.0000E+00
    -15.234  0.0000E+00  0.0000E+00  0.0000E+00
    -15.132  0.0000E+00  0.0000E+00  0.0000E+00
    -15.030  0.0000E+00  0.0000E+00  0.0000E+00
    -14.928  0.0000E+00  0.0000E+00  0.0000E+00
    -14.825  0.3780E-02  0.3306E-02  0.2080E-03
    -14.723  0.1311E-02  0.8270E-03  0.3136E-04
    -14.621  0.3417E-02  0.5544E-02  0.3668E-03
    -14.519  0.1924E-03  0.1579E-02  0.2420E-03
    -14.416  0.6547E-10  0.2688E-09  0.2803E-10
    -14.314  0.3156E-03  0.9783E-03  0.1181E-03
    -14.212  0.4364E-03  0.2015E-02  0.1588E-03
    -14.110  0.9098E-03  0.1993E-02  0.1857E-03
    -14.007  0.9214E-03  0.1988E-02  0.2558E-03
    -13.905  0.1611E-02  0.3885E-02  0.2915E-03
    -13.803  0.2992E-04  0.1175E-03  0.2595E-04
    -13.700  0.1088E-03  0.2936E-03  0.5014E-04
    -13.598  0.4911E-05  0.2905E-04  0.4859E-05
    -13.496  0.6914E-04  0.3192E-03  0.3090E-04
    -13.394  0.0000E+00  0.0000E+00  0.0000E+00
    -13.291  0.3736E-03  0.1186E-02  0.7780E-04