CsPbBr3 cubic bulk                      
           1
     8.420018    0.000000    8.077981
     0.000000   11.763808    0.000000
    -8.420018    0.000000    8.077981
   Cs   Pb   Br
   8   8  24
Direct configuration=     1
   0.27212500  0.25000000  0.20823600
   0.81407904  0.28264238  0.76557111
   0.85249872  0.73913696  0.17434475
   0.28739135  0.77506032  0.77423798
   0.35146280  0.24435197  0.73428709
   0.75990279  0.29891380  0.24579556
   0.78055662  0.77103638  0.72809831
   0.30320057  0.80035101  0.19732360
   0.09518515  0.02660017  0.91267927
   0.56586145  0.04152313  0.47609564
   0.58948639  0.98420986  0.97591819
   0.07764370  0.01474111  0.42155605
   0.56401493  0.46728002  0.99190588
   0.05681390  0.51535211  0.45169729
   0.04955193  0.52119905  0.97895891
   0.55806093  0.53257647  0.48289652
   0.56850021  0.73603765  0.00984194
   0.13668268  0.74933461  0.41824047
   0.11599306  0.28502164  0.89598559
   0.63478212  0.28778358  0.49428278
   0.08475191  0.74723390  0.97221967
   0.46813996  0.77035142  0.54266630
   0.59305441  0.23604186  0.95515650
   0.98220985  0.23684558  0.47688832
   0.30371775  0.49808880  0.02580443
   0.81681290  0.55869015  0.45950766
   0.53335373  0.52984528  0.24506709
   0.02819338  0.52473553  0.71322375
   0.60522312  0.02508538  0.69529994
   0.08477142  0.02127167  0.18309183
   0.83331266  0.02231344  0.94374993
   0.30570552  0.07921030  0.45325062
   0.33367464  0.03859886  0.94143305
   0.81056703  0.96382059  0.37426140
   0.50026603  0.05611339  0.20806454
   0.03749701  0.92967636  0.66176915
   0.81558217  0.54059435  0.96562612
   0.30061458  0.44990208  0.47783857
   0.51702503  0.51632182  0.74625562
   0.01804634  0.42502217  0.21215444
