  40  40   1   0
  0.4040437E+02  0.1173535E-08  0.1173535E-08  0.1173535E-08  0.5000000E-15
   1.0000000000000000E-004
  CAR 
 CsPbBr3 cubic bulk                      
      8.24237839    -21.83422952  301     -0.15400799      1.00000000
    -21.834  0.0000E+00  0.0000E+00
    -21.734  0.0000E+00  0.0000E+00
    -21.634  0.0000E+00  0.0000E+00
    -21.533  0.0000E+00  0.0000E+00
    -21.433  0.0000E+00  0.0000E+00
    -21.333  0.0000E+00  0.0000E+00
    -21.233  0.0000E+00  0.0000E+00
    -21.132  0.0000E+00  0.0000E+00
    -21.032  0.0000E+00  0.0000E+00
    -20.932  0.0000E+00  0.0000E+00
    -20.832  0.0000E+00  0.0000E+00
    -20.731  0.0000E+00  0.0000E+00
    -20.631  0.0000E+00  0.0000E+00
    -20.531  0.0000E+00  0.0000E+00
    -20.431  0.1596E+03  0.1600E+02
    -20.330  0.0000E+00  0.1600E+02
    -20.230  0.0000E+00  0.1600E+02
    -20.130  0.0000E+00  0.1600E+02
    -20.030  0.0000E+00  0.1600E+02
    -19.929  0.0000E+00  0.1600E+02
    -19.829  0.0000E+00  0.1600E+02
    -19.729  0.0000E+00  0.1600E+02
    -19.629  0.0000E+00  0.1600E+02
    -19.528  0.0000E+00  0.1600E+02
    -19.428  0.0000E+00  0.1600E+02
    -19.328  0.0000E+00  0.1600E+02
    -19.228  0.0000E+00  0.1600E+02
    -19.127  0.0000E+00  0.1600E+02
    -19.027  0.0000E+00  0.1600E+02
    -18.927  0.0000E+00  0.1600E+02
    -18.827  0.0000E+00  0.1600E+02
    -18.726  0.0000E+00  0.1600E+02
    -18.626  0.0000E+00  0.1600E+02
    -18.526  0.0000E+00  0.1600E+02
    -18.426  0.0000E+00  0.1600E+02
    -18.325  0.0000E+00  0.1600E+02
    -18.225  0.0000E+00  0.1600E+02
    -18.125  0.0000E+00  0.1600E+02
    -18.025  0.0000E+00  0.1600E+02
    -17.924  0.0000E+00  0.1600E+02
    -17.824  0.0000E+00  0.1600E+02
    -17.724  0.0000E+00  0.1600E+02
    -17.624  0.0000E+00  0.1600E+02
    -17.523  0.0000E+00  0.1600E+02
    -17.423  0.0000E+00  0.1600E+02
    -17.323  0.0000E+00  0.1600E+02
    -17.222  0.0000E+00  0.1600E+02
    -17.122  0.0000E+00  0.1600E+02
    -17.022  0.0000E+00  0.1600E+02
    -16.922  0.0000E+00  0.1600E+02
    -16.821  0.1210E-04  0.1600E+02
    -16.721  0.3198E+03  0.4806E+02
    -16.621  0.3192E+03  0.9600E+02
    -16.521  0.0000E+00  0.9600E+02
    -16.420  0.0000E+00  0.9600E+02
    -16.320  0.0000E+00  0.9600E+02
    -16.220  0.0000E+00  0.9600E+02
    -16.120  0.0000E+00  0.9600E+02
    -16.019  0.0000E+00  0.9600E+02
    -15.919  0.0000E+00  0.9600E+02
    -15.819  0.0000E+00  0.9600E+02
    -15.719  0.0000E+00  0.9600E+02
    -15.618  0.0000E+00  0.9600E+02
    -15.518  0.0000E+00  0.9600E+02
    -15.418  0.0000E+00  0.9600E+02
    -15.318  0.0000E+00  0.9600E+02
    -15.217  0.0000E+00  0.9600E+02
    -15.117  0.0000E+00  0.9600E+02
    -15.017  0.0000E+00  0.9600E+02
    -14.917  0.0000E+00  0.9600E+02
    -14.816  0.0000E+00  0.9600E+02
    -14.716  0.0000E+00  0.9600E+02
    -14.616  0.0000E+00  0.9600E+02
    -14.516  0.0000E+00  0.9600E+02
    -14.415  0.0000E+00  0.9600E+02
    -14.315  0.1370E-07  0.9600E+02
    -14.215  0.3495E+02  0.9950E+02
    -14.115  0.7412E+02  0.1092E+03
    -14.014  0.1319E+03  0.1230E+03
    -13.914  0.1414E+03  0.1394E+03
    -13.814  0.2494E+02  0.1440E+03
    -13.714  0.0000E+00  0.1440E+03
    -13.613  0.0000E+00  0.1440E+03
    -13.513  0.0000E+00  0.1440E+03
    -13.413  0.0000E+00  0.1440E+03
    -13.313  0.0000E+00  0.1440E+03
    -13.212  0.0000E+00  0.1440E+03
    -13.112  0.0000E+00  0.1440E+03
    -13.012  0.0000E+00  0.1440E+03
    -12.912  0.0000E+00  0.1440E+03
    -12.811  0.0000E+00  0.1440E+03
    -12.711  0.0000E+00  0.1440E+03
    -12.611  0.0000E+00  0.1440E+03
    -12.510  0.0000E+00  0.1440E+03
    -12.410  0.0000E+00  0.1440E+03
    -12.310  0.0000E+00  0.1440E+03
    -12.210  0.0000E+00  0.1440E+03
    -12.109  0.0000E+00  0.1440E+03
    -12.009  0.0000E+00  0.1440E+03
    -11.909  0.0000E+00  0.1440E+03
    -11.809  0.0000E+00  0.1440E+03
    -11.708  0.0000E+00  0.1440E+03
    -11.608  0.0000E+00  0.1440E+03
    -11.508  0.0000E+00  0.1440E+03
    -11.408  0.0000E+00  0.1440E+03
    -11.307  0.0000E+00  0.1440E+03
    -11.207  0.0000E+00  0.1440E+03
    -11.107  0.0000E+00  0.1440E+03
    -11.007  0.0000E+00  0.1440E+03
    -10.906  0.0000E+00  0.1440E+03
    -10.806  0.0000E+00  0.1440E+03
    -10.706  0.0000E+00  0.1440E+03
    -10.606  0.0000E+00  0.1440E+03
    -10.505  0.0000E+00  0.1440E+03
    -10.405  0.0000E+00  0.1440E+03
    -10.305  0.0000E+00  0.1440E+03
    -10.205  0.0000E+00  0.1440E+03
    -10.104  0.0000E+00  0.1440E+03
    -10.004  0.0000E+00  0.1440E+03
     -9.904  0.0000E+00  0.1440E+03
     -9.804  0.0000E+00  0.1440E+03
     -9.703  0.0000E+00  0.1440E+03
     -9.603  0.0000E+00  0.1440E+03
     -9.503  0.0000E+00  0.1440E+03
     -9.403  0.0000E+00  0.1440E+03
     -9.302  0.0000E+00  0.1440E+03
     -9.202  0.0000E+00  0.1440E+03
     -9.102  0.0000E+00  0.1440E+03
     -9.002  0.0000E+00  0.1440E+03
     -8.901  0.0000E+00  0.1440E+03
     -8.801  0.0000E+00  0.1440E+03
     -8.701  0.0000E+00  0.1440E+03
     -8.601  0.0000E+00  0.1440E+03
     -8.500  0.0000E+00  0.1440E+03
     -8.400  0.0000E+00  0.1440E+03
     -8.300  0.0000E+00  0.1440E+03
     -8.200  0.0000E+00  0.1440E+03
     -8.099  0.3608E+00  0.1440E+03
     -7.999  0.3505E-07  0.1443E+03
     -7.899  0.1496E+02  0.1457E+03
     -7.798  0.2076E+02  0.1478E+03
     -7.698  0.9966E+01  0.1495E+03
     -7.598  0.4859E+02  0.1544E+03
     -7.498  0.7216E+01  0.1552E+03
     -7.397  0.2720E+02  0.1582E+03
     -7.297  0.9943E+01  0.1592E+03
     -7.197  0.4987E+01  0.1598E+03
     -7.097  0.2494E+01  0.1600E+03
     -6.996  0.8299E+02  0.1683E+03
     -6.896  0.2591E+03  0.2025E+03
     -6.796  0.1730E+02  0.2080E+03
     -6.696  0.0000E+00  0.2080E+03
     -6.595  0.0000E+00  0.2080E+03
     -6.495  0.0000E+00  0.2080E+03
     -6.395  0.0000E+00  0.2080E+03
     -6.295  0.0000E+00  0.2080E+03
     -6.194  0.0000E+00  0.2080E+03
     -6.094  0.0000E+00  0.2080E+03
     -5.994  0.0000E+00  0.2080E+03
     -5.894  0.0000E+00  0.2080E+03
     -5.793  0.0000E+00  0.2080E+03
     -5.693  0.0000E+00  0.2080E+03
     -5.593  0.0000E+00  0.2080E+03
     -5.493  0.0000E+00  0.2080E+03
     -5.392  0.0000E+00  0.2080E+03
     -5.292  0.0000E+00  0.2080E+03
     -5.192  0.0000E+00  0.2080E+03
     -5.092  0.0000E+00  0.2080E+03
     -4.991  0.0000E+00  0.2080E+03
     -4.891  0.0000E+00  0.2080E+03
     -4.791  0.0000E+00  0.2080E+03
     -4.691  0.0000E+00  0.2080E+03
     -4.590  0.0000E+00  0.2080E+03
     -4.490  0.0000E+00  0.2080E+03
     -4.390  0.0000E+00  0.2080E+03
     -4.290  0.0000E+00  0.2080E+03
     -4.189  0.0000E+00  0.2080E+03
     -4.089  0.0000E+00  0.2080E+03
     -3.989  0.0000E+00  0.2080E+03
     -3.889  0.0000E+00  0.2080E+03
     -3.788  0.0000E+00  0.2080E+03
     -3.688  0.0000E+00  0.2080E+03
     -3.588  0.0000E+00  0.2080E+03
     -3.487  0.0000E+00  0.2080E+03
     -3.387  0.0000E+00  0.2080E+03
     -3.287  0.0000E+00  0.2080E+03
     -3.187  0.1523E-14  0.2080E+03
     -3.086  0.1104E+02  0.2091E+03
     -2.986  0.4777E+02  0.2140E+03
     -2.886  0.3340E+02  0.2181E+03
     -2.786  0.9970E+01  0.2200E+03
     -2.685  0.0000E+00  0.2200E+03
     -2.585  0.4813E+01  0.2205E+03
     -2.485  0.3440E+02  0.2264E+03
     -2.385  0.4120E+02  0.2341E+03
     -2.284  0.4320E+02  0.2393E+03
     -2.184  0.3604E+02  0.2431E+03
     -2.084  0.1322E+02  0.2453E+03
     -1.984  0.8932E+01  0.2474E+03
     -1.883  0.4011E+02  0.2525E+03
     -1.783  0.1568E+02  0.2546E+03
     -1.683  0.4014E+02  0.2590E+03
     -1.583  0.8518E+02  0.2708E+03
     -1.482  0.5493E+02  0.2780E+03
     -1.382  0.8798E+02  0.2888E+03
     -1.282  0.8346E+02  0.3004E+03
     -1.182  0.1047E+03  0.3172E+03
     -1.081  0.1557E+03  0.3359E+03
     -0.981  0.6600E+00  0.3361E+03
     -0.881  0.3707E+02  0.3402E+03
     -0.781  0.3075E+02  0.3451E+03
     -0.680  0.3456E+02  0.3500E+03
     -0.580  0.2494E+01  0.3503E+03
     -0.480  0.1496E+02  0.3517E+03
     -0.380  0.0000E+00  0.3518E+03
     -0.279  0.7696E-13  0.3518E+03
     -0.179  0.2494E+01  0.3520E+03
     -0.079  0.0000E+00  0.3520E+03
      0.021  0.0000E+00  0.3520E+03
      0.122  0.0000E+00  0.3520E+03
      0.222  0.0000E+00  0.3520E+03
      0.322  0.0000E+00  0.3520E+03
      0.422  0.0000E+00  0.3520E+03
      0.523  0.0000E+00  0.3520E+03
      0.623  0.0000E+00  0.3520E+03
      0.723  0.0000E+00  0.3520E+03
      0.823  0.0000E+00  0.3520E+03
      0.924  0.0000E+00  0.3520E+03
      1.024  0.0000E+00  0.3520E+03
      1.124  0.0000E+00  0.3520E+03
      1.225  0.0000E+00  0.3520E+03
      1.325  0.0000E+00  0.3520E+03
      1.425  0.0000E+00  0.3520E+03
      1.525  0.0000E+00  0.3520E+03
      1.626  0.0000E+00  0.3520E+03
      1.726  0.0000E+00  0.3520E+03
      1.826  0.0000E+00  0.3520E+03
      1.926  0.0000E+00  0.3520E+03
      2.027  0.0000E+00  0.3520E+03
      2.127  0.0000E+00  0.3520E+03
      2.227  0.0000E+00  0.3520E+03
      2.327  0.0000E+00  0.3520E+03
      2.428  0.0000E+00  0.3520E+03
      2.528  0.0000E+00  0.3520E+03
      2.628  0.7562E+00  0.3521E+03
      2.728  0.7706E+01  0.3530E+03
      2.829  0.2411E+02  0.3557E+03
      2.929  0.3925E+02  0.3599E+03
      3.029  0.2246E+02  0.3623E+03
      3.129  0.2768E-15  0.3632E+03
      3.230  0.7480E+01  0.3640E+03
      3.330  0.0000E+00  0.3640E+03
      3.430  0.0000E+00  0.3640E+03
      3.530  0.0000E+00  0.3640E+03
      3.631  0.2991E-10  0.3640E+03
      3.731  0.3848E+02  0.3679E+03
      3.831  0.1996E+02  0.3705E+03
      3.931  0.3909E+02  0.3744E+03
      4.032  0.6472E+02  0.3815E+03
      4.132  0.4291E+02  0.3858E+03
      4.232  0.4987E+01  0.3880E+03
      4.332  0.0000E+00  0.3880E+03
      4.433  0.0000E+00  0.3880E+03
      4.533  0.0000E+00  0.3880E+03
      4.633  0.8088E-01  0.3880E+03
      4.733  0.4811E+01  0.3890E+03
      4.834  0.9908E+01  0.3900E+03
      4.934  0.9975E+01  0.3910E+03
      5.034  0.2992E+02  0.3940E+03
      5.134  0.2494E+02  0.3965E+03
      5.235  0.1496E+02  0.3980E+03
      5.335  0.1023E+02  0.3990E+03
      5.435  0.1271E+01  0.3994E+03
      5.535  0.0000E+00  0.4000E+03
      5.636  0.2496E+01  0.4003E+03
      5.736  0.1496E+02  0.4018E+03
      5.836  0.0000E+00  0.4018E+03
      5.937  0.0000E+00  0.4018E+03
      6.037  0.4760E+01  0.4022E+03
      6.137  0.1995E+02  0.4042E+03
      6.237  0.8460E+01  0.4051E+03
      6.338  0.2115E+00  0.4063E+03
      6.438  0.1214E+02  0.4077E+03
      6.538  0.4794E+02  0.4141E+03
      6.638  0.3668E+02  0.4179E+03
      6.739  0.6737E+02  0.4260E+03
      6.839  0.2976E+02  0.4297E+03
      6.939  0.9967E+01  0.4320E+03
      7.039  0.0000E+00  0.4320E+03
      7.140  0.0000E+00  0.4320E+03
      7.240  0.0000E+00  0.4320E+03
      7.340  0.0000E+00  0.4320E+03
      7.440  0.0000E+00  0.4320E+03
      7.541  0.0000E+00  0.4320E+03
      7.641  0.0000E+00  0.4320E+03
      7.741  0.0000E+00  0.4320E+03
      7.841  0.0000E+00  0.4320E+03
      7.942  0.0000E+00  0.4320E+03
      8.042  0.0000E+00  0.4320E+03
      8.142  0.0000E+00  0.4320E+03
      8.242  0.0000E+00  0.4320E+03
      8.24237839    -21.83422952  301     -0.15400799      1.00000000
    -21.834  0.0000E+00  0.0000E+00  0.0000E+00
    -21.734  0.0000E+00  0.0000E+00  0.0000E+00
    -21.634  0.0000E+00  0.0000E+00  0.0000E+00
    -21.533  0.0000E+00  0.0000E+00  0.0000E+00
    -21.433  0.0000E+00  0.0000E+00  0.0000E+00
    -21.333  0.0000E+00  0.0000E+00  0.0000E+00
    -21.233  0.0000E+00  0.0000E+00  0.0000E+00
    -21.132  0.0000E+00  0.0000E+00  0.0000E+00
    -21.032  0.0000E+00  0.0000E+00  0.0000E+00
    -20.932  0.0000E+00  0.0000E+00  0.0000E+00
    -20.832  0.0000E+00  0.0000E+00  0.0000E+00
    -20.731  0.0000E+00  0.0000E+00  0.0000E+00
    -20.631  0.0000E+00  0.0000E+00  0.0000E+00
    -20.531  0.0000E+00  0.0000E+00  0.0000E+00
    -20.431  0.1767E+02  0.1625E-04  0.8676E-06
    -20.330  0.0000E+00  0.0000E+00  0.0000E+00
    -20.230  0.0000E+00  0.0000E+00  0.0000E+00
    -20.130  0.0000E+00  0.0000E+00  0.0000E+00
    -20.030  0.0000E+00  0.0000E+00  0.0000E+00
    -19.929  0.0000E+00  0.0000E+00  0.0000E+00
    -19.829  0.0000E+00  0.0000E+00  0.0000E+00
    -19.729  0.0000E+00  0.0000E+00  0.0000E+00
    -19.629  0.0000E+00  0.0000E+00  0.0000E+00
    -19.528  0.0000E+00  0.0000E+00  0.0000E+00
    -19.428  0.0000E+00  0.0000E+00  0.0000E+00
    -19.328  0.0000E+00  0.0000E+00  0.0000E+00
    -19.228  0.0000E+00  0.0000E+00  0.0000E+00
    -19.127  0.0000E+00  0.0000E+00  0.0000E+00
    -19.027  0.0000E+00  0.0000E+00  0.0000E+00
    -18.927  0.0000E+00  0.0000E+00  0.0000E+00
    -18.827  0.0000E+00  0.0000E+00  0.0000E+00
    -18.726  0.0000E+00  0.0000E+00  0.0000E+00
    -18.626  0.0000E+00  0.0000E+00  0.0000E+00
    -18.526  0.0000E+00  0.0000E+00  0.0000E+00
    -18.426  0.0000E+00  0.0000E+00  0.0000E+00
    -18.325  0.0000E+00  0.0000E+00  0.0000E+00
    -18.225  0.0000E+00  0.0000E+00  0.0000E+00
    -18.125  0.0000E+00  0.0000E+00  0.0000E+00
    -18.025  0.0000E+00  0.0000E+00  0.0000E+00
    -17.924  0.0000E+00  0.0000E+00  0.0000E+00
    -17.824  0.0000E+00  0.0000E+00  0.0000E+00
    -17.724  0.0000E+00  0.0000E+00  0.0000E+00
    -17.624  0.0000E+00  0.0000E+00  0.0000E+00
    -17.523  0.0000E+00  0.0000E+00  0.0000E+00
    -17.423  0.0000E+00  0.0000E+00  0.0000E+00
    -17.323  0.0000E+00  0.0000E+00  0.0000E+00
    -17.222  0.0000E+00  0.0000E+00  0.0000E+00
    -17.122  0.0000E+00  0.0000E+00  0.0000E+00
    -17.022  0.0000E+00  0.0000E+00  0.0000E+00
    -16.922  0.0000E+00  0.0000E+00  0.0000E+00
    -16.821  0.7407E-10  0.2395E-10  0.3566E-11
    -16.721  0.1026E-02  0.3955E-03  0.6109E-04
    -16.621  0.3702E-04  0.1427E-04  0.1852E-05
    -16.521  0.0000E+00  0.0000E+00  0.0000E+00
    -16.420  0.0000E+00  0.0000E+00  0.0000E+00
    -16.320  0.0000E+00  0.0000E+00  0.0000E+00
    -16.220  0.0000E+00  0.0000E+00  0.0000E+00
    -16.120  0.0000E+00  0.0000E+00  0.0000E+00
    -16.019  0.0000E+00  0.0000E+00  0.0000E+00
    -15.919  0.0000E+00  0.0000E+00  0.0000E+00
    -15.819  0.0000E+00  0.0000E+00  0.0000E+00
    -15.719  0.0000E+00  0.0000E+00  0.0000E+00
    -15.618  0.0000E+00  0.0000E+00  0.0000E+00
    -15.518  0.0000E+00  0.0000E+00  0.0000E+00
    -15.418  0.0000E+00  0.0000E+00  0.0000E+00
    -15.318  0.0000E+00  0.0000E+00  0.0000E+00
    -15.217  0.0000E+00  0.0000E+00  0.0000E+00
    -15.117  0.0000E+00  0.0000E+00  0.0000E+00
    -15.017  0.0000E+00  0.0000E+00  0.0000E+00
    -14.917  0.0000E+00  0.0000E+00  0.0000E+00
    -14.816  0.0000E+00  0.0000E+00  0.0000E+00
    -14.716  0.0000E+00  0.0000E+00  0.0000E+00
    -14.616  0.0000E+00  0.0000E+00  0.0000E+00
    -14.516  0.0000E+00  0.0000E+00  0.0000E+00
    -14.415  0.0000E+00  0.0000E+00  0.0000E+00
    -14.315  0.1026E-10  0.9077E-12  0.1574E-12
    -14.215  0.1399E-01  0.8497E-02  0.6459E-03
    -14.115  0.4538E-02  0.4151E-01  0.2731E-02
    -14.014  0.1305E-01  0.3797E-01  0.3998E-02
    -13.914  0.3418E-01  0.4539E-01  0.4865E-02
    -13.814  0.6837E-02  0.5283E-02  0.6182E-03
    -13.714  0.0000E+00  0.0000E+00  0.0000E+00
    -13.613  0.0000E+00  0.0000E+00  0.0000E+00
    -13.513  0.0000E+00  0.0000E+00  0.0000E+00
    -13.413  0.0000E+00  0.0000E+00  0.0000E+00
    -13.313  0.0000E+00  0.0000E+00  0.0000E+00
    -13.212  0.0000E+00  0.0000E+00  0.0000E+00
    -13.112  0.0000E+00  0.0000E+00  0.0000E+00
    -13.012  0.0000E+00  0.0000E+00  0.0000E+00
    -12.912  0.0000E+00  0.0000E+00  0.0000E+00
    -12.811  0.0000E+00  0.0000E+00  0.0000E+00
    -12.711  0.0000E+00  0.0000E+00  0.0000E+00
    -12.611  0.0000E+00  0.0000E+00  0.0000E+00
    -12.510  0.0000E+00  0.0000E+00  0.0000E+00
    -12.410  0.0000E+00  0.0000E+00  0.0000E+00
    -12.310  0.0000E+00  0.0000E+00  0.0000E+00
    -12.210  0.0000E+00  0.0000E+00  0.0000E+00
    -12.109  0.0000E+00  0.0000E+00  0.0000E+00
    -12.009  0.0000E+00  0.0000E+00  0.0000E+00
    -11.909  0.0000E+00  0.0000E+00  0.0000E+00
    -11.809  0.0000E+00  0.0000E+00  0.0000E+00
    -11.708  0.0000E+00  0.0000E+00  0.0000E+00
    -11.608  0.0000E+00  0.0000E+00  0.0000E+00
    -11.508  0.0000E+00  0.0000E+00  0.0000E+00
    -11.408  0.0000E+00  0.0000E+00  0.0000E+00
    -11.307  0.0000E+00  0.0000E+00  0.0000E+00
    -11.207  0.0000E+00  0.0000E+00  0.0000E+00
    -11.107  0.0000E+00  0.0000E+00  0.0000E+00
    -11.007  0.0000E+00  0.0000E+00  0.0000E+00
    -10.906  0.0000E+00  0.0000E+00  0.0000E+00
    -10.806  0.0000E+00  0.0000E+00  0.0000E+00
    -10.706  0.0000E+00  0.0000E+00  0.0000E+00
    -10.606  0.0000E+00  0.0000E+00  0.0000E+00
    -10.505  0.0000E+00  0.0000E+00  0.0000E+00
    -10.405  0.0000E+00  0.0000E+00  0.0000E+00
    -10.305  0.0000E+00  0.0000E+00  0.0000E+00
    -10.205  0.0000E+00  0.0000E+00  0.0000E+00
    -10.104  0.0000E+00  0.0000E+00  0.0000E+00
    -10.004  0.0000E+00  0.0000E+00  0.0000E+00
     -9.904  0.0000E+00  0.0000E+00  0.0000E+00
     -9.804  0.0000E+00  0.0000E+00  0.0000E+00
     -9.703  0.0000E+00  0.0000E+00  0.0000E+00
     -9.603  0.0000E+00  0.0000E+00  0.0000E+00
     -9.503  0.0000E+00  0.0000E+00  0.0000E+00
     -9.403  0.0000E+00  0.0000E+00  0.0000E+00
     -9.302  0.0000E+00  0.0000E+00  0.0000E+00
     -9.202  0.0000E+00  0.0000E+00  0.0000E+00
     -9.102  0.0000E+00  0.0000E+00  0.0000E+00
     -9.002  0.0000E+00  0.0000E+00  0.0000E+00
     -8.901  0.0000E+00  0.0000E+00  0.0000E+00
     -8.801  0.0000E+00  0.0000E+00  0.0000E+00
     -8.701  0.0000E+00  0.0000E+00  0.0000E+00
     -8.601  0.0000E+00  0.0000E+00  0.0000E+00
     -8.500  0.0000E+00  0.0000E+00  0.0000E+00
     -8.400  0.0000E+00  0.0000E+00  0.0000E+00
     -8.300  0.0000E+00  0.0000E+00  0.0000E+00
     -8.200  0.0000E+00  0.0000E+00  0.0000E+00
     -8.099  0.8100E-21  0.9455E-05  0.7375E-07
     -7.999  0.1375E-12  0.6111E-10  0.3655E-13
     -7.899  0.1956E-04  0.3094E-01  0.4215E-04
     -7.798  0.7990E-04  0.1069E+00  0.1242E-03
     -7.698  0.1658E-08  0.2502E-01  0.9024E-04
     -7.598  0.2717E-03  0.2803E+00  0.5592E-03
     -7.498  0.3046E-04  0.9126E-01  0.1259E-03
     -7.397  0.3927E-03  0.1192E+00  0.3534E-03
     -7.297  0.2112E-03  0.8730E-01  0.1093E-03
     -7.197  0.1184E-03  0.6414E-01  0.9251E-04
     -7.097  0.8808E-04  0.9405E-01  0.1990E-04
     -6.996  0.1974E-04  0.7805E+01  0.2718E-03
     -6.896  0.2099E-03  0.2375E+02  0.2738E-03
     -6.796  0.8292E-04  0.9639E+00  0.3895E-04
     -6.696  0.0000E+00  0.0000E+00  0.0000E+00
     -6.595  0.0000E+00  0.0000E+00  0.0000E+00
     -6.495  0.0000E+00  0.0000E+00  0.0000E+00
     -6.395  0.0000E+00  0.0000E+00  0.0000E+00
     -6.295  0.0000E+00  0.0000E+00  0.0000E+00
     -6.194  0.0000E+00  0.0000E+00  0.0000E+00
     -6.094  0.0000E+00  0.0000E+00  0.0000E+00
     -5.994  0.0000E+00  0.0000E+00  0.0000E+00
     -5.894  0.0000E+00  0.0000E+00  0.0000E+00
     -5.793  0.0000E+00  0.0000E+00  0.0000E+00
     -5.693  0.0000E+00  0.0000E+00  0.0000E+00
     -5.593  0.0000E+00  0.0000E+00  0.0000E+00
     -5.493  0.0000E+00  0.0000E+00  0.0000E+00
     -5.392  0.0000E+00  0.0000E+00  0.0000E+00
     -5.292  0.0000E+00  0.0000E+00  0.0000E+00
     -5.192  0.0000E+00  0.0000E+00  0.0000E+00
     -5.092  0.0000E+00  0.0000E+00  0.0000E+00
     -4.991  0.0000E+00  0.0000E+00  0.0000E+00
     -4.891  0.0000E+00  0.0000E+00  0.0000E+00
     -4.791  0.0000E+00  0.0000E+00  0.0000E+00
     -4.691  0.0000E+00  0.0000E+00  0.0000E+00
     -4.590  0.0000E+00  0.0000E+00  0.0000E+00
     -4.490  0.0000E+00  0.0000E+00  0.0000E+00
     -4.390  0.0000E+00  0.0000E+00  0.0000E+00
     -4.290  0.0000E+00  0.0000E+00  0.0000E+00
     -4.189  0.0000E+00  0.0000E+00  0.0000E+00
     -4.089  0.0000E+00  0.0000E+00  0.0000E+00
     -3.989  0.0000E+00  0.0000E+00  0.0000E+00
     -3.889  0.0000E+00  0.0000E+00  0.0000E+00
     -3.788  0.0000E+00  0.0000E+00  0.0000E+00
     -3.688  0.0000E+00  0.0000E+00  0.0000E+00
     -3.588  0.0000E+00  0.0000E+00  0.0000E+00
     -3.487  0.0000E+00  0.0000E+00  0.0000E+00
     -3.387  0.0000E+00  0.0000E+00  0.0000E+00
     -3.287  0.0000E+00  0.0000E+00  0.0000E+00
     -3.187  0.1207E-20  0.4012E-17  0.5122E-19
     -3.086  0.6345E-05  0.1674E-01  0.9640E-03
     -2.986  0.1665E-03  0.3344E-01  0.3450E-02
     -2.886  0.1529E-03  0.1664E-01  0.4931E-02
     -2.786  0.2307E-16  0.9889E-03  0.6533E-03
     -2.685  0.0000E+00  0.0000E+00  0.0000E+00
     -2.585  0.6891E-03  0.8677E-02  0.3204E-03
     -2.485  0.5270E-02  0.4199E-01  0.6627E-02
     -2.385  0.1655E-02  0.7980E-01  0.7724E-02
     -2.284  0.5413E-02  0.5710E-01  0.9464E-02
     -2.184  0.1335E-02  0.4139E-01  0.8313E-02
     -2.084  0.7825E-02  0.4066E-02  0.3184E-02
     -1.984  0.5615E-02  0.1151E-01  0.3321E-02
     -1.883  0.2370E-01  0.4984E-01  0.7331E-02
     -1.783  0.5725E-02  0.3906E-01  0.5485E-02
     -1.683  0.9505E-02  0.1381E+00  0.1300E-01
     -1.583  0.2561E-01  0.1174E+00  0.2771E-01
     -1.482  0.1116E-01  0.1097E+00  0.1669E-01
     -1.382  0.1475E-01  0.1039E+00  0.2642E-01
     -1.282  0.5294E-02  0.1694E+00  0.4067E-01
     -1.182  0.2851E-02  0.1350E+00  0.3632E-01
     -1.081  0.4542E-02  0.6650E+00  0.6363E-01
     -0.981  0.1236E-03  0.1502E-02  0.5030E-03
     -0.881  0.5552E-02  0.6874E-01  0.1920E-01
     -0.781  0.2578E-02  0.7156E-01  0.1085E-01
     -0.680  0.1031E-02  0.9222E-01  0.1029E-01
     -0.580  0.8014E-04  0.2900E-02  0.1754E-03
     -0.480  0.1180E-03  0.1152E-01  0.6320E-03
     -0.380  0.0000E+00  0.0000E+00  0.0000E+00
     -0.279  0.7279E-31  0.3026E-17  0.9404E-18
     -0.179  0.2358E-17  0.9804E-04  0.3047E-04
     -0.079  0.0000E+00  0.0000E+00  0.0000E+00
      0.021  0.0000E+00  0.0000E+00  0.0000E+00
      0.122  0.0000E+00  0.0000E+00  0.0000E+00
      0.222  0.0000E+00  0.0000E+00  0.0000E+00
      0.322  0.0000E+00  0.0000E+00  0.0000E+00
      0.422  0.0000E+00  0.0000E+00  0.0000E+00
      0.523  0.0000E+00  0.0000E+00  0.0000E+00
      0.623  0.0000E+00  0.0000E+00  0.0000E+00
      0.723  0.0000E+00  0.0000E+00  0.0000E+00
      0.823  0.0000E+00  0.0000E+00  0.0000E+00
      0.924  0.0000E+00  0.0000E+00  0.0000E+00
      1.024  0.0000E+00  0.0000E+00  0.0000E+00
      1.124  0.0000E+00  0.0000E+00  0.0000E+00
      1.225  0.0000E+00  0.0000E+00  0.0000E+00
      1.325  0.0000E+00  0.0000E+00  0.0000E+00
      1.425  0.0000E+00  0.0000E+00  0.0000E+00
      1.525  0.0000E+00  0.0000E+00  0.0000E+00
      1.626  0.0000E+00  0.0000E+00  0.0000E+00
      1.726  0.0000E+00  0.0000E+00  0.0000E+00
      1.826  0.0000E+00  0.0000E+00  0.0000E+00
      1.926  0.0000E+00  0.0000E+00  0.0000E+00
      2.027  0.0000E+00  0.0000E+00  0.0000E+00
      2.127  0.0000E+00  0.0000E+00  0.0000E+00
      2.227  0.0000E+00  0.0000E+00  0.0000E+00
      2.327  0.0000E+00  0.0000E+00  0.0000E+00
      2.428  0.0000E+00  0.0000E+00  0.0000E+00
      2.528  0.0000E+00  0.0000E+00  0.0000E+00
      2.628  0.2193E-12  0.8621E-05  0.2796E-03
      2.728  0.4950E-03  0.2646E-03  0.3859E-02
      2.829  0.2876E-02  0.1783E-02  0.9175E-02
      2.929  0.2413E-02  0.1028E-01  0.1075E-01
      3.029  0.9162E-03  0.1205E-01  0.4429E-02
      3.129  0.7990E-20  0.2237E-18  0.5957E-19
      3.230  0.5683E-03  0.3945E-02  0.1555E-02
      3.330  0.0000E+00  0.0000E+00  0.0000E+00
      3.430  0.0000E+00  0.0000E+00  0.0000E+00
      3.530  0.0000E+00  0.0000E+00  0.0000E+00
      3.631  0.3188E-15  0.2759E-14  0.2041E-13
      3.731  0.2422E-02  0.3747E-02  0.3164E-01
      3.831  0.1520E-02  0.6184E-02  0.7924E-02
      3.931  0.1109E-02  0.1861E-01  0.9588E-02
      4.032  0.6194E-02  0.1508E-01  0.2906E-01
      4.132  0.4445E-02  0.1139E-01  0.1510E-01
      4.232  0.2531E-03  0.2164E-02  0.1851E-02
      4.332  0.0000E+00  0.0000E+00  0.0000E+00
      4.433  0.0000E+00  0.0000E+00  0.0000E+00
      4.533  0.0000E+00  0.0000E+00  0.0000E+00
      4.633  0.3050E-16  0.5014E-05  0.8245E-04
      4.733  0.5012E-13  0.4230E-03  0.1639E-02
      4.834  0.1794E-13  0.4929E-03  0.5784E-03
      4.934  0.1005E-12  0.4992E-03  0.8215E-02
      5.034  0.1201E-01  0.3122E-02  0.2113E-01
      5.134  0.8174E-03  0.4889E-02  0.6497E-02
      5.235  0.4725E-03  0.1570E-02  0.6509E-02
      5.335  0.5402E-12  0.1959E-02  0.2414E-02
      5.435  0.3806E-06  0.2218E-03  0.3727E-03
      5.535  0.0000E+00  0.0000E+00  0.0000E+00
      5.636  0.8942E-05  0.5414E-03  0.1609E-02
      5.736  0.4962E-01  0.1634E-01  0.2112E-01
      5.836  0.0000E+00  0.0000E+00  0.0000E+00
      5.937  0.0000E+00  0.0000E+00  0.0000E+00
      6.037  0.1369E-01  0.5121E-02  0.2146E-01
      6.137  0.5504E-01  0.2399E-01  0.7478E-01
      6.237  0.2295E-01  0.4139E-02  0.5713E-01
      6.338  0.2791E-06  0.5059E-04  0.3271E-02
      6.438  0.3181E-01  0.4506E-02  0.1444E+00
      6.538  0.9650E-02  0.1701E-01  0.6520E+00
      6.638  0.1467E-01  0.2600E-01  0.3898E+00
      6.739  0.4836E-01  0.4570E-01  0.1023E+01
      6.839  0.1487E-01  0.3746E-01  0.2335E+00
      6.939  0.6294E-02  0.3697E-02  0.1897E+00
      7.039  0.0000E+00  0.0000E+00  0.0000E+00
      7.140  0.0000E+00  0.0000E+00  0.0000E+00
      7.240  0.0000E+00  0.0000E+00  0.0000E+00
      7.340  0.0000E+00  0.0000E+00  0.0000E+00
      7.440  0.0000E+00  0.0000E+00  0.0000E+00
      7.541  0.0000E+00  0.0000E+00  0.0000E+00
      7.641  0.0000E+00  0.0000E+00  0.0000E+00
      7.741  0.0000E+00  0.0000E+00  0.0000E+00
      7.841  0.0000E+00  0.0000E+00  0.0000E+00
      7.942  0.0000E+00  0.0000E+00  0.0000E+00
      8.042  0.0000E+00  0.0000E+00  0.0000E+00
      8.142  0.0000E+00  0.0000E+00  0.0000E+00
      8.242  0.0000E+00  0.0000E+00  0.0000E+00
      8.24237839    -21.83422952  301     -0.15400799      1.00000000
    -21.834  0.0000E+00  0.0000E+00  0.0000E+00
    -21.734  0.0000E+00  0.0000E+00  0.0000E+00
    -21.634  0.0000E+00  0.0000E+00  0.0000E+00
    -21.533  0.0000E+00  0.0000E+00  0.0000E+00
    -21.433  0.0000E+00  0.0000E+00  0.0000E+00
    -21.333  0.0000E+00  0.0000E+00  0.0000E+00
    -21.233  0.0000E+00  0.0000E+00  0.0000E+00
    -21.132  0.0000E+00  0.0000E+00  0.0000E+00
    -21.032  0.0000E+00  0.0000E+00  0.0000E+00
    -20.932  0.0000E+00  0.0000E+00  0.0000E+00
    -20.832  0.0000E+00  0.0000E+00  0.0000E+00
    -20.731  0.0000E+00  0.0000E+00  0.0000E+00
    -20.631  0.0000E+00  0.0000E+00  0.0000E+00
    -20.531  0.0000E+00  0.0000E+00  0.0000E+00
    -20.431  0.1767E+02  0.1625E-04  0.8676E-06
    -20.330  0.0000E+00  0.0000E+00  0.0000E+00
    -20.230  0.0000E+00  0.0000E+00  0.0000E+00
    -20.130  0.0000E+00  0.0000E+00  0.0000E+00
    -20.030  0.0000E+00  0.0000E+00  0.0000E+00
    -19.929  0.0000E+00  0.0000E+00  0.0000E+00
    -19.829  0.0000E+00  0.0000E+00  0.0000E+00
    -19.729  0.0000E+00  0.0000E+00  0.0000E+00
    -19.629  0.0000E+00  0.0000E+00  0.0000E+00
    -19.528  0.0000E+00  0.0000E+00  0.0000E+00
    -19.428  0.0000E+00  0.0000E+00  0.0000E+00
    -19.328  0.0000E+00  0.0000E+00  0.0000E+00
    -19.228  0.0000E+00  0.0000E+00  0.0000E+00
    -19.127  0.0000E+00  0.0000E+00  0.0000E+00
    -19.027  0.0000E+00  0.0000E+00  0.0000E+00
    -18.927  0.0000E+00  0.0000E+00  0.0000E+00
    -18.827  0.0000E+00  0.0000E+00  0.0000E+00
    -18.726  0.0000E+00  0.0000E+00  0.0000E+00
    -18.626  0.0000E+00  0.0000E+00  0.0000E+00
    -18.526  0.0000E+00  0.0000E+00  0.0000E+00
    -18.426  0.0000E+00  0.0000E+00  0.0000E+00
    -18.325  0.0000E+00  0.0000E+00  0.0000E+00
    -18.225  0.0000E+00  0.0000E+00  0.0000E+00
    -18.125  0.0000E+00  0.0000E+00  0.0000E+00
    -18.025  0.0000E+00  0.0000E+00  0.0000E+00
    -17.924  0.0000E+00  0.0000E+00  0.0000E+00
    -17.824  0.0000E+00  0.0000E+00  0.0000E+00
    -17.724  0.0000E+00  0.0000E+00  0.0000E+00
    -17.624  0.0000E+00  0.0000E+00  0.0000E+00
    -17.523  0.0000E+00  0.0000E+00  0.0000E+00
    -17.423  0.0000E+00  0.0000E+00  0.0000E+00
    -17.323  0.0000E+00  0.0000E+00  0.0000E+00
    -17.222  0.0000E+00  0.0000E+00  0.0000E+00
    -17.122  0.0000E+00  0.0000E+00  0.0000E+00
    -17.022  0.0000E+00  0.0000E+00  0.0000E+00
    -16.922  0.0000E+00  0.0000E+00  0.0000E+00
    -16.821  0.7406E-10  0.2395E-10  0.3566E-11
    -16.721  0.1026E-02  0.3955E-03  0.6109E-04
    -16.621  0.3702E-04  0.1427E-04  0.1852E-05
    -16.521  0.0000E+00  0.0000E+00  0.0000E+00
    -16.420  0.0000E+00  0.0000E+00  0.0000E+00
    -16.320  0.0000E+00  0.0000E+00  0.0000E+00
    -16.220  0.0000E+00  0.0000E+00  0.0000E+00
    -16.120  0.0000E+00  0.0000E+00  0.0000E+00
    -16.019  0.0000E+00  0.0000E+00  0.0000E+00
    -15.919  0.0000E+00  0.0000E+00  0.0000E+00
    -15.819  0.0000E+00  0.0000E+00  0.0000E+00
    -15.719  0.0000E+00  0.0000E+00  0.0000E+00
    -15.618  0.0000E+00  0.0000E+00  0.0000E+00
    -15.518  0.0000E+00  0.0000E+00  0.0000E+00
    -15.418  0.0000E+00  0.0000E+00  0.0000E+00
    -15.318  0.0000E+00  0.0000E+00  0.0000E+00
    -15.217  0.0000E+00  0.0000E+00  0.0000E+00
    -15.117  0.0000E+00  0.0000E+00  0.0000E+00
    -15.017  0.0000E+00  0.0000E+00  0.0000E+00
    -14.917  0.0000E+00  0.0000E+00  0.0000E+00
    -14.816  0.0000E+00  0.0000E+00  0.0000E+00
    -14.716  0.0000E+00  0.0000E+00  0.0000E+00
    -14.616  0.0000E+00  0.0000E+00  0.0000E+00
    -14.516  0.0000E+00  0.0000E+00  0.0000E+00
    -14.415  0.0000E+00  0.0000E+00  0.0000E+00
    -14.315  0.1026E-10  0.9077E-12  0.1574E-12
    -14.215  0.1399E-01  0.8497E-02  0.6459E-03
    -14.115  0.4538E-02  0.4151E-01  0.2731E-02
    -14.014  0.1305E-01  0.3797E-01  0.3998E-02
    -13.914  0.3418E-01  0.4539E-01  0.4865E-02
    -13.814  0.6837E-02  0.5283E-02  0.6182E-03
    -13.714  0.0000E+00  0.0000E+00  0.0000E+00
    -13.613  0.0000E+00  0.0000E+00  0.0000E+00
    -13.513  0.0000E+00  0.0000E+00  0.0000E+00
    -13.413  0.0000E+00  0.0000E+00  0.0000E+00
    -13.313  0.0000E+00  0.0000E+00  0.0000E+00
    -13.212  0.0000E+00  0.0000E+00  0.0000E+00
    -13.112  0.0000E+00  0.0000E+00  0.0000E+00
    -13.012  0.0000E+00  0.0000E+00  0.0000E+00
    -12.912  0.0000E+00  0.0000E+00  0.0000E+00