       N       E                     dE             d eps       ncg     rms          rms(c)
DAV:   1     0.135737208315E+04    0.13574E+04   -0.11285E+05  2696   0.958E+02
DAV:   2    -0.112641438783E+04   -0.24838E+04   -0.23849E+04  3216   0.295E+02
DAV:   3    -0.149459131348E+04   -0.36818E+03   -0.36597E+03  3472   0.134E+02
DAV:   4    -0.150672999023E+04   -0.12139E+02   -0.12108E+02  3072   0.323E+01
DAV:   5    -0.150725645716E+04   -0.52647E+00   -0.52626E+00  3392   0.533E+00    0.103E+01
DAV:   6    -0.142488475985E+04    0.82372E+02   -0.25938E+01  3360   0.298E+01    0.723E+00
DAV:   7    -0.142437415612E+04    0.51060E+00   -0.96496E+00  3128   0.566E+00    0.381E+00
DAV:   8    -0.142460217014E+04   -0.22801E+00   -0.49510E-01  2976   0.202E+00    0.218E+00
DAV:   9    -0.142467683391E+04   -0.74664E-01   -0.22135E-01  2912   0.142E+00    0.442E-01
DAV:  10    -0.142468079789E+04   -0.39640E-02   -0.20356E-02  3496   0.381E-01    0.275E-01
DAV:  11    -0.142468427319E+04   -0.34753E-02   -0.43283E-03  2800   0.190E-01    0.941E-02
DAV:  12    -0.142468408167E+04    0.19152E-03   -0.76232E-04  3328   0.835E-02    0.381E-02
DAV:  13    -0.142468409037E+04   -0.87011E-05   -0.63593E-05  2944   0.208E-02    0.220E-02
DAV:  14    -0.142468408878E+04    0.15893E-05   -0.39038E-05  2976   0.154E-02    0.418E-03
DAV:  15    -0.142468409071E+04   -0.19296E-05   -0.35525E-06  2280   0.500E-03    0.173E-03
DAV:  16    -0.142468409751E+04   -0.67945E-05   -0.38697E-07  1616   0.189E-03    0.117E-03
DAV:  17    -0.142468409635E+04    0.11516E-05   -0.12200E-07  1584   0.140E-03    0.813E-04
DAV:  18    -0.142468409425E+04    0.21028E-05   -0.40363E-08  1584   0.757E-04    0.357E-04
DAV:  19    -0.142468409252E+04    0.17360E-05   -0.19164E-08  1576   0.530E-04    0.108E-04
DAV:  20    -0.142468409301E+04   -0.49525E-06   -0.61215E-09  1544   0.324E-04
   1 F= -.14246841E+04 E0= -.14246841E+04  d E =-.149523E-25
