<?xml version="1.0" encoding="ISO-8859-1"?>
<modeling>
 <generator>
  <i name="program" type="string">vasp </i>
  <i name="version" type="string">5.4.4.18Apr17-6-g9f103f2a35  </i>
  <i name="subversion" type="string">(build Jun 22 2020 09:27:21) complex            parallel </i>
  <i name="platform" type="string">tx2_gcc-7.3_libsci-18.07_cray-fftw-3.3.8 </i>
  <i name="date" type="string">2021 09 22 </i>
  <i name="time" type="string">08:50:00 </i>
 </generator>
 <incar>
  <i type="string" name="SYSTEM"> CsPbBr3 cubic bulk</i>
  <i type="string" name="PREC">accurate</i>
  <i type="string" name="ALGO"> Normal   ! Electronic minimisation algo</i>
  <i type="logical" name="ADDGRID"> T  </i>
  <i type="int" name="NELM">   200</i>
  <i type="int" name="IBRION">     2</i>
  <i name="EDIFF">      0.00000100</i>
  <i name="EDIFFG">     -0.01000000</i>
  <i type="int" name="NSW">     0</i>
  <i type="int" name="ISIF">     3</i>
  <i type="int" name="ISYM">     2</i>
  <i name="ENCUT">    300.00000000</i>
  <i name="POTIM">      0.50000000</i>
  <i type="string" name="LREAL"> AUTO</i>
  <i type="int" name="ISMEAR">     0</i>
  <i name="SIGMA">      0.01000000</i>
  <i name="PSTRESS">      0.00000000</i>
  <i type="logical" name="LWAVE"> F  </i>
  <i type="logical" name="LCHARG"> T  </i>
  <i type="logical" name="LVHAR"> T  </i>
  <i type="int" name="LORBIT">    10</i>
  <i type="logical" name="LASPH"> T  </i>
  <v type="int" name="KPOINT_BSE">    -1     0     0     0</v>
  <i type="int" name="NELM">   200</i>
  <i type="string" name="METAGGA"> SCAN       ! PBE exchange-correlation</i>
  <i type="logical" name="LASPH"> T  </i>
 </incar>
 <structure name="primitive_cell" >
  <crystal>
   <varray name="basis" >
    <v>       5.86767600      -5.86767600       0.00000000 </v>
    <v>      -5.86767600      -5.86767600       0.00000000 </v>
    <v>       0.00000000       0.00000000     -11.73535200 </v>
   </varray>
   <i name="volume">    808.08745837 </i>
   <varray name="rec_basis" >
    <v>       0.08521261      -0.08521261       0.00000000 </v>
    <v>      -0.08521261      -0.08521261      -0.00000000 </v>
    <v>       0.00000000      -0.00000000      -0.08521261 </v>
   </varray>
  </crystal>
  <varray name="positions" >
   <v>       0.00000000      -0.50000000      -0.25000000 </v>
   <v>       0.37500000      -0.50000000      -0.25000000 </v>
   <v>      -0.19375000       0.30625000      -0.06250000 </v>
   <v>      -0.19375000       0.30625000      -0.43750000 </v>
   <v>      -0.30625000      -0.19375000      -0.06250000 </v>
   <v>      -0.30625000      -0.19375000      -0.43750000 </v>
   <v>       0.12500000       0.00000000      -0.25000000 </v>
   <v>       0.19375000      -0.30625000       0.06250000 </v>
   <v>       0.19375000      -0.30625000       0.43750000 </v>
   <v>       0.00000000       0.00000000       0.00000000 </v>
   <v>       0.00000000       0.00000000      -0.50000000 </v>
   <v>      -0.50000000      -0.50000000       0.00000000 </v>
   <v>      -0.50000000      -0.50000000      -0.50000000 </v>
   <v>       0.30625000       0.19375000       0.06250000 </v>
   <v>       0.30625000       0.19375000       0.43750000 </v>
   <v>       0.00000000      -0.50000000       0.25000000 </v>
   <v>      -0.50000000       0.00000000      -0.25000000 </v>
   <v>      -0.37500000      -0.50000000       0.25000000 </v>
   <v>      -0.12500000       0.00000000       0.25000000 </v>
   <v>      -0.50000000       0.00000000       0.25000000 </v>
  </varray>
 </structure>
 <varray name="primitive_index" >
  <v type="int" >        1 </v>
  <v type="int" >       29 </v>
  <v type="int" >       35 </v>
  <v type="int" >       36 </v>
  <v type="int" >       17 </v>
  <v type="int" >       18 </v>
  <v type="int" >       25 </v>
  <v type="int" >       33 </v>
  <v type="int" >       34 </v>
  <v type="int" >        9 </v>
  <v type="int" >       10 </v>
  <v type="int" >       11 </v>
  <v type="int" >       12 </v>
  <v type="int" >       21 </v>
  <v type="int" >       22 </v>
  <v type="int" >        2 </v>
  <v type="int" >        3 </v>
  <v type="int" >       28 </v>
  <v type="int" >       26 </v>
  <v type="int" >        4 </v>
 </varray>
 <kpoints>
  <generation param="Gamma">
   <v type="int" name="divisions">       2        2        2 </v>
   <v name="usershift">      0.00000000       0.00000000       0.00000000 </v>
   <v name="genvec1">      0.50000000       0.00000000       0.00000000 </v>
   <v name="genvec2">      0.00000000       0.50000000       0.00000000 </v>
   <v name="genvec3">      0.00000000       0.00000000       0.50000000 </v>
   <v name="shift">      0.00000000       0.00000000       0.00000000 </v>
  </generation>
  <varray name="kpointlist" >
   <v>       0.00000000       0.00000000       0.00000000 </v>
   <v>       0.50000000       0.00000000       0.00000000 </v>
   <v>       0.50000000       0.50000000       0.00000000 </v>
   <v>       0.00000000       0.00000000       0.50000000 </v>
   <v>       0.50000000       0.00000000       0.50000000 </v>
   <v>       0.50000000       0.50000000       0.50000000 </v>
  </varray>
  <varray name="weights" >
   <v>       0.12500000 </v>
   <v>       0.25000000 </v>
   <v>       0.12500000 </v>
   <v>       0.12500000 </v>
   <v>       0.25000000 </v>
   <v>       0.12500000 </v>
  </varray>
 </kpoints>
 <parameters>
  <separator name="general" >
   <i type="string" name="SYSTEM">CsPbBr3 cubic bulk</i>
   <i type="logical" name="LCOMPAT"> F  </i>
  </separator>
  <separator name="electronic" >
   <i type="string" name="PREC">accura</i>
   <i name="ENMAX">    300.00000000</i>
   <i name="ENAUG">    503.85200000</i>
   <i name="EDIFF">      0.00000100</i>
   <i type="int" name="IALGO">    38</i>
   <i type="int" name="IWAVPR">    10</i>
   <i type="int" name="NBANDS">   216</i>
   <i name="NELECT">    352.00000000</i>
   <i type="int" name="TURBO">     0</i>
   <i type="int" name="IRESTART">     0</i>
   <i type="int" name="NREBOOT">     0</i>
   <i type="int" name="NMIN">     0</i>
   <i name="EREF">      0.00000000</i>
   <separator name="electronic smearing" >
    <i type="int" name="ISMEAR">     0</i>
    <i name="SIGMA">      0.01000000</i>
    <i name="KSPACING">      0.50000000</i>
    <i type="logical" name="KGAMMA"> T  </i>
   </separator>
   <separator name="electronic projectors" >
    <i type="logical" name="LREAL"> T  </i>
    <v name="ROPT">     -0.00025000     -0.00025000     -0.00025000</v>
    <i type="int" name="LMAXPAW">  -100</i>
    <i type="int" name="LMAXMIX">     2</i>
    <i type="logical" name="NLSPLINE"> F  </i>
   </separator>
   <separator name="electronic startup" >
    <i type="int" name="ISTART">     0</i>
    <i type="int" name="ICHARG">     2</i>
    <i type="int" name="INIWAV">     1</i>
   </separator>
   <separator name="electronic spin" >
    <i type="int" name="ISPIN">     1</i>
    <i type="logical" name="LNONCOLLINEAR"> F  </i>
    <v name="MAGMOM">      1.00000000      1.00000000      1.00000000      1.00000000      1.00000000      1.00000000      1.00000000      1.00000000      1.00000000      1.00000000      1.00000000      1.00000000      1.00000000      1.00000000      1.00000000      1.00000000      1.00000000      1.00000000      1.00000000      1.00000000
      1.00000000      1.00000000      1.00000000      1.00000000      1.00000000      1.00000000      1.00000000      1.00000000      1.00000000      1.00000000      1.00000000      1.00000000      1.00000000      1.00000000      1.00000000      1.00000000      1.00000000      1.00000000      1.00000000      1.00000000
</v>
    <i name="NUPDOWN">     -1.00000000</i>
    <i type="logical" name="LSORBIT"> F  </i>
    <v name="SAXIS">      0.00000000      0.00000000      1.00000000</v>
    <i type="logical" name="LSPIRAL"> F  </i>
    <v name="QSPIRAL">      0.00000000      0.00000000      0.00000000</v>
    <i type="logical" name="LZEROZ"> F  </i>
   </separator>
   <separator name="electronic exchange-correlation" >
    <i type="logical" name="LASPH"> T  </i>
    <i type="logical" name="LMETAGGA"> F  </i>
   </separator>
   <separator name="electronic convergence" >
    <i type="int" name="NELM">   200</i>
    <i type="int" name="NELMDL">    -5</i>
    <i type="int" name="NELMIN">     2</i>
    <i name="ENINI">    300.00000000</i>
    <separator name="electronic convergence detail" >
     <i type="logical" name="LDIAG"> T  </i>
     <i type="logical" name="LSUBROT"> F  </i>
     <i name="WEIMIN">      0.00000000</i>
     <i name="EBREAK">      0.00000000</i>
     <i name="DEPER">      0.30000000</i>
     <i type="int" name="NRMM">     4</i>
     <i name="TIME">      0.40000000</i>
    </separator>
   </separator>
   <separator name="electronic mixer" >
    <i name="AMIX">      0.40000000</i>
    <i name="BMIX">      1.00000000</i>
    <i name="AMIN">      0.10000000</i>
    <i name="AMIX_MAG">      1.60000000</i>
    <i name="BMIX_MAG">      1.00000000</i>
    <separator name="electronic mixer details" >
     <i type="int" name="IMIX">     4</i>
     <i type="logical" name="MIXFIRST"> F  </i>
     <i type="int" name="MAXMIX">   -45</i>
     <i name="WC">    100.00000000</i>
     <i type="int" name="INIMIX">     1</i>
     <i type="int" name="MIXPRE">     1</i>
     <i type="int" name="MREMOVE">     5</i>
    </separator>
   </separator>
   <separator name="electronic dipolcorrection" >
    <i type="logical" name="LDIPOL"> F  </i>
    <i type="logical" name="LMONO"> F  </i>
    <i type="int" name="IDIPOL">     0</i>
    <i name="EPSILON">      1.00000000</i>
    <v name="DIPOL">   -100.00000000   -100.00000000   -100.00000000</v>
    <i name="EFIELD">      0.00000000</i>
   </separator>
  </separator>
  <separator name="grids" >
   <i type="int" name="NGX">    70</i>
   <i type="int" name="NGY">    70</i>
   <i type="int" name="NGZ">    70</i>
   <i type="int" name="NGXF">   140</i>
   <i type="int" name="NGYF">   140</i>
   <i type="int" name="NGZF">   140</i>
   <i type="logical" name="ADDGRID"> T  </i>
  </separator>
  <separator name="ionic" >
   <i type="int" name="NSW">     0</i>
   <i type="int" name="IBRION">    -1</i>
   <i type="int" name="MDALGO">     0</i>
   <i type="int" name="ISIF">     3</i>
   <i name="PSTRESS">      0.00000000</i>
   <i name="EDIFFG">     -0.01000000</i>
   <i type="int" name="NFREE">     1</i>
   <i name="POTIM">      0.50000000</i>
   <i name="SMASS">     -3.00000000</i>
   <i name="SCALEE">      1.00000000</i>
  </separator>
  <separator name="ionic md" >
   <i name="TEBEG">      0.00010000</i>
   <i name="TEEND">      0.00010000</i>
   <i type="int" name="NBLOCK">     1</i>
   <i type="int" name="KBLOCK">     1</i>
   <i type="int" name="NPACO">   256</i>
   <i name="APACO">     16.00000000</i>
  </separator>
  <separator name="symmetry" >
   <i type="int" name="ISYM">     2</i>
   <i name="SYMPREC">      0.00001000</i>
  </separator>
  <separator name="dos" >
   <i type="int" name="LORBIT">    10</i>
   <v name="RWIGS">     -1.00000000     -1.00000000     -1.00000000</v>
   <i type="int" name="NEDOS">   301</i>
   <i name="EMIN">     10.00000000</i>
   <i name="EMAX">    -10.00000000</i>
   <i name="EFERMI">      0.00000000</i>
  </separator>
  <separator name="writing" >
   <i type="int" name="NWRITE">     2</i>
   <i type="logical" name="LWAVE"> F  </i>
   <i type="logical" name="LDOWNSAMPLE"> F  </i>
   <i type="logical" name="LCHARG"> T  </i>
   <i type="logical" name="LPARD"> F  </i>
   <i type="logical" name="LVTOT"> F  </i>
   <i type="logical" name="LVHAR"> T  </i>
   <i type="logical" name="LELF"> F  </i>
   <i type="logical" name="LOPTICS"> F  </i>
   <v name="STM">      0.00000000      0.00000000      0.00000000      0.00000000      0.00000000      0.00000000      0.00000000</v>
  </separator>
  <separator name="performance" >
   <i type="int" name="NPAR">     8</i>
   <i type="int" name="NSIM">     4</i>
   <i type="int" name="NBLK">    -1</i>
   <i type="logical" name="LPLANE"> T  </i>
   <i type="logical" name="LSCALAPACK"> T  </i>
   <i type="logical" name="LSCAAWARE"> F  </i>
   <i type="logical" name="LSCALU"> F  </i>
   <i type="logical" name="LASYNC"> F  </i>
   <i type="logical" name="LORBITALREAL"> F  </i>
  </separator>
  <separator name="miscellaneous" >
   <i type="int" name="IDIOT">     3</i>
   <i type="int" name="ISPECIAL">     0</i>
   <i type="logical" name="LMUSIC"> F  </i>
   <v name="POMASS">    132.90000000    207.20000000     79.90400000</v>
   <v name="DARWINR">      0.00000000      0.00000000      0.00000000</v>
   <v name="DARWINV">      1.00000000      1.00000000      1.00000000</v>
   <i type="logical" name="LCORR"> T  </i>
  </separator>
  <i type="logical" name="GGA_COMPAT"> T  </i>
  <i type="logical" name="LBERRY"> F  </i>
  <i type="int" name="ICORELEVEL">     0</i>
  <i type="logical" name="LDAU"> F  </i>
  <i type="int" name="I_CONSTRAINED_M">     0</i>
  <separator name="electronic exchange-correlation" >
   <i type="string" name="GGA">--</i>
   <i type="int" name="VOSKOWN">     0</i>
   <i type="logical" name="LHFCALC"> F  </i>
   <i type="string" name="PRECFOCK"></i>
   <i type="logical" name="LSYMGRAD"> F  </i>
   <i type="logical" name="LHFONE"> F  </i>
   <i type="logical" name="LRHFCALC"> F  </i>
   <i type="logical" name="LTHOMAS"> F  </i>
   <i type="logical" name="LMODELHF"> F  </i>
   <i name="ENCUT4O">     -1.00000000</i>
   <i type="int" name="EXXOEP">     0</i>
   <i type="int" name="FOURORBIT">     0</i>
   <i name="AEXX">      0.00000000</i>
   <i name="HFALPHA">      0.00000000</i>
   <i name="MCALPHA">      0.00000000</i>
   <i name="ALDAX">      1.00000000</i>
   <i name="AGGAX">      1.00000000</i>
   <i name="ALDAC">      1.00000000</i>
   <i name="AGGAC">      1.00000000</i>
   <i type="int" name="NKREDX">     1</i>
   <i type="int" name="NKREDY">     1</i>
   <i type="int" name="NKREDZ">     1</i>
   <i type="logical" name="SHIFTRED"> F  </i>
   <i type="logical" name="ODDONLY"> F  </i>
   <i type="logical" name="EVENONLY"> F  </i>
   <i type="int" name="LMAXFOCK">     0</i>
   <i type="int" name="NMAXFOCKAE">     0</i>
   <i type="logical" name="LFOCKAEDFT"> F  </i>
   <i name="HFSCREEN">      0.00000000</i>
   <i name="HFSCREENC">      0.00000000</i>
   <i type="int" name="NBANDSGWLOW">     0</i>
  </separator>
  <separator name="vdW DFT" >
   <i type="logical" name="LUSE_VDW"> F  </i>
   <i name="Zab_VDW">     -0.84910000</i>
   <i name="PARAM1">      0.12340000</i>
   <i name="PARAM2">      1.00000000</i>
   <i name="PARAM3">      0.00000000</i>
  </separator>
  <separator name="model GW" >
   <i type="int" name="MODEL_GW">     0</i>
   <i name="MODEL_EPS0">     24.24262375</i>
   <i name="MODEL_ALPHA">      1.00000000</i>
  </separator>
  <separator name="linear response parameters" >
   <i type="logical" name="LEPSILON"> F  </i>
   <i type="logical" name="LRPA"> F  </i>
   <i type="logical" name="LNABLA"> F  </i>
   <i type="logical" name="LVEL"> F  </i>
   <i type="int" name="KINTER">     0</i>
   <i name="CSHIFT">      0.10000000</i>
   <i name="OMEGAMAX">     -1.00000000</i>
   <i name="DEG_THRESHOLD">      0.00200000</i>
   <i name="RTIME">     -0.10000000</i>
   <i name="WPLASMAI">      0.00000000</i>
   <v name="DFIELD">      0.00000000      0.00000000      0.00000000</v>
   <v name="WPLASMA">      0.00000000      0.00000000      0.00000000      0.00000000      0.00000000      0.00000000      0.00000000      0.00000000      0.00000000</v>
  </separator>
  <separator name="orbital magnetization" >
   <i type="logical" name="NUCIND"> F  </i>
   <v name="MAGPOS">      0.00000000      0.00000000      0.00000000</v>
   <i type="logical" name="LNICSALL"> T  </i>
   <i type="logical" name="ORBITALMAG"> F  </i>
   <i type="logical" name="LMAGBLOCH"> F  </i>
   <i type="logical" name="LCHIMAG"> F  </i>
   <i type="logical" name="LGAUGE"> T  </i>
   <i type="int" name="MAGATOM">     0</i>
   <v name="MAGDIPOL">      0.00000000      0.00000000      0.00000000</v>
   <v name="AVECCONST">      0.00000000      0.00000000      0.00000000</v>
  </separator>
  <separator name="response functions" >
   <i type="logical" name="LADDER"> F  </i>
   <i type="logical" name="LRPAFORCE"> F  </i>
   <i type="logical" name="LFXC"> F  </i>
   <i type="logical" name="LHARTREE"> T  </i>
   <i type="int" name="IBSE">     0</i>
   <v type="int" name="KPOINT">    -1     0     0     0</v>
   <i type="logical" name="LTCTE"> F  </i>
   <i type="logical" name="LTETE"> F  </i>
   <i type="logical" name="LTRIPLET"> F  </i>
   <i type="logical" name="LFXCEPS"> F  </i>
   <i type="logical" name="LFXHEG"> F  </i>
   <i type="int" name="NATURALO">     2</i>
   <i type="logical" name="L2ORDER"> F  </i>
   <i type="logical" name="LMP2LT"> F  </i>
   <i type="logical" name="LUSEW"> F  </i>
   <i name="ENCUTGW">     -2.00000000</i>
   <i name="ENCUTGWSOFT">     -2.00000000</i>
   <i name="ENCUTLF">     -1.00000000</i>
   <i type="int" name="LMAXMP2">    -1</i>
   <i name="SCISSOR">      0.00000000</i>
   <i type="int" name="NOMEGA">     0</i>
   <i type="int" name="NOMEGAR">     0</i>
   <i type="int" name="NBANDSGW">    -1</i>
   <i type="int" name="NBANDSO">    -1</i>
   <i type="int" name="NBANDSV">    -1</i>
   <i type="int" name="NELM">   200</i>
   <i type="int" name="NELMHF">     1</i>
   <i type="int" name="DIM">     3</i>
   <i type="int" name="ANTIRES">     0</i>
   <i name="OMEGAMAX">    -30.00000000</i>
   <i name="OMEGAMIN">    -30.00000000</i>
   <i name="OMEGATL">   -200.00000000</i>
   <i type="int" name="OMEGAGRID">   140</i>
   <i name="CSHIFT">     -0.10000000</i>
   <i type="logical" name="SELFENERGY"> F  </i>
   <i type="logical" name="LSPECTRAL"> F  </i>
   <i type="logical" name="LSPECTRALGW"> F  </i>
   <i type="logical" name="LSINGLES"> F  </i>
   <i type="logical" name="LFERMIGW"> F  </i>
   <i type="logical" name="ODDONLYGW"> F  </i>
   <i type="logical" name="EVENONLYGW"> F  </i>
   <i type="int" name="NKREDLFX">     1</i>
   <i type="int" name="NKREDLFY">     1</i>
   <i type="int" name="NKREDLFZ">     1</i>
   <i type="int" name="MAXMEM">  2800</i>
   <i type="int" name="TELESCOPE">     0</i>
   <i type="int" name="TAUPAR">     1</i>
   <i type="int" name="OMEGAPAR">    -1</i>
   <i name="LAMBDA">      1.00000000</i>
  </separator>
  <separator name="External order field" >
   <i name="OFIELD_KAPPA">      0.00000000</i>
   <v name="OFIELD_K">      0.00000000      0.00000000      0.00000000</v>
   <i name="OFIELD_Q6_NEAR">      0.00000000</i>
   <i name="OFIELD_Q6_FAR">      0.00000000</i>
   <i name="OFIELD_A">      0.00000000</i>
  </separator>
 </parameters>
 <atominfo>
  <atoms>      40 </atoms>
  <types>       3 </types>
  <array name="atoms" >
   <dimension dim="1">ion</dimension>
   <field type="string">element</field>
   <field type="int">atomtype</field>
   <set>
    <rc><c>Cs</c><c>   1</c></rc>
    <rc><c>Cs</c><c>   1</c></rc>
    <rc><c>Cs</c><c>   1</c></rc>
    <rc><c>Cs</c><c>   1</c></rc>
    <rc><c>Cs</c><c>   1</c></rc>
    <rc><c>Cs</c><c>   1</c></rc>
    <rc><c>Cs</c><c>   1</c></rc>
    <rc><c>Cs</c><c>   1</c></rc>
    <rc><c>Pb</c><c>   2</c></rc>
    <rc><c>Pb</c><c>   2</c></rc>
    <rc><c>Pb</c><c>   2</c></rc>
    <rc><c>Pb</c><c>   2</c></rc>
    <rc><c>Pb</c><c>   2</c></rc>
    <rc><c>Pb</c><c>   2</c></rc>
    <rc><c>Pb</c><c>   2</c></rc>
    <rc><c>Pb</c><c>   2</c></rc>
    <rc><c>Br</c><c>   3</c></rc>
    <rc><c>Br</c><c>   3</c></rc>
    <rc><c>Br</c><c>   3</c></rc>
    <rc><c>Br</c><c>   3</c></rc>
    <rc><c>Br</c><c>   3</c></rc>
    <rc><c>Br</c><c>   3</c></rc>
    <rc><c>Br</c><c>   3</c></rc>
    <rc><c>Br</c><c>   3</c></rc>
    <rc><c>Br</c><c>   3</c></rc>
    <rc><c>Br</c><c>   3</c></rc>
    <rc><c>Br</c><c>   3</c></rc>
    <rc><c>Br</c><c>   3</c></rc>
    <rc><c>Br</c><c>   3</c></rc>
    <rc><c>Br</c><c>   3</c></rc>
    <rc><c>Br</c><c>   3</c></rc>
    <rc><c>Br</c><c>   3</c></rc>
    <rc><c>Br</c><c>   3</c></rc>
    <rc><c>Br</c><c>   3</c></rc>
    <rc><c>Br</c><c>   3</c></rc>
    <rc><c>Br</c><c>   3</c></rc>
    <rc><c>Br</c><c>   3</c></rc>
    <rc><c>Br</c><c>   3</c></rc>
    <rc><c>Br</c><c>   3</c></rc>
    <rc><c>Br</c><c>   3</c></rc>
   </set>
  </array>
  <array name="atomtypes" >
   <dimension dim="1">type</dimension>
   <field type="int">atomspertype</field>
   <field type="string">element</field>
   <field>mass</field>
   <field>valence</field>
   <field type="string">pseudopotential</field>
   <set>
    <rc><c>   8</c><c>Cs</c><c>    132.90000000</c><c>      9.00000000</c><c>  PAW_PBE Cs_sv 08Apr2002               </c></rc>
    <rc><c>   8</c><c>Pb</c><c>    207.20000000</c><c>     14.00000000</c><c>  PAW_PBE Pb_d 06Sep2000                </c></rc>
    <rc><c>  24</c><c>Br</c><c>     79.90400000</c><c>      7.00000000</c><c>  PAW_PBE Br 06Sep2000                  </c></rc>
   </set>
  </array>
 </atominfo>
 <structure name="initialpos" >
  <crystal>
   <varray name="basis" >
    <v>      11.73535200       0.00000000       0.00000000 </v>
    <v>       0.00000000      11.73535200       0.00000000 </v>
    <v>       0.00000000       0.00000000      11.73535200 </v>
   </varray>
   <i name="volume">   1616.17491673 </i>
   <varray name="rec_basis" >
    <v>       0.08521261       0.00000000       0.00000000 </v>
    <v>       0.00000000       0.08521261       0.00000000 </v>
    <v>       0.00000000       0.00000000       0.08521261 </v>
   </varray>
  </crystal>
  <varray name="positions" >
   <v>       0.25000000       0.25000000       0.25000000 </v>
   <v>       0.25000000       0.25000000       0.75000000 </v>
   <v>       0.25000000       0.75000000       0.25000000 </v>
   <v>       0.25000000       0.75000000       0.75000000 </v>
   <v>       0.75000000       0.25000000       0.25000000 </v>
   <v>       0.75000000       0.25000000       0.75000000 </v>
   <v>       0.75000000       0.75000000       0.25000000 </v>
   <v>       0.75000000       0.75000000       0.75000000 </v>
   <v>       0.00000000       0.00000000       0.00000000 </v>
   <v>       0.00000000       0.00000000       0.50000000 </v>
   <v>       0.00000000       0.50000000       0.00000000 </v>
   <v>       0.00000000       0.50000000       0.50000000 </v>
   <v>       0.50000000       0.00000000       0.00000000 </v>
   <v>       0.50000000       0.00000000       0.50000000 </v>
   <v>       0.50000000       0.50000000       0.00000000 </v>
   <v>       0.50000000       0.50000000       0.50000000 </v>
   <v>       0.94375000       0.25000000       0.06250000 </v>
   <v>       0.94375000       0.25000000       0.43750000 </v>
   <v>       0.05625000       0.75000000       0.93750000 </v>
   <v>       0.05625000       0.75000000       0.56250000 </v>
   <v>       0.55625000       0.25000000       0.93750000 </v>
   <v>       0.55625000       0.25000000       0.56250000 </v>
   <v>       0.44375000       0.75000000       0.06250000 </v>
   <v>       0.44375000       0.75000000       0.43750000 </v>
   <v>       0.06250000       0.93750000       0.25000000 </v>
   <v>       0.93750000       0.06250000       0.75000000 </v>
   <v>       0.93750000       0.56250000       0.25000000 </v>
   <v>       0.06250000       0.43750000       0.75000000 </v>
   <v>       0.43750000       0.06250000       0.25000000 </v>
   <v>       0.56250000       0.93750000       0.75000000 </v>
   <v>       0.56250000       0.43750000       0.25000000 </v>
   <v>       0.43750000       0.56250000       0.75000000 </v>
   <v>       0.25000000       0.05625000       0.93750000 </v>
   <v>       0.25000000       0.05625000       0.56250000 </v>
   <v>       0.25000000       0.44375000       0.06250000 </v>
   <v>       0.25000000       0.44375000       0.43750000 </v>
   <v>       0.75000000       0.94375000       0.06250000 </v>
   <v>       0.75000000       0.94375000       0.43750000 </v>
   <v>       0.75000000       0.55625000       0.93750000 </v>
   <v>       0.75000000       0.55625000       0.56250000 </v>
  </varray>
 </structure>
 <calculation>
  <scstep>
   <time name="dav">   12.76   12.76</time>
   <time name="total">   14.22   14.23</time>
   <energy>
    <i name="alphaZ">    892.99476195 </i>
    <i name="ewald"> -18659.68992758 </i>
    <i name="hartreedc">  -7075.41030917 </i>
    <i name="XCdc">    923.39112981 </i>
    <i name="pawpsdc">  21633.96174531 </i>
    <i name="pawaedc"> -22707.92185401 </i>
    <i name="eentropy">     -0.00106023 </i>
    <i name="bandstr">   -230.51260150 </i>
    <i name="atom">  26580.56019858 </i>
    <i name="e_fr_energy">   1357.37208315 </i>
    <i name="e_wo_entrp">   1357.37314339 </i>
    <i name="e_0_energy">   1357.37261327 </i>
   </energy>
  </scstep>
  <scstep>
   <time name="dav">   14.29   14.33</time>
   <time name="total">   14.29   14.33</time>
   <energy>
    <i name="e_fr_energy">  -1126.41438783 </i>
    <i name="e_wo_entrp">  -1126.41438783 </i>
    <i name="e_0_energy">  -1126.41438783 </i>
   </energy>
  </scstep>
  <scstep>
   <time name="dav">   14.98   15.02</time>
   <time name="total">   14.98   15.02</time>
   <energy>
    <i name="e_fr_energy">  -1494.59131348 </i>
    <i name="e_wo_entrp">  -1494.59131348 </i>
    <i name="e_0_energy">  -1494.59131348 </i>
   </energy>
  </scstep>
  <scstep>
   <time name="dav">   13.86   13.89</time>
   <time name="total">   13.86   13.89</time>
   <energy>
    <i name="e_fr_energy">  -1506.72999023 </i>
    <i name="e_wo_entrp">  -1506.72999023 </i>
    <i name="e_0_energy">  -1506.72999023 </i>
   </energy>
  </scstep>
  <scstep>
   <time name="dav">   14.77   14.79</time>
   <time name="total">   17.54   17.56</time>
   <energy>
    <i name="e_fr_energy">  -1507.25645716 </i>
    <i name="e_wo_entrp">  -1507.25645716 </i>
    <i name="e_0_energy">  -1507.25645716 </i>
   </energy>
  </scstep>
  <scstep>
   <time name="dav">   14.66   14.66</time>
   <time name="total">   18.94   18.97</time>
   <energy>
    <i name="e_fr_energy">  -1424.88475985 </i>
    <i name="e_wo_entrp">  -1424.88475985 </i>
    <i name="e_0_energy">  -1424.88475985 </i>
   </energy>
  </scstep>
  <scstep>
   <time name="dav">   14.00   14.00</time>
   <time name="total">   18.26   18.30</time>
   <energy>
    <i name="e_fr_energy">  -1424.37415612 </i>
    <i name="e_wo_entrp">  -1424.37415612 </i>
    <i name="e_0_energy">  -1424.37415612 </i>
   </energy>
  </scstep>
  <scstep>
   <time name="dav">   13.55   13.55</time>
   <time name="total">   17.83   17.86</time>
   <energy>
    <i name="e_fr_energy">  -1424.60217014 </i>
    <i name="e_wo_entrp">  -1424.60217014 </i>
    <i name="e_0_energy">  -1424.60217014 </i>
   </energy>
  </scstep>
  <scstep>
   <time name="dav">   13.39   13.39</time>
   <time name="total">   17.69   17.70</time>
   <energy>
    <i name="e_fr_energy">  -1424.67683391 </i>
    <i name="e_wo_entrp">  -1424.67683391 </i>
    <i name="e_0_energy">  -1424.67683391 </i>
   </energy>
  </scstep>
  <scstep>
   <time name="dav">   15.05   15.05</time>
   <time name="total">   19.33   19.35</time>
   <energy>
    <i name="e_fr_energy">  -1424.68079789 </i>
    <i name="e_wo_entrp">  -1424.68079789 </i>
    <i name="e_0_energy">  -1424.68079789 </i>
   </energy>
  </scstep>
  <scstep>
   <time name="dav">   13.06   13.06</time>
   <time name="total">   17.36   17.37</time>
   <energy>
    <i name="e_fr_energy">  -1424.68427319 </i>
    <i name="e_wo_entrp">  -1424.68427319 </i>
    <i name="e_0_energy">  -1424.68427319 </i>
   </energy>
  </scstep>
  <scstep>
   <time name="dav">   14.56   14.57</time>
   <time name="total">   18.85   18.89</time>
   <energy>
    <i name="e_fr_energy">  -1424.68408167 </i>
    <i name="e_wo_entrp">  -1424.68408167 </i>
    <i name="e_0_energy">  -1424.68408167 </i>
   </energy>
  </scstep>
  <scstep>
   <time name="dav">   13.46   13.47</time>
   <time name="total">   17.75   17.79</time>
   <energy>
    <i name="e_fr_energy">  -1424.68409037 </i>
    <i name="e_wo_entrp">  -1424.68409037 </i>
    <i name="e_0_energy">  -1424.68409037 </i>
   </energy>
  </scstep>
  <scstep>
   <time name="dav">   13.56   13.56</time>
   <time name="total">   17.88   17.89</time>
   <energy>
    <i name="e_fr_energy">  -1424.68408878 </i>
    <i name="e_wo_entrp">  -1424.68408878 </i>
    <i name="e_0_energy">  -1424.68408878 </i>
   </energy>
  </scstep>
  <scstep>
   <time name="dav">   11.60   11.60</time>
   <time name="total">   15.93   15.94</time>
   <energy>
    <i name="e_fr_energy">  -1424.68409071 </i>
    <i name="e_wo_entrp">  -1424.68409071 </i>
    <i name="e_0_energy">  -1424.68409071 </i>
   </energy>
  </scstep>
  <scstep>
   <time name="dav">    9.77    9.77</time>
   <time name="total">   14.04   14.10</time>
   <energy>
    <i name="e_fr_energy">  -1424.68409751 </i>
    <i name="e_wo_entrp">  -1424.68409751 </i>
    <i name="e_0_energy">  -1424.68409751 </i>
   </energy>
  </scstep>
  <scstep>
   <time name="dav">    9.68    9.68</time>
   <time name="total">   13.98   14.00</time>
   <energy>
    <i name="e_fr_energy">  -1424.68409635 </i>
    <i name="e_wo_entrp">  -1424.68409635 </i>
    <i name="e_0_energy">  -1424.68409635 </i>
   </energy>
  </scstep>
  <scstep>
   <time name="dav">    9.69    9.69</time>
   <time name="total">   14.01   14.02</time>
   <energy>
    <i name="e_fr_energy">  -1424.68409425 </i>
    <i name="e_wo_entrp">  -1424.68409425 </i>
    <i name="e_0_energy">  -1424.68409425 </i>
   </energy>
  </scstep>
  <scstep>
   <time name="dav">    9.66    9.66</time>
   <time name="total">   13.94   13.97</time>
   <energy>
    <i name="e_fr_energy">  -1424.68409252 </i>
    <i name="e_wo_entrp">  -1424.68409252 </i>
    <i name="e_0_energy">  -1424.68409252 </i>
   </energy>
  </scstep>
  <scstep>
   <time name="dav">    9.57    9.57</time>
   <time name="total">   11.03   11.06</time>
   <energy>
    <i name="alphaZ">    892.99476195 </i>
    <i name="ewald"> -18659.68992758 </i>
    <i name="hartreedc">  -7099.13462180 </i>
    <i name="XCdc">    962.69021252 </i>
    <i name="pawpsdc">  22973.24117980 </i>
    <i name="pawaedc"> -24042.20923120 </i>
    <i name="eentropy">     -0.00000000 </i>
    <i name="bandstr">  -3033.13666528 </i>
    <i name="atom">  26580.56019858 </i>
    <i name="e_fr_energy">  -1424.68409301 </i>
    <i name="e_wo_entrp">  -1424.68409301 </i>
    <i name="e_0_energy">  -1424.68409301 </i>
   </energy>
  </scstep>
  <structure>
   <crystal>
    <varray name="basis" >
     <v>      11.73535200       0.00000000       0.00000000 </v>
     <v>       0.00000000      11.73535200       0.00000000 </v>
     <v>       0.00000000       0.00000000      11.73535200 </v>
    </varray>
    <i name="volume">   1616.17491673 </i>
    <varray name="rec_basis" >
     <v>       0.08521261       0.00000000       0.00000000 </v>
     <v>       0.00000000       0.08521261       0.00000000 </v>
     <v>       0.00000000       0.00000000       0.08521261 </v>
    </varray>
   </crystal>
   <varray name="positions" >
    <v>       0.25000000       0.25000000       0.25000000 </v>
    <v>       0.25000000       0.25000000       0.75000000 </v>
    <v>       0.25000000       0.75000000       0.25000000 </v>
    <v>       0.25000000       0.75000000       0.75000000 </v>
    <v>       0.75000000       0.25000000       0.25000000 </v>
    <v>       0.75000000       0.25000000       0.75000000 </v>
    <v>       0.75000000       0.75000000       0.25000000 </v>
    <v>       0.75000000       0.75000000       0.75000000 </v>
    <v>       0.00000000       0.00000000       0.00000000 </v>
    <v>       0.00000000       0.00000000       0.50000000 </v>
    <v>       0.00000000       0.50000000       0.00000000 </v>
    <v>       0.00000000       0.50000000       0.50000000 </v>
    <v>       0.50000000       0.00000000       0.00000000 </v>
    <v>       0.50000000       0.00000000       0.50000000 </v>
    <v>       0.50000000       0.50000000       0.00000000 </v>
    <v>       0.50000000       0.50000000       0.50000000 </v>
    <v>       0.94375000       0.25000000       0.06250000 </v>
    <v>       0.94375000       0.25000000       0.43750000 </v>
    <v>       0.05625000       0.75000000       0.93750000 </v>
    <v>       0.05625000       0.75000000       0.56250000 </v>
    <v>       0.55625000       0.25000000       0.93750000 </v>
    <v>       0.55625000       0.25000000       0.56250000 </v>
    <v>       0.44375000       0.75000000       0.06250000 </v>
    <v>       0.44375000       0.75000000       0.43750000 </v>
    <v>       0.06250000       0.93750000       0.25000000 </v>
    <v>       0.93750000       0.06250000       0.75000000 </v>
    <v>       0.93750000       0.56250000       0.25000000 </v>
    <v>       0.06250000       0.43750000       0.75000000 </v>
    <v>       0.43750000       0.06250000       0.25000000 </v>
    <v>       0.56250000       0.93750000       0.75000000 </v>
    <v>       0.56250000       0.43750000       0.25000000 </v>
    <v>       0.43750000       0.56250000       0.75000000 </v>
    <v>       0.25000000       0.05625000       0.93750000 </v>
    <v>       0.25000000       0.05625000       0.56250000 </v>
    <v>       0.25000000       0.44375000       0.06250000 </v>
    <v>       0.25000000       0.44375000       0.43750000 </v>
    <v>       0.75000000       0.94375000       0.06250000 </v>
    <v>       0.75000000       0.94375000       0.43750000 </v>
    <v>       0.75000000       0.55625000       0.93750000 </v>
    <v>       0.75000000       0.55625000       0.56250000 </v>
   </varray>
  </structure>
  <varray name="forces" >
   <v>      -0.83674210      -0.53146157       0.00000000 </v>
   <v>       0.83674210       0.53146157       0.00000000 </v>
   <v>      -0.53146157      -0.83674210       0.00000000 </v>
   <v>       0.53146157       0.83674210       0.00000000 </v>
   <v>      -0.53146157      -0.83674210       0.00000000 </v>
   <v>       0.53146157       0.83674210       0.00000000 </v>
   <v>      -0.83674210      -0.53146157       0.00000000 </v>
   <v>       0.83674210       0.53146157       0.00000000 </v>
   <v>       0.00000000       0.00000000       0.00000000 </v>
   <v>       0.00000000      -0.00000000       0.00000000 </v>
   <v>       0.00000000       0.00000000       0.00000000 </v>
   <v>       0.00000000       0.00000000       0.00000000 </v>
   <v>      -0.00000000      -0.00000000       0.00000000 </v>
   <v>      -0.00000000       0.00000000       0.00000000 </v>
   <v>      -0.00000000       0.00000000       0.00000000 </v>
   <v>       0.00000000       0.00000000       0.00000000 </v>
   <v>       0.70693913       0.00913625      -0.70116942 </v>
   <v>       0.70693913       0.00913625       0.70116942 </v>
   <v>      -0.70693913      -0.00913625       0.70116942 </v>
   <v>      -0.70693913      -0.00913625      -0.70116942 </v>
   <v>      -0.70693913      -0.00913625       0.70116942 </v>
   <v>      -0.70693913      -0.00913625      -0.70116942 </v>
   <v>       0.70693913       0.00913625      -0.70116942 </v>
   <v>       0.70693913       0.00913625       0.70116942 </v>
   <v>      -0.82457898       0.90578724       0.00000000 </v>
   <v>       0.82457898      -0.90578724       0.00000000 </v>
   <v>       0.90578724      -0.82457898       0.00000000 </v>
   <v>      -0.90578724       0.82457898       0.00000000 </v>
   <v>       0.90578724      -0.82457898       0.00000000 </v>
   <v>      -0.90578724       0.82457898       0.00000000 </v>
   <v>      -0.82457898       0.90578724       0.00000000 </v>
   <v>       0.82457898      -0.90578724       0.00000000 </v>
   <v>      -0.00913625      -0.70693913       0.70116942 </v>
   <v>      -0.00913625      -0.70693913      -0.70116942 </v>
   <v>       0.00913625       0.70693913      -0.70116942 </v>
   <v>       0.00913625       0.70693913       0.70116942 </v>
   <v>       0.00913625       0.70693913      -0.70116942 </v>
   <v>       0.00913625       0.70693913       0.70116942 </v>
   <v>      -0.00913625      -0.70693913       0.70116942 </v>
   <v>      -0.00913625      -0.70693913      -0.70116942 </v>
  </varray>
  <varray name="stress" >
   <v>       6.05028704     -12.56598906       0.00000000 </v>
   <v>     -12.56598906       6.05028704       0.00000000 </v>
   <v>       0.00000000       0.00000000       1.97303359 </v>
  </varray>
  <energy>
   <i name="e_fr_energy">  -1424.68409301 </i>
   <i name="e_wo_entrp">  -1424.68409301 </i>
   <i name="e_0_energy">     -0.00000000 </i>
  </energy>
  <time name="totalsc">  371.10  371.74</time>
  <eigenvalues>
   <array>
    <dimension dim="1">band</dimension>
    <dimension dim="2">kpoint</dimension>
    <dimension dim="3">spin</dimension>
    <field>eigene</field>
    <field>occ</field>
    <set>
     <set comment="spin 1">
      <set comment="kpoint 1">
       <r>  -20.4671    1.0000 </r>
       <r>  -20.4648    1.0000 </r>
       <r>  -20.4645    1.0000 </r>
       <r>  -20.4645    1.0000 </r>
       <r>  -20.4625    1.0000 </r>
       <r>  -20.4625    1.0000 </r>
       <r>  -20.4622    1.0000 </r>
       <r>  -20.4598    1.0000 </r>
       <r>  -16.7876    1.0000 </r>
       <r>  -16.7875    1.0000 </r>
       <r>  -16.7854    1.0000 </r>
       <r>  -16.7853    1.0000 </r>
       <r>  -16.7853    1.0000 </r>
       <r>  -16.7720    1.0000 </r>
       <r>  -16.7720    1.0000 </r>
       <r>  -16.7692    1.0000 </r>
       <r>  -16.7557    1.0000 </r>
       <r>  -16.7551    1.0000 </r>
       <r>  -16.7551    1.0000 </r>
       <r>  -16.7382    1.0000 </r>
       <r>  -16.7381    1.0000 </r>
       <r>  -16.7381    1.0000 </r>
       <r>  -16.7379    1.0000 </r>
       <r>  -16.7378    1.0000 </r>
       <r>  -16.7034    1.0000 </r>
       <r>  -16.7034    1.0000 </r>
       <r>  -16.7034    1.0000 </r>
       <r>  -16.7033    1.0000 </r>
       <r>  -16.7031    1.0000 </r>
       <r>  -16.7030    1.0000 </r>
       <r>  -16.7030    1.0000 </r>
       <r>  -16.7026    1.0000 </r>
       <r>  -16.6926    1.0000 </r>
       <r>  -16.6926    1.0000 </r>
       <r>  -16.6924    1.0000 </r>
       <r>  -16.6923    1.0000 </r>
       <r>  -16.6921    1.0000 </r>
       <r>  -16.6921    1.0000 </r>
       <r>  -16.6921    1.0000 </r>
       <r>  -16.6920    1.0000 </r>
       <r>  -16.6919    1.0000 </r>
       <r>  -16.6916    1.0000 </r>
       <r>  -16.6916    1.0000 </r>
       <r>  -16.6912    1.0000 </r>
       <r>  -16.6912    1.0000 </r>
       <r>  -16.6912    1.0000 </r>
       <r>  -16.6912    1.0000 </r>
       <r>  -16.6908    1.0000 </r>
       <r>  -14.2747    1.0000 </r>
       <r>  -14.1930    1.0000 </r>
       <r>  -14.1930    1.0000 </r>
       <r>  -14.1837    1.0000 </r>
       <r>  -14.1087    1.0000 </r>
       <r>  -14.0912    1.0000 </r>
       <r>  -14.0865    1.0000 </r>
       <r>  -14.0865    1.0000 </r>
       <r>  -14.0716    1.0000 </r>
       <r>  -14.0695    1.0000 </r>
       <r>  -14.0695    1.0000 </r>
       <r>  -14.0396    1.0000 </r>
       <r>  -14.0375    1.0000 </r>
       <r>  -14.0375    1.0000 </r>
       <r>  -14.0331    1.0000 </r>
       <r>  -14.0229    1.0000 </r>
       <r>  -14.0229    1.0000 </r>
       <r>  -14.0208    1.0000 </r>
       <r>  -14.0012    1.0000 </r>
       <r>  -13.9289    1.0000 </r>
       <r>  -13.8863    1.0000 </r>
       <r>  -13.8852    1.0000 </r>
       <r>  -13.8624    1.0000 </r>
       <r>  -13.8624    1.0000 </r>
       <r>   -8.0918    1.0000 </r>
       <r>   -7.8191    1.0000 </r>
       <r>   -7.7778    1.0000 </r>
       <r>   -7.7778    1.0000 </r>
       <r>   -7.4969    1.0000 </r>
       <r>   -7.4969    1.0000 </r>
       <r>   -7.4069    1.0000 </r>
       <r>   -7.1242    1.0000 </r>
       <r>   -7.0155    1.0000 </r>
       <r>   -7.0135    1.0000 </r>
       <r>   -7.0133    1.0000 </r>
       <r>   -7.0133    1.0000 </r>
       <r>   -6.9996    1.0000 </r>
       <r>   -6.9994    1.0000 </r>
       <r>   -6.9865    1.0000 </r>
       <r>   -6.9803    1.0000 </r>
       <r>   -6.9641    1.0000 </r>
       <r>   -6.9634    1.0000 </r>
       <r>   -6.9634    1.0000 </r>
       <r>   -6.9428    1.0000 </r>
       <r>   -6.9394    1.0000 </r>
       <r>   -6.9357    1.0000 </r>
       <r>   -6.9357    1.0000 </r>
       <r>   -6.9347    1.0000 </r>
       <r>   -6.9347    1.0000 </r>
       <r>   -6.9247    1.0000 </r>
       <r>   -6.9233    1.0000 </r>
       <r>   -6.9233    1.0000 </r>
       <r>   -6.8940    1.0000 </r>
       <r>   -6.8644    1.0000 </r>
       <r>   -6.8644    1.0000 </r>
       <r>   -6.8068    1.0000 </r>
       <r>   -3.1302    1.0000 </r>
       <r>   -3.0947    1.0000 </r>
       <r>   -3.0874    1.0000 </r>
       <r>   -3.0274    1.0000 </r>
       <r>   -3.0274    1.0000 </r>
       <r>   -3.0262    1.0000 </r>
       <r>   -3.0262    1.0000 </r>
       <r>   -2.9539    1.0000 </r>
       <r>   -2.8132    1.0000 </r>
       <r>   -2.8098    1.0000 </r>
       <r>   -2.8084    1.0000 </r>
       <r>   -2.8084    1.0000 </r>
       <r>   -2.1020    1.0000 </r>
       <r>   -2.0838    1.0000 </r>
       <r>   -2.0774    1.0000 </r>
       <r>   -2.0774    1.0000 </r>
       <r>   -1.9635    1.0000 </r>
       <r>   -1.9635    1.0000 </r>
       <r>   -1.8542    1.0000 </r>
       <r>   -1.7906    1.0000 </r>
       <r>   -1.7906    1.0000 </r>
       <r>   -1.7738    1.0000 </r>
       <r>   -1.7397    1.0000 </r>
       <r>   -1.7034    1.0000 </r>
       <r>   -1.6767    1.0000 </r>
       <r>   -1.6550    1.0000 </r>
       <r>   -1.6550    1.0000 </r>
       <r>   -1.6541    1.0000 </r>
       <r>   -1.6541    1.0000 </r>
       <r>   -1.6488    1.0000 </r>
       <r>   -1.6097    1.0000 </r>
       <r>   -1.5906    1.0000 </r>
       <r>   -1.5575    1.0000 </r>
       <r>   -1.4772    1.0000 </r>
       <r>   -1.4261    1.0000 </r>
       <r>   -1.4261    1.0000 </r>
       <r>   -1.4232    1.0000 </r>
       <r>   -1.4230    1.0000 </r>
       <r>   -1.4230    1.0000 </r>
       <r>   -1.4170    1.0000 </r>
       <r>   -1.3574    1.0000 </r>
       <r>   -1.3468    1.0000 </r>
       <r>   -1.3468    1.0000 </r>
       <r>   -1.3458    1.0000 </r>
       <r>   -1.3362    1.0000 </r>
       <r>   -1.3362    1.0000 </r>
       <r>   -1.3295    1.0000 </r>
       <r>   -1.2567    1.0000 </r>
       <r>   -1.2374    1.0000 </r>
       <r>   -1.2374    1.0000 </r>
       <r>   -1.2214    1.0000 </r>
       <r>   -1.2104    1.0000 </r>
       <r>   -1.2077    1.0000 </r>
       <r>   -1.2077    1.0000 </r>
       <r>   -1.1937    1.0000 </r>
       <r>   -1.1481    1.0000 </r>
       <r>   -1.1481    1.0000 </r>
       <r>   -1.1448    1.0000 </r>
       <r>   -1.1448    1.0000 </r>
       <r>   -1.1191    1.0000 </r>
       <r>   -1.1077    1.0000 </r>
       <r>   -1.1012    1.0000 </r>
       <r>   -1.0994    1.0000 </r>
       <r>   -1.0860    1.0000 </r>
       <r>   -0.9586    1.0000 </r>
       <r>   -0.9281    1.0000 </r>
       <r>   -0.8019    1.0000 </r>
       <r>   -0.8019    1.0000 </r>
       <r>   -0.6908    1.0000 </r>
       <r>   -0.6908    1.0000 </r>
       <r>   -0.6473    1.0000 </r>
       <r>   -0.2263    1.0000 </r>
       <r>    2.6317    0.0000 </r>
       <r>    2.6697    0.0000 </r>
       <r>    2.6990    0.0000 </r>
       <r>    2.8024    0.0000 </r>
       <r>    2.8540    0.0000 </r>
       <r>    2.8540    0.0000 </r>
       <r>    2.9123    0.0000 </r>
       <r>    2.9123    0.0000 </r>
       <r>    2.9874    0.0000 </r>
       <r>    3.1874    0.0000 </r>
       <r>    3.2049    0.0000 </r>
       <r>    3.2049    0.0000 </r>
       <r>    4.6483    0.0000 </r>
       <r>    4.6483    0.0000 </r>
       <r>    4.6694    0.0000 </r>
       <r>    4.7230    0.0000 </r>
       <r>    4.9925    0.0000 </r>
       <r>    4.9941    0.0000 </r>
       <r>    5.0868    0.0000 </r>
       <r>    5.0868    0.0000 </r>
       <r>    5.1959    0.0000 </r>
       <r>    5.1959    0.0000 </r>
       <r>    5.3439    0.0000 </r>
       <r>    5.4371    0.0000 </r>
       <r>    5.5952    0.0000 </r>
       <r>    6.3472    0.0000 </r>
       <r>    6.4311    0.0000 </r>
       <r>    6.4556    0.0000 </r>
       <r>    6.4556    0.0000 </r>
       <r>    6.4601    0.0000 </r>
       <r>    6.4684    0.0000 </r>
       <r>    6.5228    0.0000 </r>
       <r>    6.5228    0.0000 </r>
       <r>    6.6563    0.0000 </r>
       <r>    6.6563    0.0000 </r>
       <r>    6.6682    0.0000 </r>
       <r>    6.6711    0.0000 </r>
       <r>    6.7670    0.0000 </r>
       <r>    6.8347    0.0000 </r>
       <r>    6.8529    0.0000 </r>
      </set>
      <set comment="kpoint 2">
       <r>  -20.4659    1.0000 </r>
       <r>  -20.4659    1.0000 </r>
       <r>  -20.4635    1.0000 </r>
       <r>  -20.4635    1.0000 </r>
       <r>  -20.4632    1.0000 </r>
       <r>  -20.4632    1.0000 </r>
       <r>  -20.4613    1.0000 </r>
       <r>  -20.4613    1.0000 </r>
       <r>  -16.7858    1.0000 </r>
       <r>  -16.7858    1.0000 </r>
       <r>  -16.7776    1.0000 </r>
       <r>  -16.7776    1.0000 </r>
       <r>  -16.7748    1.0000 </r>
       <r>  -16.7748    1.0000 </r>
       <r>  -16.7710    1.0000 </r>
       <r>  -16.7710    1.0000 </r>
       <r>  -16.7552    1.0000 </r>
       <r>  -16.7552    1.0000 </r>
       <r>  -16.7490    1.0000 </r>
       <r>  -16.7490    1.0000 </r>
       <r>  -16.7490    1.0000 </r>
       <r>  -16.7490    1.0000 </r>
       <r>  -16.7381    1.0000 </r>
       <r>  -16.7381    1.0000 </r>
       <r>  -16.7035    1.0000 </r>
       <r>  -16.7035    1.0000 </r>
       <r>  -16.7032    1.0000 </r>
       <r>  -16.7032    1.0000 </r>
       <r>  -16.7029    1.0000 </r>
       <r>  -16.7029    1.0000 </r>
       <r>  -16.7028    1.0000 </r>
       <r>  -16.7028    1.0000 </r>
       <r>  -16.6927    1.0000 </r>
       <r>  -16.6927    1.0000 </r>
       <r>  -16.6923    1.0000 </r>
       <r>  -16.6923    1.0000 </r>
       <r>  -16.6920    1.0000 </r>
       <r>  -16.6920    1.0000 </r>
       <r>  -16.6919    1.0000 </r>
       <r>  -16.6919    1.0000 </r>
       <r>  -16.6918    1.0000 </r>
       <r>  -16.6918    1.0000 </r>
       <r>  -16.6914    1.0000 </r>
       <r>  -16.6914    1.0000 </r>
       <r>  -16.6913    1.0000 </r>
       <r>  -16.6913    1.0000 </r>
       <r>  -16.6910    1.0000 </r>
       <r>  -16.6910    1.0000 </r>
       <r>  -14.2510    1.0000 </r>
       <r>  -14.2510    1.0000 </r>
       <r>  -14.1607    1.0000 </r>
       <r>  -14.1607    1.0000 </r>
       <r>  -14.1471    1.0000 </r>
       <r>  -14.1471    1.0000 </r>
       <r>  -14.0740    1.0000 </r>
       <r>  -14.0740    1.0000 </r>
       <r>  -14.0670    1.0000 </r>
       <r>  -14.0670    1.0000 </r>
       <r>  -14.0620    1.0000 </r>
       <r>  -14.0620    1.0000 </r>
       <r>  -14.0428    1.0000 </r>
       <r>  -14.0428    1.0000 </r>
       <r>  -14.0314    1.0000 </r>
       <r>  -14.0314    1.0000 </r>
       <r>  -13.9650    1.0000 </r>
       <r>  -13.9650    1.0000 </r>
       <r>  -13.9339    1.0000 </r>
       <r>  -13.9339    1.0000 </r>
       <r>  -13.9155    1.0000 </r>
       <r>  -13.9155    1.0000 </r>
       <r>  -13.8833    1.0000 </r>
       <r>  -13.8833    1.0000 </r>
       <r>   -7.9410    1.0000 </r>
       <r>   -7.9410    1.0000 </r>
       <r>   -7.6639    1.0000 </r>
       <r>   -7.6639    1.0000 </r>
       <r>   -7.6060    1.0000 </r>
       <r>   -7.6060    1.0000 </r>
       <r>   -7.3165    1.0000 </r>
       <r>   -7.3165    1.0000 </r>
       <r>   -7.0164    1.0000 </r>
       <r>   -7.0164    1.0000 </r>
       <r>   -7.0111    1.0000 </r>
       <r>   -7.0111    1.0000 </r>
       <r>   -6.9887    1.0000 </r>
       <r>   -6.9887    1.0000 </r>
       <r>   -6.9782    1.0000 </r>
       <r>   -6.9782    1.0000 </r>
       <r>   -6.9720    1.0000 </r>
       <r>   -6.9720    1.0000 </r>
       <r>   -6.9622    1.0000 </r>
       <r>   -6.9622    1.0000 </r>
       <r>   -6.9432    1.0000 </r>
       <r>   -6.9432    1.0000 </r>
       <r>   -6.9389    1.0000 </r>
       <r>   -6.9389    1.0000 </r>
       <r>   -6.9231    1.0000 </r>
       <r>   -6.9231    1.0000 </r>
       <r>   -6.9069    1.0000 </r>
       <r>   -6.9069    1.0000 </r>
       <r>   -6.8913    1.0000 </r>
       <r>   -6.8913    1.0000 </r>
       <r>   -6.8615    1.0000 </r>
       <r>   -6.8615    1.0000 </r>
       <r>   -3.0497    1.0000 </r>
       <r>   -3.0497    1.0000 </r>
       <r>   -3.0375    1.0000 </r>
       <r>   -3.0375    1.0000 </r>
       <r>   -2.9211    1.0000 </r>
       <r>   -2.9211    1.0000 </r>
       <r>   -2.8769    1.0000 </r>
       <r>   -2.8769    1.0000 </r>
       <r>   -2.4910    1.0000 </r>
       <r>   -2.4910    1.0000 </r>
       <r>   -2.4502    1.0000 </r>
       <r>   -2.4502    1.0000 </r>
       <r>   -2.3826    1.0000 </r>
       <r>   -2.3826    1.0000 </r>
       <r>   -2.2914    1.0000 </r>
       <r>   -2.2914    1.0000 </r>
       <r>   -2.0913    1.0000 </r>
       <r>   -2.0913    1.0000 </r>
       <r>   -1.9878    1.0000 </r>
       <r>   -1.9878    1.0000 </r>
       <r>   -1.9501    1.0000 </r>
       <r>   -1.9501    1.0000 </r>
       <r>   -1.7397    1.0000 </r>
       <r>   -1.7397    1.0000 </r>
       <r>   -1.6905    1.0000 </r>
       <r>   -1.6905    1.0000 </r>
       <r>   -1.6628    1.0000 </r>
       <r>   -1.6628    1.0000 </r>
       <r>   -1.6357    1.0000 </r>
       <r>   -1.6357    1.0000 </r>
       <r>   -1.5764    1.0000 </r>
       <r>   -1.5764    1.0000 </r>
       <r>   -1.4696    1.0000 </r>
       <r>   -1.4696    1.0000 </r>
       <r>   -1.4524    1.0000 </r>
       <r>   -1.4524    1.0000 </r>
       <r>   -1.4436    1.0000 </r>
       <r>   -1.4436    1.0000 </r>
       <r>   -1.3882    1.0000 </r>
       <r>   -1.3882    1.0000 </r>
       <r>   -1.3540    1.0000 </r>
       <r>   -1.3540    1.0000 </r>
       <r>   -1.3291    1.0000 </r>
       <r>   -1.3291    1.0000 </r>
       <r>   -1.3238    1.0000 </r>
       <r>   -1.3238    1.0000 </r>
       <r>   -1.2797    1.0000 </r>
       <r>   -1.2797    1.0000 </r>
       <r>   -1.2740    1.0000 </r>
       <r>   -1.2740    1.0000 </r>
       <r>   -1.2654    1.0000 </r>
       <r>   -1.2654    1.0000 </r>
       <r>   -1.2432    1.0000 </r>
       <r>   -1.2432    1.0000 </r>
       <r>   -1.1719    1.0000 </r>
       <r>   -1.1719    1.0000 </r>
       <r>   -1.1709    1.0000 </r>
       <r>   -1.1709    1.0000 </r>
       <r>   -1.1538    1.0000 </r>
       <r>   -1.1538    1.0000 </r>
       <r>   -1.1213    1.0000 </r>
       <r>   -1.1213    1.0000 </r>
       <r>   -1.0931    1.0000 </r>
       <r>   -1.0931    1.0000 </r>
       <r>   -0.8720    1.0000 </r>
       <r>   -0.8720    1.0000 </r>
       <r>   -0.8496    1.0000 </r>
       <r>   -0.8496    1.0000 </r>
       <r>   -0.7730    1.0000 </r>
       <r>   -0.7730    1.0000 </r>
       <r>   -0.5301    1.0000 </r>
       <r>   -0.5301    1.0000 </r>
       <r>    2.7779    0.0000 </r>
       <r>    2.7779    0.0000 </r>
       <r>    2.7943    0.0000 </r>
       <r>    2.7943    0.0000 </r>
       <r>    3.0167    0.0000 </r>
       <r>    3.0167    0.0000 </r>
       <r>    3.0412    0.0000 </r>
       <r>    3.0412    0.0000 </r>
       <r>    3.7333    0.0000 </r>
       <r>    3.7333    0.0000 </r>
       <r>    3.9265    0.0000 </r>
       <r>    3.9265    0.0000 </r>
       <r>    3.9782    0.0000 </r>
       <r>    3.9782    0.0000 </r>
       <r>    4.1286    0.0000 </r>
       <r>    4.1286    0.0000 </r>
       <r>    4.8162    0.0000 </r>
       <r>    4.8162    0.0000 </r>
       <r>    4.8890    0.0000 </r>
       <r>    4.8890    0.0000 </r>
       <r>    5.2109    0.0000 </r>
       <r>    5.2109    0.0000 </r>
       <r>    5.2820    0.0000 </r>
       <r>    5.2820    0.0000 </r>
       <r>    5.6705    0.0000 </r>
       <r>    5.6705    0.0000 </r>
       <r>    6.3881    0.0000 </r>
       <r>    6.3881    0.0000 </r>
       <r>    6.5300    0.0000 </r>
       <r>    6.5300    0.0000 </r>
       <r>    6.5875    0.0000 </r>
       <r>    6.5875    0.0000 </r>
       <r>    6.6654    0.0000 </r>
       <r>    6.6654    0.0000 </r>
       <r>    6.6672    0.0000 </r>
       <r>    6.6673    0.0000 </r>
       <r>    6.6928    0.0000 </r>
       <r>    6.6929    0.0000 </r>
       <r>    6.8544    0.0000 </r>
       <r>    6.8601    0.0000 </r>
      </set>
      <set comment="kpoint 3">
       <r>  -20.4646    1.0000 </r>
       <r>  -20.4646    1.0000 </r>
       <r>  -20.4645    1.0000 </r>
       <r>  -20.4645    1.0000 </r>
       <r>  -20.4624    1.0000 </r>
       <r>  -20.4624    1.0000 </r>
       <r>  -20.4624    1.0000 </r>
       <r>  -20.4624    1.0000 </r>
       <r>  -16.7773    1.0000 </r>
       <r>  -16.7773    1.0000 </r>
       <r>  -16.7768    1.0000 </r>
       <r>  -16.7768    1.0000 </r>
       <r>  -16.7634    1.0000 </r>
       <r>  -16.7634    1.0000 </r>
       <r>  -16.7633    1.0000 </r>
       <r>  -16.7633    1.0000 </r>
       <r>  -16.7633    1.0000 </r>
       <r>  -16.7633    1.0000 </r>
       <r>  -16.7632    1.0000 </r>
       <r>  -16.7632    1.0000 </r>
       <r>  -16.7467    1.0000 </r>
       <r>  -16.7467    1.0000 </r>
       <r>  -16.7467    1.0000 </r>
       <r>  -16.7467    1.0000 </r>
       <r>  -16.7034    1.0000 </r>
       <r>  -16.7034    1.0000 </r>
       <r>  -16.7034    1.0000 </r>
       <r>  -16.7034    1.0000 </r>
       <r>  -16.7029    1.0000 </r>
       <r>  -16.7029    1.0000 </r>
       <r>  -16.7029    1.0000 </r>
       <r>  -16.7029    1.0000 </r>
       <r>  -16.6925    1.0000 </r>
       <r>  -16.6925    1.0000 </r>
       <r>  -16.6925    1.0000 </r>
       <r>  -16.6925    1.0000 </r>
       <r>  -16.6919    1.0000 </r>
       <r>  -16.6919    1.0000 </r>
       <r>  -16.6918    1.0000 </r>
       <r>  -16.6918    1.0000 </r>
       <r>  -16.6917    1.0000 </r>
       <r>  -16.6917    1.0000 </r>
       <r>  -16.6917    1.0000 </r>
       <r>  -16.6917    1.0000 </r>
       <r>  -16.6913    1.0000 </r>
       <r>  -16.6913    1.0000 </r>
       <r>  -16.6913    1.0000 </r>
       <r>  -16.6913    1.0000 </r>
       <r>  -14.2409    1.0000 </r>
       <r>  -14.2409    1.0000 </r>
       <r>  -14.2006    1.0000 </r>
       <r>  -14.2006    1.0000 </r>
       <r>  -14.1293    1.0000 </r>
       <r>  -14.1293    1.0000 </r>
       <r>  -14.1113    1.0000 </r>
       <r>  -14.1113    1.0000 </r>
       <r>  -14.0613    1.0000 </r>
       <r>  -14.0613    1.0000 </r>
       <r>  -14.0583    1.0000 </r>
       <r>  -14.0583    1.0000 </r>
       <r>  -13.9888    1.0000 </r>
       <r>  -13.9888    1.0000 </r>
       <r>  -13.9789    1.0000 </r>
       <r>  -13.9789    1.0000 </r>
       <r>  -13.9722    1.0000 </r>
       <r>  -13.9722    1.0000 </r>
       <r>  -13.9594    1.0000 </r>
       <r>  -13.9594    1.0000 </r>
       <r>  -13.9309    1.0000 </r>
       <r>  -13.9309    1.0000 </r>
       <r>  -13.9009    1.0000 </r>
       <r>  -13.9009    1.0000 </r>
       <r>   -7.7905    1.0000 </r>
       <r>   -7.7905    1.0000 </r>
       <r>   -7.7731    1.0000 </r>
       <r>   -7.7731    1.0000 </r>
       <r>   -7.5155    1.0000 </r>
       <r>   -7.5155    1.0000 </r>
       <r>   -7.4749    1.0000 </r>
       <r>   -7.4749    1.0000 </r>
       <r>   -7.0146    1.0000 </r>
       <r>   -7.0146    1.0000 </r>
       <r>   -7.0080    1.0000 </r>
       <r>   -7.0080    1.0000 </r>
       <r>   -6.9949    1.0000 </r>
       <r>   -6.9949    1.0000 </r>
       <r>   -6.9949    1.0000 </r>
       <r>   -6.9949    1.0000 </r>
       <r>   -6.9691    1.0000 </r>
       <r>   -6.9691    1.0000 </r>
       <r>   -6.9611    1.0000 </r>
       <r>   -6.9611    1.0000 </r>
       <r>   -6.9472    1.0000 </r>
       <r>   -6.9472    1.0000 </r>
       <r>   -6.9309    1.0000 </r>
       <r>   -6.9309    1.0000 </r>
       <r>   -6.9276    1.0000 </r>
       <r>   -6.9276    1.0000 </r>
       <r>   -6.9075    1.0000 </r>
       <r>   -6.9075    1.0000 </r>
       <r>   -6.8847    1.0000 </r>
       <r>   -6.8847    1.0000 </r>
       <r>   -6.8815    1.0000 </r>
       <r>   -6.8815    1.0000 </r>
       <r>   -2.9725    1.0000 </r>
       <r>   -2.9725    1.0000 </r>
       <r>   -2.9419    1.0000 </r>
       <r>   -2.9419    1.0000 </r>
       <r>   -2.5960    1.0000 </r>
       <r>   -2.5960    1.0000 </r>
       <r>   -2.5484    1.0000 </r>
       <r>   -2.5484    1.0000 </r>
       <r>   -2.4681    1.0000 </r>
       <r>   -2.4681    1.0000 </r>
       <r>   -2.4070    1.0000 </r>
       <r>   -2.4070    1.0000 </r>
       <r>   -2.3855    1.0000 </r>
       <r>   -2.3855    1.0000 </r>
       <r>   -2.3547    1.0000 </r>
       <r>   -2.3547    1.0000 </r>
       <r>   -2.2609    1.0000 </r>
       <r>   -2.2609    1.0000 </r>
       <r>   -2.2603    1.0000 </r>
       <r>   -2.2603    1.0000 </r>
       <r>   -2.0707    1.0000 </r>
       <r>   -2.0707    1.0000 </r>
       <r>   -1.8714    1.0000 </r>
       <r>   -1.8714    1.0000 </r>
       <r>   -1.7878    1.0000 </r>
       <r>   -1.7878    1.0000 </r>
       <r>   -1.6212    1.0000 </r>
       <r>   -1.6212    1.0000 </r>
       <r>   -1.5697    1.0000 </r>
       <r>   -1.5697    1.0000 </r>
       <r>   -1.5541    1.0000 </r>
       <r>   -1.5541    1.0000 </r>
       <r>   -1.5369    1.0000 </r>
       <r>   -1.5369    1.0000 </r>
       <r>   -1.5029    1.0000 </r>
       <r>   -1.5029    1.0000 </r>
       <r>   -1.4792    1.0000 </r>
       <r>   -1.4792    1.0000 </r>
       <r>   -1.4624    1.0000 </r>
       <r>   -1.4624    1.0000 </r>
       <r>   -1.4007    1.0000 </r>
       <r>   -1.4007    1.0000 </r>
       <r>   -1.3491    1.0000 </r>
       <r>   -1.3491    1.0000 </r>
       <r>   -1.2918    1.0000 </r>
       <r>   -1.2918    1.0000 </r>
       <r>   -1.2769    1.0000 </r>
       <r>   -1.2769    1.0000 </r>
       <r>   -1.2676    1.0000 </r>
       <r>   -1.2676    1.0000 </r>
       <r>   -1.2415    1.0000 </r>
       <r>   -1.2415    1.0000 </r>
       <r>   -1.2160    1.0000 </r>
       <r>   -1.2160    1.0000 </r>
       <r>   -1.1840    1.0000 </r>
       <r>   -1.1840    1.0000 </r>
       <r>   -1.1646    1.0000 </r>
       <r>   -1.1646    1.0000 </r>
       <r>   -1.1473    1.0000 </r>
       <r>   -1.1473    1.0000 </r>
       <r>   -1.1355    1.0000 </r>
       <r>   -1.1355    1.0000 </r>
       <r>   -1.1159    1.0000 </r>
       <r>   -1.1159    1.0000 </r>
       <r>   -0.8938    1.0000 </r>
       <r>   -0.8938    1.0000 </r>
       <r>   -0.7885    1.0000 </r>
       <r>   -0.7885    1.0000 </r>
       <r>   -0.7647    1.0000 </r>
       <r>   -0.7647    1.0000 </r>
       <r>   -0.7543    1.0000 </r>
       <r>   -0.7543    1.0000 </r>
       <r>    2.9013    0.0000 </r>
       <r>    2.9013    0.0000 </r>
       <r>    2.9205    0.0000 </r>
       <r>    2.9205    0.0000 </r>
       <r>    3.7063    0.0000 </r>
       <r>    3.7063    0.0000 </r>
       <r>    3.7604    0.0000 </r>
       <r>    3.7604    0.0000 </r>
       <r>    3.9206    0.0000 </r>
       <r>    3.9206    0.0000 </r>
       <r>    3.9565    0.0000 </r>
       <r>    3.9565    0.0000 </r>
       <r>    3.9698    0.0000 </r>
       <r>    3.9698    0.0000 </r>
       <r>    3.9846    0.0000 </r>
       <r>    3.9846    0.0000 </r>
       <r>    4.1201    0.0000 </r>
       <r>    4.1201    0.0000 </r>
       <r>    4.1956    0.0000 </r>
       <r>    4.1956    0.0000 </r>
       <r>    4.9816    0.0000 </r>
       <r>    4.9816    0.0000 </r>
       <r>    5.0057    0.0000 </r>
       <r>    5.0057    0.0000 </r>
       <r>    6.0248    0.0000 </r>
       <r>    6.0248    0.0000 </r>
       <r>    6.2536    0.0000 </r>
       <r>    6.2536    0.0000 </r>
       <r>    6.2570    0.0000 </r>
       <r>    6.2570    0.0000 </r>
       <r>    6.5646    0.0000 </r>
       <r>    6.5646    0.0000 </r>
       <r>    6.5732    0.0000 </r>
       <r>    6.5732    0.0000 </r>
       <r>    6.6970    0.0000 </r>
       <r>    6.6971    0.0000 </r>
       <r>    6.7620    0.0000 </r>
       <r>    6.7621    0.0000 </r>
       <r>    6.8461    0.0000 </r>
       <r>    6.8545    0.0000 </r>
      </set>
      <set comment="kpoint 4">
       <r>  -20.4661    1.0000 </r>
       <r>  -20.4661    1.0000 </r>
       <r>  -20.4633    1.0000 </r>
       <r>  -20.4633    1.0000 </r>
       <r>  -20.4633    1.0000 </r>
       <r>  -20.4633    1.0000 </r>
       <r>  -20.4611    1.0000 </r>
       <r>  -20.4611    1.0000 </r>
       <r>  -16.7877    1.0000 </r>
       <r>  -16.7877    1.0000 </r>
       <r>  -16.7767    1.0000 </r>
       <r>  -16.7767    1.0000 </r>
       <r>  -16.7767    1.0000 </r>
       <r>  -16.7767    1.0000 </r>
       <r>  -16.7706    1.0000 </r>
       <r>  -16.7706    1.0000 </r>
       <r>  -16.7538    1.0000 </r>
       <r>  -16.7538    1.0000 </r>
       <r>  -16.7484    1.0000 </r>
       <r>  -16.7484    1.0000 </r>
       <r>  -16.7484    1.0000 </r>
       <r>  -16.7484    1.0000 </r>
       <r>  -16.7382    1.0000 </r>
       <r>  -16.7382    1.0000 </r>
       <r>  -16.7034    1.0000 </r>
       <r>  -16.7034    1.0000 </r>
       <r>  -16.7030    1.0000 </r>
       <r>  -16.7030    1.0000 </r>
       <r>  -16.7030    1.0000 </r>
       <r>  -16.7030    1.0000 </r>
       <r>  -16.7030    1.0000 </r>
       <r>  -16.7030    1.0000 </r>
       <r>  -16.6923    1.0000 </r>
       <r>  -16.6923    1.0000 </r>
       <r>  -16.6922    1.0000 </r>
       <r>  -16.6922    1.0000 </r>
       <r>  -16.6922    1.0000 </r>
       <r>  -16.6922    1.0000 </r>
       <r>  -16.6922    1.0000 </r>
       <r>  -16.6922    1.0000 </r>
       <r>  -16.6918    1.0000 </r>
       <r>  -16.6918    1.0000 </r>
       <r>  -16.6912    1.0000 </r>
       <r>  -16.6912    1.0000 </r>
       <r>  -16.6912    1.0000 </r>
       <r>  -16.6912    1.0000 </r>
       <r>  -16.6912    1.0000 </r>
       <r>  -16.6912    1.0000 </r>
       <r>  -14.2439    1.0000 </r>
       <r>  -14.2439    1.0000 </r>
       <r>  -14.1539    1.0000 </r>
       <r>  -14.1539    1.0000 </r>
       <r>  -14.1539    1.0000 </r>
       <r>  -14.1539    1.0000 </r>
       <r>  -14.0794    1.0000 </r>
       <r>  -14.0794    1.0000 </r>
       <r>  -14.0689    1.0000 </r>
       <r>  -14.0689    1.0000 </r>
       <r>  -14.0660    1.0000 </r>
       <r>  -14.0660    1.0000 </r>
       <r>  -14.0660    1.0000 </r>
       <r>  -14.0660    1.0000 </r>
       <r>  -14.0041    1.0000 </r>
       <r>  -14.0041    1.0000 </r>
       <r>  -13.9802    1.0000 </r>
       <r>  -13.9802    1.0000 </r>
       <r>  -13.9157    1.0000 </r>
       <r>  -13.9157    1.0000 </r>
       <r>  -13.9157    1.0000 </r>
       <r>  -13.9157    1.0000 </r>
       <r>  -13.8860    1.0000 </r>
       <r>  -13.8860    1.0000 </r>
       <r>   -7.9589    1.0000 </r>
       <r>   -7.9589    1.0000 </r>
       <r>   -7.6425    1.0000 </r>
       <r>   -7.6425    1.0000 </r>
       <r>   -7.6425    1.0000 </r>
       <r>   -7.6425    1.0000 </r>
       <r>   -7.2576    1.0000 </r>
       <r>   -7.2576    1.0000 </r>
       <r>   -7.0051    1.0000 </r>
       <r>   -7.0051    1.0000 </r>
       <r>   -7.0014    1.0000 </r>
       <r>   -7.0014    1.0000 </r>
       <r>   -6.9836    1.0000 </r>
       <r>   -6.9836    1.0000 </r>
       <r>   -6.9788    1.0000 </r>
       <r>   -6.9788    1.0000 </r>
       <r>   -6.9788    1.0000 </r>
       <r>   -6.9788    1.0000 </r>
       <r>   -6.9534    1.0000 </r>
       <r>   -6.9534    1.0000 </r>
       <r>   -6.9445    1.0000 </r>
       <r>   -6.9445    1.0000 </r>
       <r>   -6.9312    1.0000 </r>
       <r>   -6.9312    1.0000 </r>
       <r>   -6.9312    1.0000 </r>
       <r>   -6.9312    1.0000 </r>
       <r>   -6.9140    1.0000 </r>
       <r>   -6.9140    1.0000 </r>
       <r>   -6.9140    1.0000 </r>
       <r>   -6.9140    1.0000 </r>
       <r>   -6.8768    1.0000 </r>
       <r>   -6.8768    1.0000 </r>
       <r>   -3.1077    1.0000 </r>
       <r>   -3.1077    1.0000 </r>
       <r>   -2.9614    1.0000 </r>
       <r>   -2.9614    1.0000 </r>
       <r>   -2.9614    1.0000 </r>
       <r>   -2.9614    1.0000 </r>
       <r>   -2.9452    1.0000 </r>
       <r>   -2.9452    1.0000 </r>
       <r>   -2.4442    1.0000 </r>
       <r>   -2.4442    1.0000 </r>
       <r>   -2.4442    1.0000 </r>
       <r>   -2.4442    1.0000 </r>
       <r>   -2.3960    1.0000 </r>
       <r>   -2.3960    1.0000 </r>
       <r>   -2.3138    1.0000 </r>
       <r>   -2.3138    1.0000 </r>
       <r>   -1.9808    1.0000 </r>
       <r>   -1.9808    1.0000 </r>
       <r>   -1.9415    1.0000 </r>
       <r>   -1.9415    1.0000 </r>
       <r>   -1.9415    1.0000 </r>
       <r>   -1.9415    1.0000 </r>
       <r>   -1.8257    1.0000 </r>
       <r>   -1.8257    1.0000 </r>
       <r>   -1.6821    1.0000 </r>
       <r>   -1.6821    1.0000 </r>
       <r>   -1.6651    1.0000 </r>
       <r>   -1.6651    1.0000 </r>
       <r>   -1.6651    1.0000 </r>
       <r>   -1.6651    1.0000 </r>
       <r>   -1.6025    1.0000 </r>
       <r>   -1.6025    1.0000 </r>
       <r>   -1.6014    1.0000 </r>
       <r>   -1.6014    1.0000 </r>
       <r>   -1.4532    1.0000 </r>
       <r>   -1.4532    1.0000 </r>
       <r>   -1.4022    1.0000 </r>
       <r>   -1.4022    1.0000 </r>
       <r>   -1.4022    1.0000 </r>
       <r>   -1.4022    1.0000 </r>
       <r>   -1.3316    1.0000 </r>
       <r>   -1.3316    1.0000 </r>
       <r>   -1.3221    1.0000 </r>
       <r>   -1.3221    1.0000 </r>
       <r>   -1.3221    1.0000 </r>
       <r>   -1.3221    1.0000 </r>
       <r>   -1.2743    1.0000 </r>
       <r>   -1.2743    1.0000 </r>
       <r>   -1.2743    1.0000 </r>
       <r>   -1.2743    1.0000 </r>
       <r>   -1.2278    1.0000 </r>
       <r>   -1.2278    1.0000 </r>
       <r>   -1.1817    1.0000 </r>
       <r>   -1.1817    1.0000 </r>
       <r>   -1.1363    1.0000 </r>
       <r>   -1.1363    1.0000 </r>
       <r>   -1.1320    1.0000 </r>
       <r>   -1.1320    1.0000 </r>
       <r>   -1.1116    1.0000 </r>
       <r>   -1.1116    1.0000 </r>
       <r>   -1.1116    1.0000 </r>
       <r>   -1.1116    1.0000 </r>
       <r>   -1.0934    1.0000 </r>
       <r>   -1.0934    1.0000 </r>
       <r>   -0.9732    1.0000 </r>
       <r>   -0.9732    1.0000 </r>
       <r>   -0.8173    1.0000 </r>
       <r>   -0.8173    1.0000 </r>
       <r>   -0.8173    1.0000 </r>
       <r>   -0.8173    1.0000 </r>
       <r>   -0.5025    1.0000 </r>
       <r>   -0.5025    1.0000 </r>
       <r>    2.7275    0.0000 </r>
       <r>    2.7275    0.0000 </r>
       <r>    2.8316    0.0000 </r>
       <r>    2.8316    0.0000 </r>
       <r>    3.0089    0.0000 </r>
       <r>    3.0089    0.0000 </r>
       <r>    3.0089    0.0000 </r>
       <r>    3.0089    0.0000 </r>
       <r>    3.7054    0.0000 </r>
       <r>    3.7054    0.0000 </r>
       <r>    3.9277    0.0000 </r>
       <r>    3.9277    0.0000 </r>
       <r>    3.9277    0.0000 </r>
       <r>    3.9277    0.0000 </r>
       <r>    4.0692    0.0000 </r>
       <r>    4.0692    0.0000 </r>
       <r>    4.9821    0.0000 </r>
       <r>    4.9821    0.0000 </r>
       <r>    4.9821    0.0000 </r>
       <r>    4.9821    0.0000 </r>
       <r>    4.9881    0.0000 </r>
       <r>    4.9881    0.0000 </r>
       <r>    5.4464    0.0000 </r>
       <r>    5.4464    0.0000 </r>
       <r>    5.6592    0.0000 </r>
       <r>    5.6592    0.0000 </r>
       <r>    6.4972    0.0000 </r>
       <r>    6.4972    0.0000 </r>
       <r>    6.5766    0.0000 </r>
       <r>    6.5767    0.0000 </r>
       <r>    6.6449    0.0000 </r>
       <r>    6.6449    0.0000 </r>
       <r>    6.6449    0.0000 </r>
       <r>    6.6449    0.0000 </r>
       <r>    6.7042    0.0000 </r>
       <r>    6.7046    0.0000 </r>
       <r>    6.7426    0.0000 </r>
       <r>    6.7426    0.0000 </r>
       <r>    6.7427    0.0000 </r>
       <r>    6.7451    0.0000 </r>
      </set>
      <set comment="kpoint 5">
       <r>  -20.4647    1.0000 </r>
       <r>  -20.4647    1.0000 </r>
       <r>  -20.4647    1.0000 </r>
       <r>  -20.4647    1.0000 </r>
       <r>  -20.4623    1.0000 </r>
       <r>  -20.4623    1.0000 </r>
       <r>  -20.4623    1.0000 </r>
       <r>  -20.4623    1.0000 </r>
       <r>  -16.7794    1.0000 </r>
       <r>  -16.7794    1.0000 </r>
       <r>  -16.7794    1.0000 </r>
       <r>  -16.7794    1.0000 </r>
       <r>  -16.7624    1.0000 </r>
       <r>  -16.7624    1.0000 </r>
       <r>  -16.7624    1.0000 </r>
       <r>  -16.7624    1.0000 </r>
       <r>  -16.7620    1.0000 </r>
       <r>  -16.7620    1.0000 </r>
       <r>  -16.7620    1.0000 </r>
       <r>  -16.7620    1.0000 </r>
       <r>  -16.7464    1.0000 </r>
       <r>  -16.7464    1.0000 </r>
       <r>  -16.7464    1.0000 </r>
       <r>  -16.7464    1.0000 </r>
       <r>  -16.7033    1.0000 </r>
       <r>  -16.7033    1.0000 </r>
       <r>  -16.7033    1.0000 </r>
       <r>  -16.7033    1.0000 </r>
       <r>  -16.7030    1.0000 </r>
       <r>  -16.7030    1.0000 </r>
       <r>  -16.7030    1.0000 </r>
       <r>  -16.7030    1.0000 </r>
       <r>  -16.6923    1.0000 </r>
       <r>  -16.6923    1.0000 </r>
       <r>  -16.6923    1.0000 </r>
       <r>  -16.6923    1.0000 </r>
       <r>  -16.6921    1.0000 </r>
       <r>  -16.6921    1.0000 </r>
       <r>  -16.6921    1.0000 </r>
       <r>  -16.6921    1.0000 </r>
       <r>  -16.6916    1.0000 </r>
       <r>  -16.6916    1.0000 </r>
       <r>  -16.6916    1.0000 </r>
       <r>  -16.6916    1.0000 </r>
       <r>  -16.6912    1.0000 </r>
       <r>  -16.6912    1.0000 </r>
       <r>  -16.6912    1.0000 </r>
       <r>  -16.6912    1.0000 </r>
       <r>  -14.2153    1.0000 </r>
       <r>  -14.2153    1.0000 </r>
       <r>  -14.2153    1.0000 </r>
       <r>  -14.2153    1.0000 </r>
       <r>  -14.1308    1.0000 </r>
       <r>  -14.1308    1.0000 </r>
       <r>  -14.1308    1.0000 </r>
       <r>  -14.1308    1.0000 </r>
       <r>  -14.0615    1.0000 </r>
       <r>  -14.0615    1.0000 </r>
       <r>  -14.0615    1.0000 </r>
       <r>  -14.0615    1.0000 </r>
       <r>  -13.9885    1.0000 </r>
       <r>  -13.9885    1.0000 </r>
       <r>  -13.9885    1.0000 </r>
       <r>  -13.9885    1.0000 </r>
       <r>  -13.9540    1.0000 </r>
       <r>  -13.9540    1.0000 </r>
       <r>  -13.9540    1.0000 </r>
       <r>  -13.9540    1.0000 </r>
       <r>  -13.9163    1.0000 </r>
       <r>  -13.9163    1.0000 </r>
       <r>  -13.9163    1.0000 </r>
       <r>  -13.9163    1.0000 </r>
       <r>   -7.8069    1.0000 </r>
       <r>   -7.8069    1.0000 </r>
       <r>   -7.8069    1.0000 </r>
       <r>   -7.8069    1.0000 </r>
       <r>   -7.4631    1.0000 </r>
       <r>   -7.4631    1.0000 </r>
       <r>   -7.4631    1.0000 </r>
       <r>   -7.4631    1.0000 </r>
       <r>   -7.0002    1.0000 </r>
       <r>   -7.0002    1.0000 </r>
       <r>   -7.0002    1.0000 </r>
       <r>   -7.0002    1.0000 </r>
       <r>   -6.9814    1.0000 </r>
       <r>   -6.9814    1.0000 </r>
       <r>   -6.9814    1.0000 </r>
       <r>   -6.9814    1.0000 </r>
       <r>   -6.9637    1.0000 </r>
       <r>   -6.9637    1.0000 </r>
       <r>   -6.9637    1.0000 </r>
       <r>   -6.9637    1.0000 </r>
       <r>   -6.9504    1.0000 </r>
       <r>   -6.9504    1.0000 </r>
       <r>   -6.9504    1.0000 </r>
       <r>   -6.9504    1.0000 </r>
       <r>   -6.9247    1.0000 </r>
       <r>   -6.9247    1.0000 </r>
       <r>   -6.9247    1.0000 </r>
       <r>   -6.9247    1.0000 </r>
       <r>   -6.8946    1.0000 </r>
       <r>   -6.8946    1.0000 </r>
       <r>   -6.8946    1.0000 </r>
       <r>   -6.8946    1.0000 </r>
       <r>   -2.9948    1.0000 </r>
       <r>   -2.9948    1.0000 </r>
       <r>   -2.9948    1.0000 </r>
       <r>   -2.9948    1.0000 </r>
       <r>   -2.5675    1.0000 </r>
       <r>   -2.5675    1.0000 </r>
       <r>   -2.5675    1.0000 </r>
       <r>   -2.5675    1.0000 </r>
       <r>   -2.4721    1.0000 </r>
       <r>   -2.4721    1.0000 </r>
       <r>   -2.4721    1.0000 </r>
       <r>   -2.4721    1.0000 </r>
       <r>   -2.3258    1.0000 </r>
       <r>   -2.3258    1.0000 </r>
       <r>   -2.3258    1.0000 </r>
       <r>   -2.3258    1.0000 </r>
       <r>   -2.2641    1.0000 </r>
       <r>   -2.2641    1.0000 </r>
       <r>   -2.2641    1.0000 </r>
       <r>   -2.2641    1.0000 </r>
       <r>   -1.9611    1.0000 </r>
       <r>   -1.9611    1.0000 </r>
       <r>   -1.9611    1.0000 </r>
       <r>   -1.9611    1.0000 </r>
       <r>   -1.6865    1.0000 </r>
       <r>   -1.6865    1.0000 </r>
       <r>   -1.6865    1.0000 </r>
       <r>   -1.6865    1.0000 </r>
       <r>   -1.6204    1.0000 </r>
       <r>   -1.6204    1.0000 </r>
       <r>   -1.6204    1.0000 </r>
       <r>   -1.6204    1.0000 </r>
       <r>   -1.5319    1.0000 </r>
       <r>   -1.5319    1.0000 </r>
       <r>   -1.5319    1.0000 </r>
       <r>   -1.5319    1.0000 </r>
       <r>   -1.4415    1.0000 </r>
       <r>   -1.4415    1.0000 </r>
       <r>   -1.4415    1.0000 </r>
       <r>   -1.4415    1.0000 </r>
       <r>   -1.3654    1.0000 </r>
       <r>   -1.3654    1.0000 </r>
       <r>   -1.3654    1.0000 </r>
       <r>   -1.3654    1.0000 </r>
       <r>   -1.2674    1.0000 </r>
       <r>   -1.2674    1.0000 </r>
       <r>   -1.2674    1.0000 </r>
       <r>   -1.2674    1.0000 </r>
       <r>   -1.2231    1.0000 </r>
       <r>   -1.2231    1.0000 </r>
       <r>   -1.2231    1.0000 </r>
       <r>   -1.2231    1.0000 </r>
       <r>   -1.1906    1.0000 </r>
       <r>   -1.1906    1.0000 </r>
       <r>   -1.1906    1.0000 </r>
       <r>   -1.1906    1.0000 </r>
       <r>   -1.1573    1.0000 </r>
       <r>   -1.1573    1.0000 </r>
       <r>   -1.1573    1.0000 </r>
       <r>   -1.1573    1.0000 </r>
       <r>   -1.1128    1.0000 </r>
       <r>   -1.1128    1.0000 </r>
       <r>   -1.1128    1.0000 </r>
       <r>   -1.1128    1.0000 </r>
       <r>   -0.9153    1.0000 </r>
       <r>   -0.9153    1.0000 </r>
       <r>   -0.9153    1.0000 </r>
       <r>   -0.9153    1.0000 </r>
       <r>   -0.7129    1.0000 </r>
       <r>   -0.7129    1.0000 </r>
       <r>   -0.7129    1.0000 </r>
       <r>   -0.7129    1.0000 </r>
       <r>    2.9021    0.0000 </r>
       <r>    2.9021    0.0000 </r>
       <r>    2.9021    0.0000 </r>
       <r>    2.9021    0.0000 </r>
       <r>    3.7114    0.0000 </r>
       <r>    3.7114    0.0000 </r>
       <r>    3.7114    0.0000 </r>
       <r>    3.7114    0.0000 </r>
       <r>    3.8551    0.0000 </r>
       <r>    3.8551    0.0000 </r>
       <r>    3.8551    0.0000 </r>
       <r>    3.8551    0.0000 </r>
       <r>    4.0138    0.0000 </r>
       <r>    4.0138    0.0000 </r>
       <r>    4.0138    0.0000 </r>
       <r>    4.0138    0.0000 </r>
       <r>    4.1352    0.0000 </r>
       <r>    4.1352    0.0000 </r>
       <r>    4.1352    0.0000 </r>
       <r>    4.1352    0.0000 </r>
       <r>    5.1052    0.0000 </r>
       <r>    5.1052    0.0000 </r>
       <r>    5.1052    0.0000 </r>
       <r>    5.1052    0.0000 </r>
       <r>    6.1061    0.0000 </r>
       <r>    6.1061    0.0000 </r>
       <r>    6.1061    0.0000 </r>
       <r>    6.1061    0.0000 </r>
       <r>    6.5246    0.0000 </r>
       <r>    6.5246    0.0000 </r>
       <r>    6.5246    0.0000 </r>
       <r>    6.5246    0.0000 </r>
       <r>    6.6676    0.0000 </r>
       <r>    6.6676    0.0000 </r>
       <r>    6.6676    0.0000 </r>
       <r>    6.6678    0.0000 </r>
       <r>    6.7948    0.0000 </r>
       <r>    6.7950    0.0000 </r>
       <r>    6.7977    0.0000 </r>
       <r>    6.8124    0.0000 </r>
      </set>
      <set comment="kpoint 6">
       <r>  -20.4635    1.0000 </r>
       <r>  -20.4635    1.0000 </r>
       <r>  -20.4635    1.0000 </r>
       <r>  -20.4635    1.0000 </r>
       <r>  -20.4635    1.0000 </r>
       <r>  -20.4635    1.0000 </r>
       <r>  -20.4634    1.0000 </r>
       <r>  -20.4634    1.0000 </r>
       <r>  -16.7634    1.0000 </r>
       <r>  -16.7634    1.0000 </r>
       <r>  -16.7634    1.0000 </r>
       <r>  -16.7634    1.0000 </r>
       <r>  -16.7633    1.0000 </r>
       <r>  -16.7633    1.0000 </r>
       <r>  -16.7633    1.0000 </r>
       <r>  -16.7633    1.0000 </r>
       <r>  -16.7620    1.0000 </r>
       <r>  -16.7620    1.0000 </r>
       <r>  -16.7619    1.0000 </r>
       <r>  -16.7619    1.0000 </r>
       <r>  -16.7619    1.0000 </r>
       <r>  -16.7619    1.0000 </r>
       <r>  -16.7616    1.0000 </r>
       <r>  -16.7616    1.0000 </r>
       <r>  -16.7032    1.0000 </r>
       <r>  -16.7032    1.0000 </r>
       <r>  -16.7032    1.0000 </r>
       <r>  -16.7032    1.0000 </r>
       <r>  -16.7032    1.0000 </r>
       <r>  -16.7032    1.0000 </r>
       <r>  -16.7032    1.0000 </r>
       <r>  -16.7032    1.0000 </r>
       <r>  -16.6922    1.0000 </r>
       <r>  -16.6922    1.0000 </r>
       <r>  -16.6922    1.0000 </r>
       <r>  -16.6922    1.0000 </r>
       <r>  -16.6922    1.0000 </r>
       <r>  -16.6922    1.0000 </r>
       <r>  -16.6922    1.0000 </r>
       <r>  -16.6922    1.0000 </r>
       <r>  -16.6915    1.0000 </r>
       <r>  -16.6915    1.0000 </r>
       <r>  -16.6915    1.0000 </r>
       <r>  -16.6915    1.0000 </r>
       <r>  -16.6915    1.0000 </r>
       <r>  -16.6915    1.0000 </r>
       <r>  -16.6915    1.0000 </r>
       <r>  -16.6915    1.0000 </r>
       <r>  -14.2126    1.0000 </r>
       <r>  -14.2126    1.0000 </r>
       <r>  -14.1956    1.0000 </r>
       <r>  -14.1956    1.0000 </r>
       <r>  -14.1706    1.0000 </r>
       <r>  -14.1706    1.0000 </r>
       <r>  -14.1706    1.0000 </r>
       <r>  -14.1706    1.0000 </r>
       <r>  -14.0016    1.0000 </r>
       <r>  -14.0016    1.0000 </r>
       <r>  -14.0016    1.0000 </r>
       <r>  -14.0016    1.0000 </r>
       <r>  -13.9963    1.0000 </r>
       <r>  -13.9963    1.0000 </r>
       <r>  -13.9653    1.0000 </r>
       <r>  -13.9653    1.0000 </r>
       <r>  -13.9620    1.0000 </r>
       <r>  -13.9620    1.0000 </r>
       <r>  -13.9620    1.0000 </r>
       <r>  -13.9620    1.0000 </r>
       <r>  -13.9591    1.0000 </r>
       <r>  -13.9591    1.0000 </r>
       <r>  -13.9348    1.0000 </r>
       <r>  -13.9348    1.0000 </r>
       <r>   -7.6730    1.0000 </r>
       <r>   -7.6730    1.0000 </r>
       <r>   -7.6408    1.0000 </r>
       <r>   -7.6408    1.0000 </r>
       <r>   -7.6279    1.0000 </r>
       <r>   -7.6279    1.0000 </r>
       <r>   -7.6279    1.0000 </r>
       <r>   -7.6279    1.0000 </r>
       <r>   -7.0028    1.0000 </r>
       <r>   -7.0028    1.0000 </r>
       <r>   -7.0028    1.0000 </r>
       <r>   -7.0028    1.0000 </r>
       <r>   -6.9955    1.0000 </r>
       <r>   -6.9955    1.0000 </r>
       <r>   -6.9921    1.0000 </r>
       <r>   -6.9921    1.0000 </r>
       <r>   -6.9660    1.0000 </r>
       <r>   -6.9660    1.0000 </r>
       <r>   -6.9660    1.0000 </r>
       <r>   -6.9660    1.0000 </r>
       <r>   -6.9627    1.0000 </r>
       <r>   -6.9627    1.0000 </r>
       <r>   -6.9235    1.0000 </r>
       <r>   -6.9235    1.0000 </r>
       <r>   -6.9198    1.0000 </r>
       <r>   -6.9198    1.0000 </r>
       <r>   -6.9105    1.0000 </r>
       <r>   -6.9105    1.0000 </r>
       <r>   -6.9105    1.0000 </r>
       <r>   -6.9105    1.0000 </r>
       <r>   -6.9017    1.0000 </r>
       <r>   -6.9017    1.0000 </r>
       <r>   -2.5667    1.0000 </r>
       <r>   -2.5667    1.0000 </r>
       <r>   -2.5582    1.0000 </r>
       <r>   -2.5582    1.0000 </r>
       <r>   -2.5394    1.0000 </r>
       <r>   -2.5394    1.0000 </r>
[...]
        <r>  0.0007  0.0014  0.0054 </r>
        <r>  0.0013  0.0001  0.0136 </r>
        <r>  0.0007  0.0014  0.0054 </r>
        <r>  0.0013  0.0001  0.0136 </r>
        <r>  0.0024  0.0002  0.0145 </r>
        <r>  0.0011  0.0016  0.0063 </r>
        <r>  0.0001  0.0071  0.0006 </r>
        <r>  0.0000  0.0016  0.0004 </r>
        <r>  0.0002  0.0037  0.0012 </r>
        <r>  0.0000  0.0018  0.0003 </r>
        <r>  0.0002  0.0037  0.0012 </r>
        <r>  0.0000  0.0018  0.0003 </r>
        <r>  0.0001  0.0071  0.0006 </r>
        <r>  0.0000  0.0016  0.0004 </r>
        <r>  0.0000  0.0017  0.0018 </r>
        <r>  0.0003  0.0010  0.0015 </r>
        <r>  0.0020  0.0013  0.0029 </r>
        <r>  0.0003  0.0010  0.0005 </r>
        <r>  0.0020  0.0013  0.0029 </r>
        <r>  0.0003  0.0010  0.0005 </r>
        <r>  0.0000  0.0017  0.0018 </r>
        <r>  0.0003  0.0010  0.0015 </r>
        <r>  0.0000  0.0015  0.0004 </r>
        <r>  0.0000  0.0020  0.0004 </r>
        <r>  0.0000  0.0026  0.0005 </r>
        <r>  0.0000  0.0019  0.0005 </r>
        <r>  0.0000  0.0026  0.0005 </r>
        <r>  0.0000  0.0019  0.0005 </r>
        <r>  0.0000  0.0015  0.0004 </r>
        <r>  0.0000  0.0020  0.0004 </r>
        <r>  0.0004  0.0019  0.0024 </r>
        <r>  0.0002  0.0008  0.0014 </r>
        <r>  0.0025  0.0013  0.0037 </r>
        <r>  0.0003  0.0007  0.0005 </r>
        <r>  0.0025  0.0013  0.0037 </r>
        <r>  0.0003  0.0007  0.0005 </r>
        <r>  0.0004  0.0019  0.0024 </r>
        <r>  0.0002  0.0008  0.0014 </r>
       </set>
       <set comment="band 208">
        <r>  0.0008  0.0014  0.0061 </r>
        <r>  0.0011  0.0001  0.0134 </r>
        <r>  0.0023  0.0003  0.0139 </r>
        <r>  0.0013  0.0017  0.0065 </r>
        <r>  0.0023  0.0003  0.0139 </r>
        <r>  0.0013  0.0017  0.0065 </r>
        <r>  0.0008  0.0014  0.0061 </r>
        <r>  0.0011  0.0001  0.0134 </r>
        <r>  0.0002  0.0038  0.0012 </r>
        <r>  0.0000  0.0013  0.0002 </r>
        <r>  0.0001  0.0077  0.0006 </r>
        <r>  0.0000  0.0013  0.0003 </r>
        <r>  0.0001  0.0077  0.0006 </r>
        <r>  0.0000  0.0013  0.0003 </r>
        <r>  0.0002  0.0038  0.0012 </r>
        <r>  0.0000  0.0013  0.0002 </r>
        <r>  0.0026  0.0012  0.0039 </r>
        <r>  0.0003  0.0006  0.0005 </r>
        <r>  0.0004  0.0019  0.0025 </r>
        <r>  0.0002  0.0008  0.0012 </r>
        <r>  0.0004  0.0019  0.0025 </r>
        <r>  0.0002  0.0008  0.0012 </r>
        <r>  0.0026  0.0012  0.0039 </r>
        <r>  0.0003  0.0006  0.0005 </r>
        <r>  0.0000  0.0028  0.0005 </r>
        <r>  0.0000  0.0019  0.0004 </r>
        <r>  0.0000  0.0013  0.0004 </r>
        <r>  0.0000  0.0021  0.0004 </r>
        <r>  0.0000  0.0013  0.0004 </r>
        <r>  0.0000  0.0021  0.0004 </r>
        <r>  0.0000  0.0028  0.0005 </r>
        <r>  0.0000  0.0019  0.0004 </r>
        <r>  0.0020  0.0013  0.0030 </r>
        <r>  0.0002  0.0009  0.0004 </r>
        <r>  0.0000  0.0018  0.0018 </r>
        <r>  0.0002  0.0010  0.0013 </r>
        <r>  0.0000  0.0018  0.0018 </r>
        <r>  0.0002  0.0010  0.0013 </r>
        <r>  0.0020  0.0013  0.0030 </r>
        <r>  0.0002  0.0009  0.0004 </r>
       </set>
       <set comment="band 209">
        <r>  0.0000  0.0002  0.0209 </r>
        <r>  0.0001  0.0001  0.0079 </r>
        <r>  0.0000  0.0002  0.0209 </r>
        <r>  0.0001  0.0001  0.0079 </r>
        <r>  0.0000  0.0002  0.0209 </r>
        <r>  0.0001  0.0001  0.0079 </r>
        <r>  0.0000  0.0002  0.0209 </r>
        <r>  0.0001  0.0001  0.0079 </r>
        <r>  0.0000  0.0007  0.0015 </r>
        <r>  0.0000  0.0014  0.0007 </r>
        <r>  0.0000  0.0014  0.0007 </r>
        <r>  0.0000  0.0007  0.0015 </r>
        <r>  0.0000  0.0014  0.0007 </r>
        <r>  0.0000  0.0007  0.0015 </r>
        <r>  0.0000  0.0007  0.0015 </r>
        <r>  0.0000  0.0014  0.0007 </r>
        <r>  0.0003  0.0013  0.0021 </r>
        <r>  0.0006  0.0015  0.0023 </r>
        <r>  0.0003  0.0005  0.0013 </r>
        <r>  0.0006  0.0008  0.0015 </r>
        <r>  0.0003  0.0005  0.0013 </r>
        <r>  0.0006  0.0008  0.0015 </r>
        <r>  0.0003  0.0013  0.0021 </r>
        <r>  0.0006  0.0015  0.0023 </r>
        <r>  0.0000  0.0006  0.0024 </r>
        <r>  0.0000  0.0007  0.0007 </r>
        <r>  0.0000  0.0006  0.0024 </r>
        <r>  0.0000  0.0007  0.0007 </r>
        <r>  0.0000  0.0006  0.0024 </r>
        <r>  0.0000  0.0007  0.0007 </r>
        <r>  0.0000  0.0006  0.0024 </r>
        <r>  0.0000  0.0007  0.0007 </r>
        <r>  0.0006  0.0008  0.0015 </r>
        <r>  0.0003  0.0006  0.0013 </r>
        <r>  0.0006  0.0015  0.0023 </r>
        <r>  0.0003  0.0013  0.0021 </r>
        <r>  0.0006  0.0015  0.0023 </r>
        <r>  0.0003  0.0013  0.0021 </r>
        <r>  0.0006  0.0008  0.0015 </r>
        <r>  0.0003  0.0005  0.0013 </r>
       </set>
       <set comment="band 210">
        <r>  0.0001  0.0001  0.0079 </r>
        <r>  0.0000  0.0002  0.0209 </r>
        <r>  0.0001  0.0001  0.0079 </r>
        <r>  0.0000  0.0002  0.0209 </r>
        <r>  0.0001  0.0001  0.0079 </r>
        <r>  0.0000  0.0002  0.0209 </r>
        <r>  0.0001  0.0001  0.0079 </r>
        <r>  0.0000  0.0002  0.0209 </r>
        <r>  0.0000  0.0014  0.0007 </r>
        <r>  0.0000  0.0007  0.0015 </r>
        <r>  0.0000  0.0007  0.0015 </r>
        <r>  0.0000  0.0014  0.0007 </r>
        <r>  0.0000  0.0007  0.0015 </r>
        <r>  0.0000  0.0014  0.0007 </r>
        <r>  0.0000  0.0014  0.0007 </r>
        <r>  0.0000  0.0007  0.0015 </r>
        <r>  0.0006  0.0008  0.0015 </r>
        <r>  0.0003  0.0005  0.0013 </r>
        <r>  0.0006  0.0015  0.0023 </r>
        <r>  0.0003  0.0013  0.0021 </r>
        <r>  0.0006  0.0015  0.0023 </r>
        <r>  0.0003  0.0013  0.0021 </r>
        <r>  0.0006  0.0008  0.0015 </r>
        <r>  0.0003  0.0005  0.0013 </r>
        <r>  0.0000  0.0007  0.0007 </r>
        <r>  0.0000  0.0006  0.0024 </r>
        <r>  0.0000  0.0007  0.0007 </r>
        <r>  0.0000  0.0006  0.0024 </r>
        <r>  0.0000  0.0007  0.0007 </r>
        <r>  0.0000  0.0006  0.0024 </r>
        <r>  0.0000  0.0007  0.0007 </r>
        <r>  0.0000  0.0006  0.0024 </r>
        <r>  0.0003  0.0013  0.0021 </r>
        <r>  0.0006  0.0015  0.0023 </r>
        <r>  0.0003  0.0005  0.0013 </r>
        <r>  0.0006  0.0008  0.0015 </r>
        <r>  0.0003  0.0005  0.0013 </r>
        <r>  0.0006  0.0008  0.0015 </r>
        <r>  0.0003  0.0013  0.0021 </r>
        <r>  0.0006  0.0015  0.0023 </r>
       </set>
       <set comment="band 211">
        <r>  0.0006  0.0009  0.0145 </r>
        <r>  0.0003  0.0004  0.0052 </r>
        <r>  0.0008  0.0002  0.0095 </r>
        <r>  0.0011  0.0007  0.0185 </r>
        <r>  0.0008  0.0002  0.0095 </r>
        <r>  0.0011  0.0007  0.0185 </r>
        <r>  0.0006  0.0009  0.0145 </r>
        <r>  0.0003  0.0004  0.0052 </r>
        <r>  0.0003  0.0013  0.0010 </r>
        <r>  0.0000  0.0037  0.0003 </r>
        <r>  0.0001  0.0031  0.0005 </r>
        <r>  0.0000  0.0016  0.0008 </r>
        <r>  0.0001  0.0031  0.0005 </r>
        <r>  0.0000  0.0016  0.0008 </r>
        <r>  0.0003  0.0013  0.0010 </r>
        <r>  0.0000  0.0037  0.0003 </r>
        <r>  0.0005  0.0023  0.0017 </r>
        <r>  0.0001  0.0010  0.0014 </r>
        <r>  0.0003  0.0016  0.0011 </r>
        <r>  0.0001  0.0009  0.0010 </r>
        <r>  0.0003  0.0016  0.0011 </r>
        <r>  0.0001  0.0009  0.0010 </r>
        <r>  0.0005  0.0023  0.0017 </r>
        <r>  0.0001  0.0010  0.0014 </r>
        <r>  0.0006  0.0009  0.0015 </r>
        <r>  0.0005  0.0022  0.0030 </r>
        <r>  0.0002  0.0022  0.0025 </r>
        <r>  0.0003  0.0008  0.0010 </r>
        <r>  0.0002  0.0022  0.0025 </r>
        <r>  0.0003  0.0008  0.0010 </r>
        <r>  0.0006  0.0009  0.0015 </r>
        <r>  0.0005  0.0022  0.0030 </r>
        <r>  0.0010  0.0023  0.0018 </r>
        <r>  0.0000  0.0017  0.0016 </r>
        <r>  0.0008  0.0016  0.0013 </r>
        <r>  0.0000  0.0016  0.0012 </r>
        <r>  0.0008  0.0016  0.0013 </r>
        <r>  0.0000  0.0016  0.0012 </r>
        <r>  0.0010  0.0023  0.0018 </r>
        <r>  0.0000  0.0017  0.0016 </r>
       </set>
       <set comment="band 212">
        <r>  0.0003  0.0001  0.0072 </r>
        <r>  0.0021  0.0006  0.0246 </r>
        <r>  0.0001  0.0010  0.0119 </r>
        <r>  0.0003  0.0004  0.0041 </r>
        <r>  0.0001  0.0010  0.0119 </r>
        <r>  0.0003  0.0004  0.0041 </r>
        <r>  0.0003  0.0001  0.0072 </r>
        <r>  0.0021  0.0006  0.0246 </r>
        <r>  0.0001  0.0018  0.0004 </r>
        <r>  0.0001  0.0026  0.0003 </r>
        <r>  0.0000  0.0033  0.0008 </r>
        <r>  0.0001  0.0021  0.0011 </r>
        <r>  0.0000  0.0033  0.0008 </r>
        <r>  0.0001  0.0021  0.0011 </r>
        <r>  0.0001  0.0018  0.0004 </r>
        <r>  0.0001  0.0026  0.0003 </r>
        <r>  0.0003  0.0007  0.0012 </r>
        <r>  0.0007  0.0007  0.0013 </r>
        <r>  0.0006  0.0017  0.0028 </r>
        <r>  0.0010  0.0020  0.0029 </r>
        <r>  0.0006  0.0017  0.0028 </r>
        <r>  0.0010  0.0020  0.0029 </r>
        <r>  0.0003  0.0007  0.0012 </r>
        <r>  0.0007  0.0007  0.0013 </r>
        <r>  0.0001  0.0010  0.0018 </r>
        <r>  0.0006  0.0005  0.0010 </r>
        <r>  0.0002  0.0007  0.0014 </r>
        <r>  0.0008  0.0039  0.0038 </r>
        <r>  0.0002  0.0007  0.0014 </r>
        <r>  0.0008  0.0039  0.0038 </r>
        <r>  0.0001  0.0010  0.0018 </r>
        <r>  0.0006  0.0005  0.0010 </r>
        <r>  0.0000  0.0017  0.0008 </r>
        <r>  0.0001  0.0021  0.0008 </r>
        <r>  0.0000  0.0017  0.0005 </r>
        <r>  0.0001  0.0023  0.0007 </r>
        <r>  0.0000  0.0017  0.0005 </r>
        <r>  0.0001  0.0023  0.0007 </r>
        <r>  0.0000  0.0017  0.0008 </r>
        <r>  0.0001  0.0021  0.0008 </r>
       </set>
       <set comment="band 213">
        <r>  0.0015  0.0005  0.0189 </r>
        <r>  0.0001  0.0004  0.0072 </r>
        <r>  0.0004  0.0005  0.0078 </r>
        <r>  0.0007  0.0007  0.0139 </r>
        <r>  0.0004  0.0005  0.0078 </r>
        <r>  0.0007  0.0007  0.0139 </r>
        <r>  0.0015  0.0005  0.0189 </r>
        <r>  0.0001  0.0004  0.0072 </r>
        <r>  0.0000  0.0023  0.0008 </r>
        <r>  0.0002  0.0025  0.0004 </r>
        <r>  0.0000  0.0026  0.0008 </r>
        <r>  0.0002  0.0023  0.0005 </r>
        <r>  0.0000  0.0026  0.0008 </r>
        <r>  0.0002  0.0023  0.0005 </r>
        <r>  0.0000  0.0023  0.0008 </r>
        <r>  0.0002  0.0025  0.0004 </r>
        <r>  0.0004  0.0025  0.0022 </r>
        <r>  0.0006  0.0016  0.0018 </r>
        <r>  0.0003  0.0019  0.0013 </r>
        <r>  0.0004  0.0005  0.0006 </r>
        <r>  0.0003  0.0019  0.0013 </r>
        <r>  0.0004  0.0005  0.0006 </r>
        <r>  0.0004  0.0025  0.0022 </r>
        <r>  0.0006  0.0016  0.0018 </r>
        <r>  0.0003  0.0013  0.0017 </r>
        <r>  0.0004  0.0017  0.0020 </r>
        <r>  0.0008  0.0026  0.0027 </r>
        <r>  0.0001  0.0005  0.0016 </r>
        <r>  0.0008  0.0026  0.0027 </r>
        <r>  0.0001  0.0005  0.0016 </r>
        <r>  0.0003  0.0013  0.0017 </r>
        <r>  0.0004  0.0017  0.0020 </r>
        <r>  0.0002  0.0021  0.0015 </r>
        <r>  0.0004  0.0013  0.0011 </r>
        <r>  0.0003  0.0021  0.0016 </r>
        <r>  0.0003  0.0008  0.0010 </r>
        <r>  0.0003  0.0021  0.0016 </r>
        <r>  0.0003  0.0008  0.0010 </r>
        <r>  0.0002  0.0021  0.0015 </r>
        <r>  0.0004  0.0013  0.0011 </r>
       </set>
       <set comment="band 214">
        <r>  0.0003  0.0006  0.0072 </r>
        <r>  0.0003  0.0008  0.0107 </r>
        <r>  0.0015  0.0004  0.0187 </r>
        <r>  0.0007  0.0003  0.0112 </r>
        <r>  0.0015  0.0004  0.0187 </r>
        <r>  0.0007  0.0003  0.0112 </r>
        <r>  0.0003  0.0006  0.0072 </r>
        <r>  0.0003  0.0008  0.0107 </r>
        <r>  0.0000  0.0044  0.0003 </r>
        <r>  0.0001  0.0009  0.0016 </r>
        <r>  0.0003  0.0007  0.0005 </r>
        <r>  0.0000  0.0037  0.0001 </r>
        <r>  0.0003  0.0007  0.0005 </r>
        <r>  0.0000  0.0037  0.0001 </r>
        <r>  0.0000  0.0044  0.0003 </r>
        <r>  0.0001  0.0009  0.0016 </r>
        <r>  0.0002  0.0010  0.0004 </r>
        <r>  0.0000  0.0030  0.0011 </r>
        <r>  0.0002  0.0012  0.0004 </r>
        <r>  0.0000  0.0030  0.0010 </r>
        <r>  0.0002  0.0012  0.0004 </r>
        <r>  0.0000  0.0030  0.0010 </r>
        <r>  0.0002  0.0010  0.0004 </r>
        <r>  0.0000  0.0030  0.0011 </r>
        <r>  0.0006  0.0030  0.0029 </r>
        <r>  0.0002  0.0017  0.0020 </r>
        <r>  0.0005  0.0006  0.0014 </r>
        <r>  0.0004  0.0008  0.0017 </r>
        <r>  0.0005  0.0006  0.0014 </r>
        <r>  0.0004  0.0008  0.0017 </r>
        <r>  0.0006  0.0030  0.0029 </r>
        <r>  0.0002  0.0017  0.0020 </r>
        <r>  0.0002  0.0004  0.0014 </r>
        <r>  0.0009  0.0014  0.0020 </r>
        <r>  0.0003  0.0011  0.0022 </r>
        <r>  0.0010  0.0017  0.0026 </r>
        <r>  0.0003  0.0011  0.0021 </r>
        <r>  0.0010  0.0018  0.0026 </r>
        <r>  0.0002  0.0004  0.0014 </r>
        <r>  0.0009  0.0014  0.0020 </r>
       </set>
       <set comment="band 215">
        <r>  0.0000  0.0002  0.0142 </r>
        <r>  0.0000  0.0003  0.0195 </r>
        <r>  0.0000  0.0001  0.0150 </r>
        <r>  0.0000  0.0003  0.0188 </r>
        <r>  0.0000  0.0001  0.0150 </r>
        <r>  0.0000  0.0003  0.0193 </r>
        <r>  0.0000  0.0001  0.0143 </r>
        <r>  0.0000  0.0003  0.0194 </r>
        <r>  0.0001  0.0041  0.0001 </r>
        <r>  0.0004  0.0006  0.0005 </r>
        <r>  0.0004  0.0006  0.0006 </r>
        <r>  0.0001  0.0040  0.0001 </r>
        <r>  0.0004  0.0006  0.0006 </r>
        <r>  0.0001  0.0041  0.0001 </r>
        <r>  0.0001  0.0042  0.0001 </r>
        <r>  0.0004  0.0006  0.0006 </r>
        <r>  0.0001  0.0012  0.0019 </r>
        <r>  0.0002  0.0016  0.0016 </r>
        <r>  0.0001  0.0019  0.0027 </r>
        <r>  0.0002  0.0019  0.0022 </r>
        <r>  0.0001  0.0019  0.0026 </r>
        <r>  0.0001  0.0022  0.0023 </r>
        <r>  0.0002  0.0013  0.0020 </r>
        <r>  0.0002  0.0014  0.0016 </r>
        <r>  0.0002  0.0004  0.0004 </r>
        <r>  0.0005  0.0015  0.0005 </r>
        <r>  0.0003  0.0008  0.0005 </r>
        <r>  0.0005  0.0013  0.0006 </r>
        <r>  0.0002  0.0008  0.0003 </r>
        <r>  0.0006  0.0013  0.0006 </r>
        <r>  0.0002  0.0005  0.0004 </r>
        <r>  0.0006  0.0014  0.0005 </r>
        <r>  0.0001  0.0022  0.0024 </r>
        <r>  0.0000  0.0020  0.0027 </r>
        <r>  0.0002  0.0014  0.0015 </r>
        <r>  0.0001  0.0014  0.0018 </r>
        <r>  0.0002  0.0014  0.0014 </r>
        <r>  0.0002  0.0010  0.0017 </r>
        <r>  0.0001  0.0021  0.0023 </r>
        <r>  0.0001  0.0019  0.0027 </r>
       </set>
       <set comment="band 216">
        <r>  0.0001  0.0002  0.0196 </r>
        <r>  0.0001  0.0002  0.0150 </r>
        <r>  0.0000  0.0005  0.0172 </r>
        <r>  0.0001  0.0002  0.0140 </r>
        <r>  0.0000  0.0005  0.0158 </r>
        <r>  0.0001  0.0003  0.0130 </r>
        <r>  0.0000  0.0003  0.0192 </r>
        <r>  0.0000  0.0002  0.0159 </r>
        <r>  0.0003  0.0008  0.0011 </r>
        <r>  0.0001  0.0030  0.0001 </r>
        <r>  0.0000  0.0040  0.0002 </r>
        <r>  0.0004  0.0007  0.0004 </r>
        <r>  0.0001  0.0040  0.0002 </r>
        <r>  0.0004  0.0006  0.0004 </r>
        <r>  0.0004  0.0008  0.0012 </r>
        <r>  0.0001  0.0033  0.0001 </r>
        <r>  0.0001  0.0014  0.0021 </r>
        <r>  0.0001  0.0013  0.0018 </r>
        <r>  0.0001  0.0014  0.0015 </r>
        <r>  0.0002  0.0013  0.0017 </r>
        <r>  0.0000  0.0008  0.0014 </r>
        <r>  0.0003  0.0011  0.0020 </r>
        <r>  0.0001  0.0021  0.0023 </r>
        <r>  0.0000  0.0015  0.0015 </r>
        <r>  0.0004  0.0023  0.0010 </r>
        <r>  0.0004  0.0014  0.0007 </r>
        <r>  0.0003  0.0008  0.0006 </r>
        <r>  0.0004  0.0006  0.0004 </r>
        <r>  0.0006  0.0008  0.0008 </r>
        <r>  0.0001  0.0006  0.0002 </r>
        <r>  0.0006  0.0022  0.0009 </r>
        <r>  0.0001  0.0016  0.0007 </r>
        <r>  0.0001  0.0006  0.0019 </r>
        <r>  0.0005  0.0016  0.0020 </r>
        <r>  0.0001  0.0016  0.0031 </r>
        <r>  0.0003  0.0020  0.0022 </r>
        <r>  0.0000  0.0025  0.0033 </r>
        <r>  0.0003  0.0018  0.0021 </r>
        <r>  0.0000  0.0017  0.0023 </r>
        <r>  0.0006  0.0013  0.0020 </r>
       </set>
      </set>
     </set>
    </set>
   </array>
  </projected>
 </calculation>
 <structure name="finalpos" >
  <crystal>
   <varray name="basis" >
    <v>      11.73535200       0.00000000       0.00000000 </v>
    <v>       0.00000000      11.73535200       0.00000000 </v>
    <v>       0.00000000       0.00000000      11.73535200 </v>
   </varray>
   <i name="volume">   1616.17491673 </i>
   <varray name="rec_basis" >
    <v>       0.08521261       0.00000000       0.00000000 </v>
    <v>       0.00000000       0.08521261       0.00000000 </v>
    <v>       0.00000000       0.00000000       0.08521261 </v>
   </varray>
  </crystal>
  <varray name="positions" >
   <v>       0.25000000       0.25000000       0.25000000 </v>
   <v>       0.25000000       0.25000000       0.75000000 </v>
   <v>       0.25000000       0.75000000       0.25000000 </v>
   <v>       0.25000000       0.75000000       0.75000000 </v>
   <v>       0.75000000       0.25000000       0.25000000 </v>
   <v>       0.75000000       0.25000000       0.75000000 </v>
   <v>       0.75000000       0.75000000       0.25000000 </v>
   <v>       0.75000000       0.75000000       0.75000000 </v>
   <v>       0.00000000       0.00000000       0.00000000 </v>
   <v>       0.00000000       0.00000000       0.50000000 </v>
   <v>       0.00000000       0.50000000       0.00000000 </v>
   <v>       0.00000000       0.50000000       0.50000000 </v>
   <v>       0.50000000       0.00000000       0.00000000 </v>
   <v>       0.50000000       0.00000000       0.50000000 </v>
   <v>       0.50000000       0.50000000       0.00000000 </v>
   <v>       0.50000000       0.50000000       0.50000000 </v>
   <v>       0.94375000       0.25000000       0.06250000 </v>
   <v>       0.94375000       0.25000000       0.43750000 </v>
   <v>       0.05625000       0.75000000       0.93750000 </v>
   <v>       0.05625000       0.75000000       0.56250000 </v>
   <v>       0.55625000       0.25000000       0.93750000 </v>
   <v>       0.55625000       0.25000000       0.56250000 </v>
   <v>       0.44375000       0.75000000       0.06250000 </v>
   <v>       0.44375000       0.75000000       0.43750000 </v>
   <v>       0.06250000       0.93750000       0.25000000 </v>
   <v>       0.93750000       0.06250000       0.75000000 </v>
   <v>       0.93750000       0.56250000       0.25000000 </v>
   <v>       0.06250000       0.43750000       0.75000000 </v>
   <v>       0.43750000       0.06250000       0.25000000 </v>
   <v>       0.56250000       0.93750000       0.75000000 </v>
   <v>       0.56250000       0.43750000       0.25000000 </v>
   <v>       0.43750000       0.56250000       0.75000000 </v>
   <v>       0.25000000       0.05625000       0.93750000 </v>
   <v>       0.25000000       0.05625000       0.56250000 </v>
   <v>       0.25000000       0.44375000       0.06250000 </v>
   <v>       0.25000000       0.44375000       0.43750000 </v>
   <v>       0.75000000       0.94375000       0.06250000 </v>
   <v>       0.75000000       0.94375000       0.43750000 </v>
   <v>       0.75000000       0.55625000       0.93750000 </v>
   <v>       0.75000000       0.55625000       0.56250000 </v>
  </varray>
 </structure>
</modeling>
