CsPbBr3 cubic bulk                      
           1
    11.735352    0.000000    0.000000
     0.000000   11.735352    0.000000
     0.000000    0.000000   11.735352
   Cs   Pb   Br
   8   8  24
Direct configuration=     1
   0.25000000  0.25000000  0.25000000
   0.25000000  0.25000000  0.75000000
   0.25000000  0.75000000  0.25000000
   0.25000000  0.75000000  0.75000000
   0.75000000  0.25000000  0.25000000
   0.75000000  0.25000000  0.75000000
   0.75000000  0.75000000  0.25000000
   0.75000000  0.75000000  0.75000000
   0.00000000  0.00000000  0.00000000
   0.00000000  0.00000000  0.50000000
   0.00000000  0.50000000  0.00000000
   0.00000000  0.50000000  0.50000000
   0.50000000  0.00000000  0.00000000
   0.50000000  0.00000000  0.50000000
   0.50000000  0.50000000  0.00000000
   0.50000000  0.50000000  0.50000000
   0.94375000  0.25000000  0.06250000
   0.94375000  0.25000000  0.43750000
   0.05625000  0.75000000  0.93750000
   0.05625000  0.75000000  0.56250000
   0.55625000  0.25000000  0.93750000
   0.55625000  0.25000000  0.56250000
   0.44375000  0.75000000  0.06250000
   0.44375000  0.75000000  0.43750000
   0.06250000  0.93750000  0.25000000
   0.93750000  0.06250000  0.75000000
   0.93750000  0.56250000  0.25000000
   0.06250000  0.43750000  0.75000000
   0.43750000  0.06250000  0.25000000
   0.56250000  0.93750000  0.75000000
   0.56250000  0.43750000  0.25000000
   0.43750000  0.56250000  0.75000000
   0.25000000  0.05625000  0.93750000
   0.25000000  0.05625000  0.56250000
   0.25000000  0.44375000  0.06250000
   0.25000000  0.44375000  0.43750000
   0.75000000  0.94375000  0.06250000
   0.75000000  0.94375000  0.43750000
   0.75000000  0.55625000  0.93750000
   0.75000000  0.55625000  0.56250000
