  39  39   1   0
  0.4103261E+02  0.1166835E-08  0.1176381E-08  0.1166835E-08  0.5000000E-15
   1.0000000000000000E-004
  CAR 
 CsPbBr3 cubic bulk                      
      8.01897682    -22.81608285  301      0.33590778      1.00000000
    -22.816  0.0000E+00  0.0000E+00
    -22.713  0.0000E+00  0.0000E+00
    -22.611  0.0000E+00  0.0000E+00
    -22.508  0.0000E+00  0.0000E+00
    -22.405  0.0000E+00  0.0000E+00
    -22.302  0.0000E+00  0.0000E+00
    -22.199  0.0000E+00  0.0000E+00
    -22.097  0.0000E+00  0.0000E+00
    -21.994  0.0000E+00  0.0000E+00
    -21.891  0.0000E+00  0.0000E+00
    -21.788  0.0000E+00  0.0000E+00
    -21.685  0.0000E+00  0.0000E+00
    -21.583  0.0000E+00  0.0000E+00
    -21.480  0.0000E+00  0.0000E+00
    -21.377  0.1946E+02  0.2000E+01
    -21.274  0.0000E+00  0.2000E+01
    -21.172  0.0000E+00  0.2000E+01
    -21.069  0.0000E+00  0.2000E+01
    -20.966  0.2096E+02  0.4154E+01
    -20.863  0.1946E+02  0.1200E+02
    -20.760  0.1946E+02  0.1400E+02
    -20.658  0.0000E+00  0.1400E+02
    -20.555  0.0000E+00  0.1400E+02
    -20.452  0.0000E+00  0.1400E+02
    -20.349  0.0000E+00  0.1400E+02
    -20.246  0.0000E+00  0.1400E+02
    -20.144  0.0000E+00  0.1400E+02
    -20.041  0.0000E+00  0.1400E+02
    -19.938  0.0000E+00  0.1400E+02
    -19.835  0.0000E+00  0.1400E+02
    -19.733  0.0000E+00  0.1400E+02
    -19.630  0.0000E+00  0.1400E+02
    -19.527  0.0000E+00  0.1400E+02
    -19.424  0.0000E+00  0.1400E+02
    -19.321  0.0000E+00  0.1400E+02
    -19.219  0.0000E+00  0.1400E+02
    -19.116  0.0000E+00  0.1400E+02
    -19.013  0.0000E+00  0.1400E+02
    -18.910  0.0000E+00  0.1400E+02
    -18.808  0.0000E+00  0.1400E+02
    -18.705  0.0000E+00  0.1400E+02
    -18.602  0.0000E+00  0.1400E+02
    -18.499  0.0000E+00  0.1400E+02
    -18.396  0.0000E+00  0.1400E+02
    -18.294  0.0000E+00  0.1400E+02
    -18.191  0.0000E+00  0.1400E+02
    -18.088  0.0000E+00  0.1400E+02
    -17.985  0.0000E+00  0.1400E+02
    -17.882  0.0000E+00  0.1400E+02
    -17.780  0.0000E+00  0.1400E+02
    -17.677  0.0000E+00  0.1400E+02
    -17.574  0.0000E+00  0.1400E+02
    -17.471  0.0000E+00  0.1400E+02
    -17.369  0.0000E+00  0.1400E+02
    -17.266  0.0000E+00  0.1400E+02
    -17.163  0.0000E+00  0.1400E+02
    -17.060  0.0000E+00  0.1400E+02
    -16.957  0.0000E+00  0.1400E+02
    -16.855  0.7052E-10  0.1400E+02
    -16.752  0.6270E+02  0.2044E+02
    -16.649  0.1212E+03  0.3596E+02
    -16.546  0.1878E+03  0.6130E+02
    -16.444  0.1826E+03  0.8177E+02
    -16.341  0.1168E+03  0.9400E+02
    -16.238  0.0000E+00  0.9400E+02
    -16.135  0.0000E+00  0.9400E+02
    -16.032  0.0000E+00  0.9400E+02
    -15.930  0.0000E+00  0.9400E+02
    -15.827  0.0000E+00  0.9400E+02
    -15.724  0.0000E+00  0.9400E+02
    -15.621  0.0000E+00  0.9400E+02
    -15.518  0.0000E+00  0.9400E+02
    -15.416  0.0000E+00  0.9400E+02
    -15.313  0.0000E+00  0.9400E+02
    -15.210  0.0000E+00  0.9400E+02
    -15.107  0.0000E+00  0.9400E+02
    -15.005  0.0000E+00  0.9400E+02
    -14.902  0.0000E+00  0.9400E+02
    -14.799  0.0000E+00  0.9400E+02
    -14.696  0.2835E-14  0.9400E+02
    -14.593  0.1654E+02  0.9570E+02
    -14.491  0.1946E+02  0.9800E+02
    -14.388  0.4690E+02  0.1028E+03
    -14.285  0.3447E+02  0.1075E+03
    -14.182  0.4404E+02  0.1130E+03
    -14.079  0.6500E+02  0.1217E+03
    -13.977  0.3362E+02  0.1295E+03
    -13.874  0.5721E+02  0.1376E+03
    -13.771  0.5725E+01  0.1403E+03
    -13.668  0.9729E+01  0.1420E+03
    -13.566  0.0000E+00  0.1420E+03
    -13.463  0.0000E+00  0.1420E+03
    -13.360  0.0000E+00  0.1420E+03
    -13.257  0.0000E+00  0.1420E+03
    -13.154  0.0000E+00  0.1420E+03
    -13.052  0.0000E+00  0.1420E+03
    -12.949  0.0000E+00  0.1420E+03
    -12.846  0.0000E+00  0.1420E+03
    -12.743  0.0000E+00  0.1420E+03
    -12.641  0.0000E+00  0.1420E+03
    -12.538  0.0000E+00  0.1420E+03
    -12.435  0.0000E+00  0.1420E+03
    -12.332  0.0000E+00  0.1420E+03
    -12.229  0.0000E+00  0.1420E+03
    -12.127  0.0000E+00  0.1420E+03
    -12.024  0.0000E+00  0.1420E+03
    -11.921  0.0000E+00  0.1420E+03
    -11.818  0.0000E+00  0.1420E+03
    -11.715  0.0000E+00  0.1420E+03
    -11.613  0.0000E+00  0.1420E+03
    -11.510  0.0000E+00  0.1420E+03
    -11.407  0.0000E+00  0.1420E+03
    -11.304  0.0000E+00  0.1420E+03
    -11.202  0.0000E+00  0.1420E+03
    -11.099  0.0000E+00  0.1420E+03
    -10.996  0.0000E+00  0.1420E+03
    -10.893  0.0000E+00  0.1420E+03
    -10.790  0.0000E+00  0.1420E+03
    -10.688  0.0000E+00  0.1420E+03
    -10.585  0.0000E+00  0.1420E+03
    -10.482  0.0000E+00  0.1420E+03
    -10.379  0.0000E+00  0.1420E+03
    -10.276  0.0000E+00  0.1420E+03
    -10.174  0.0000E+00  0.1420E+03
    -10.071  0.0000E+00  0.1420E+03
     -9.968  0.0000E+00  0.1420E+03
     -9.865  0.0000E+00  0.1420E+03
     -9.763  0.0000E+00  0.1420E+03
     -9.660  0.0000E+00  0.1420E+03
     -9.557  0.0000E+00  0.1420E+03
     -9.454  0.0000E+00  0.1420E+03
     -9.351  0.0000E+00  0.1420E+03
     -9.249  0.0000E+00  0.1420E+03
     -9.146  0.0000E+00  0.1420E+03
     -9.043  0.0000E+00  0.1420E+03
     -8.940  0.0000E+00  0.1420E+03
     -8.838  0.0000E+00  0.1420E+03
     -8.735  0.0000E+00  0.1420E+03
     -8.632  0.0000E+00  0.1420E+03
     -8.529  0.0000E+00  0.1420E+03
     -8.426  0.1734E+01  0.1422E+03
     -8.324  0.3875E-01  0.1423E+03
     -8.221  0.4241E+01  0.1429E+03
     -8.118  0.8213E+01  0.1438E+03
     -8.015  0.1131E+02  0.1452E+03
     -7.912  0.2266E+02  0.1481E+03
     -7.810  0.4065E+02  0.1527E+03
     -7.707  0.9349E+01  0.1545E+03
     -7.604  0.2011E+02  0.1571E+03
     -7.501  0.1216E+02  0.1590E+03
     -7.399  0.4129E+02  0.1632E+03
     -7.296  0.2168E+03  0.1898E+03
     -7.193  0.6710E+02  0.1981E+03
     -7.090  0.4830E+01  0.1987E+03
     -6.987  0.4865E+01  0.1995E+03
     -6.885  0.2432E+01  0.1998E+03
     -6.782  0.2295E-14  0.1998E+03
     -6.679  0.2432E+01  0.2000E+03
     -6.576  0.0000E+00  0.2000E+03
     -6.474  0.0000E+00  0.2000E+03
     -6.371  0.0000E+00  0.2000E+03
     -6.268  0.0000E+00  0.2000E+03
     -6.165  0.0000E+00  0.2000E+03
     -6.062  0.0000E+00  0.2000E+03
     -5.960  0.0000E+00  0.2000E+03
     -5.857  0.0000E+00  0.2000E+03
     -5.754  0.0000E+00  0.2000E+03
     -5.651  0.0000E+00  0.2000E+03
     -5.548  0.0000E+00  0.2000E+03
     -5.446  0.0000E+00  0.2000E+03
     -5.343  0.0000E+00  0.2000E+03
     -5.240  0.0000E+00  0.2000E+03
     -5.137  0.0000E+00  0.2000E+03
     -5.035  0.0000E+00  0.2000E+03
     -4.932  0.0000E+00  0.2000E+03
     -4.829  0.0000E+00  0.2000E+03
     -4.726  0.0000E+00  0.2000E+03
     -4.623  0.0000E+00  0.2000E+03
     -4.521  0.0000E+00  0.2000E+03
     -4.418  0.0000E+00  0.2000E+03
     -4.315  0.0000E+00  0.2000E+03
     -4.212  0.0000E+00  0.2000E+03
     -4.109  0.0000E+00  0.2000E+03
     -4.007  0.0000E+00  0.2000E+03
     -3.904  0.0000E+00  0.2000E+03
     -3.801  0.0000E+00  0.2000E+03
     -3.698  0.1330E-08  0.2000E+03
     -3.596  0.1925E+02  0.2020E+03
     -3.493  0.1014E+02  0.2030E+03
     -3.390  0.8973E+01  0.2044E+03
     -3.287  0.3109E+02  0.2079E+03
     -3.184  0.1188E+02  0.2110E+03
     -3.082  0.6974E+01  0.2120E+03
     -2.979  0.8886E+01  0.2132E+03
     -2.876  0.1323E+02  0.2146E+03
     -2.773  0.2672E+02  0.2182E+03
     -2.671  0.2750E+02  0.2218E+03
     -2.568  0.2860E+02  0.2254E+03
     -2.465  0.2877E+02  0.2295E+03
     -2.362  0.3710E+02  0.2343E+03
     -2.259  0.3821E+02  0.2392E+03
     -2.157  0.2203E+02  0.2428E+03
     -2.054  0.1804E+02  0.2449E+03
     -1.951  0.4390E+02  0.2503E+03
     -1.848  0.4873E+02  0.2565E+03
     -1.745  0.4017E+02  0.2626E+03
     -1.643  0.6668E+02  0.2714E+03
     -1.540  0.7269E+02  0.2805E+03
     -1.437  0.7573E+02  0.2903E+03
     -1.334  0.9814E+02  0.3023E+03
     -1.232  0.8081E+02  0.3133E+03
     -1.129  0.7398E+02  0.3226E+03
     -1.026  0.3968E+02  0.3276E+03
     -0.923  0.2956E+02  0.3320E+03
     -0.820  0.1844E+02  0.3346E+03
     -0.718  0.2506E+02  0.3373E+03
     -0.615  0.1281E+02  0.3391E+03
     -0.512  0.4869E+01  0.3405E+03
     -0.409  0.4865E+01  0.3413E+03
     -0.306  0.9727E+01  0.3422E+03
     -0.204  0.5167E+01  0.3428E+03
     -0.101  0.2347E+01  0.3432E+03
      0.002  0.4865E+01  0.3437E+03
      0.105  0.0000E+00  0.3438E+03
      0.207  0.2783E-09  0.3438E+03
      0.310  0.2432E+01  0.3440E+03
      0.413  0.0000E+00  0.3440E+03
      0.516  0.0000E+00  0.3440E+03
      0.619  0.0000E+00  0.3440E+03
      0.721  0.0000E+00  0.3440E+03
      0.824  0.0000E+00  0.3440E+03
      0.927  0.0000E+00  0.3440E+03
      1.030  0.0000E+00  0.3440E+03
      1.132  0.0000E+00  0.3440E+03
      1.235  0.0000E+00  0.3440E+03
      1.338  0.0000E+00  0.3440E+03
      1.441  0.0000E+00  0.3440E+03
      1.544  0.0000E+00  0.3440E+03
      1.646  0.0000E+00  0.3440E+03
      1.749  0.0000E+00  0.3440E+03
      1.852  0.0000E+00  0.3440E+03
      1.955  0.0000E+00  0.3440E+03
      2.058  0.0000E+00  0.3440E+03
      2.160  0.0000E+00  0.3440E+03
      2.263  0.0000E+00  0.3440E+03
      2.366  0.0000E+00  0.3440E+03
      2.469  0.0000E+00  0.3440E+03
      2.571  0.1673E+01  0.3442E+03
      2.674  0.3383E+01  0.3446E+03
      2.777  0.1230E+02  0.3465E+03
      2.880  0.9235E+01  0.3479E+03
      2.983  0.1602E+02  0.3499E+03
      3.085  0.1325E+02  0.3519E+03
      3.188  0.9475E+01  0.3537E+03
      3.291  0.2434E+01  0.3550E+03
      3.394  0.5485E+01  0.3558E+03
      3.497  0.2432E+01  0.3565E+03
      3.599  0.4498E-01  0.3565E+03
      3.702  0.4820E+01  0.3572E+03
      3.805  0.2432E+01  0.3575E+03
      3.908  0.2028E+01  0.3577E+03
      4.010  0.1251E+02  0.3590E+03
      4.113  0.1224E+02  0.3605E+03
      4.216  0.1729E+02  0.3628E+03
      4.319  0.2470E+02  0.3660E+03
      4.422  0.2527E+02  0.3693E+03
      4.524  0.2307E+02  0.3726E+03
      4.627  0.2246E+02  0.3758E+03
      4.730  0.1454E+02  0.3777E+03
      4.833  0.1460E+02  0.3800E+03
      4.935  0.0000E+00  0.3802E+03
      5.038  0.2432E+01  0.3805E+03
      5.141  0.2432E+01  0.3808E+03
      5.244  0.5821E-01  0.3808E+03
      5.347  0.1459E+02  0.3825E+03
      5.449  0.9403E+01  0.3835E+03
      5.552  0.2168E+02  0.3862E+03
      5.655  0.1952E+02  0.3883E+03
      5.758  0.1062E+02  0.3898E+03
      5.861  0.1063E+02  0.3911E+03
      5.963  0.2220E+02  0.3940E+03
      6.066  0.2649E+02  0.3972E+03
      6.169  0.3431E+02  0.4015E+03
      6.272  0.3357E+02  0.4057E+03
      6.374  0.2057E+02  0.4086E+03
      6.477  0.3177E+02  0.4128E+03
      6.580  0.1880E+02  0.4154E+03
      6.683  0.4865E+01  0.4160E+03
      6.786  0.0000E+00  0.4160E+03
      6.888  0.0000E+00  0.4160E+03
      6.991  0.0000E+00  0.4160E+03
      7.094  0.0000E+00  0.4160E+03
      7.197  0.0000E+00  0.4160E+03
      7.299  0.0000E+00  0.4160E+03
      7.402  0.0000E+00  0.4160E+03
      7.505  0.0000E+00  0.4160E+03
      7.608  0.0000E+00  0.4160E+03
      7.711  0.0000E+00  0.4160E+03
      7.813  0.0000E+00  0.4160E+03
      7.916  0.0000E+00  0.4160E+03
      8.019  0.0000E+00  0.4160E+03
      8.01897682    -22.81608285  301      0.33590778      1.00000000
    -22.816  0.0000E+00  0.0000E+00  0.0000E+00
    -22.713  0.0000E+00  0.0000E+00  0.0000E+00
    -22.611  0.0000E+00  0.0000E+00  0.0000E+00
    -22.508  0.0000E+00  0.0000E+00  0.0000E+00
    -22.405  0.0000E+00  0.0000E+00  0.0000E+00
    -22.302  0.0000E+00  0.0000E+00  0.0000E+00
    -22.199  0.0000E+00  0.0000E+00  0.0000E+00
    -22.097  0.0000E+00  0.0000E+00  0.0000E+00
    -21.994  0.0000E+00  0.0000E+00  0.0000E+00
    -21.891  0.0000E+00  0.0000E+00  0.0000E+00
    -21.788  0.0000E+00  0.0000E+00  0.0000E+00
    -21.685  0.0000E+00  0.0000E+00  0.0000E+00
    -21.583  0.0000E+00  0.0000E+00  0.0000E+00
    -21.480  0.0000E+00  0.0000E+00  0.0000E+00
    -21.377  0.4652E-04  0.1285E-06  0.2982E-07
    -21.274  0.0000E+00  0.0000E+00  0.0000E+00
    -21.172  0.0000E+00  0.0000E+00  0.0000E+00
    -21.069  0.0000E+00  0.0000E+00  0.0000E+00
    -20.966  0.1717E+02  0.1267E-04  0.8696E-05
    -20.863  0.1101E-05  0.1457E-08  0.2245E-09
    -20.760  0.6111E-06  0.2241E-08  0.3259E-09
    -20.658  0.0000E+00  0.0000E+00  0.0000E+00
    -20.555  0.0000E+00  0.0000E+00  0.0000E+00
    -20.452  0.0000E+00  0.0000E+00  0.0000E+00
    -20.349  0.0000E+00  0.0000E+00  0.0000E+00
    -20.246  0.0000E+00  0.0000E+00  0.0000E+00
    -20.144  0.0000E+00  0.0000E+00  0.0000E+00
    -20.041  0.0000E+00  0.0000E+00  0.0000E+00
    -19.938  0.0000E+00  0.0000E+00  0.0000E+00
    -19.835  0.0000E+00  0.0000E+00  0.0000E+00
    -19.733  0.0000E+00  0.0000E+00  0.0000E+00
    -19.630  0.0000E+00  0.0000E+00  0.0000E+00
    -19.527  0.0000E+00  0.0000E+00  0.0000E+00
    -19.424  0.0000E+00  0.0000E+00  0.0000E+00
    -19.321  0.0000E+00  0.0000E+00  0.0000E+00
    -19.219  0.0000E+00  0.0000E+00  0.0000E+00
    -19.116  0.0000E+00  0.0000E+00  0.0000E+00
    -19.013  0.0000E+00  0.0000E+00  0.0000E+00
    -18.910  0.0000E+00  0.0000E+00  0.0000E+00
    -18.808  0.0000E+00  0.0000E+00  0.0000E+00
    -18.705  0.0000E+00  0.0000E+00  0.0000E+00
    -18.602  0.0000E+00  0.0000E+00  0.0000E+00
    -18.499  0.0000E+00  0.0000E+00  0.0000E+00
    -18.396  0.0000E+00  0.0000E+00  0.0000E+00
    -18.294  0.0000E+00  0.0000E+00  0.0000E+00
    -18.191  0.0000E+00  0.0000E+00  0.0000E+00
    -18.088  0.0000E+00  0.0000E+00  0.0000E+00
    -17.985  0.0000E+00  0.0000E+00  0.0000E+00
    -17.882  0.0000E+00  0.0000E+00  0.0000E+00
    -17.780  0.0000E+00  0.0000E+00  0.0000E+00
    -17.677  0.0000E+00  0.0000E+00  0.0000E+00
    -17.574  0.0000E+00  0.0000E+00  0.0000E+00
    -17.471  0.0000E+00  0.0000E+00  0.0000E+00
    -17.369  0.0000E+00  0.0000E+00  0.0000E+00
    -17.266  0.0000E+00  0.0000E+00  0.0000E+00
    -17.163  0.0000E+00  0.0000E+00  0.0000E+00
    -17.060  0.0000E+00  0.0000E+00  0.0000E+00
    -16.957  0.0000E+00  0.0000E+00  0.0000E+00
    -16.855  0.1442E-15  0.2446E-16  0.6384E-17
    -16.752  0.3789E-04  0.3431E-04  0.8087E-05
    -16.649  0.5023E-04  0.2917E-04  0.3714E-05
    -16.546  0.9095E-04  0.7235E-04  0.1244E-04
    -16.444  0.7715E-04  0.4593E-04  0.5528E-05
    -16.341  0.5201E-05  0.3251E-05  0.3844E-06
    -16.238  0.0000E+00  0.0000E+00  0.0000E+00
    -16.135  0.0000E+00  0.0000E+00  0.0000E+00
    -16.032  0.0000E+00  0.0000E+00  0.0000E+00
    -15.930  0.0000E+00  0.0000E+00  0.0000E+00
    -15.827  0.0000E+00  0.0000E+00  0.0000E+00
    -15.724  0.0000E+00  0.0000E+00  0.0000E+00
    -15.621  0.0000E+00  0.0000E+00  0.0000E+00
    -15.518  0.0000E+00  0.0000E+00  0.0000E+00
    -15.416  0.0000E+00  0.0000E+00  0.0000E+00
    -15.313  0.0000E+00  0.0000E+00  0.0000E+00
    -15.210  0.0000E+00  0.0000E+00  0.0000E+00
    -15.107  0.0000E+00  0.0000E+00  0.0000E+00
    -15.005  0.0000E+00  0.0000E+00  0.0000E+00
    -14.902  0.0000E+00  0.0000E+00  0.0000E+00
    -14.799  0.0000E+00  0.0000E+00  0.0000E+00
    -14.696  0.6053E-18  0.1639E-18  0.2956E-20
    -14.593  0.3016E-02  0.1397E-02  0.1906E-04
    -14.491  0.2066E-02  0.1918E-02  0.6048E-04
    -14.388  0.1874E-02  0.8418E-02  0.5993E-03
    -14.285  0.2128E-02  0.2852E-02  0.1032E-03
    -14.182  0.1472E-02  0.3948E-02  0.3050E-03
    -14.079  0.2403E-02  0.5767E-02  0.6782E-03
    -13.977  0.1376E-03  0.1081E-02  0.1300E-03
    -13.874  0.1103E-02  0.3301E-02  0.3632E-03
    -13.771  0.1613E-03  0.1392E-03  0.9380E-05
    -13.668  0.1106E-03  0.2388E-03  0.1040E-04
    -13.566  0.0000E+00  0.0000E+00  0.0000E+00
    -13.463  0.0000E+00  0.0000E+00  0.0000E+00
    -13.360  0.0000E+00  0.0000E+00  0.0000E+00
    -13.257  0.0000E+00  0.0000E+00  0.0000E+00
    -13.154  0.0000E+00  0.0000E+00  0.0000E+00
    -13.052  0.0000E+00  0.0000E+00  0.0000E+00
    -12.949  0.0000E+00  0.0000E+00  0.0000E+00
    -12.846  0.0000E+00  0.0000E+00  0.0000E+00
    -12.743  0.0000E+00  0.0000E+00  0.0000E+00
    -12.641  0.0000E+00  0.0000E+00  0.0000E+00
    -12.538  0.0000E+00  0.0000E+00  0.0000E+00
    -12.435  0.0000E+00  0.0000E+00  0.0000E+00
    -12.332  0.0000E+00  0.0000E+00  0.0000E+00
    -12.229  0.0000E+00  0.0000E+00  0.0000E+00
    -12.127  0.0000E+00  0.0000E+00  0.0000E+00
    -12.024  0.0000E+00  0.0000E+00  0.0000E+00
    -11.921  0.0000E+00  0.0000E+00  0.0000E+00
    -11.818  0.0000E+00  0.0000E+00  0.0000E+00
    -11.715  0.0000E+00  0.0000E+00  0.0000E+00
    -11.613  0.0000E+00  0.0000E+00  0.0000E+00
    -11.510  0.0000E+00  0.0000E+00  0.0000E+00
    -11.407  0.0000E+00  0.0000E+00  0.0000E+00
    -11.304  0.0000E+00  0.0000E+00  0.0000E+00
    -11.202  0.0000E+00  0.0000E+00  0.0000E+00
    -11.099  0.0000E+00  0.0000E+00  0.0000E+00
    -10.996  0.0000E+00  0.0000E+00  0.0000E+00
    -10.893  0.0000E+00  0.0000E+00  0.0000E+00
    -10.790  0.0000E+00  0.0000E+00  0.0000E+00
    -10.688  0.0000E+00  0.0000E+00  0.0000E+00
    -10.585  0.0000E+00  0.0000E+00  0.0000E+00
    -10.482  0.0000E+00  0.0000E+00  0.0000E+00
    -10.379  0.0000E+00  0.0000E+00  0.0000E+00
    -10.276  0.0000E+00  0.0000E+00  0.0000E+00
    -10.174  0.0000E+00  0.0000E+00  0.0000E+00
    -10.071  0.0000E+00  0.0000E+00  0.0000E+00
     -9.968  0.0000E+00  0.0000E+00  0.0000E+00
     -9.865  0.0000E+00  0.0000E+00  0.0000E+00
     -9.763  0.0000E+00  0.0000E+00  0.0000E+00
     -9.660  0.0000E+00  0.0000E+00  0.0000E+00
     -9.557  0.0000E+00  0.0000E+00  0.0000E+00
     -9.454  0.0000E+00  0.0000E+00  0.0000E+00
     -9.351  0.0000E+00  0.0000E+00  0.0000E+00
     -9.249  0.0000E+00  0.0000E+00  0.0000E+00
     -9.146  0.0000E+00  0.0000E+00  0.0000E+00
     -9.043  0.0000E+00  0.0000E+00  0.0000E+00
     -8.940  0.0000E+00  0.0000E+00  0.0000E+00
     -8.838  0.0000E+00  0.0000E+00  0.0000E+00
     -8.735  0.0000E+00  0.0000E+00  0.0000E+00
     -8.632  0.0000E+00  0.0000E+00  0.0000E+00
     -8.529  0.0000E+00  0.0000E+00  0.0000E+00
     -8.426  0.2406E-12  0.6983E-04  0.3836E-05
     -8.324  0.1185E-13  0.1484E-06  0.7070E-07
     -8.221  0.2175E-11  0.7051E-03  0.7406E-05
     -8.118  0.2296E-08  0.5348E-02  0.2883E-04
     -8.015  0.8722E-05  0.9753E-02  0.2894E-04
     -7.912  0.1753E-03  0.1282E+00  0.1008E-03
     -7.810  0.4198E-04  0.8143E-01  0.8312E-04
     -7.707  0.1290E-05  0.2131E-01  0.1492E-04
     -7.604  0.8962E-05  0.8104E-01  0.6446E-04
     -7.501  0.1931E-04  0.3342E+00  0.3052E-04
     -7.399  0.5172E-04  0.1763E+02  0.3516E-04
     -7.296  0.5044E-04  0.9236E+01  0.8136E-04
     -7.193  0.3850E-04  0.4116E+00  0.3211E-04
     -7.090  0.2833E-04  0.3957E-01  0.7131E-05
     -6.987  0.4641E-04  0.3226E-01  0.1618E-04
     -6.885  0.2812E-04  0.1438E-01  0.1361E-04
     -6.782  0.4332E-19  0.2659E-17  0.7437E-20
     -6.679  0.4590E-04  0.2818E-02  0.7880E-05
     -6.576  0.0000E+00  0.0000E+00  0.0000E+00
     -6.474  0.0000E+00  0.0000E+00  0.0000E+00
     -6.371  0.0000E+00  0.0000E+00  0.0000E+00
     -6.268  0.0000E+00  0.0000E+00  0.0000E+00
     -6.165  0.0000E+00  0.0000E+00  0.0000E+00
     -6.062  0.0000E+00  0.0000E+00  0.0000E+00
     -5.960  0.0000E+00  0.0000E+00  0.0000E+00
     -5.857  0.0000E+00  0.0000E+00  0.0000E+00
     -5.754  0.0000E+00  0.0000E+00  0.0000E+00
     -5.651  0.0000E+00  0.0000E+00  0.0000E+00
     -5.548  0.0000E+00  0.0000E+00  0.0000E+00
     -5.446  0.0000E+00  0.0000E+00  0.0000E+00
     -5.343  0.0000E+00  0.0000E+00  0.0000E+00
     -5.240  0.0000E+00  0.0000E+00  0.0000E+00
     -5.137  0.0000E+00  0.0000E+00  0.0000E+00
     -5.035  0.0000E+00  0.0000E+00  0.0000E+00
     -4.932  0.0000E+00  0.0000E+00  0.0000E+00
     -4.829  0.0000E+00  0.0000E+00  0.0000E+00
     -4.726  0.0000E+00  0.0000E+00  0.0000E+00
     -4.623  0.0000E+00  0.0000E+00  0.0000E+00
     -4.521  0.0000E+00  0.0000E+00  0.0000E+00
     -4.418  0.0000E+00  0.0000E+00  0.0000E+00
     -4.315  0.0000E+00  0.0000E+00  0.0000E+00
     -4.212  0.0000E+00  0.0000E+00  0.0000E+00
     -4.109  0.0000E+00  0.0000E+00  0.0000E+00
     -4.007  0.0000E+00  0.0000E+00  0.0000E+00
     -3.904  0.0000E+00  0.0000E+00  0.0000E+00
     -3.801  0.0000E+00  0.0000E+00  0.0000E+00
     -3.698  0.2246E-13  0.2406E-11  0.9947E-13
     -3.596  0.1218E-03  0.1577E-01  0.1299E-02
     -3.493  0.1793E-11  0.2486E-02  0.5304E-03
     -3.390  0.7721E-06  0.8167E-02  0.2863E-03
     -3.287  0.5327E-03  0.2199E-01  0.2059E-02
     -3.184  0.3989E-04  0.2188E-02  0.4451E-03
     -3.082  0.1566E-03  0.6569E-02  0.3132E-03
     -2.979  0.2668E-05  0.7407E-02  0.3466E-03
     -2.876  0.6321E-04  0.5482E-02  0.6711E-03
     -2.773  0.1920E-02  0.2576E-01  0.2403E-02
     -2.671  0.6123E-03  0.2351E-01  0.1462E-02
     -2.568  0.1366E-02  0.1547E-01  0.2618E-02
     -2.465  0.3694E-02  0.2222E-01  0.3213E-02
     -2.362  0.8421E-02  0.3821E-01  0.6735E-02
     -2.259  0.1574E-01  0.2203E-01  0.3105E-02
     -2.157  0.9255E-02  0.2069E-01  0.1943E-02
     -2.054  0.2199E-02  0.3844E-01  0.5371E-02
     -1.951  0.6495E-02  0.1651E+00  0.9473E-02
     -1.848  0.4210E-02  0.7795E-01  0.1086E-01
     -1.745  0.2013E-02  0.6876E-01  0.1188E-01
     -1.643  0.4491E-02  0.6177E-01  0.1107E-01
     -1.540  0.3457E-02  0.7473E-01  0.2053E-01
     -1.437  0.4859E-02  0.1251E+00  0.1710E-01
     -1.334  0.3242E-02  0.7041E-01  0.1229E-01
     -1.232  0.1803E-02  0.5267E-01  0.9197E-02
     -1.129  0.1197E-02  0.4865E-01  0.7722E-02
     -1.026  0.1052E-02  0.2114E-01  0.4359E-02
     -0.923  0.6473E-03  0.1590E-01  0.3146E-02
     -0.820  0.4346E-03  0.1013E-01  0.2261E-02
     -0.718  0.1186E-03  0.7137E-02  0.2771E-02
     -0.615  0.1892E-03  0.1793E-02  0.9517E-03
     -0.512  0.4771E-10  0.2156E-03  0.3677E-03
     -0.409  0.4808E-04  0.1504E-02  0.4273E-03
     -0.306  0.1293E-04  0.1460E-02  0.1063E-02
     -0.204  0.8385E-11  0.1427E-03  0.2858E-03
     -0.101  0.1534E-04  0.8049E-03  0.3335E-03
      0.002  0.3935E-11  0.4480E-03  0.4221E-03
      0.105  0.0000E+00  0.0000E+00  0.0000E+00
      0.207  0.1974E-21  0.1093E-13  0.3288E-13
      0.310  0.1725E-11  0.9553E-04  0.2873E-03
      0.413  0.0000E+00  0.0000E+00  0.0000E+00
      0.516  0.0000E+00  0.0000E+00  0.0000E+00
      0.619  0.0000E+00  0.0000E+00  0.0000E+00
      0.721  0.0000E+00  0.0000E+00  0.0000E+00
      0.824  0.0000E+00  0.0000E+00  0.0000E+00
      0.927  0.0000E+00  0.0000E+00  0.0000E+00
      1.030  0.0000E+00  0.0000E+00  0.0000E+00
      1.132  0.0000E+00  0.0000E+00  0.0000E+00
      1.235  0.0000E+00  0.0000E+00  0.0000E+00
      1.338  0.0000E+00  0.0000E+00  0.0000E+00
      1.441  0.0000E+00  0.0000E+00  0.0000E+00
      1.544  0.0000E+00  0.0000E+00  0.0000E+00
      1.646  0.0000E+00  0.0000E+00  0.0000E+00
      1.749  0.0000E+00  0.0000E+00  0.0000E+00
      1.852  0.0000E+00  0.0000E+00  0.0000E+00
      1.955  0.0000E+00  0.0000E+00  0.0000E+00
      2.058  0.0000E+00  0.0000E+00  0.0000E+00
      2.160  0.0000E+00  0.0000E+00  0.0000E+00
      2.263  0.0000E+00  0.0000E+00  0.0000E+00
      2.366  0.0000E+00  0.0000E+00  0.0000E+00
      2.469  0.0000E+00  0.0000E+00  0.0000E+00
      2.571  0.6851E-11  0.6510E-06  0.1047E-02
      2.674  0.3030E-04  0.6951E-04  0.5344E-03
      2.777  0.1057E-03  0.1775E-02  0.2936E-02
      2.880  0.1324E-03  0.7752E-03  0.1669E-02
      2.983  0.1649E-03  0.4269E-02  0.3187E-02
      3.085  0.6836E-03  0.1884E-02  0.1484E-02
      3.188  0.7623E-03  0.2683E-02  0.1793E-02
      3.291  0.3411E-03  0.2293E-04  0.2627E-03
      3.394  0.8980E-03  0.1623E-02  0.2267E-02
      3.497  0.5973E-03  0.5309E-03  0.4001E-03
      3.599  0.3422E-06  0.1101E-04  0.3312E-04
      3.702  0.1816E-04  0.2711E-03  0.2119E-02
      3.805  0.1246E-10  0.1817E-03  0.3471E-03
      3.908  0.2484E-09  0.3188E-03  0.1081E-02
      4.010  0.2475E-03  0.8686E-03  0.7407E-02
      4.113  0.9432E-04  0.1079E-02  0.4069E-02
      4.216  0.1230E-02  0.3493E-02  0.8798E-02
      4.319  0.1031E-02  0.3768E-02  0.9383E-02
      4.422  0.6313E-03  0.3850E-02  0.1083E-01
      4.524  0.2483E-02  0.5404E-02  0.8526E-02
      4.627  0.5436E-02  0.6181E-02  0.6520E-02
      4.730  0.4401E-02  0.3489E-02  0.1046E-01
      4.833  0.1053E-01  0.4323E-02  0.1038E-01
      4.935  0.0000E+00  0.0000E+00  0.0000E+00
      5.038  0.4861E-03  0.2372E-04  0.3520E-03
      5.141  0.5550E-03  0.2036E-03  0.7386E-03
      5.244  0.1644E-06  0.1360E-04  0.4924E-04
      5.347  0.1404E-01  0.2878E-02  0.9737E-02
      5.449  0.2285E-01  0.1085E-02  0.1023E-01
      5.552  0.5659E-02  0.4650E-02  0.1961E-01
      5.655  0.1428E-02  0.2892E-02  0.1603E-01
      5.758  0.3728E-02  0.5480E-03  0.3553E-01
      5.861  0.1540E-01  0.6199E-03  0.1213E-01
      5.963  0.4134E-01  0.6862E-02  0.1345E+00
      6.066  0.1066E-01  0.2015E-01  0.1352E+00
      6.169  0.1117E+00  0.9209E-02  0.4420E+00
      6.272  0.2248E-01  0.1639E-01  0.3066E+00
      6.374  0.6152E-02  0.9733E-02  0.2988E+00
      6.477  0.2323E-01  0.2073E-01  0.5666E+00
      6.580  0.1139E-01  0.1839E-01  0.2916E+00
      6.683  0.3152E-03  0.3809E-02  0.9317E-01
      6.786  0.0000E+00  0.0000E+00  0.0000E+00
      6.888  0.0000E+00  0.0000E+00  0.0000E+00
      6.991  0.0000E+00  0.0000E+00  0.0000E+00
      7.094  0.0000E+00  0.0000E+00  0.0000E+00
      7.197  0.0000E+00  0.0000E+00  0.0000E+00
      7.299  0.0000E+00  0.0000E+00  0.0000E+00
      7.402  0.0000E+00  0.0000E+00  0.0000E+00
      7.505  0.0000E+00  0.0000E+00  0.0000E+00
      7.608  0.0000E+00  0.0000E+00  0.0000E+00
      7.711  0.0000E+00  0.0000E+00  0.0000E+00
      7.813  0.0000E+00  0.0000E+00  0.0000E+00
      7.916  0.0000E+00  0.0000E+00  0.0000E+00
      8.019  0.0000E+00  0.0000E+00  0.0000E+00
      8.01897682    -22.81608285  301      0.33590778      1.00000000
    -22.816  0.0000E+00  0.0000E+00  0.0000E+00
    -22.713  0.0000E+00  0.0000E+00  0.0000E+00
    -22.611  0.0000E+00  0.0000E+00  0.0000E+00
    -22.508  0.0000E+00  0.0000E+00  0.0000E+00
    -22.405  0.0000E+00  0.0000E+00  0.0000E+00
    -22.302  0.0000E+00  0.0000E+00  0.0000E+00
    -22.199  0.0000E+00  0.0000E+00  0.0000E+00
    -22.097  0.0000E+00  0.0000E+00  0.0000E+00
    -21.994  0.0000E+00  0.0000E+00  0.0000E+00
    -21.891  0.0000E+00  0.0000E+00  0.0000E+00
    -21.788  0.0000E+00  0.0000E+00  0.0000E+00
    -21.685  0.0000E+00  0.0000E+00  0.0000E+00
    -21.583  0.0000E+00  0.0000E+00  0.0000E+00
    -21.480  0.0000E+00  0.0000E+00  0.0000E+00
    -21.377  0.1276E-07  0.2405E-08  0.7781E-10
    -21.274  0.0000E+00  0.0000E+00  0.0000E+00
    -21.172  0.0000E+00  0.0000E+00  0.0000E+00
    -21.069  0.0000E+00  0.0000E+00  0.0000E+00
    -20.966  0.4208E-04  0.9328E-08  0.1469E-08
    -20.863  0.3046E-05  0.4156E-08  0.7414E-09
    -20.760  0.1727E+02  0.5748E-04  0.2546E-06
    -20.658  0.0000E+00  0.0000E+00  0.0000E+00
    -20.555  0.0000E+00  0.0000E+00  0.0000E+00
    -20.452  0.0000E+00  0.0000E+00  0.0000E+00
    -20.349  0.0000E+00  0.0000E+00  0.0000E+00
    -20.246  0.0000E+00  0.0000E+00  0.0000E+00
    -20.144  0.0000E+00  0.0000E+00  0.0000E+00
    -20.041  0.0000E+00  0.0000E+00  0.0000E+00
    -19.938  0.0000E+00  0.0000E+00  0.0000E+00
    -19.835  0.0000E+00  0.0000E+00  0.0000E+00
    -19.733  0.0000E+00  0.0000E+00  0.0000E+00
    -19.630  0.0000E+00  0.0000E+00  0.0000E+00
    -19.527  0.0000E+00  0.0000E+00  0.0000E+00
    -19.424  0.0000E+00  0.0000E+00  0.0000E+00
    -19.321  0.0000E+00  0.0000E+00  0.0000E+00
    -19.219  0.0000E+00  0.0000E+00  0.0000E+00
    -19.116  0.0000E+00  0.0000E+00  0.0000E+00
    -19.013  0.0000E+00  0.0000E+00  0.0000E+00
    -18.910  0.0000E+00  0.0000E+00  0.0000E+00
    -18.808  0.0000E+00  0.0000E+00  0.0000E+00
    -18.705  0.0000E+00  0.0000E+00  0.0000E+00
    -18.602  0.0000E+00  0.0000E+00  0.0000E+00
    -18.499  0.0000E+00  0.0000E+00  0.0000E+00
    -18.396  0.0000E+00  0.0000E+00  0.0000E+00
    -18.294  0.0000E+00  0.0000E+00  0.0000E+00
    -18.191  0.0000E+00  0.0000E+00  0.0000E+00
    -18.088  0.0000E+00  0.0000E+00  0.0000E+00
    -17.985  0.0000E+00  0.0000E+00  0.0000E+00
    -17.882  0.0000E+00  0.0000E+00  0.0000E+00
    -17.780  0.0000E+00  0.0000E+00  0.0000E+00
    -17.677  0.0000E+00  0.0000E+00  0.0000E+00
    -17.574  0.0000E+00  0.0000E+00  0.0000E+00
    -17.471  0.0000E+00  0.0000E+00  0.0000E+00
    -17.369  0.0000E+00  0.0000E+00  0.0000E+00
    -17.266  0.0000E+00  0.0000E+00  0.0000E+00
    -17.163  0.0000E+00  0.0000E+00  0.0000E+00
    -17.060  0.0000E+00  0.0000E+00  0.0000E+00
    -16.957  0.0000E+00  0.0000E+00  0.0000E+00
    -16.855  0.1281E-15  0.2836E-16  0.5718E-17
    -16.752  0.9714E-04  0.4459E-04  0.7436E-05
    -16.649  0.8662E-05  0.2870E-04  0.6252E-05
    -16.546  0.6711E-04  0.4656E-04  0.8034E-05
    -16.444  0.1294E-04  0.3432E-04  0.6261E-05
    -16.341  0.5844E-04  0.3037E-04  0.3389E-05
    -16.238  0.0000E+00  0.0000E+00  0.0000E+00
    -16.135  0.0000E+00  0.0000E+00  0.0000E+00
    -16.032  0.0000E+00  0.0000E+00  0.0000E+00
    -15.930  0.0000E+00  0.0000E+00  0.0000E+00
    -15.827  0.0000E+00  0.0000E+00  0.0000E+00
    -15.724  0.0000E+00  0.0000E+00  0.0000E+00
    -15.621  0.0000E+00  0.0000E+00  0.0000E+00
    -15.518  0.0000E+00  0.0000E+00  0.0000E+00
    -15.416  0.0000E+00  0.0000E+00  0.0000E+00
    -15.313  0.0000E+00  0.0000E+00  0.0000E+00
    -15.210  0.0000E+00  0.0000E+00  0.0000E+00
    -15.107  0.0000E+00  0.0000E+00  0.0000E+00
    -15.005  0.0000E+00  0.0000E+00  0.0000E+00
    -14.902  0.0000E+00  0.0000E+00  0.0000E+00
    -14.799  0.0000E+00  0.0000E+00  0.0000E+00
    -14.696  0.6804E-18  0.1655E-18  0.3615E-20
    -14.593  0.3095E-02  0.1247E-02  0.2666E-04
    -14.491  0.1740E-02  0.2253E-02  0.1255E-03
    -14.388  0.1307E-02  0.5073E-02  0.3560E-03
    -14.285  0.2079E-02  0.2356E-02  0.5007E-04
    -14.182  0.1622E-02  0.4241E-02  0.2320E-03
    -14.079  0.1195E-02  0.3845E-02  0.3341E-03
    -13.977  0.5220E-03  0.1123E-02  0.2020E-03
    -13.874  0.8455E-03  0.3908E-02  0.5545E-03
    -13.771  0.5305E-04  0.9395E-04  0.3250E-04
    -13.668  0.6372E-05  0.1393E-03  0.5799E-04